Siesta Version  : 4.1.5
Architecture    : x86_64-unknown-linux-gnu--unknown
Compiler version: GNU Fortran (GCC) 11.3.0
Compiler flags  : mpif90 -g -O2 -fallow-argument-mismatch
PP flags        : -DMPI -DFC_HAVE_FLUSH -DFC_HAVE_ABORT
Libraries       :  -I/global/software/sl-7.x86_64/modules/intel/2020.4.304/mkl/include  /globall/software/sl-7.x86_64/modules/intel/2020.4.304/mkl/lib/intel64/libmkl_scalapack_lp64.a -Wl,--start-group /global/software/sl-7.x86_64/modules/intel/2020.4.304/mkl/lib/intel64/libmkl_intel_lp64.a /global/software/sl-7.x86_64/modules/intel/2020.4.304/mkl/lib/intel64/libmkl_sequential.a /global/software/sl-7.x86_64/modules/intel/2020.4.304/mkl/lib/intel64/libmkl_core.a /global/software/sl-7.x86_64/modules/intel/2020.4.304/mkl/lib/intel64/libmkl_blacs_openmpi_lp64.a -Wl,--end-group -lpthread -lm -ldl
PARALLEL version

* Running on 4 nodes in parallel
>> Start of run:   9-NOV-2022  10:40:12

                           ***********************       
                           *  WELCOME TO SIESTA  *       
                           ***********************       

reinit: Reading from standard input
reinit: Dumped input in INPUT_TMP.79320
************************** Dump of input data file ****************************
SystemName LiC6_scf
SystemLabel LiC6_scf
NumberOfAtoms   7
NumberOfSpecies 2
%block ChemicalSpeciesLabel
1  3   Li-gga
2  6   C-gga
%endblock ChemicalSpeciesLabel
PAO.BasisSize  DZ
PAO.EnergyShift  10 meV
%block PS.Lmax
C-gga   2
Li-gga  2
%endblock PS.Lmax
LatticeConstant 1.000000 Ang
%block LatticeVectors
	4.3161300000	0.0000000000	0.0000000000
	-2.1580650000	3.7378782260	0.0000000000
	0.0000000000	0.0000000000	4.8838152000
%endblock LatticeVectors
AtomicCoordinatesFormat Ang
%block AtomicCoordinatesAndAtomicSpecies
	0.00000000	0.00000000	0.00000000	2
	-0.70288177	1.21742694	2.44190760	1
	-1.45518323	2.52045129	2.44190760	1
	1.45518323	2.52045129	2.44190760	1
	0.70288177	1.21742694	2.44190760	1
	1.40576354	0.00000000	2.44190760	1
	2.91036646	0.00000000	2.44190760	1
%endblock AtomicCoordinatesAndAtomicSpecies
Kgrid_NoTRS  T
%block kgrid_MonkhorstPack
4       0       0       0.0
0       4       0       0.0
0       0       4       0.0
%endblock kgrid_MonkhorstPack
AtomCoorFormatOut Ang
BlockSize 1
#ProcessorY 12
Diag.ParallelOverK   T
Diag.DivideAndConquer F
MeshCutoff   300 Ry
SCF.FreeE.Tolerance 1E-3 eV
SCF.EDM.Tolerance   5E-3 eV
DM.Tolerance  1E-3
DM.Require.Energy.Convergence T
DM.NumberPulay 4
XC.Functional GGA
XC.Authors    PBE
UseSaveData        F
MD.TypeOfRun       CG
MD.VariableCell    F
MD.NumCGsteps      00
MD.MaxCGDispl      0.200000 Bohr
MD.MaxStressTol    1.000000 GPa
MD.MaxForceTol     0.010000 eV/Ang
WriteMDHistory T
WriteCoorStep T
WriteForces T
WriteCoorStep    T
WriteEigenValues T
WriteDM    F
MM.UnitsDistance Ang  # what this program prints out DO NOT CHANGE
MM.UnitsEnergy    eV  # what this program prints out DO NOT CHANGE
MM.Grimme.S6     0.75 # Grimme-paper for PBE (correct for your functional)
MM.Grimme.D     20.   # Grimme-paper (correct for your functional)
%block MM.Potentials
  1   1 Grimme     16.69      1.650 # Li, 10.1002/jcc.20495
  1   2 Grimme     17.40      2.277 # Li / C
  2   2 Grimme     18.14      2.904 # C, 10.1002/jcc.20495
%endblock MM.Potentials
#%block ProjectedDensityOfStates
# -200.0  120.0  0.4  12800  eV
#%endblock ProjectedDensityOfStates
************************** End of input data file *****************************

reinit: -----------------------------------------------------------------------
reinit: System Name: LiC6_scf
reinit: -----------------------------------------------------------------------
reinit: System Label: LiC6_scf
reinit: -----------------------------------------------------------------------
Reading two-body potentials
Grimme - two-body potential between 1 and 1
Grimme - two-body potential between 1 and 2
Grimme - two-body potential between 2 and 2

initatom: Reading input for the pseudopotentials and atomic orbitals ----------
Species number:   1 Atomic number:    3 Label: Li-gga
Species number:   2 Atomic number:    6 Label: C-gga

Ground state valence configuration:   2s01
Reading pseudopotential information in formatted form from Li-gga.psf

Valence configuration for pseudopotential generation:
2s( 1.00) rc: 2.28
2p( 0.00) rc: 2.28
3d( 0.00) rc: 2.59
4f( 0.00) rc: 2.59
Ground state valence configuration:   2s02  2p02
Reading pseudopotential information in formatted form from C-gga.psf

Valence configuration for pseudopotential generation:
2s( 2.00) rc: 1.56
2p( 2.00) rc: 1.56
3d( 0.00) rc: 1.56
4f( 0.00) rc: 1.56
relmxkb: Read Max KB Ang. Momentum=    2 for species C-gga
relmxkb: Read Max KB Ang. Momentum=    2 for species Li-gga

<basis_specs>
===============================================================================
Li-gga               Z=   3    Mass=  6.9400        Charge= 0.17977+309
Lmxo=0 Lmxkb= 2    BasisType=split      Semic=F
L=0  Nsemic=0  Cnfigmx=2
          i=1  nzeta=2  polorb=0  (2s)
            splnorm:   0.15000    
               vcte:    0.0000    
               rinn:    0.0000    
               qcoe:    0.0000    
               qyuk:    0.0000    
               qwid:   0.10000E-01
                rcs:    0.0000      0.0000    
            lambdas:    1.0000      1.0000    
-------------------------------------------------------------------------------
L=0  Nkbl=1  erefs: 0.17977+309
L=1  Nkbl=1  erefs: 0.17977+309
L=2  Nkbl=1  erefs: 0.17977+309
===============================================================================
</basis_specs>

atom: Called for Li-gga                (Z =   3)

read_vps: Pseudopotential generation method:
read_vps: ATM 3.2.2 Troullier-Martins                       
Valence charge for ps generation:    1.00000

read_vps: Pseudopotential includes a core correction:
read_vps: Pseudo-core for xc-correction

xc_check: Exchange-correlation functional:
xc_check: GGA Perdew, Burke & Ernzerhof 1996
V l=0 = -2*Zval/r beyond r=  2.2278
V l=1 = -2*Zval/r beyond r=  2.2278
V l=2 = -2*Zval/r beyond r=  2.5245
All V_l potentials equal beyond r=  2.4622
This should be close to max(r_c) in ps generation
All pots = -2*Zval/r beyond r=  2.5245

VLOCAL1: 99.0% of the norm of Vloc inside      7.160 Ry
VLOCAL1: 99.9% of the norm of Vloc inside     16.318 Ry
atom: Maximum radius for 4*pi*r*r*local-pseudopot. charge    2.86079
atom: Maximum radius for r*vlocal+2*Zval:    2.43160
GHOST: No ghost state for L =  0
GHOST: No ghost state for L =  1
GHOST: No ghost state for L =  2

KBgen: Kleinman-Bylander projectors: 
   l= 0   rc=  2.654023   el= -0.211234   Ekb=  1.742119   kbcos=  0.228463
   l= 1   rc=  2.721230   el= -0.080095   Ekb= -1.122375   kbcos= -0.147941
   l= 2   rc=  2.825246   el=  0.002001   Ekb= -0.207076   kbcos= -0.031965

KBgen: Total number of Kleinman-Bylander projectors:    9
atom: -------------------------------------------------------------------------

atom: SANKEY-TYPE ORBITALS:
atom: Selected multiple-zeta basis: split     

SPLIT: Orbitals with angular momentum L= 0

SPLIT: Basis orbitals for state 2s

SPLIT: PAO cut-off radius determined from an
SPLIT: energy shift=  0.000735 Ry

   izeta = 1
                 lambda =    1.000000
                     rc =   11.897381
                 energy =   -0.210580
                kinetic =    0.143382
    potential(screened) =   -0.353962
       potential(ionic) =   -0.533453

   izeta = 2
                 rmatch =    8.489163
              splitnorm =    0.150000
                 energy =   -0.186081
                kinetic =    0.225882
    potential(screened) =   -0.411964
       potential(ionic) =   -0.593024
atom: Total number of Sankey-type orbitals:  2

atm_pop: Valence configuration (for local Pseudopot. screening):
 2s( 1.00)                                                            
Vna: chval, zval:    1.00000   1.00000

Vna:  Cut-off radius for the neutral-atom potential:  11.897381
comcore: Pseudo-core radius Rcore=  3.450946

atom: _________________________________________________________________________

<basis_specs>
===============================================================================
C-gga                Z=   6    Mass=  12.010        Charge= 0.17977+309
Lmxo=1 Lmxkb= 2    BasisType=split      Semic=F
L=0  Nsemic=0  Cnfigmx=2
          i=1  nzeta=2  polorb=0  (2s)
            splnorm:   0.15000    
               vcte:    0.0000    
               rinn:    0.0000    
               qcoe:    0.0000    
               qyuk:    0.0000    
               qwid:   0.10000E-01
                rcs:    0.0000      0.0000    
            lambdas:    1.0000      1.0000    
L=1  Nsemic=0  Cnfigmx=2
          i=1  nzeta=2  polorb=0  (2p)
            splnorm:   0.15000    
               vcte:    0.0000    
               rinn:    0.0000    
               qcoe:    0.0000    
               qyuk:    0.0000    
               qwid:   0.10000E-01
                rcs:    0.0000      0.0000    
            lambdas:    1.0000      1.0000    
-------------------------------------------------------------------------------
L=0  Nkbl=1  erefs: 0.17977+309
L=1  Nkbl=1  erefs: 0.17977+309
L=2  Nkbl=1  erefs: 0.17977+309
===============================================================================
</basis_specs>

atom: Called for C-gga                 (Z =   6)

read_vps: Pseudopotential generation method:
read_vps: ATM 3.2.2 Troullier-Martins                       
Valence charge for ps generation:    4.00000

xc_check: Exchange-correlation functional:
xc_check: GGA Perdew, Burke & Ernzerhof 1996
V l=0 = -2*Zval/r beyond r=  1.5227
V l=1 = -2*Zval/r beyond r=  1.5227
V l=2 = -2*Zval/r beyond r=  1.5227
All V_l potentials equal beyond r=  1.4851
This should be close to max(r_c) in ps generation
All pots = -2*Zval/r beyond r=  1.5227

VLOCAL1: 99.0% of the norm of Vloc inside     19.682 Ry
VLOCAL1: 99.9% of the norm of Vloc inside     44.856 Ry
atom: Maximum radius for 4*pi*r*r*local-pseudopot. charge    1.79142
atom: Maximum radius for r*vlocal+2*Zval:    1.54183
GHOST: No ghost state for L =  0
GHOST: No ghost state for L =  1
GHOST: No ghost state for L =  2

KBgen: Kleinman-Bylander projectors: 
   l= 0   rc=  1.661951   el= -1.010689   Ekb=  5.289847   kbcos=  0.316429
   l= 1   rc=  1.661951   el= -0.388490   Ekb= -4.102504   kbcos= -0.351025
   l= 2   rc=  1.747182   el=  0.001971   Ekb= -1.006005   kbcos= -0.008530

KBgen: Total number of Kleinman-Bylander projectors:    9
atom: -------------------------------------------------------------------------

atom: SANKEY-TYPE ORBITALS:
atom: Selected multiple-zeta basis: split     

SPLIT: Orbitals with angular momentum L= 0

SPLIT: Basis orbitals for state 2s

SPLIT: PAO cut-off radius determined from an
SPLIT: energy shift=  0.000735 Ry

   izeta = 1
                 lambda =    1.000000
                     rc =    5.948690
                 energy =   -1.010099
                kinetic =    0.827121
    potential(screened) =   -1.837220
       potential(ionic) =   -5.392783

   izeta = 2
                 rmatch =    3.518811
              splitnorm =    0.150000
                 energy =   -0.877891
                kinetic =    1.289227
    potential(screened) =   -2.167118
       potential(ionic) =   -5.982073

SPLIT: Orbitals with angular momentum L= 1

SPLIT: Basis orbitals for state 2p

SPLIT: PAO cut-off radius determined from an
SPLIT: energy shift=  0.000735 Ry

   izeta = 1
                 lambda =    1.000000
                     rc =    7.638387
                 energy =   -0.387843
                kinetic =    2.314739
    potential(screened) =   -2.702582
       potential(ionic) =   -6.092371

   izeta = 2
                 rmatch =    3.840617
              splitnorm =    0.150000
                 energy =   -0.270479
                kinetic =    3.438347
    potential(screened) =   -3.708826
       potential(ionic) =   -7.497707
atom: Total number of Sankey-type orbitals:  8

atm_pop: Valence configuration (for local Pseudopot. screening):
 2s( 2.00)                                                            
 2p( 2.00)                                                            
Vna: chval, zval:    4.00000   4.00000

Vna:  Cut-off radius for the neutral-atom potential:   7.638387

atom: _________________________________________________________________________

prinput: Basis input ----------------------------------------------------------

PAO.BasisType split     

%block ChemicalSpeciesLabel
    1    3 Li-gga                  # Species index, atomic number, species label
    2    6 C-gga                   # Species index, atomic number, species label
%endblock ChemicalSpeciesLabel

%block PAO.Basis                 # Define Basis set
Li-gga                1                    # Species label, number of l-shells
 n=2   0   2                         # n, l, Nzeta 
  11.897      8.489   
   1.000      1.000   
C-gga                 2                    # Species label, number of l-shells
 n=2   0   2                         # n, l, Nzeta 
   5.949      3.519   
   1.000      1.000   
 n=2   1   2                         # n, l, Nzeta 
   7.638      3.841   
   1.000      1.000   
%endblock PAO.Basis

prinput: ----------------------------------------------------------------------

coor:   Atomic-coordinates input format  =     Cartesian coordinates
coor:                                          (in Angstroms)

siesta: Atomic coordinates (Bohr) and species
siesta:      0.00000   0.00000   0.00000  2        1
siesta:     -1.32825   2.30060   4.61454  1        2
siesta:     -2.74990   4.76296   4.61454  1        3
siesta:      2.74990   4.76296   4.61454  1        4
siesta:      1.32825   2.30060   4.61454  1        5
siesta:      2.65651   0.00000   4.61454  1        6
siesta:      5.49980   0.00000   4.61454  1        7

siesta: System type = bulk      

initatomlists: Number of atoms, orbitals, and projectors:      7    20    63

siesta: ******************** Simulation parameters ****************************
siesta:
siesta: The following are some of the parameters of the simulation.
siesta: A complete list of the parameters used, including default values,
siesta: can be found in file out.fdf
siesta:
redata: Spin configuration                          = none
redata: Number of spin components                   = 1
redata: Time-Reversal Symmetry                      = T
redata: Spin spiral                                 = F
redata: Long output                                 =   F
redata: Number of Atomic Species                    =        2
redata: Charge density info will appear in .RHO file
redata: Write Mulliken Pop.                         = NO
redata: Matel table size (NRTAB)                    =     1024
redata: Mesh Cutoff                                 =   300.0000 Ry
redata: Net charge of the system                    =     0.0000 |e|
redata: Min. number of SCF Iter                     =        0
redata: Max. number of SCF Iter                     =     1000
redata: SCF convergence failure will abort job
redata: SCF mix quantity                            = Hamiltonian
redata: Mix DM or H after convergence               =   F
redata: Recompute H after scf cycle                 =   F
redata: Mix DM in first SCF step                    =   T
redata: Write Pulay info on disk                    =   F
redata: New DM Occupancy tolerance                  = 0.000000000001
redata: No kicks to SCF
redata: DM Mixing Weight for Kicks                  =     0.5000
redata: Require Harris convergence for SCF          =   F
redata: Harris energy tolerance for SCF             =     0.000100 eV
redata: Require DM convergence for SCF              =   T
redata: DM tolerance for SCF                        =     0.001000
redata: Require EDM convergence for SCF             =   F
redata: EDM tolerance for SCF                       =     0.005000 eV
redata: Require H convergence for SCF               =   T
redata: Hamiltonian tolerance for SCF               =     0.001000 eV
redata: Require (free) Energy convergence for SCF   =   T
redata: (free) Energy tolerance for SCF             =     0.001000 eV
redata: Using Saved Data (generic)                  =   F
redata: Use continuation files for DM               =   F
redata: Neglect nonoverlap interactions             =   F
redata: Method of Calculation                       = Diagonalization
redata: Electronic Temperature                      =   299.9869 K
redata: Fix the spin of the system                  =   F
redata: Dynamics option                             = Single-point calculation
mix.SCF: Pulay mixing                            = Pulay
mix.SCF:    Variant                              = stable
mix.SCF:    History steps                        = 4
mix.SCF:    Linear mixing weight                 =     0.250000
mix.SCF:    Mixing weight                        =     0.250000
mix.SCF:    SVD condition                        = 0.1000E-07
redata: ***********************************************************************

%block SCF.Mixers
  Pulay
%endblock SCF.Mixers

%block SCF.Mixer.Pulay
  # Mixing method
  method pulay
  variant stable

  # Mixing options
  weight 0.2500
  weight.linear 0.2500
  history 4
%endblock SCF.Mixer.Pulay

DM_history_depth set to one: no extrapolation allowed by default for geometry relaxation
Size of DM history Fstack: 1
Total number of electrons:    10.000000
Total ionic charge:    10.000000

* ProcessorY, Blocksize:    2   1


* Orbital distribution balance (max,min):     5     5

k-point displ. along   1 input, could be:     0.00    0.50
k-point displ. along   2 input, could be:     0.00    0.50
k-point displ. along   3 input, could be:     0.00    0.50
 Kpoints in:           48 . Kpoints trimmed:           44

siesta: k-grid: Number of k-points =    44
siesta: k-grid: Cutoff (effective) =     8.632 Ang
siesta: k-grid: Supercell and displacements
siesta: k-grid:    4   0   0      0.000
siesta: k-grid:    0   4   0      0.000
siesta: k-grid:    0   0   4      0.000

diag: Algorithm                                     = Expert
diag: Parallel over k                               =   T
diag: Use parallel 2D distribution                  =   T
diag: Parallel block-size                           = 1
diag: Parallel distribution                         =     2 x     2
diag: Used triangular part                          = Lower
diag: Absolute tolerance                            =  0.100E-15
diag: Orthogonalization factor                      =  0.100E-05
diag: Memory factor                                 =  1.0000

superc: Internal auxiliary supercell:     9 x     9 x     5  =     405
superc: Number of atoms, orbitals, and projectors:   2835   8100  25515


ts: **************************************************************
ts: Save H and S matrices                           =    F
ts: Save DM and EDM matrices                        =    F
ts: Only save the overlap matrix S                  =    F
ts: **************************************************************

************************ Begin: TS CHECKS AND WARNINGS ************************
************************ End: TS CHECKS AND WARNINGS **************************


                     ====================================
                        Single-point calculation
                     ====================================

outcoor: Atomic coordinates (Ang):                          
    0.00000000    0.00000000    0.00000000   2       1  C-gga
   -0.70288177    1.21742694    2.44190760   1       2  Li-gga
   -1.45518323    2.52045129    2.44190760   1       3  Li-gga
    1.45518323    2.52045129    2.44190760   1       4  Li-gga
    0.70288177    1.21742694    2.44190760   1       5  Li-gga
    1.40576354    0.00000000    2.44190760   1       6  Li-gga
    2.91036646    0.00000000    2.44190760   1       7  Li-gga

superc: Internal auxiliary supercell:     9 x     9 x     5  =     405
superc: Number of atoms, orbitals, and projectors:   2835   8100  25515

outcell: Unit cell vectors (Ang):
        4.316130    0.000000    0.000000
       -2.158065    3.737878    0.000000
        0.000000    0.000000    4.883815

outcell: Cell vector modules (Ang)   :    4.316130    4.316130    4.883815
outcell: Cell angles (23,13,12) (deg):     90.0000     90.0000    120.0000
outcell: Cell volume (Ang**3)        :     78.7914
<dSpData1D:S at geom step 0
  <sparsity:sparsity for geom step 0
    nrows_g=20 nrows=5 sparsity=21.6675 nnzs=8667, refcount: 7>
  <dData1D:(new from dSpData1D) n=8667, refcount: 1>
refcount: 1>
new_DM -- step:     1
Initializing Density Matrix...
DM filled with atomic data:
<dSpData2D:DM initialized from atoms
  <sparsity:sparsity for geom step 0
    nrows_g=20 nrows=5 sparsity=21.6675 nnzs=8667, refcount: 8>
  <dData2D:DM n=8667 m=1, refcount: 1>
refcount: 1>
No. of atoms with KB's overlaping orbs in proc 0. Max # of overlaps:     235     259
New grid distribution:   1
           1       1:   20    1:   10    1:   14
           2       1:   20    1:   10   15:   27
           3       1:   20   11:   20    1:   14
           4       1:   20   11:   20   15:   27

InitMesh: MESH =    40 x    40 x    54 =       86400
InitMesh: (bp) =    20 x    20 x    27 =       10800
InitMesh: Mesh cutoff (required, used) =   300.000   316.498 Ry
ExtMesh (bp) on 0 =   156 x   146 x   154 =     3507504
New grid distribution:   2
           1       1:   20    1:   10    1:   13
           2       1:   20    1:   10   14:   27
           3       1:   20   11:   20    1:   13
           4       1:   20   11:   20   14:   27
New grid distribution:   3
           1       1:   20    1:   10    1:   14
           2       1:   20    1:   10   15:   27
           3       1:   20   11:   20    1:   14
           4       1:   20   11:   20   15:   27
Setting up quadratic distribution...
ExtMesh (bp) on 0 =   156 x   146 x   153 =     3484728
PhiOnMesh: Number of (b)points on node 0 =                 2600
PhiOnMesh: nlist on node 0 =               332593

stepf: Fermi-Dirac step function

siesta: Program's energy decomposition (eV):
siesta: Ebs     =      -113.763946
siesta: Eions   =       321.344870
siesta: Ena     =        94.146150
siesta: Ekin    =       123.679987
siesta: Enl     =        22.775832
siesta: Eso     =         0.000000
siesta: Edftu   =         0.000000
siesta: DEna    =         3.091629
siesta: DUscf   =         0.676563
siesta: DUext   =         0.000000
siesta: Exc     =       -96.122352
siesta: eta*DQ  =         0.000000
siesta: Emadel  =         0.000000
siesta: Emeta   =         0.000000
siesta: Emolmec =        -2.768982
siesta: Ekinion =         0.000000
siesta: Eharris =      -164.972103
siesta: Etot    =      -175.866043
siesta: FreeEng =      -175.881317

        iscf     Eharris(eV)        E_KS(eV)     FreeEng(eV)     dDmax    Ef(eV) dHmax(eV)
   scf:    1     -164.972103     -175.866043     -175.881317 38.968329 -8.487955  2.464927
timer: Routine,Calls,Time,% = IterSCF        1       1.330  26.56
   scf:    2     -176.195174     -176.137320     -176.157221  4.361658 -8.119079  0.163472
   scf:    3     -176.142553     -176.140070     -176.160162  0.097639 -8.134633  0.063858
   scf:    4     -176.144201     -176.142308     -176.162634  0.398357 -8.144826  0.038397
   scf:    5     -176.142149     -176.142270     -176.162664  0.154844 -8.138457  0.034854
   scf:    6     -176.142273     -176.142291     -176.162718  0.064020 -8.144227  0.000133
   scf:    7     -176.142290     -176.142290     -176.162718  0.000503 -8.144200  0.000270

SCF Convergence by FreeE+DM+H criterion
|FreeE_i-FreeE_(i-1)| (eV) <     0.00100000
max |DM_out - DM_in|         :     0.0005027939
max |H_out - H_in|      (eV) :     0.0002700403
SCF cycle converged after 7 iterations

Using DM_out to compute the final energy and forces
No. of atoms with KB's overlaping orbs in proc 0. Max # of overlaps:     235     259

MM-Stress (kbar):       -5.27       -5.27       39.05        0.00        0.00       -0.00

siesta: E_KS(eV) =             -176.1423

siesta: E_KS - E_eggbox =      -176.1423

siesta: Atomic forces (eV/Ang):
     1    0.000000   -0.000000    0.000000
     2   -0.041774    0.072373   -0.000000
     3    0.041774   -0.072373   -0.000000
     4   -0.041816   -0.072428   -0.000000
     5    0.041816    0.072428   -0.000000
     6    0.083564    0.000009   -0.000000
     7   -0.083564   -0.000009   -0.000000
----------------------------------------
   Tot   -0.000000    0.000000   -0.000000
----------------------------------------
   Max    0.083564
   Res    0.044679    sqrt( Sum f_i^2 / 3N )
----------------------------------------
   Max    0.083564    constrained

Stress tensor Voigt[x,y,z,yz,xz,xy] (kbar):    -1101.12    -1101.14      583.75       -0.00        0.00       -0.01
(Free)E + p*V (eV/cell)     -149.6316
Target enthalpy (eV/cell)     -176.1627

siesta: Eigenvalues (eV):
  ik is       eps
   1  1  -17.1229  -12.6636  -11.5881  -10.7691   -9.8803   -7.4193   -7.4157    0.3993    1.0013    5.7323
           6.2705    7.4863   11.9205   19.3623   19.6109   20.7154   34.6777   47.5157   48.9417   62.6775
   2  1  -17.2914  -12.3337  -11.2404  -10.0300   -8.2999   -7.2275   -2.6753   -1.1366   -0.2061    0.6232
           5.2460    8.5209   13.0698   18.1130   19.0160   19.9881   22.6984   42.6840   47.1415   55.3018
   3  1  -17.2914  -12.3337  -11.2404  -10.0300   -8.2999   -7.2274   -2.6752   -1.1367   -0.2061    0.6232
           5.2460    8.5210   13.0698   18.1129   19.0159   19.9882   22.6984   42.6840   47.1416   55.3018
   4  1  -17.1229  -12.6636  -11.5881  -10.7691   -9.8803   -7.4194   -7.4157    0.3994    1.0013    5.7321
           6.2706    7.4863   11.9205   19.3624   19.6109   20.7154   34.6777   47.5157   48.9417   62.6775
   5  1  -17.2914  -12.3337  -11.2404  -10.0300   -8.2999   -7.2275   -2.6753   -1.1366   -0.2061    0.6232
           5.2460    8.5209   13.0698   18.1130   19.0160   19.9881   22.6984   42.6840   47.1415   55.3018
   6  1  -17.4333  -11.7884  -11.6828   -7.9730   -7.9729   -2.6523   -1.0600    3.9973    3.9975    5.7759
           5.7760   11.3357   21.8667   21.8668   22.4324   22.4325   24.1845   29.5038   29.5039   87.9168
   7  1  -17.1143  -12.9037  -10.8986  -10.7688   -8.6222   -7.5292   -4.4189   -2.3403    1.0019    1.5362
           4.2769   12.8723   15.0887   19.0860   19.1821   22.9762   27.3564   27.4867   63.7903   76.6621
   8  1  -17.1229  -12.6636  -11.5881  -10.7691   -9.8803   -7.4194   -7.4157    0.3994    1.0013    5.7321
           6.2706    7.4863   11.9205   19.3624   19.6109   20.7154   34.6777   47.5157   48.9417   62.6775
   9  1  -17.1229  -12.6636  -11.5881  -10.7691   -9.8803   -7.4194   -7.4157    0.3994    1.0013    5.7321
           6.2706    7.4863   11.9205   19.3624   19.6109   20.7154   34.6777   47.5157   48.9417   62.6775
  10  1  -17.1143  -12.9037  -10.8986  -10.7688   -8.6222   -7.5292   -4.4189   -2.3403    1.0019    1.5362
           4.2769   12.8723   15.0887   19.0860   19.1821   22.9762   27.3564   27.4867   63.7903   76.6620
  11  1  -17.1229  -12.6636  -11.5881  -10.7691   -9.8803   -7.4194   -7.4157    0.3994    1.0013    5.7321
           6.2706    7.4863   11.9205   19.3624   19.6109   20.7154   34.6777   47.5157   48.9417   62.6775
  12  1  -17.1143  -12.9037  -10.8986  -10.7688   -8.6222   -7.5292   -4.4189   -2.3404    1.0019    1.5363
           4.2769   12.8722   15.0887   19.0859   19.1821   22.9762   27.3565   27.4867   63.7903   76.6621
  13  1  -16.9644  -12.5370  -11.8715  -11.2402   -8.8112   -8.1280   -7.6617   -3.6138    1.2184    1.7637
           5.8989    8.0090    9.8819   11.3921   14.1716   19.8895   19.9876   20.9318   22.3024   54.8421
  14  1  -17.1003  -13.0430  -10.9349   -8.6324   -8.1387   -8.1201   -3.8560   -1.9929   -0.5249    2.8034
           5.0998    6.7274    6.8242   14.1527   17.3249   19.3888   22.8530   31.1973   33.0852   60.5971
  15  1  -17.1003  -13.0430  -10.9349   -8.6324   -8.1386   -8.1202   -3.8560   -1.9929   -0.5249    2.8034
           5.0998    6.7275    6.8241   14.1528   17.3249   19.3888   22.8530   31.1973   33.0852   60.5971
  16  1  -16.9644  -12.5370  -11.8716  -11.2402   -8.8112   -8.1280   -7.6617   -3.6137    1.2182    1.7637
           5.8990    8.0090    9.8819   11.3921   14.1715   19.8895   19.9876   20.9318   22.3024   54.8421
  17  1  -17.1003  -13.0430  -10.9349   -8.6324   -8.1387   -8.1201   -3.8560   -1.9929   -0.5249    2.8034
           5.0998    6.7274    6.8242   14.1527   17.3249   19.3888   22.8530   31.1973   33.0852   60.5971
  18  1  -17.2339  -13.2700   -9.7873   -7.8531   -7.8530   -4.6259    0.5185    0.5185    1.4367    1.4367
           2.3878    9.1988    9.1990   12.4795   13.1210   13.1210   24.3501   24.6111   24.6111   53.5280
  19  1  -17.1003  -13.0430  -10.9349   -8.6324   -8.1387   -8.1201   -3.8560   -1.9929   -0.5249    2.8034
           5.0998    6.7274    6.8242   14.1527   17.3249   19.3888   22.8530   31.1973   33.0852   60.5971
  20  1  -16.9354  -12.3519  -12.3088   -9.1601   -9.0314   -8.3594   -4.7702   -4.0424   -3.7357   -3.6688
           3.7330    6.1304    9.1069   11.7069   18.7212   18.9118   26.8124   31.2337   49.4850   49.9172
  21  1  -17.1003  -13.0430  -10.9349   -8.6324   -8.1386   -8.1202   -3.8560   -1.9929   -0.5249    2.8034
           5.0998    6.7275    6.8241   14.1528   17.3249   19.3888   22.8530   31.1973   33.0852   60.5971
  22  1  -17.1003  -13.0430  -10.9349   -8.6324   -8.1387   -8.1201   -3.8560   -1.9929   -0.5249    2.8034
           5.0998    6.7274    6.8242   14.1527   17.3249   19.3888   22.8530   31.1973   33.0852   60.5971
  23  1  -16.9644  -12.5370  -11.8715  -11.2402   -8.8112   -8.1280   -7.6617   -3.6138    1.2184    1.7637
           5.8989    8.0090    9.8819   11.3921   14.1716   19.8895   19.9876   20.9318   22.3024   54.8421
  24  1  -16.9644  -12.5370  -11.8716  -11.2402   -8.8112   -8.1280   -7.6617   -3.6137    1.2182    1.7637
           5.8990    8.0090    9.8819   11.3921   14.1715   19.8895   19.9876   20.9318   22.3024   54.8421
  25  1  -16.9644  -12.5370  -11.8716  -11.2402   -8.8112   -8.1280   -7.6617   -3.6137    1.2182    1.7637
           5.8990    8.0090    9.8819   11.3921   14.1715   19.8895   19.9876   20.9318   22.3024   54.8421
  26  1  -16.9354  -12.3519  -12.3088   -9.1601   -9.0314   -8.3594   -4.7702   -4.0424   -3.7357   -3.6688
           3.7330    6.1304    9.1069   11.7069   18.7212   18.9118   26.8124   31.2337   49.4850   49.9172
  27  1  -16.9644  -12.5370  -11.8716  -11.2402   -8.8112   -8.1280   -7.6617   -3.6137    1.2182    1.7637
           5.8990    8.0090    9.8819   11.3921   14.1715   19.8895   19.9876   20.9318   22.3024   54.8421
  28  1  -16.9354  -12.3519  -12.3088   -9.1601   -9.0314   -8.3594   -4.7702   -4.0423   -3.7358   -3.6687
           3.7330    6.1302    9.1070   11.7069   18.7211   18.9118   26.8124   31.2337   49.4850   49.9173
  29  1  -16.6844  -13.1875  -11.6648  -10.9477   -9.3098   -8.5647   -5.3037    0.0238    1.8914    2.5361
           2.5711    4.6774   11.7005   19.4635   19.7849   20.3383   21.1126   28.2122   34.1102   65.1204
  30  1  -16.8285  -13.8938  -10.5951   -8.8154   -7.9565   -7.5051   -3.0149   -0.2184    0.2780    5.3125
           5.5963    6.3330   11.4354   18.8854   21.6675   22.9231   23.9817   50.2766   50.7065   57.3243
  31  1  -16.8285  -13.8938  -10.5951   -8.8154   -7.9566   -7.5051   -3.0148   -0.2182    0.2780    5.3125
           5.5964    6.3329   11.4354   18.8854   21.6675   22.9230   23.9817   50.2766   50.7066   57.3243
  32  1  -16.6844  -13.1875  -11.6648  -10.9477   -9.3098   -8.5647   -5.3037    0.0240    1.8914    2.5359
           2.5711    4.6774   11.7005   19.4635   19.7849   20.3383   21.1126   28.2122   34.1102   65.1204
  33  1  -16.8285  -13.8938  -10.5951   -8.8154   -7.9565   -7.5051   -3.0149   -0.2184    0.2780    5.3125
           5.5963    6.3330   11.4354   18.8854   21.6675   22.9231   23.9817   50.2766   50.7065   57.3243
  34  1  -16.9499  -14.3024   -8.3453   -7.7726   -7.7725   -1.1973   -1.1972   -0.6313   -0.6313    1.0557
           3.0837    8.2346    8.2348   19.5882   24.5863   24.8240   24.8240   25.5203   25.5204   57.7863
  35  1  -16.8285  -13.8938  -10.5951   -8.8154   -7.9565   -7.5051   -3.0149   -0.2184    0.2780    5.3125
           5.5963    6.3330   11.4354   18.8854   21.6675   22.9231   23.9817   50.2766   50.7065   57.3243
  36  1  -16.6790  -12.9489  -11.9636   -9.6337   -8.8783   -8.1292   -5.0156   -3.4951   -0.2262    3.9761
           5.0601   12.2164   18.2921   18.5368   22.9409   29.8776   31.1754   52.8035   57.4197   57.9229
  37  1  -16.8285  -13.8938  -10.5951   -8.8154   -7.9566   -7.5051   -3.0148   -0.2182    0.2780    5.3125
           5.5964    6.3329   11.4354   18.8854   21.6675   22.9230   23.9817   50.2766   50.7066   57.3243
  38  1  -16.8285  -13.8938  -10.5951   -8.8154   -7.9565   -7.5051   -3.0149   -0.2184    0.2780    5.3125
           5.5963    6.3330   11.4354   18.8854   21.6675   22.9231   23.9817   50.2766   50.7065   57.3243
  39  1  -16.6844  -13.1875  -11.6648  -10.9477   -9.3098   -8.5647   -5.3037    0.0238    1.8914    2.5361
           2.5711    4.6774   11.7005   19.4635   19.7849   20.3383   21.1126   28.2122   34.1102   65.1204
  40  1  -16.6844  -13.1875  -11.6648  -10.9477   -9.3098   -8.5647   -5.3037    0.0240    1.8914    2.5359
           2.5711    4.6774   11.7005   19.4635   19.7849   20.3383   21.1126   28.2122   34.1102   65.1204
  41  1  -16.6844  -13.1875  -11.6648  -10.9477   -9.3098   -8.5647   -5.3037    0.0240    1.8914    2.5359
           2.5711    4.6774   11.7005   19.4635   19.7849   20.3383   21.1126   28.2122   34.1102   65.1204
  42  1  -16.6790  -12.9489  -11.9636   -9.6337   -8.8783   -8.1292   -5.0156   -3.4951   -0.2262    3.9761
           5.0601   12.2164   18.2921   18.5368   22.9409   29.8776   31.1754   52.8035   57.4197   57.9229
  43  1  -16.6844  -13.1875  -11.6648  -10.9477   -9.3098   -8.5647   -5.3037    0.0240    1.8914    2.5359
           2.5711    4.6774   11.7005   19.4635   19.7849   20.3383   21.1126   28.2122   34.1102   65.1204
  44  1  -16.6790  -12.9489  -11.9636   -9.6337   -8.8783   -8.1293   -5.0156   -3.4951   -0.2260    3.9761
           5.0599   12.2164   18.2921   18.5368   22.9409   29.8776   31.1754   52.8035   57.4196   57.9229
siesta: Fermi energy =      -8.144200 eV

siesta: Program's energy decomposition (eV):
siesta: Ebs     =      -119.652452
siesta: Eions   =       321.344870
siesta: Ena     =        94.146150
siesta: Ekin    =       117.926556
siesta: Enl     =        25.175476
siesta: Eso     =         0.000000
siesta: Edftu   =         0.000000
siesta: DEna    =         5.332894
siesta: DUscf   =         0.292884
siesta: DUext   =         0.000000
siesta: Exc     =       -94.902399
siesta: eta*DQ  =         0.000000
siesta: Emadel  =         0.000000
siesta: Emeta   =         0.000000
siesta: Emolmec =        -2.768982
siesta: Ekinion =         0.000000
siesta: Eharris =      -176.142290
siesta: Etot    =      -176.142290
siesta: FreeEng =      -176.162718

siesta: Final energy (eV):
siesta:  Band Struct. =    -119.652452
siesta:       Kinetic =     117.926556
siesta:       Hartree =      42.003800
siesta:       Edftu   =       0.000000
siesta:       Eso     =       0.000000
siesta:    Ext. field =       0.000000
siesta:   Exch.-corr. =     -94.902399
siesta:  Ion-electron =    -218.438677
siesta:       Ion-ion =     -19.962589
siesta:       Ekinion =       0.000000
siesta:         Total =    -176.142290
siesta:         Fermi =      -8.144200

siesta: Atomic forces (eV/Ang):
siesta:      1    0.000000   -0.000000    0.000000
siesta:      2   -0.041774    0.072373   -0.000000
siesta:      3    0.041774   -0.072373   -0.000000
siesta:      4   -0.041816   -0.072428   -0.000000
siesta:      5    0.041816    0.072428   -0.000000
siesta:      6    0.083564    0.000009   -0.000000
siesta:      7   -0.083564   -0.000009   -0.000000
siesta: ----------------------------------------
siesta:    Tot   -0.000000    0.000000   -0.000000

siesta: Stress tensor (static) (eV/Ang**3):
siesta:    -0.687257   -0.000009    0.000000
siesta:    -0.000009   -0.687267   -0.000000
siesta:     0.000000   -0.000000    0.364347

siesta: Cell volume =         78.791413 Ang**3

siesta: Pressure (static):
siesta:                Solid            Molecule  Units
siesta:           0.00366737          0.00368476  Ry/Bohr**3
siesta:           0.33672558          0.33832177  eV/Ang**3
siesta:         539.49969042        542.05708610  kBar
(Free)E+ p_basis*V_orbitals  =        -164.903400
(Free)Eharris+ p_basis*V_orbitals  =        -164.903399

cite: Please see "LiC6_scf.bib" for an exhaustive BiBTeX file.
cite: Please clearly indicate Siesta version in published work: 4.1.5
cite: This calculation has made use of the following articles
cite: which are encouraged to be cited in a published work.
        Primary SIESTA paper
          DOI: www.doi.org/10.1088/0953-8984/14/11/302

>> End of run:   9-NOV-2022  10:40:24
Job completed
