Siesta Version  : 4.1.5
Architecture    : x86_64-unknown-linux-gnu--unknown
Compiler version: GNU Fortran (GCC) 11.3.0
Compiler flags  : mpif90 -g -O2 -fallow-argument-mismatch
PP flags        : -DMPI -DFC_HAVE_FLUSH -DFC_HAVE_ABORT
Libraries       :  -I/global/software/sl-7.x86_64/modules/intel/2020.4.304/mkl/include  /globall/software/sl-7.x86_64/modules/intel/2020.4.304/mkl/lib/intel64/libmkl_scalapack_lp64.a -Wl,--start-group /global/software/sl-7.x86_64/modules/intel/2020.4.304/mkl/lib/intel64/libmkl_intel_lp64.a /global/software/sl-7.x86_64/modules/intel/2020.4.304/mkl/lib/intel64/libmkl_sequential.a /global/software/sl-7.x86_64/modules/intel/2020.4.304/mkl/lib/intel64/libmkl_core.a /global/software/sl-7.x86_64/modules/intel/2020.4.304/mkl/lib/intel64/libmkl_blacs_openmpi_lp64.a -Wl,--end-group -lpthread -lm -ldl
PARALLEL version

* Running on 4 nodes in parallel
>> Start of run:   9-NOV-2022  10:36:08

                           ***********************       
                           *  WELCOME TO SIESTA  *       
                           ***********************       

reinit: Reading from standard input
reinit: Dumped input in INPUT_TMP.35148
************************** Dump of input data file ****************************
SystemName LiC6_scf
SystemLabel LiC6_scf
NumberOfAtoms   7
NumberOfSpecies 2
%block ChemicalSpeciesLabel
1  3   Li-gga
2  6   C-gga
%endblock ChemicalSpeciesLabel
PAO.BasisSize  DZ
PAO.EnergyShift  10 meV
%block PS.Lmax
C-gga   2
Li-gga  2
%endblock PS.Lmax
LatticeConstant 1.000000 Ang
%block LatticeVectors
	4.3161300000	0.0000000000	0.0000000000
	-2.1580650000	3.7378782260	0.0000000000
	0.0000000000	0.0000000000	3.8478544000
%endblock LatticeVectors
AtomicCoordinatesFormat Ang
%block AtomicCoordinatesAndAtomicSpecies
	0.00000000	0.00000000	0.00000000	2
	-0.70288177	1.21742694	1.92392720	1
	-1.45518323	2.52045129	1.92392720	1
	1.45518323	2.52045129	1.92392720	1
	0.70288177	1.21742694	1.92392720	1
	1.40576354	0.00000000	1.92392720	1
	2.91036646	0.00000000	1.92392720	1
%endblock AtomicCoordinatesAndAtomicSpecies
Kgrid_NoTRS  T
%block kgrid_MonkhorstPack
4       0       0       0.0
0       4       0       0.0
0       0       4       0.0
%endblock kgrid_MonkhorstPack
AtomCoorFormatOut Ang
BlockSize 1
#ProcessorY 12
Diag.ParallelOverK   T
Diag.DivideAndConquer F
MeshCutoff   300 Ry
SCF.FreeE.Tolerance 1E-3 eV
SCF.EDM.Tolerance   5E-3 eV
DM.Tolerance  1E-3
DM.Require.Energy.Convergence T
DM.NumberPulay 4
XC.Functional GGA
XC.Authors    PBE
UseSaveData        F
MD.TypeOfRun       CG
MD.VariableCell    F
MD.NumCGsteps      00
MD.MaxCGDispl      0.200000 Bohr
MD.MaxStressTol    1.000000 GPa
MD.MaxForceTol     0.010000 eV/Ang
WriteMDHistory T
WriteCoorStep T
WriteForces T
WriteCoorStep    T
WriteEigenValues T
WriteDM    F
MM.UnitsDistance Ang  # what this program prints out DO NOT CHANGE
MM.UnitsEnergy    eV  # what this program prints out DO NOT CHANGE
MM.Grimme.S6     0.75 # Grimme-paper for PBE (correct for your functional)
MM.Grimme.D     20.   # Grimme-paper (correct for your functional)
%block MM.Potentials
  1   1 Grimme     16.69      1.650 # Li, 10.1002/jcc.20495
  1   2 Grimme     17.40      2.277 # Li / C
  2   2 Grimme     18.14      2.904 # C, 10.1002/jcc.20495
%endblock MM.Potentials
#%block ProjectedDensityOfStates
# -200.0  120.0  0.4  12800  eV
#%endblock ProjectedDensityOfStates
************************** End of input data file *****************************

reinit: -----------------------------------------------------------------------
reinit: System Name: LiC6_scf
reinit: -----------------------------------------------------------------------
reinit: System Label: LiC6_scf
reinit: -----------------------------------------------------------------------
Reading two-body potentials
Grimme - two-body potential between 1 and 1
Grimme - two-body potential between 1 and 2
Grimme - two-body potential between 2 and 2

initatom: Reading input for the pseudopotentials and atomic orbitals ----------
Species number:   1 Atomic number:    3 Label: Li-gga
Species number:   2 Atomic number:    6 Label: C-gga

Ground state valence configuration:   2s01
Reading pseudopotential information in formatted form from Li-gga.psf

Valence configuration for pseudopotential generation:
2s( 1.00) rc: 2.28
2p( 0.00) rc: 2.28
3d( 0.00) rc: 2.59
4f( 0.00) rc: 2.59
Ground state valence configuration:   2s02  2p02
Reading pseudopotential information in formatted form from C-gga.psf

Valence configuration for pseudopotential generation:
2s( 2.00) rc: 1.56
2p( 2.00) rc: 1.56
3d( 0.00) rc: 1.56
4f( 0.00) rc: 1.56
relmxkb: Read Max KB Ang. Momentum=    2 for species C-gga
relmxkb: Read Max KB Ang. Momentum=    2 for species Li-gga

<basis_specs>
===============================================================================
Li-gga               Z=   3    Mass=  6.9400        Charge= 0.17977+309
Lmxo=0 Lmxkb= 2    BasisType=split      Semic=F
L=0  Nsemic=0  Cnfigmx=2
          i=1  nzeta=2  polorb=0  (2s)
            splnorm:   0.15000    
               vcte:    0.0000    
               rinn:    0.0000    
               qcoe:    0.0000    
               qyuk:    0.0000    
               qwid:   0.10000E-01
                rcs:    0.0000      0.0000    
            lambdas:    1.0000      1.0000    
-------------------------------------------------------------------------------
L=0  Nkbl=1  erefs: 0.17977+309
L=1  Nkbl=1  erefs: 0.17977+309
L=2  Nkbl=1  erefs: 0.17977+309
===============================================================================
</basis_specs>

atom: Called for Li-gga                (Z =   3)

read_vps: Pseudopotential generation method:
read_vps: ATM 3.2.2 Troullier-Martins                       
Valence charge for ps generation:    1.00000

read_vps: Pseudopotential includes a core correction:
read_vps: Pseudo-core for xc-correction

xc_check: Exchange-correlation functional:
xc_check: GGA Perdew, Burke & Ernzerhof 1996
V l=0 = -2*Zval/r beyond r=  2.2278
V l=1 = -2*Zval/r beyond r=  2.2278
V l=2 = -2*Zval/r beyond r=  2.5245
All V_l potentials equal beyond r=  2.4622
This should be close to max(r_c) in ps generation
All pots = -2*Zval/r beyond r=  2.5245

VLOCAL1: 99.0% of the norm of Vloc inside      7.160 Ry
VLOCAL1: 99.9% of the norm of Vloc inside     16.318 Ry
atom: Maximum radius for 4*pi*r*r*local-pseudopot. charge    2.86079
atom: Maximum radius for r*vlocal+2*Zval:    2.43160
GHOST: No ghost state for L =  0
GHOST: No ghost state for L =  1
GHOST: No ghost state for L =  2

KBgen: Kleinman-Bylander projectors: 
   l= 0   rc=  2.654023   el= -0.211234   Ekb=  1.742119   kbcos=  0.228463
   l= 1   rc=  2.721230   el= -0.080095   Ekb= -1.122375   kbcos= -0.147941
   l= 2   rc=  2.825246   el=  0.002001   Ekb= -0.207076   kbcos= -0.031965

KBgen: Total number of Kleinman-Bylander projectors:    9
atom: -------------------------------------------------------------------------

atom: SANKEY-TYPE ORBITALS:
atom: Selected multiple-zeta basis: split     

SPLIT: Orbitals with angular momentum L= 0

SPLIT: Basis orbitals for state 2s

SPLIT: PAO cut-off radius determined from an
SPLIT: energy shift=  0.000735 Ry

   izeta = 1
                 lambda =    1.000000
                     rc =   11.897381
                 energy =   -0.210580
                kinetic =    0.143382
    potential(screened) =   -0.353962
       potential(ionic) =   -0.533453

   izeta = 2
                 rmatch =    8.489163
              splitnorm =    0.150000
                 energy =   -0.186081
                kinetic =    0.225882
    potential(screened) =   -0.411964
       potential(ionic) =   -0.593024
atom: Total number of Sankey-type orbitals:  2

atm_pop: Valence configuration (for local Pseudopot. screening):
 2s( 1.00)                                                            
Vna: chval, zval:    1.00000   1.00000

Vna:  Cut-off radius for the neutral-atom potential:  11.897381
comcore: Pseudo-core radius Rcore=  3.450946

atom: _________________________________________________________________________

<basis_specs>
===============================================================================
C-gga                Z=   6    Mass=  12.010        Charge= 0.17977+309
Lmxo=1 Lmxkb= 2    BasisType=split      Semic=F
L=0  Nsemic=0  Cnfigmx=2
          i=1  nzeta=2  polorb=0  (2s)
            splnorm:   0.15000    
               vcte:    0.0000    
               rinn:    0.0000    
               qcoe:    0.0000    
               qyuk:    0.0000    
               qwid:   0.10000E-01
                rcs:    0.0000      0.0000    
            lambdas:    1.0000      1.0000    
L=1  Nsemic=0  Cnfigmx=2
          i=1  nzeta=2  polorb=0  (2p)
            splnorm:   0.15000    
               vcte:    0.0000    
               rinn:    0.0000    
               qcoe:    0.0000    
               qyuk:    0.0000    
               qwid:   0.10000E-01
                rcs:    0.0000      0.0000    
            lambdas:    1.0000      1.0000    
-------------------------------------------------------------------------------
L=0  Nkbl=1  erefs: 0.17977+309
L=1  Nkbl=1  erefs: 0.17977+309
L=2  Nkbl=1  erefs: 0.17977+309
===============================================================================
</basis_specs>

atom: Called for C-gga                 (Z =   6)

read_vps: Pseudopotential generation method:
read_vps: ATM 3.2.2 Troullier-Martins                       
Valence charge for ps generation:    4.00000

xc_check: Exchange-correlation functional:
xc_check: GGA Perdew, Burke & Ernzerhof 1996
V l=0 = -2*Zval/r beyond r=  1.5227
V l=1 = -2*Zval/r beyond r=  1.5227
V l=2 = -2*Zval/r beyond r=  1.5227
All V_l potentials equal beyond r=  1.4851
This should be close to max(r_c) in ps generation
All pots = -2*Zval/r beyond r=  1.5227

VLOCAL1: 99.0% of the norm of Vloc inside     19.682 Ry
VLOCAL1: 99.9% of the norm of Vloc inside     44.856 Ry
atom: Maximum radius for 4*pi*r*r*local-pseudopot. charge    1.79142
atom: Maximum radius for r*vlocal+2*Zval:    1.54183
GHOST: No ghost state for L =  0
GHOST: No ghost state for L =  1
GHOST: No ghost state for L =  2

KBgen: Kleinman-Bylander projectors: 
   l= 0   rc=  1.661951   el= -1.010689   Ekb=  5.289847   kbcos=  0.316429
   l= 1   rc=  1.661951   el= -0.388490   Ekb= -4.102504   kbcos= -0.351025
   l= 2   rc=  1.747182   el=  0.001971   Ekb= -1.006005   kbcos= -0.008530

KBgen: Total number of Kleinman-Bylander projectors:    9
atom: -------------------------------------------------------------------------

atom: SANKEY-TYPE ORBITALS:
atom: Selected multiple-zeta basis: split     

SPLIT: Orbitals with angular momentum L= 0

SPLIT: Basis orbitals for state 2s

SPLIT: PAO cut-off radius determined from an
SPLIT: energy shift=  0.000735 Ry

   izeta = 1
                 lambda =    1.000000
                     rc =    5.948690
                 energy =   -1.010099
                kinetic =    0.827121
    potential(screened) =   -1.837220
       potential(ionic) =   -5.392783

   izeta = 2
                 rmatch =    3.518811
              splitnorm =    0.150000
                 energy =   -0.877891
                kinetic =    1.289227
    potential(screened) =   -2.167118
       potential(ionic) =   -5.982073

SPLIT: Orbitals with angular momentum L= 1

SPLIT: Basis orbitals for state 2p

SPLIT: PAO cut-off radius determined from an
SPLIT: energy shift=  0.000735 Ry

   izeta = 1
                 lambda =    1.000000
                     rc =    7.638387
                 energy =   -0.387843
                kinetic =    2.314739
    potential(screened) =   -2.702582
       potential(ionic) =   -6.092371

   izeta = 2
                 rmatch =    3.840617
              splitnorm =    0.150000
                 energy =   -0.270479
                kinetic =    3.438347
    potential(screened) =   -3.708826
       potential(ionic) =   -7.497707
atom: Total number of Sankey-type orbitals:  8

atm_pop: Valence configuration (for local Pseudopot. screening):
 2s( 2.00)                                                            
 2p( 2.00)                                                            
Vna: chval, zval:    4.00000   4.00000

Vna:  Cut-off radius for the neutral-atom potential:   7.638387

atom: _________________________________________________________________________

prinput: Basis input ----------------------------------------------------------

PAO.BasisType split     

%block ChemicalSpeciesLabel
    1    3 Li-gga                  # Species index, atomic number, species label
    2    6 C-gga                   # Species index, atomic number, species label
%endblock ChemicalSpeciesLabel

%block PAO.Basis                 # Define Basis set
Li-gga                1                    # Species label, number of l-shells
 n=2   0   2                         # n, l, Nzeta 
  11.897      8.489   
   1.000      1.000   
C-gga                 2                    # Species label, number of l-shells
 n=2   0   2                         # n, l, Nzeta 
   5.949      3.519   
   1.000      1.000   
 n=2   1   2                         # n, l, Nzeta 
   7.638      3.841   
   1.000      1.000   
%endblock PAO.Basis

prinput: ----------------------------------------------------------------------

coor:   Atomic-coordinates input format  =     Cartesian coordinates
coor:                                          (in Angstroms)

siesta: Atomic coordinates (Bohr) and species
siesta:      0.00000   0.00000   0.00000  2        1
siesta:     -1.32825   2.30060   3.63570  1        2
siesta:     -2.74990   4.76296   3.63570  1        3
siesta:      2.74990   4.76296   3.63570  1        4
siesta:      1.32825   2.30060   3.63570  1        5
siesta:      2.65651   0.00000   3.63570  1        6
siesta:      5.49980   0.00000   3.63570  1        7

siesta: System type = bulk      

initatomlists: Number of atoms, orbitals, and projectors:      7    20    63

siesta: ******************** Simulation parameters ****************************
siesta:
siesta: The following are some of the parameters of the simulation.
siesta: A complete list of the parameters used, including default values,
siesta: can be found in file out.fdf
siesta:
redata: Spin configuration                          = none
redata: Number of spin components                   = 1
redata: Time-Reversal Symmetry                      = T
redata: Spin spiral                                 = F
redata: Long output                                 =   F
redata: Number of Atomic Species                    =        2
redata: Charge density info will appear in .RHO file
redata: Write Mulliken Pop.                         = NO
redata: Matel table size (NRTAB)                    =     1024
redata: Mesh Cutoff                                 =   300.0000 Ry
redata: Net charge of the system                    =     0.0000 |e|
redata: Min. number of SCF Iter                     =        0
redata: Max. number of SCF Iter                     =     1000
redata: SCF convergence failure will abort job
redata: SCF mix quantity                            = Hamiltonian
redata: Mix DM or H after convergence               =   F
redata: Recompute H after scf cycle                 =   F
redata: Mix DM in first SCF step                    =   T
redata: Write Pulay info on disk                    =   F
redata: New DM Occupancy tolerance                  = 0.000000000001
redata: No kicks to SCF
redata: DM Mixing Weight for Kicks                  =     0.5000
redata: Require Harris convergence for SCF          =   F
redata: Harris energy tolerance for SCF             =     0.000100 eV
redata: Require DM convergence for SCF              =   T
redata: DM tolerance for SCF                        =     0.001000
redata: Require EDM convergence for SCF             =   F
redata: EDM tolerance for SCF                       =     0.005000 eV
redata: Require H convergence for SCF               =   T
redata: Hamiltonian tolerance for SCF               =     0.001000 eV
redata: Require (free) Energy convergence for SCF   =   T
redata: (free) Energy tolerance for SCF             =     0.001000 eV
redata: Using Saved Data (generic)                  =   F
redata: Use continuation files for DM               =   F
redata: Neglect nonoverlap interactions             =   F
redata: Method of Calculation                       = Diagonalization
redata: Electronic Temperature                      =   299.9869 K
redata: Fix the spin of the system                  =   F
redata: Dynamics option                             = Single-point calculation
mix.SCF: Pulay mixing                            = Pulay
mix.SCF:    Variant                              = stable
mix.SCF:    History steps                        = 4
mix.SCF:    Linear mixing weight                 =     0.250000
mix.SCF:    Mixing weight                        =     0.250000
mix.SCF:    SVD condition                        = 0.1000E-07
redata: ***********************************************************************

%block SCF.Mixers
  Pulay
%endblock SCF.Mixers

%block SCF.Mixer.Pulay
  # Mixing method
  method pulay
  variant stable

  # Mixing options
  weight 0.2500
  weight.linear 0.2500
  history 4
%endblock SCF.Mixer.Pulay

DM_history_depth set to one: no extrapolation allowed by default for geometry relaxation
Size of DM history Fstack: 1
Total number of electrons:    10.000000
Total ionic charge:    10.000000

* ProcessorY, Blocksize:    2   1


* Orbital distribution balance (max,min):     5     5

k-point displ. along   1 input, could be:     0.00    0.50
k-point displ. along   2 input, could be:     0.00    0.50
k-point displ. along   3 input, could be:     0.00    0.50
 Kpoints in:           48 . Kpoints trimmed:           44

siesta: k-grid: Number of k-points =    44
siesta: k-grid: Cutoff (effective) =     7.696 Ang
siesta: k-grid: Supercell and displacements
siesta: k-grid:    4   0   0      0.000
siesta: k-grid:    0   4   0      0.000
siesta: k-grid:    0   0   4      0.000

diag: Algorithm                                     = Expert
diag: Parallel over k                               =   T
diag: Use parallel 2D distribution                  =   T
diag: Parallel block-size                           = 1
diag: Parallel distribution                         =     2 x     2
diag: Used triangular part                          = Lower
diag: Absolute tolerance                            =  0.100E-15
diag: Orthogonalization factor                      =  0.100E-05
diag: Memory factor                                 =  1.0000

superc: Internal auxiliary supercell:     9 x     9 x     9  =     729
superc: Number of atoms, orbitals, and projectors:   5103  14580  45927


ts: **************************************************************
ts: Save H and S matrices                           =    F
ts: Save DM and EDM matrices                        =    F
ts: Only save the overlap matrix S                  =    F
ts: **************************************************************

************************ Begin: TS CHECKS AND WARNINGS ************************
************************ End: TS CHECKS AND WARNINGS **************************


                     ====================================
                        Single-point calculation
                     ====================================

outcoor: Atomic coordinates (Ang):                          
    0.00000000    0.00000000    0.00000000   2       1  C-gga
   -0.70288177    1.21742694    1.92392720   1       2  Li-gga
   -1.45518323    2.52045129    1.92392720   1       3  Li-gga
    1.45518323    2.52045129    1.92392720   1       4  Li-gga
    0.70288177    1.21742694    1.92392720   1       5  Li-gga
    1.40576354    0.00000000    1.92392720   1       6  Li-gga
    2.91036646    0.00000000    1.92392720   1       7  Li-gga

superc: Internal auxiliary supercell:     9 x     9 x     9  =     729
superc: Number of atoms, orbitals, and projectors:   5103  14580  45927

outcell: Unit cell vectors (Ang):
        4.316130    0.000000    0.000000
       -2.158065    3.737878    0.000000
        0.000000    0.000000    3.847854

outcell: Cell vector modules (Ang)   :    4.316130    4.316130    3.847854
outcell: Cell angles (23,13,12) (deg):     90.0000     90.0000    120.0000
outcell: Cell volume (Ang**3)        :     62.0781
<dSpData1D:S at geom step 0
  <sparsity:sparsity for geom step 0
    nrows_g=20 nrows=5 sparsity=30.0175 nnzs=12007, refcount: 7>
  <dData1D:(new from dSpData1D) n=12007, refcount: 1>
refcount: 1>
new_DM -- step:     1
Initializing Density Matrix...
DM filled with atomic data:
<dSpData2D:DM initialized from atoms
  <sparsity:sparsity for geom step 0
    nrows_g=20 nrows=5 sparsity=30.0175 nnzs=12007, refcount: 8>
  <dData2D:DM n=12007 m=1, refcount: 1>
refcount: 1>
No. of atoms with KB's overlaping orbs in proc 0. Max # of overlaps:     294     339
New grid distribution:   1
           1       1:   20    1:   10    1:   12
           2       1:   20    1:   10   13:   24
           3       1:   20   11:   20    1:   12
           4       1:   20   11:   20   13:   24

InitMesh: MESH =    40 x    40 x    48 =       76800
InitMesh: (bp) =    20 x    20 x    24 =        9600
InitMesh: Mesh cutoff (required, used) =   300.000   316.498 Ry
ExtMesh (bp) on 0 =   156 x   146 x   172 =     3917472
New grid distribution:   2
           1       1:   20    1:   10    1:   12
           2       1:   20    1:   10   13:   24
           3       1:   20   11:   20    1:   12
           4       1:   20   11:   20   13:   24
New grid distribution:   3
           1       1:   20    1:   10    1:   12
           2       1:   20    1:   10   13:   24
           3       1:   20   11:   20    1:   12
           4       1:   20   11:   20   13:   24
Setting up quadratic distribution...
ExtMesh (bp) on 0 =   156 x   146 x   172 =     3917472
PhiOnMesh: Number of (b)points on node 0 =                 2400
PhiOnMesh: nlist on node 0 =               388268

stepf: Fermi-Dirac step function

siesta: Program's energy decomposition (eV):
siesta: Ebs     =      -120.692765
siesta: Eions   =       321.344870
siesta: Ena     =        88.055266
siesta: Ekin    =       153.384648
siesta: Enl     =         6.660876
siesta: Eso     =         0.000000
siesta: Edftu   =         0.000000
siesta: DEna    =        -5.901834
siesta: DUscf   =         4.488328
siesta: DUext   =         0.000000
siesta: Exc     =      -104.476287
siesta: eta*DQ  =         0.000000
siesta: Emadel  =         0.000000
siesta: Emeta   =         0.000000
siesta: Emolmec =        -3.272858
siesta: Ekinion =         0.000000
siesta: Eharris =      -167.239972
siesta: Etot    =      -182.406730
siesta: FreeEng =      -182.411548

        iscf     Eharris(eV)        E_KS(eV)     FreeEng(eV)     dDmax    Ef(eV) dHmax(eV)
   scf:    1     -167.239972     -182.406730     -182.411548 28.563230-11.040614  7.509890
timer: Routine,Calls,Time,% = IterSCF        1       1.831  27.01
   scf:    2     -185.863582     -184.937772     -184.944623  4.218322-10.813554  0.528872
   scf:    3     -184.962455     -184.954930     -184.961683  0.304199-10.790991  0.051966
   scf:    4     -184.961814     -184.958727     -184.965190  0.406132-10.810993  0.053041
   scf:    5     -184.958228     -184.958630     -184.965218  0.088741-10.820336  0.051478
   scf:    6     -184.958774     -184.958796     -184.965283  0.042867-10.813961  0.026608
   scf:    7     -184.958737     -184.958780     -184.965319  0.018424-10.816031  0.000185
   scf:    8     -184.958782     -184.958781     -184.965319  0.000665-10.816037  0.000156

SCF Convergence by FreeE+DM+H criterion
|FreeE_i-FreeE_(i-1)| (eV) <     0.00100000
max |DM_out - DM_in|         :     0.0006646156
max |H_out - H_in|      (eV) :     0.0001556012
SCF cycle converged after 8 iterations

Using DM_out to compute the final energy and forces
No. of atoms with KB's overlaping orbs in proc 0. Max # of overlaps:     294     339

MM-Stress (kbar):       -4.71       -4.71       31.52        0.00       -0.00        0.00

siesta: E_KS(eV) =             -184.9588

siesta: E_KS - E_eggbox =      -184.9588

siesta: Atomic forces (eV/Ang):
     1   -0.000000    0.000000    0.000000
     2    0.683629   -1.184056   -0.000000
     3   -0.683630    1.184056   -0.000000
     4    0.683601    1.184031   -0.000000
     5   -0.683601   -1.184031   -0.000000
     6   -1.367237    0.000013   -0.000000
     7    1.367237   -0.000013   -0.000000
----------------------------------------
   Tot   -0.000000   -0.000000    0.000000
----------------------------------------
   Max    1.367237
   Res    0.730813    sqrt( Sum f_i^2 / 3N )
----------------------------------------
   Max    1.367237    constrained

Stress tensor Voigt[x,y,z,yz,xz,xy] (kbar):    -1193.60    -1193.63     1007.80       -0.00        0.00       -0.02
(Free)E + p*V (eV/cell)     -167.1497
Target enthalpy (eV/cell)     -184.9653

siesta: Eigenvalues (eV):
  ik is       eps
   1  1  -20.3047  -14.7918  -13.8794  -13.7291   -9.6996   -9.3432   -7.1633    0.9900    2.8098    3.4296
           3.7392    9.2365   10.4938   15.1704   19.0384   20.3114   23.4070   29.1549   52.0787   60.0919
   2  1  -20.5022  -14.2455  -14.0675  -11.3379  -10.5941   -9.0767   -3.9184   -3.0217   -0.5810    2.0438
           3.9959    5.5195   17.6187   20.4785   21.9877   24.6874   27.8018   34.5647   42.3360   47.8940
   3  1  -20.5022  -14.2455  -14.0675  -11.3380  -10.5940   -9.0766   -3.9183   -3.0218   -0.5810    2.0438
           3.9956    5.5197   17.6187   20.4785   21.9877   24.6875   27.8017   34.5647   42.3359   47.8939
   4  1  -20.3047  -14.7918  -13.8794  -13.7291   -9.6997   -9.3431   -7.1633    0.9900    2.8101    3.4293
           3.7391    9.2364   10.4938   15.1704   19.0384   20.3114   23.4070   29.1549   52.0787   60.0918
   5  1  -20.5022  -14.2455  -14.0675  -11.3379  -10.5941   -9.0767   -3.9184   -3.0217   -0.5810    2.0438
           3.9959    5.5195   17.6187   20.4785   21.9877   24.6874   27.8018   34.5647   42.3360   47.8940
   6  1  -20.6024  -14.5810  -12.0380  -11.0213  -11.0212   -2.3021   -1.6742    1.3105    1.3105    3.3404
           3.3408    4.1557   23.1402   23.1404   24.1074   56.1989   56.1990   70.5085   70.5087  125.3050
   7  1  -20.3017  -15.0458  -13.8788  -11.5516  -11.2401   -8.8756   -5.2862   -2.0913    0.9914    3.5648
           8.9307   10.8083   17.0447   18.4973   22.0878   25.0784   26.4171   31.1012   62.6371   92.1716
   8  1  -20.3047  -14.7918  -13.8794  -13.7291   -9.6997   -9.3431   -7.1633    0.9900    2.8101    3.4293
           3.7391    9.2364   10.4938   15.1704   19.0384   20.3114   23.4070   29.1549   52.0787   60.0918
   9  1  -20.3047  -14.7918  -13.8794  -13.7291   -9.6997   -9.3431   -7.1633    0.9900    2.8101    3.4293
           3.7391    9.2364   10.4938   15.1704   19.0384   20.3114   23.4070   29.1549   52.0787   60.0919
  10  1  -20.3017  -15.0458  -13.8788  -11.5516  -11.2401   -8.8756   -5.2862   -2.0913    0.9914    3.5648
           8.9307   10.8083   17.0447   18.4973   22.0878   25.0784   26.4171   31.1012   62.6371   92.1716
  11  1  -20.3047  -14.7918  -13.8794  -13.7291   -9.6997   -9.3431   -7.1633    0.9900    2.8101    3.4293
           3.7391    9.2364   10.4938   15.1704   19.0384   20.3114   23.4070   29.1549   52.0787   60.0919
  12  1  -20.3017  -15.0458  -13.8788  -11.5517  -11.2401   -8.8755   -5.2862   -2.0916    0.9914    3.5651
           8.9307   10.8082   17.0448   18.4972   22.0878   25.0784   26.4171   31.1011   62.6371   92.1713
  13  1  -20.0097  -14.8542  -13.9016  -12.9729  -10.9220  -10.3028   -6.3627   -4.2475   -0.0260    0.1147
           4.7740    5.2157   10.4676   18.8903   19.1518   22.5251   23.9950   29.3726   33.6596   59.8254
  14  1  -20.1555  -15.0822  -13.6212  -11.2163  -10.8575   -9.8895   -6.3442   -1.8218   -1.8076    3.2020
           4.5358    5.7429    6.1213   10.8986   16.7234   19.1912   22.2598   33.8500   43.8037   56.9483
  15  1  -20.1555  -15.0822  -13.6211  -11.2164  -10.8575   -9.8895   -6.3442   -1.8219   -1.8076    3.2022
           4.5356    5.7429    6.1212   10.8987   16.7234   19.1912   22.2598   33.8500   43.8037   56.9482
  16  1  -20.0097  -14.8542  -13.9016  -12.9730  -10.9220  -10.3028   -6.3627   -4.2474   -0.0259    0.1145
           4.7738    5.2157   10.4677   18.8903   19.1518   22.5252   23.9951   29.3725   33.6596   59.8254
  17  1  -20.1555  -15.0822  -13.6212  -11.2163  -10.8575   -9.8895   -6.3442   -1.8218   -1.8076    3.2020
           4.5358    5.7429    6.1213   10.8986   16.7234   19.1912   22.2598   33.8500   43.8037   56.9483
  18  1  -20.3083  -15.2975  -12.6850  -10.9365  -10.9364   -7.2204   -0.9381    0.3102    0.3102    2.3929
           2.3932    8.9189    8.9190   11.2730   13.9834   13.9835   23.6256   24.0604   24.0604   39.5317
  19  1  -20.1555  -15.0822  -13.6212  -11.2163  -10.8575   -9.8895   -6.3442   -1.8218   -1.8076    3.2020
           4.5358    5.7429    6.1213   10.8986   16.7234   19.1912   22.2598   33.8500   43.8037   56.9483
  20  1  -19.9499  -14.7938  -14.1860  -11.5277  -11.4352  -10.9661   -4.7408   -4.3047   -2.6121   -2.1673
           3.1954    4.0717   13.5163   15.7205   15.8031   18.1413   27.7444   34.4043   46.3973   50.3289
  21  1  -20.1555  -15.0822  -13.6211  -11.2164  -10.8575   -9.8895   -6.3442   -1.8219   -1.8076    3.2022
           4.5356    5.7429    6.1212   10.8987   16.7234   19.1912   22.2598   33.8500   43.8037   56.9482
  22  1  -20.1555  -15.0822  -13.6212  -11.2163  -10.8575   -9.8895   -6.3442   -1.8218   -1.8076    3.2020
           4.5358    5.7429    6.1213   10.8986   16.7234   19.1912   22.2598   33.8500   43.8037   56.9483
  23  1  -20.0097  -14.8542  -13.9016  -12.9729  -10.9220  -10.3028   -6.3627   -4.2475   -0.0260    0.1147
           4.7740    5.2157   10.4676   18.8903   19.1518   22.5251   23.9950   29.3726   33.6596   59.8254
  24  1  -20.0097  -14.8542  -13.9016  -12.9730  -10.9220  -10.3028   -6.3627   -4.2474   -0.0259    0.1145
           4.7738    5.2157   10.4677   18.8903   19.1518   22.5252   23.9951   29.3725   33.6596   59.8254
  25  1  -20.0097  -14.8542  -13.9016  -12.9730  -10.9220  -10.3028   -6.3627   -4.2474   -0.0259    0.1145
           4.7738    5.2157   10.4677   18.8903   19.1518   22.5252   23.9951   29.3725   33.6596   59.8254
  26  1  -19.9499  -14.7938  -14.1860  -11.5277  -11.4352  -10.9661   -4.7408   -4.3047   -2.6121   -2.1673
           3.1954    4.0717   13.5163   15.7205   15.8031   18.1413   27.7444   34.4043   46.3973   50.3289
  27  1  -20.0097  -14.8542  -13.9016  -12.9730  -10.9220  -10.3028   -6.3627   -4.2474   -0.0259    0.1145
           4.7738    5.2157   10.4677   18.8903   19.1518   22.5252   23.9951   29.3725   33.6596   59.8254
  28  1  -19.9499  -14.7938  -14.1860  -11.5277  -11.4353  -10.9661   -4.7406   -4.3047   -2.6123   -2.1673
           3.1954    4.0716   13.5165   15.7205   15.8031   18.1413   27.7443   34.4043   46.3973   50.3288
  29  1  -19.7312  -15.6770  -12.9065  -12.5460  -11.9479  -11.6295   -3.2398   -2.6543   -1.2445   -0.2918
           1.9782    5.3857   18.7220   18.9530   20.0070   27.4931   28.0085   39.7651   54.5456   62.5681
  30  1  -19.9444  -15.8225  -13.0462  -12.2669  -11.0941  -10.1185   -3.0821   -2.6412   -2.1575    2.9585
           3.4160    4.0368   17.1342   22.2804   25.1950   26.4137   26.8450   43.2061   44.1776   49.1295
  31  1  -19.9444  -15.8225  -13.0462  -12.2668  -11.0942  -10.1185   -3.0819   -2.6412   -2.1575    2.9586
           3.4156    4.0368   17.1342   22.2804   25.1950   26.4137   26.8449   43.2061   44.1776   49.1295
  32  1  -19.7312  -15.6770  -12.9064  -12.5460  -11.9480  -11.6295   -3.2398   -2.6540   -1.2445   -0.2922
           1.9783    5.3857   18.7220   18.9531   20.0070   27.4931   28.0085   39.7651   54.5457   62.5681
  33  1  -19.9444  -15.8225  -13.0462  -12.2669  -11.0941  -10.1185   -3.0821   -2.6412   -2.1575    2.9585
           3.4160    4.0368   17.1342   22.2804   25.1950   26.4137   26.8450   43.2061   44.1776   49.1294
  34  1  -20.1153  -16.0870  -13.5284  -10.8299  -10.8297   -2.1801   -2.1800   -2.1076   -2.0449   -1.9367
          -1.9367    5.3334    5.3339   20.8828   22.0951   23.7068   23.7069   24.8997   24.8998   55.6880
  35  1  -19.9444  -15.8225  -13.0462  -12.2669  -11.0941  -10.1185   -3.0821   -2.6412   -2.1575    2.9585
           3.4160    4.0368   17.1342   22.2804   25.1950   26.4137   26.8450   43.2061   44.1776   49.1294
  36  1  -19.7211  -15.7472  -13.3100  -12.5214  -11.8061  -11.3358   -4.6199   -2.8050   -2.1840    1.1821
           2.1659   17.6451   17.7949   18.4240   25.3565   28.2255   60.5108   65.9755   77.1813  108.2961
  37  1  -19.9444  -15.8225  -13.0462  -12.2668  -11.0942  -10.1185   -3.0819   -2.6412   -2.1575    2.9586
           3.4156    4.0368   17.1342   22.2804   25.1950   26.4137   26.8449   43.2061   44.1776   49.1295
  38  1  -19.9444  -15.8225  -13.0462  -12.2669  -11.0941  -10.1185   -3.0821   -2.6412   -2.1575    2.9585
           3.4160    4.0368   17.1342   22.2804   25.1950   26.4137   26.8450   43.2061   44.1776   49.1295
  39  1  -19.7312  -15.6770  -12.9065  -12.5460  -11.9479  -11.6295   -3.2398   -2.6543   -1.2445   -0.2918
           1.9782    5.3857   18.7220   18.9530   20.0070   27.4931   28.0085   39.7651   54.5456   62.5681
  40  1  -19.7312  -15.6770  -12.9064  -12.5460  -11.9480  -11.6295   -3.2398   -2.6540   -1.2445   -0.2922
           1.9783    5.3857   18.7220   18.9531   20.0070   27.4931   28.0085   39.7651   54.5457   62.5681
  41  1  -19.7312  -15.6770  -12.9064  -12.5460  -11.9480  -11.6295   -3.2398   -2.6540   -1.2445   -0.2922
           1.9783    5.3857   18.7220   18.9531   20.0070   27.4931   28.0085   39.7651   54.5457   62.5681
  42  1  -19.7211  -15.7472  -13.3100  -12.5214  -11.8061  -11.3358   -4.6199   -2.8050   -2.1840    1.1821
           2.1659   17.6451   17.7949   18.4240   25.3565   28.2255   60.5108   65.9755   77.1813  108.2961
  43  1  -19.7312  -15.6770  -12.9064  -12.5460  -11.9480  -11.6295   -3.2398   -2.6540   -1.2445   -0.2922
           1.9783    5.3857   18.7220   18.9531   20.0070   27.4931   28.0085   39.7651   54.5457   62.5681
  44  1  -19.7211  -15.7472  -13.3100  -12.5214  -11.8061  -11.3360   -4.6199   -2.8046   -2.1840    1.1821
           2.1655   17.6451   17.7949   18.4240   25.3566   28.2255   60.5108   65.9755   77.1814  108.2960
siesta: Fermi energy =     -10.816037 eV

siesta: Program's energy decomposition (eV):
siesta: Ebs     =      -144.215115
siesta: Eions   =       321.344870
siesta: Ena     =        88.055266
siesta: Ekin    =       131.968475
siesta: Enl     =        13.604473
siesta: Eso     =         0.000000
siesta: Edftu   =         0.000000
siesta: DEna    =         5.116546
siesta: DUscf   =         0.768550
siesta: DUext   =         0.000000
siesta: Exc     =       -99.854363
siesta: eta*DQ  =         0.000000
siesta: Emadel  =         0.000000
siesta: Emeta   =         0.000000
siesta: Emolmec =        -3.272858
siesta: Ekinion =         0.000000
siesta: Eharris =      -184.958782
siesta: Etot    =      -184.958781
siesta: FreeEng =      -184.965319

siesta: Final energy (eV):
siesta:  Band Struct. =    -144.215115
siesta:       Kinetic =     131.968475
siesta:       Hartree =      48.669066
siesta:       Edftu   =       0.000000
siesta:       Eso     =       0.000000
siesta:    Ext. field =       0.000000
siesta:   Exch.-corr. =     -99.854363
siesta:  Ion-electron =    -263.615499
siesta:       Ion-ion =       1.146398
siesta:       Ekinion =       0.000000
siesta:         Total =    -184.958781
siesta:         Fermi =     -10.816037

siesta: Atomic forces (eV/Ang):
siesta:      1   -0.000000    0.000000    0.000000
siesta:      2    0.683629   -1.184056   -0.000000
siesta:      3   -0.683630    1.184056   -0.000000
siesta:      4    0.683601    1.184031   -0.000000
siesta:      5   -0.683601   -1.184031   -0.000000
siesta:      6   -1.367237    0.000013   -0.000000
siesta:      7    1.367237   -0.000013   -0.000000
siesta: ----------------------------------------
siesta:    Tot   -0.000000   -0.000000    0.000000

siesta: Stress tensor (static) (eV/Ang**3):
siesta:    -0.744981   -0.000012    0.000000
siesta:    -0.000012   -0.744995   -0.000000
siesta:     0.000000   -0.000000    0.629014

siesta: Cell volume =         62.078083 Ang**3

siesta: Pressure (static):
siesta:                Solid            Molecule  Units
siesta:           0.00312566          0.00276474  Ry/Bohr**3
siesta:           0.28698728          0.25384948  eV/Ang**3
siesta:         459.80928832        406.71610165  kBar
(Free)E+ p_basis*V_orbitals  =        -173.706001
(Free)Eharris+ p_basis*V_orbitals  =        -173.706002

cite: Please see "LiC6_scf.bib" for an exhaustive BiBTeX file.
cite: Please clearly indicate Siesta version in published work: 4.1.5
cite: This calculation has made use of the following articles
cite: which are encouraged to be cited in a published work.
        Primary SIESTA paper
          DOI: www.doi.org/10.1088/0953-8984/14/11/302

>> End of run:   9-NOV-2022  10:36:26
Job completed
