Siesta Version  : 4.1.5
Architecture    : x86_64-unknown-linux-gnu--unknown
Compiler version: GNU Fortran (GCC) 11.3.0
Compiler flags  : mpif90 -g -O2 -fallow-argument-mismatch
PP flags        : -DMPI -DFC_HAVE_FLUSH -DFC_HAVE_ABORT
Libraries       :  -I/global/software/sl-7.x86_64/modules/intel/2020.4.304/mkl/include  /globall/software/sl-7.x86_64/modules/intel/2020.4.304/mkl/lib/intel64/libmkl_scalapack_lp64.a -Wl,--start-group /global/software/sl-7.x86_64/modules/intel/2020.4.304/mkl/lib/intel64/libmkl_intel_lp64.a /global/software/sl-7.x86_64/modules/intel/2020.4.304/mkl/lib/intel64/libmkl_sequential.a /global/software/sl-7.x86_64/modules/intel/2020.4.304/mkl/lib/intel64/libmkl_core.a /global/software/sl-7.x86_64/modules/intel/2020.4.304/mkl/lib/intel64/libmkl_blacs_openmpi_lp64.a -Wl,--end-group -lpthread -lm -ldl
PARALLEL version

* Running on 4 nodes in parallel
>> Start of run:   9-NOV-2022  10:28:43

                           ***********************       
                           *  WELCOME TO SIESTA  *       
                           ***********************       

reinit: Reading from standard input
reinit: Dumped input in INPUT_TMP.90239
************************** Dump of input data file ****************************
SystemName LiC6_scf
SystemLabel LiC6_scf
NumberOfAtoms   7
NumberOfSpecies 2
%block ChemicalSpeciesLabel
1  3   Li-gga
2  6   C-gga
%endblock ChemicalSpeciesLabel
PAO.BasisSize  DZ
PAO.EnergyShift  10 meV
%block PS.Lmax
C-gga   2
Li-gga  2
%endblock PS.Lmax
LatticeConstant 1.000000 Ang
%block LatticeVectors
	4.3161300000	0.0000000000	0.0000000000
	-2.1580650000	3.7378782260	0.0000000000
	0.0000000000	0.0000000000	2.9598880000
%endblock LatticeVectors
AtomicCoordinatesFormat Ang
%block AtomicCoordinatesAndAtomicSpecies
	0.00000000	0.00000000	0.00000000	2
	-0.70288177	1.21742694	1.47994400	1
	-1.45518323	2.52045129	1.47994400	1
	1.45518323	2.52045129	1.47994400	1
	0.70288177	1.21742694	1.47994400	1
	1.40576354	0.00000000	1.47994400	1
	2.91036646	0.00000000	1.47994400	1
%endblock AtomicCoordinatesAndAtomicSpecies
Kgrid_NoTRS  T
%block kgrid_MonkhorstPack
4       0       0       0.0
0       4       0       0.0
0       0       4       0.0
%endblock kgrid_MonkhorstPack
AtomCoorFormatOut Ang
BlockSize 1
#ProcessorY 12
Diag.ParallelOverK   T
Diag.DivideAndConquer F
MeshCutoff   300 Ry
SCF.FreeE.Tolerance 1E-3 eV
SCF.EDM.Tolerance   5E-3 eV
DM.Tolerance  1E-3
DM.Require.Energy.Convergence T
DM.NumberPulay 4
XC.Functional GGA
XC.Authors    PBE
UseSaveData        F
MD.TypeOfRun       CG
MD.VariableCell    F
MD.NumCGsteps      00
MD.MaxCGDispl      0.200000 Bohr
MD.MaxStressTol    1.000000 GPa
MD.MaxForceTol     0.010000 eV/Ang
WriteMDHistory T
WriteCoorStep T
WriteForces T
WriteCoorStep    T
WriteEigenValues T
WriteDM    F
MM.UnitsDistance Ang  # what this program prints out DO NOT CHANGE
MM.UnitsEnergy    eV  # what this program prints out DO NOT CHANGE
MM.Grimme.S6     0.75 # Grimme-paper for PBE (correct for your functional)
MM.Grimme.D     20.   # Grimme-paper (correct for your functional)
%block MM.Potentials
  1   1 Grimme     16.69      1.650 # Li, 10.1002/jcc.20495
  1   2 Grimme     17.40      2.277 # Li / C
  2   2 Grimme     18.14      2.904 # C, 10.1002/jcc.20495
%endblock MM.Potentials
#%block ProjectedDensityOfStates
# -200.0  120.0  0.4  12800  eV
#%endblock ProjectedDensityOfStates
************************** End of input data file *****************************

reinit: -----------------------------------------------------------------------
reinit: System Name: LiC6_scf
reinit: -----------------------------------------------------------------------
reinit: System Label: LiC6_scf
reinit: -----------------------------------------------------------------------
Reading two-body potentials
Grimme - two-body potential between 1 and 1
Grimme - two-body potential between 1 and 2
Grimme - two-body potential between 2 and 2

initatom: Reading input for the pseudopotentials and atomic orbitals ----------
Species number:   1 Atomic number:    3 Label: Li-gga
Species number:   2 Atomic number:    6 Label: C-gga

Ground state valence configuration:   2s01
Reading pseudopotential information in formatted form from Li-gga.psf

Valence configuration for pseudopotential generation:
2s( 1.00) rc: 2.28
2p( 0.00) rc: 2.28
3d( 0.00) rc: 2.59
4f( 0.00) rc: 2.59
Ground state valence configuration:   2s02  2p02
Reading pseudopotential information in formatted form from C-gga.psf

Valence configuration for pseudopotential generation:
2s( 2.00) rc: 1.56
2p( 2.00) rc: 1.56
3d( 0.00) rc: 1.56
4f( 0.00) rc: 1.56
relmxkb: Read Max KB Ang. Momentum=    2 for species C-gga
relmxkb: Read Max KB Ang. Momentum=    2 for species Li-gga

<basis_specs>
===============================================================================
Li-gga               Z=   3    Mass=  6.9400        Charge= 0.17977+309
Lmxo=0 Lmxkb= 2    BasisType=split      Semic=F
L=0  Nsemic=0  Cnfigmx=2
          i=1  nzeta=2  polorb=0  (2s)
            splnorm:   0.15000    
               vcte:    0.0000    
               rinn:    0.0000    
               qcoe:    0.0000    
               qyuk:    0.0000    
               qwid:   0.10000E-01
                rcs:    0.0000      0.0000    
            lambdas:    1.0000      1.0000    
-------------------------------------------------------------------------------
L=0  Nkbl=1  erefs: 0.17977+309
L=1  Nkbl=1  erefs: 0.17977+309
L=2  Nkbl=1  erefs: 0.17977+309
===============================================================================
</basis_specs>

atom: Called for Li-gga                (Z =   3)

read_vps: Pseudopotential generation method:
read_vps: ATM 3.2.2 Troullier-Martins                       
Valence charge for ps generation:    1.00000

read_vps: Pseudopotential includes a core correction:
read_vps: Pseudo-core for xc-correction

xc_check: Exchange-correlation functional:
xc_check: GGA Perdew, Burke & Ernzerhof 1996
V l=0 = -2*Zval/r beyond r=  2.2278
V l=1 = -2*Zval/r beyond r=  2.2278
V l=2 = -2*Zval/r beyond r=  2.5245
All V_l potentials equal beyond r=  2.4622
This should be close to max(r_c) in ps generation
All pots = -2*Zval/r beyond r=  2.5245

VLOCAL1: 99.0% of the norm of Vloc inside      7.160 Ry
VLOCAL1: 99.9% of the norm of Vloc inside     16.318 Ry
atom: Maximum radius for 4*pi*r*r*local-pseudopot. charge    2.86079
atom: Maximum radius for r*vlocal+2*Zval:    2.43160
GHOST: No ghost state for L =  0
GHOST: No ghost state for L =  1
GHOST: No ghost state for L =  2

KBgen: Kleinman-Bylander projectors: 
   l= 0   rc=  2.654023   el= -0.211234   Ekb=  1.742119   kbcos=  0.228463
   l= 1   rc=  2.721230   el= -0.080095   Ekb= -1.122375   kbcos= -0.147941
   l= 2   rc=  2.825246   el=  0.002001   Ekb= -0.207076   kbcos= -0.031965

KBgen: Total number of Kleinman-Bylander projectors:    9
atom: -------------------------------------------------------------------------

atom: SANKEY-TYPE ORBITALS:
atom: Selected multiple-zeta basis: split     

SPLIT: Orbitals with angular momentum L= 0

SPLIT: Basis orbitals for state 2s

SPLIT: PAO cut-off radius determined from an
SPLIT: energy shift=  0.000735 Ry

   izeta = 1
                 lambda =    1.000000
                     rc =   11.897381
                 energy =   -0.210580
                kinetic =    0.143382
    potential(screened) =   -0.353962
       potential(ionic) =   -0.533453

   izeta = 2
                 rmatch =    8.489163
              splitnorm =    0.150000
                 energy =   -0.186081
                kinetic =    0.225882
    potential(screened) =   -0.411964
       potential(ionic) =   -0.593024
atom: Total number of Sankey-type orbitals:  2

atm_pop: Valence configuration (for local Pseudopot. screening):
 2s( 1.00)                                                            
Vna: chval, zval:    1.00000   1.00000

Vna:  Cut-off radius for the neutral-atom potential:  11.897381
comcore: Pseudo-core radius Rcore=  3.450946

atom: _________________________________________________________________________

<basis_specs>
===============================================================================
C-gga                Z=   6    Mass=  12.010        Charge= 0.17977+309
Lmxo=1 Lmxkb= 2    BasisType=split      Semic=F
L=0  Nsemic=0  Cnfigmx=2
          i=1  nzeta=2  polorb=0  (2s)
            splnorm:   0.15000    
               vcte:    0.0000    
               rinn:    0.0000    
               qcoe:    0.0000    
               qyuk:    0.0000    
               qwid:   0.10000E-01
                rcs:    0.0000      0.0000    
            lambdas:    1.0000      1.0000    
L=1  Nsemic=0  Cnfigmx=2
          i=1  nzeta=2  polorb=0  (2p)
            splnorm:   0.15000    
               vcte:    0.0000    
               rinn:    0.0000    
               qcoe:    0.0000    
               qyuk:    0.0000    
               qwid:   0.10000E-01
                rcs:    0.0000      0.0000    
            lambdas:    1.0000      1.0000    
-------------------------------------------------------------------------------
L=0  Nkbl=1  erefs: 0.17977+309
L=1  Nkbl=1  erefs: 0.17977+309
L=2  Nkbl=1  erefs: 0.17977+309
===============================================================================
</basis_specs>

atom: Called for C-gga                 (Z =   6)

read_vps: Pseudopotential generation method:
read_vps: ATM 3.2.2 Troullier-Martins                       
Valence charge for ps generation:    4.00000

xc_check: Exchange-correlation functional:
xc_check: GGA Perdew, Burke & Ernzerhof 1996
V l=0 = -2*Zval/r beyond r=  1.5227
V l=1 = -2*Zval/r beyond r=  1.5227
V l=2 = -2*Zval/r beyond r=  1.5227
All V_l potentials equal beyond r=  1.4851
This should be close to max(r_c) in ps generation
All pots = -2*Zval/r beyond r=  1.5227

VLOCAL1: 99.0% of the norm of Vloc inside     19.682 Ry
VLOCAL1: 99.9% of the norm of Vloc inside     44.856 Ry
atom: Maximum radius for 4*pi*r*r*local-pseudopot. charge    1.79142
atom: Maximum radius for r*vlocal+2*Zval:    1.54183
GHOST: No ghost state for L =  0
GHOST: No ghost state for L =  1
GHOST: No ghost state for L =  2

KBgen: Kleinman-Bylander projectors: 
   l= 0   rc=  1.661951   el= -1.010689   Ekb=  5.289847   kbcos=  0.316429
   l= 1   rc=  1.661951   el= -0.388490   Ekb= -4.102504   kbcos= -0.351025
   l= 2   rc=  1.747182   el=  0.001971   Ekb= -1.006005   kbcos= -0.008530

KBgen: Total number of Kleinman-Bylander projectors:    9
atom: -------------------------------------------------------------------------

atom: SANKEY-TYPE ORBITALS:
atom: Selected multiple-zeta basis: split     

SPLIT: Orbitals with angular momentum L= 0

SPLIT: Basis orbitals for state 2s

SPLIT: PAO cut-off radius determined from an
SPLIT: energy shift=  0.000735 Ry

   izeta = 1
                 lambda =    1.000000
                     rc =    5.948690
                 energy =   -1.010099
                kinetic =    0.827121
    potential(screened) =   -1.837220
       potential(ionic) =   -5.392783

   izeta = 2
                 rmatch =    3.518811
              splitnorm =    0.150000
                 energy =   -0.877891
                kinetic =    1.289227
    potential(screened) =   -2.167118
       potential(ionic) =   -5.982073

SPLIT: Orbitals with angular momentum L= 1

SPLIT: Basis orbitals for state 2p

SPLIT: PAO cut-off radius determined from an
SPLIT: energy shift=  0.000735 Ry

   izeta = 1
                 lambda =    1.000000
                     rc =    7.638387
                 energy =   -0.387843
                kinetic =    2.314739
    potential(screened) =   -2.702582
       potential(ionic) =   -6.092371

   izeta = 2
                 rmatch =    3.840617
              splitnorm =    0.150000
                 energy =   -0.270479
                kinetic =    3.438347
    potential(screened) =   -3.708826
       potential(ionic) =   -7.497707
atom: Total number of Sankey-type orbitals:  8

atm_pop: Valence configuration (for local Pseudopot. screening):
 2s( 2.00)                                                            
 2p( 2.00)                                                            
Vna: chval, zval:    4.00000   4.00000

Vna:  Cut-off radius for the neutral-atom potential:   7.638387

atom: _________________________________________________________________________

prinput: Basis input ----------------------------------------------------------

PAO.BasisType split     

%block ChemicalSpeciesLabel
    1    3 Li-gga                  # Species index, atomic number, species label
    2    6 C-gga                   # Species index, atomic number, species label
%endblock ChemicalSpeciesLabel

%block PAO.Basis                 # Define Basis set
Li-gga                1                    # Species label, number of l-shells
 n=2   0   2                         # n, l, Nzeta 
  11.897      8.489   
   1.000      1.000   
C-gga                 2                    # Species label, number of l-shells
 n=2   0   2                         # n, l, Nzeta 
   5.949      3.519   
   1.000      1.000   
 n=2   1   2                         # n, l, Nzeta 
   7.638      3.841   
   1.000      1.000   
%endblock PAO.Basis

prinput: ----------------------------------------------------------------------

coor:   Atomic-coordinates input format  =     Cartesian coordinates
coor:                                          (in Angstroms)

siesta: Atomic coordinates (Bohr) and species
siesta:      0.00000   0.00000   0.00000  2        1
siesta:     -1.32825   2.30060   2.79669  1        2
siesta:     -2.74990   4.76296   2.79669  1        3
siesta:      2.74990   4.76296   2.79669  1        4
siesta:      1.32825   2.30060   2.79669  1        5
siesta:      2.65651   0.00000   2.79669  1        6
siesta:      5.49980   0.00000   2.79669  1        7

siesta: System type = bulk      

initatomlists: Number of atoms, orbitals, and projectors:      7    20    63

siesta: ******************** Simulation parameters ****************************
siesta:
siesta: The following are some of the parameters of the simulation.
siesta: A complete list of the parameters used, including default values,
siesta: can be found in file out.fdf
siesta:
redata: Spin configuration                          = none
redata: Number of spin components                   = 1
redata: Time-Reversal Symmetry                      = T
redata: Spin spiral                                 = F
redata: Long output                                 =   F
redata: Number of Atomic Species                    =        2
redata: Charge density info will appear in .RHO file
redata: Write Mulliken Pop.                         = NO
redata: Matel table size (NRTAB)                    =     1024
redata: Mesh Cutoff                                 =   300.0000 Ry
redata: Net charge of the system                    =     0.0000 |e|
redata: Min. number of SCF Iter                     =        0
redata: Max. number of SCF Iter                     =     1000
redata: SCF convergence failure will abort job
redata: SCF mix quantity                            = Hamiltonian
redata: Mix DM or H after convergence               =   F
redata: Recompute H after scf cycle                 =   F
redata: Mix DM in first SCF step                    =   T
redata: Write Pulay info on disk                    =   F
redata: New DM Occupancy tolerance                  = 0.000000000001
redata: No kicks to SCF
redata: DM Mixing Weight for Kicks                  =     0.5000
redata: Require Harris convergence for SCF          =   F
redata: Harris energy tolerance for SCF             =     0.000100 eV
redata: Require DM convergence for SCF              =   T
redata: DM tolerance for SCF                        =     0.001000
redata: Require EDM convergence for SCF             =   F
redata: EDM tolerance for SCF                       =     0.005000 eV
redata: Require H convergence for SCF               =   T
redata: Hamiltonian tolerance for SCF               =     0.001000 eV
redata: Require (free) Energy convergence for SCF   =   T
redata: (free) Energy tolerance for SCF             =     0.001000 eV
redata: Using Saved Data (generic)                  =   F
redata: Use continuation files for DM               =   F
redata: Neglect nonoverlap interactions             =   F
redata: Method of Calculation                       = Diagonalization
redata: Electronic Temperature                      =   299.9869 K
redata: Fix the spin of the system                  =   F
redata: Dynamics option                             = Single-point calculation
mix.SCF: Pulay mixing                            = Pulay
mix.SCF:    Variant                              = stable
mix.SCF:    History steps                        = 4
mix.SCF:    Linear mixing weight                 =     0.250000
mix.SCF:    Mixing weight                        =     0.250000
mix.SCF:    SVD condition                        = 0.1000E-07
redata: ***********************************************************************

%block SCF.Mixers
  Pulay
%endblock SCF.Mixers

%block SCF.Mixer.Pulay
  # Mixing method
  method pulay
  variant stable

  # Mixing options
  weight 0.2500
  weight.linear 0.2500
  history 4
%endblock SCF.Mixer.Pulay

DM_history_depth set to one: no extrapolation allowed by default for geometry relaxation
Size of DM history Fstack: 1
Total number of electrons:    10.000000
Total ionic charge:    10.000000

* ProcessorY, Blocksize:    2   1


* Orbital distribution balance (max,min):     5     5

k-point displ. along   1 input, could be:     0.00    0.50
k-point displ. along   2 input, could be:     0.00    0.50
k-point displ. along   3 input, could be:     0.00    0.50
 Kpoints in:           48 . Kpoints trimmed:           44

siesta: k-grid: Number of k-points =    44
siesta: k-grid: Cutoff (effective) =     5.920 Ang
siesta: k-grid: Supercell and displacements
siesta: k-grid:    4   0   0      0.000
siesta: k-grid:    0   4   0      0.000
siesta: k-grid:    0   0   4      0.000

diag: Algorithm                                     = Expert
diag: Parallel over k                               =   T
diag: Use parallel 2D distribution                  =   T
diag: Parallel block-size                           = 1
diag: Parallel distribution                         =     2 x     2
diag: Used triangular part                          = Lower
diag: Absolute tolerance                            =  0.100E-15
diag: Orthogonalization factor                      =  0.100E-05
diag: Memory factor                                 =  1.0000

superc: Internal auxiliary supercell:     9 x     9 x     9  =     729
superc: Number of atoms, orbitals, and projectors:   5103  14580  45927


ts: **************************************************************
ts: Save H and S matrices                           =    F
ts: Save DM and EDM matrices                        =    F
ts: Only save the overlap matrix S                  =    F
ts: **************************************************************

************************ Begin: TS CHECKS AND WARNINGS ************************
************************ End: TS CHECKS AND WARNINGS **************************


                     ====================================
                        Single-point calculation
                     ====================================

outcoor: Atomic coordinates (Ang):                          
    0.00000000    0.00000000    0.00000000   2       1  C-gga
   -0.70288177    1.21742694    1.47994400   1       2  Li-gga
   -1.45518323    2.52045129    1.47994400   1       3  Li-gga
    1.45518323    2.52045129    1.47994400   1       4  Li-gga
    0.70288177    1.21742694    1.47994400   1       5  Li-gga
    1.40576354    0.00000000    1.47994400   1       6  Li-gga
    2.91036646    0.00000000    1.47994400   1       7  Li-gga

superc: Internal auxiliary supercell:     9 x     9 x     9  =     729
superc: Number of atoms, orbitals, and projectors:   5103  14580  45927

outcell: Unit cell vectors (Ang):
        4.316130    0.000000    0.000000
       -2.158065    3.737878    0.000000
        0.000000    0.000000    2.959888

outcell: Cell vector modules (Ang)   :    4.316130    4.316130    2.959888
outcell: Cell angles (23,13,12) (deg):     90.0000     90.0000    120.0000
outcell: Cell volume (Ang**3)        :     47.7524
<dSpData1D:S at geom step 0
  <sparsity:sparsity for geom step 0
    nrows_g=20 nrows=5 sparsity=40.4325 nnzs=16173, refcount: 7>
  <dData1D:(new from dSpData1D) n=16173, refcount: 1>
refcount: 1>
new_DM -- step:     1
Initializing Density Matrix...
DM filled with atomic data:
<dSpData2D:DM initialized from atoms
  <sparsity:sparsity for geom step 0
    nrows_g=20 nrows=5 sparsity=40.4325 nnzs=16173, refcount: 8>
  <dData2D:DM n=16173 m=1, refcount: 1>
refcount: 1>
No. of atoms with KB's overlaping orbs in proc 0. Max # of overlaps:     388     437
New grid distribution:   1
           1       1:   20    1:   10    1:    8
           2       1:   20    1:   10    9:   16
           3       1:   20   11:   20    1:    8
           4       1:   20   11:   20    9:   16

InitMesh: MESH =    40 x    40 x    32 =       51200
InitMesh: (bp) =    20 x    20 x    16 =        6400
InitMesh: Mesh cutoff (required, used) =   300.000   316.498 Ry
ExtMesh (bp) on 0 =   156 x   146 x   148 =     3370848
New grid distribution:   2
           1       1:   10    1:   10    1:   16
           2      11:   20    1:   10    1:   16
           3       1:   10   11:   20    1:   16
           4      11:   20   11:   20    1:   16
New grid distribution:   3
           1       1:   10    1:   10    1:   16
           2      11:   20    1:   10    1:   16
           3       1:   10   11:   20    1:   16
           4      11:   20   11:   20    1:   16
Setting up quadratic distribution...
ExtMesh (bp) on 0 =   146 x   146 x   156 =     3325296
PhiOnMesh: Number of (b)points on node 0 =                 1600
PhiOnMesh: nlist on node 0 =               336217

stepf: Fermi-Dirac step function

siesta: Program's energy decomposition (eV):
siesta: Ebs     =      -122.845125
siesta: Eions   =       321.344870
siesta: Ena     =        78.749888
siesta: Ekin    =       203.248661
siesta: Enl     =       -10.961650
siesta: Eso     =         0.000000
siesta: Edftu   =         0.000000
siesta: DEna    =       -27.717024
siesta: DUscf   =        16.210891
siesta: DUext   =         0.000000
siesta: Exc     =      -116.768500
siesta: eta*DQ  =         0.000000
siesta: Emadel  =         0.000000
siesta: Emeta   =         0.000000
siesta: Emolmec =        -3.407235
siesta: Ekinion =         0.000000
siesta: Eharris =      -150.059737
siesta: Etot    =      -181.989837
siesta: FreeEng =      -181.993831

        iscf     Eharris(eV)        E_KS(eV)     FreeEng(eV)     dDmax    Ef(eV) dHmax(eV)
   scf:    1     -150.059737     -181.989837     -181.993831 40.197454-13.812731 14.575424
timer: Routine,Calls,Time,% = IterSCF        1       2.154  28.60
   scf:    2     -195.325851     -190.764413     -190.781515  8.754839-13.485927  2.805253
   scf:    3     -191.245722     -191.144745     -191.155692  2.028348-13.351081  0.198149
   scf:    4     -191.146974     -191.148209     -191.157935  1.228963-13.428513  0.234809
   scf:    5     -191.153444     -191.151500     -191.160622  0.299585-13.441639  0.024704
   scf:    6     -191.151342     -191.151454     -191.160625  0.064093-13.437926  0.023914
   scf:    7     -191.151534     -191.151504     -191.160651  0.029591-13.439814  0.001348
   scf:    8     -191.151502     -191.151503     -191.160651  0.001329-13.439740  0.000029
   scf:    9     -191.151503     -191.151503     -191.160651  0.000142-13.439753  0.000015

SCF Convergence by FreeE+DM+H criterion
|FreeE_i-FreeE_(i-1)| (eV) <     0.00100000
max |DM_out - DM_in|         :     0.0001421140
max |H_out - H_in|      (eV) :     0.0000153183
SCF cycle converged after 9 iterations

Using DM_out to compute the final energy and forces
No. of atoms with KB's overlaping orbs in proc 0. Max # of overlaps:     388     437

MM-Stress (kbar):       -4.86       -4.86       54.65        0.00        0.00       -0.00

siesta: E_KS(eV) =             -191.1515

siesta: E_KS - E_eggbox =      -191.1515

siesta: Atomic forces (eV/Ang):
     1    0.000000    0.000000    0.000000
     2    0.305913   -0.529517   -0.000000
     3   -0.305913    0.529517   -0.000000
     4    0.305825    0.529705   -0.000000
     5   -0.305825   -0.529705   -0.000000
     6   -0.611532    0.000170   -0.000000
     7    0.611532   -0.000170   -0.000000
----------------------------------------
   Tot   -0.000000   -0.000000   -0.000000
----------------------------------------
   Max    0.611532
   Res    0.326899    sqrt( Sum f_i^2 / 3N )
----------------------------------------
   Max    0.611532    constrained

Stress tensor Voigt[x,y,z,yz,xz,xy] (kbar):    -1362.02    -1362.08      367.33        0.00       -0.00       -0.05
(Free)E + p*V (eV/cell)     -167.7466
Target enthalpy (eV/cell)     -191.1607

siesta: Eigenvalues (eV):
  ik is       eps
   1  1  -24.3093  -18.5132  -17.3562  -14.8349  -13.6549  -13.1979   -6.9135   -0.8706    1.1010    1.1362
           5.6349   13.2194   17.4850   19.6965   22.1506   31.2624   34.5592   47.3075   51.6236   87.4521
   2  1  -24.5113  -18.3681  -15.4256  -15.3371  -15.0984  -13.7334   -7.4288   -0.9508   -0.9436    1.3767
           2.2395   10.7599   14.5902   19.9822   20.0213   21.1393   23.6460   32.4325   49.8141   62.8170
   3  1  -24.5113  -18.3681  -15.4257  -15.3370  -15.0984  -13.7333   -7.4288   -0.9508   -0.9435    1.3769
           2.2392   10.7599   14.5903   19.9822   20.0213   21.1392   23.6459   32.4326   49.8140   62.8169
   4  1  -24.3093  -18.5132  -17.3562  -14.8349  -13.6550  -13.1977   -6.9134   -0.8706    1.1007    1.1362
           5.6351   13.2194   17.4850   19.6964   22.1505   31.2624   34.5593   47.3075   51.6236   87.4523
   5  1  -24.5113  -18.3681  -15.4256  -15.3371  -15.0984  -13.7334   -7.4288   -0.9508   -0.9436    1.3767
           2.2395   10.7599   14.5902   19.9822   20.0213   21.1393   23.6460   32.4325   49.8141   62.8170
   6  1  -24.6553  -17.7901  -15.3530  -15.2642  -15.2641   -4.7667   -4.7667   -2.3756   -0.0536    1.6158
           1.6162   15.0509   19.5700   21.8400   21.8402   39.8872  140.7058  140.7059  161.8576  161.8577
   7  1  -24.2886  -18.7453  -16.2721  -15.5829  -14.8329  -12.6501   -5.6637   -1.7778    1.1473    4.4955
           6.6058   11.0595   13.8079   17.3778   20.3263   23.4384   28.5065   29.9466   39.5145   67.2441
   8  1  -24.3093  -18.5132  -17.3562  -14.8349  -13.6550  -13.1977   -6.9134   -0.8706    1.1007    1.1362
           5.6351   13.2194   17.4850   19.6964   22.1505   31.2624   34.5593   47.3075   51.6236   87.4523
   9  1  -24.3093  -18.5132  -17.3562  -14.8349  -13.6550  -13.1977   -6.9134   -0.8706    1.1007    1.1362
           5.6351   13.2194   17.4850   19.6964   22.1505   31.2624   34.5593   47.3075   51.6236   87.4523
  10  1  -24.2886  -18.7453  -16.2721  -15.5829  -14.8329  -12.6501   -5.6637   -1.7778    1.1473    4.4955
           6.6058   11.0595   13.8079   17.3778   20.3263   23.4384   28.5065   29.9466   39.5145   67.2441
  11  1  -24.3093  -18.5132  -17.3562  -14.8349  -13.6550  -13.1977   -6.9134   -0.8706    1.1007    1.1362
           5.6351   13.2194   17.4850   19.6964   22.1505   31.2624   34.5593   47.3075   51.6236   87.4523
  12  1  -24.2886  -18.7453  -16.2721  -15.5830  -14.8329  -12.6500   -5.6639   -1.7778    1.1473    4.4958
           6.6057   11.0595   13.8079   17.3777   20.3262   23.4384   28.5065   29.9466   39.5145   67.2436
  13  1  -23.9514  -17.8193  -16.9678  -16.7323  -13.5042  -13.4199   -6.3325   -2.1552    0.0785    0.0901
           1.6476    2.8911   13.5010   17.2676   19.0273   22.6496   29.0506   44.6142   48.5709   51.2119
  14  1  -24.1141  -18.3488  -16.4756  -15.3876  -14.6407  -13.0972   -5.5638   -5.3377    0.1590    1.3588
           2.6308   12.5960   17.1170   19.0935   20.7274   23.2598   29.6911   43.5668   46.3790   49.2652
  15  1  -24.1141  -18.3488  -16.4756  -15.3877  -14.6406  -13.0971   -5.5640   -5.3377    0.1591    1.3590
           2.6305   12.5960   17.1170   19.0934   20.7274   23.2599   29.6910   43.5668   46.3790   49.2652
  16  1  -23.9514  -17.8193  -16.9678  -16.7323  -13.5042  -13.4200   -6.3324   -2.1550    0.0784    0.0901
           1.6474    2.8911   13.5010   17.2677   19.0273   22.6496   29.0506   44.6141   48.5709   51.2119
  17  1  -24.1141  -18.3488  -16.4756  -15.3876  -14.6407  -13.0972   -5.5638   -5.3377    0.1590    1.3588
           2.6308   12.5960   17.1170   19.0935   20.7274   23.2598   29.6911   43.5668   46.3790   49.2652
  18  1  -24.2690  -18.3982  -15.7144  -15.2168  -15.2167   -6.6742   -3.6370   -3.6369    0.9913    1.6460
           1.6464   20.2296   21.0304   21.0305   21.8720   21.8721   22.3277   44.0319   44.0319   98.0386
  19  1  -24.1141  -18.3488  -16.4756  -15.3876  -14.6407  -13.0972   -5.5638   -5.3377    0.1590    1.3588
           2.6308   12.5960   17.1170   19.0935   20.7274   23.2598   29.6911   43.5668   46.3790   49.2652
  20  1  -23.8935  -18.1792  -17.2108  -15.5312  -14.9583  -13.1945   -3.8938   -3.8807   -0.2999    0.0791
           9.6306   12.6297   16.8246   18.3038   23.4426   25.6700   36.6940   44.4543   54.5543   58.7076
  21  1  -24.1141  -18.3488  -16.4756  -15.3877  -14.6406  -13.0971   -5.5640   -5.3377    0.1591    1.3590
           2.6305   12.5960   17.1170   19.0934   20.7274   23.2599   29.6910   43.5668   46.3790   49.2652
  22  1  -24.1141  -18.3488  -16.4756  -15.3876  -14.6407  -13.0972   -5.5638   -5.3377    0.1590    1.3588
           2.6308   12.5960   17.1170   19.0935   20.7274   23.2598   29.6911   43.5668   46.3790   49.2652
  23  1  -23.9514  -17.8193  -16.9678  -16.7323  -13.5042  -13.4199   -6.3325   -2.1552    0.0785    0.0901
           1.6476    2.8911   13.5010   17.2676   19.0273   22.6496   29.0506   44.6142   48.5709   51.2119
  24  1  -23.9514  -17.8193  -16.9678  -16.7323  -13.5042  -13.4200   -6.3324   -2.1550    0.0784    0.0901
           1.6474    2.8911   13.5010   17.2677   19.0273   22.6496   29.0506   44.6141   48.5709   51.2119
  25  1  -23.9514  -17.8193  -16.9678  -16.7323  -13.5042  -13.4200   -6.3324   -2.1550    0.0784    0.0901
           1.6474    2.8911   13.5010   17.2677   19.0273   22.6496   29.0506   44.6141   48.5709   51.2119
  26  1  -23.8935  -18.1792  -17.2108  -15.5312  -14.9583  -13.1945   -3.8938   -3.8807   -0.2999    0.0791
           9.6306   12.6297   16.8246   18.3038   23.4426   25.6700   36.6940   44.4543   54.5543   58.7076
  27  1  -23.9514  -17.8193  -16.9678  -16.7323  -13.5042  -13.4200   -6.3324   -2.1550    0.0784    0.0901
           1.6474    2.8911   13.5010   17.2677   19.0273   22.6496   29.0506   44.6141   48.5709   51.2119
  28  1  -23.8935  -18.1792  -17.2108  -15.5313  -14.9583  -13.1944   -3.8935   -3.8810   -0.2999    0.0791
           9.6306   12.6297   16.8246   18.3038   23.4425   25.6700   36.6940   44.4542   54.5543   58.7076
  29  1  -23.4393  -18.8160  -17.8021  -16.7232  -13.3358  -12.5731   -6.0620   -3.6553   -0.9257   -0.6750
           2.6970   12.9143   14.3626   20.2272   22.2496   23.0827   33.5337   48.3570   51.9939   65.0637
  30  1  -23.7600  -18.6641  -17.0306  -15.6644  -13.9202  -10.4468   -6.7629   -3.8111    0.0835    0.2085
           1.9181   11.7267   16.1420   20.8288   29.3688   29.5873   33.0969   44.8390   45.3773   79.4755
  31  1  -23.7600  -18.6641  -17.0305  -15.6644  -13.9202  -10.4468   -6.7627   -3.8111    0.0836    0.2081
           1.9181   11.7267   16.1421   20.8288   29.3688   29.5873   33.0968   44.8390   45.3773   79.4756
  32  1  -23.4393  -18.8160  -17.8021  -16.7232  -13.3359  -12.5730   -6.0616   -3.6557   -0.9257   -0.6750
           2.6970   12.9143   14.3626   20.2272   22.2497   23.0826   33.5336   48.3570   51.9938   65.0636
  33  1  -23.7600  -18.6641  -17.0306  -15.6644  -13.9202  -10.4468   -6.7629   -3.8111    0.0835    0.2085
           1.9181   11.7267   16.1420   20.8288   29.3688   29.5873   33.0969   44.8390   45.3773   79.4755
  34  1  -23.9972  -19.3200  -15.3165  -15.3164  -14.7157   -6.2088   -3.0663   -3.0663   -2.6628   -2.6627
           2.0581    2.2831    2.2836   21.4909   29.1338   29.1338   29.5331   29.5332   46.7897  116.1026
  35  1  -23.7600  -18.6641  -17.0306  -15.6644  -13.9202  -10.4468   -6.7629   -3.8111    0.0835    0.2085
           1.9181   11.7267   16.1420   20.8288   29.3688   29.5873   33.0969   44.8390   45.3773   79.4755
  36  1  -23.4175  -18.9878  -18.2656  -15.9752  -13.2611  -13.2223   -6.1244   -5.0051   -1.9493   -1.1128
           1.7780   15.6177   15.8071   17.3030   19.7376   27.2229   30.3435   54.9594   59.4856   66.7663
  37  1  -23.7600  -18.6641  -17.0305  -15.6644  -13.9202  -10.4468   -6.7627   -3.8111    0.0836    0.2081
           1.9181   11.7267   16.1421   20.8288   29.3688   29.5873   33.0968   44.8390   45.3773   79.4756
  38  1  -23.7600  -18.6641  -17.0306  -15.6644  -13.9202  -10.4468   -6.7629   -3.8111    0.0835    0.2085
           1.9181   11.7267   16.1420   20.8288   29.3688   29.5873   33.0969   44.8390   45.3773   79.4755
  39  1  -23.4393  -18.8160  -17.8021  -16.7232  -13.3358  -12.5731   -6.0620   -3.6553   -0.9257   -0.6750
           2.6970   12.9143   14.3626   20.2272   22.2496   23.0827   33.5337   48.3570   51.9939   65.0637
  40  1  -23.4393  -18.8160  -17.8021  -16.7232  -13.3359  -12.5730   -6.0616   -3.6557   -0.9257   -0.6750
           2.6970   12.9143   14.3626   20.2272   22.2497   23.0826   33.5336   48.3570   51.9938   65.0636
  41  1  -23.4393  -18.8160  -17.8021  -16.7232  -13.3359  -12.5730   -6.0616   -3.6557   -0.9257   -0.6750
           2.6970   12.9143   14.3626   20.2272   22.2497   23.0826   33.5336   48.3570   51.9938   65.0636
  42  1  -23.4175  -18.9878  -18.2656  -15.9752  -13.2611  -13.2223   -6.1244   -5.0051   -1.9493   -1.1128
           1.7780   15.6177   15.8071   17.3030   19.7376   27.2229   30.3435   54.9594   59.4856   66.7663
  43  1  -23.4393  -18.8160  -17.8021  -16.7232  -13.3359  -12.5730   -6.0616   -3.6557   -0.9257   -0.6750
           2.6970   12.9143   14.3626   20.2272   22.2497   23.0826   33.5336   48.3570   51.9938   65.0636
  44  1  -23.4175  -18.9878  -18.2656  -15.9753  -13.2610  -13.2223   -6.1241   -5.0051   -1.9493   -1.1132
           1.7780   15.6177   15.8070   17.3031   19.7376   27.2229   30.3435   54.9594   59.4856   66.7662
siesta: Fermi energy =     -13.439753 eV

siesta: Program's energy decomposition (eV):
siesta: Ebs     =      -178.425438
siesta: Eions   =       321.344870
siesta: Ena     =        78.749888
siesta: Ekin    =       157.445239
siesta: Enl     =         4.226624
siesta: Eso     =         0.000000
siesta: Edftu   =         0.000000
siesta: DEna    =        -1.564122
siesta: DUscf   =         2.001547
siesta: DUext   =         0.000000
siesta: Exc     =      -107.258575
siesta: eta*DQ  =         0.000000
siesta: Emadel  =         0.000000
siesta: Emeta   =         0.000000
siesta: Emolmec =        -3.407235
siesta: Ekinion =         0.000000
siesta: Eharris =      -191.151503
siesta: Etot    =      -191.151503
siesta: FreeEng =      -191.160651

siesta: Final energy (eV):
siesta:  Band Struct. =    -178.425438
siesta:       Kinetic =     157.445239
siesta:       Hartree =      60.041418
siesta:       Edftu   =       0.000000
siesta:       Eso     =       0.000000
siesta:    Ext. field =       0.000000
siesta:   Exch.-corr. =    -107.258575
siesta:  Ion-electron =    -336.484480
siesta:       Ion-ion =      38.512131
siesta:       Ekinion =       0.000000
siesta:         Total =    -191.151503
siesta:         Fermi =     -13.439753

siesta: Atomic forces (eV/Ang):
siesta:      1    0.000000    0.000000    0.000000
siesta:      2    0.305913   -0.529517   -0.000000
siesta:      3   -0.305913    0.529517   -0.000000
siesta:      4    0.305825    0.529705   -0.000000
siesta:      5   -0.305825   -0.529705   -0.000000
siesta:      6   -0.611532    0.000170   -0.000000
siesta:      7    0.611532   -0.000170   -0.000000
siesta: ----------------------------------------
siesta:    Tot   -0.000000   -0.000000   -0.000000

siesta: Stress tensor (static) (eV/Ang**3):
siesta:    -0.850097   -0.000033   -0.000000
siesta:    -0.000033   -0.850135    0.000000
siesta:    -0.000000    0.000000    0.229269

siesta: Cell volume =         47.752371 Ang**3

siesta: Pressure (static):
siesta:                Solid            Molecule  Units
siesta:           0.00534023          0.00513035  Ry/Bohr**3
siesta:           0.49032134          0.47105168  eV/Ang**3
siesta:         785.58989274        754.71616029  kBar
(Free)E+ p_basis*V_orbitals  =        -179.901333
(Free)Eharris+ p_basis*V_orbitals  =        -179.901333

cite: Please see "LiC6_scf.bib" for an exhaustive BiBTeX file.
cite: Please clearly indicate Siesta version in published work: 4.1.5
cite: This calculation has made use of the following articles
cite: which are encouraged to be cited in a published work.
        Primary SIESTA paper
          DOI: www.doi.org/10.1088/0953-8984/14/11/302

>> End of run:   9-NOV-2022  10:29:05
Job completed
