Siesta Version  : 4.1.5
Architecture    : x86_64-unknown-linux-gnu--unknown
Compiler version: GNU Fortran (GCC) 11.3.0
Compiler flags  : mpif90 -g -O2 -fallow-argument-mismatch
PP flags        : -DMPI -DFC_HAVE_FLUSH -DFC_HAVE_ABORT
Libraries       :  -I/global/software/sl-7.x86_64/modules/intel/2020.4.304/mkl/include  /globall/software/sl-7.x86_64/modules/intel/2020.4.304/mkl/lib/intel64/libmkl_scalapack_lp64.a -Wl,--start-group /global/software/sl-7.x86_64/modules/intel/2020.4.304/mkl/lib/intel64/libmkl_intel_lp64.a /global/software/sl-7.x86_64/modules/intel/2020.4.304/mkl/lib/intel64/libmkl_sequential.a /global/software/sl-7.x86_64/modules/intel/2020.4.304/mkl/lib/intel64/libmkl_core.a /global/software/sl-7.x86_64/modules/intel/2020.4.304/mkl/lib/intel64/libmkl_blacs_openmpi_lp64.a -Wl,--end-group -lpthread -lm -ldl
PARALLEL version

* Running on 4 nodes in parallel
>> Start of run:   9-NOV-2022  10:35:51

                           ***********************       
                           *  WELCOME TO SIESTA  *       
                           ***********************       

reinit: Reading from standard input
reinit: Dumped input in INPUT_TMP.18063
************************** Dump of input data file ****************************
SystemName LiC6_scf
SystemLabel LiC6_scf
NumberOfAtoms   7
NumberOfSpecies 2
%block ChemicalSpeciesLabel
1  3   Li-gga
2  6   C-gga
%endblock ChemicalSpeciesLabel
PAO.BasisSize  DZ
PAO.EnergyShift  10 meV
%block PS.Lmax
C-gga   2
Li-gga  2
%endblock PS.Lmax
LatticeConstant 1.000000 Ang
%block LatticeVectors
	4.3161300000	0.0000000000	0.0000000000
	-2.1580650000	3.7378782260	0.0000000000
	0.0000000000	0.0000000000	3.7738572000
%endblock LatticeVectors
AtomicCoordinatesFormat Ang
%block AtomicCoordinatesAndAtomicSpecies
	0.00000000	0.00000000	0.00000000	2
	-0.70288177	1.21742694	1.88692860	1
	-1.45518323	2.52045129	1.88692860	1
	1.45518323	2.52045129	1.88692860	1
	0.70288177	1.21742694	1.88692860	1
	1.40576354	0.00000000	1.88692860	1
	2.91036646	0.00000000	1.88692860	1
%endblock AtomicCoordinatesAndAtomicSpecies
Kgrid_NoTRS  T
%block kgrid_MonkhorstPack
4       0       0       0.0
0       4       0       0.0
0       0       4       0.0
%endblock kgrid_MonkhorstPack
AtomCoorFormatOut Ang
BlockSize 1
#ProcessorY 12
Diag.ParallelOverK   T
Diag.DivideAndConquer F
MeshCutoff   300 Ry
SCF.FreeE.Tolerance 1E-3 eV
SCF.EDM.Tolerance   5E-3 eV
DM.Tolerance  1E-3
DM.Require.Energy.Convergence T
DM.NumberPulay 4
XC.Functional GGA
XC.Authors    PBE
UseSaveData        F
MD.TypeOfRun       CG
MD.VariableCell    F
MD.NumCGsteps      00
MD.MaxCGDispl      0.200000 Bohr
MD.MaxStressTol    1.000000 GPa
MD.MaxForceTol     0.010000 eV/Ang
WriteMDHistory T
WriteCoorStep T
WriteForces T
WriteCoorStep    T
WriteEigenValues T
WriteDM    F
MM.UnitsDistance Ang  # what this program prints out DO NOT CHANGE
MM.UnitsEnergy    eV  # what this program prints out DO NOT CHANGE
MM.Grimme.S6     0.75 # Grimme-paper for PBE (correct for your functional)
MM.Grimme.D     20.   # Grimme-paper (correct for your functional)
%block MM.Potentials
  1   1 Grimme     16.69      1.650 # Li, 10.1002/jcc.20495
  1   2 Grimme     17.40      2.277 # Li / C
  2   2 Grimme     18.14      2.904 # C, 10.1002/jcc.20495
%endblock MM.Potentials
#%block ProjectedDensityOfStates
# -200.0  120.0  0.4  12800  eV
#%endblock ProjectedDensityOfStates
************************** End of input data file *****************************

reinit: -----------------------------------------------------------------------
reinit: System Name: LiC6_scf
reinit: -----------------------------------------------------------------------
reinit: System Label: LiC6_scf
reinit: -----------------------------------------------------------------------
Reading two-body potentials
Grimme - two-body potential between 1 and 1
Grimme - two-body potential between 1 and 2
Grimme - two-body potential between 2 and 2

initatom: Reading input for the pseudopotentials and atomic orbitals ----------
Species number:   1 Atomic number:    3 Label: Li-gga
Species number:   2 Atomic number:    6 Label: C-gga

Ground state valence configuration:   2s01
Reading pseudopotential information in formatted form from Li-gga.psf

Valence configuration for pseudopotential generation:
2s( 1.00) rc: 2.28
2p( 0.00) rc: 2.28
3d( 0.00) rc: 2.59
4f( 0.00) rc: 2.59
Ground state valence configuration:   2s02  2p02
Reading pseudopotential information in formatted form from C-gga.psf

Valence configuration for pseudopotential generation:
2s( 2.00) rc: 1.56
2p( 2.00) rc: 1.56
3d( 0.00) rc: 1.56
4f( 0.00) rc: 1.56
relmxkb: Read Max KB Ang. Momentum=    2 for species C-gga
relmxkb: Read Max KB Ang. Momentum=    2 for species Li-gga

<basis_specs>
===============================================================================
Li-gga               Z=   3    Mass=  6.9400        Charge= 0.17977+309
Lmxo=0 Lmxkb= 2    BasisType=split      Semic=F
L=0  Nsemic=0  Cnfigmx=2
          i=1  nzeta=2  polorb=0  (2s)
            splnorm:   0.15000    
               vcte:    0.0000    
               rinn:    0.0000    
               qcoe:    0.0000    
               qyuk:    0.0000    
               qwid:   0.10000E-01
                rcs:    0.0000      0.0000    
            lambdas:    1.0000      1.0000    
-------------------------------------------------------------------------------
L=0  Nkbl=1  erefs: 0.17977+309
L=1  Nkbl=1  erefs: 0.17977+309
L=2  Nkbl=1  erefs: 0.17977+309
===============================================================================
</basis_specs>

atom: Called for Li-gga                (Z =   3)

read_vps: Pseudopotential generation method:
read_vps: ATM 3.2.2 Troullier-Martins                       
Valence charge for ps generation:    1.00000

read_vps: Pseudopotential includes a core correction:
read_vps: Pseudo-core for xc-correction

xc_check: Exchange-correlation functional:
xc_check: GGA Perdew, Burke & Ernzerhof 1996
V l=0 = -2*Zval/r beyond r=  2.2278
V l=1 = -2*Zval/r beyond r=  2.2278
V l=2 = -2*Zval/r beyond r=  2.5245
All V_l potentials equal beyond r=  2.4622
This should be close to max(r_c) in ps generation
All pots = -2*Zval/r beyond r=  2.5245

VLOCAL1: 99.0% of the norm of Vloc inside      7.160 Ry
VLOCAL1: 99.9% of the norm of Vloc inside     16.318 Ry
atom: Maximum radius for 4*pi*r*r*local-pseudopot. charge    2.86079
atom: Maximum radius for r*vlocal+2*Zval:    2.43160
GHOST: No ghost state for L =  0
GHOST: No ghost state for L =  1
GHOST: No ghost state for L =  2

KBgen: Kleinman-Bylander projectors: 
   l= 0   rc=  2.654023   el= -0.211234   Ekb=  1.742119   kbcos=  0.228463
   l= 1   rc=  2.721230   el= -0.080095   Ekb= -1.122375   kbcos= -0.147941
   l= 2   rc=  2.825246   el=  0.002001   Ekb= -0.207076   kbcos= -0.031965

KBgen: Total number of Kleinman-Bylander projectors:    9
atom: -------------------------------------------------------------------------

atom: SANKEY-TYPE ORBITALS:
atom: Selected multiple-zeta basis: split     

SPLIT: Orbitals with angular momentum L= 0

SPLIT: Basis orbitals for state 2s

SPLIT: PAO cut-off radius determined from an
SPLIT: energy shift=  0.000735 Ry

   izeta = 1
                 lambda =    1.000000
                     rc =   11.897381
                 energy =   -0.210580
                kinetic =    0.143382
    potential(screened) =   -0.353962
       potential(ionic) =   -0.533453

   izeta = 2
                 rmatch =    8.489163
              splitnorm =    0.150000
                 energy =   -0.186081
                kinetic =    0.225882
    potential(screened) =   -0.411964
       potential(ionic) =   -0.593024
atom: Total number of Sankey-type orbitals:  2

atm_pop: Valence configuration (for local Pseudopot. screening):
 2s( 1.00)                                                            
Vna: chval, zval:    1.00000   1.00000

Vna:  Cut-off radius for the neutral-atom potential:  11.897381
comcore: Pseudo-core radius Rcore=  3.450946

atom: _________________________________________________________________________

<basis_specs>
===============================================================================
C-gga                Z=   6    Mass=  12.010        Charge= 0.17977+309
Lmxo=1 Lmxkb= 2    BasisType=split      Semic=F
L=0  Nsemic=0  Cnfigmx=2
          i=1  nzeta=2  polorb=0  (2s)
            splnorm:   0.15000    
               vcte:    0.0000    
               rinn:    0.0000    
               qcoe:    0.0000    
               qyuk:    0.0000    
               qwid:   0.10000E-01
                rcs:    0.0000      0.0000    
            lambdas:    1.0000      1.0000    
L=1  Nsemic=0  Cnfigmx=2
          i=1  nzeta=2  polorb=0  (2p)
            splnorm:   0.15000    
               vcte:    0.0000    
               rinn:    0.0000    
               qcoe:    0.0000    
               qyuk:    0.0000    
               qwid:   0.10000E-01
                rcs:    0.0000      0.0000    
            lambdas:    1.0000      1.0000    
-------------------------------------------------------------------------------
L=0  Nkbl=1  erefs: 0.17977+309
L=1  Nkbl=1  erefs: 0.17977+309
L=2  Nkbl=1  erefs: 0.17977+309
===============================================================================
</basis_specs>

atom: Called for C-gga                 (Z =   6)

read_vps: Pseudopotential generation method:
read_vps: ATM 3.2.2 Troullier-Martins                       
Valence charge for ps generation:    4.00000

xc_check: Exchange-correlation functional:
xc_check: GGA Perdew, Burke & Ernzerhof 1996
V l=0 = -2*Zval/r beyond r=  1.5227
V l=1 = -2*Zval/r beyond r=  1.5227
V l=2 = -2*Zval/r beyond r=  1.5227
All V_l potentials equal beyond r=  1.4851
This should be close to max(r_c) in ps generation
All pots = -2*Zval/r beyond r=  1.5227

VLOCAL1: 99.0% of the norm of Vloc inside     19.682 Ry
VLOCAL1: 99.9% of the norm of Vloc inside     44.856 Ry
atom: Maximum radius for 4*pi*r*r*local-pseudopot. charge    1.79142
atom: Maximum radius for r*vlocal+2*Zval:    1.54183
GHOST: No ghost state for L =  0
GHOST: No ghost state for L =  1
GHOST: No ghost state for L =  2

KBgen: Kleinman-Bylander projectors: 
   l= 0   rc=  1.661951   el= -1.010689   Ekb=  5.289847   kbcos=  0.316429
   l= 1   rc=  1.661951   el= -0.388490   Ekb= -4.102504   kbcos= -0.351025
   l= 2   rc=  1.747182   el=  0.001971   Ekb= -1.006005   kbcos= -0.008530

KBgen: Total number of Kleinman-Bylander projectors:    9
atom: -------------------------------------------------------------------------

atom: SANKEY-TYPE ORBITALS:
atom: Selected multiple-zeta basis: split     

SPLIT: Orbitals with angular momentum L= 0

SPLIT: Basis orbitals for state 2s

SPLIT: PAO cut-off radius determined from an
SPLIT: energy shift=  0.000735 Ry

   izeta = 1
                 lambda =    1.000000
                     rc =    5.948690
                 energy =   -1.010099
                kinetic =    0.827121
    potential(screened) =   -1.837220
       potential(ionic) =   -5.392783

   izeta = 2
                 rmatch =    3.518811
              splitnorm =    0.150000
                 energy =   -0.877891
                kinetic =    1.289227
    potential(screened) =   -2.167118
       potential(ionic) =   -5.982073

SPLIT: Orbitals with angular momentum L= 1

SPLIT: Basis orbitals for state 2p

SPLIT: PAO cut-off radius determined from an
SPLIT: energy shift=  0.000735 Ry

   izeta = 1
                 lambda =    1.000000
                     rc =    7.638387
                 energy =   -0.387843
                kinetic =    2.314739
    potential(screened) =   -2.702582
       potential(ionic) =   -6.092371

   izeta = 2
                 rmatch =    3.840617
              splitnorm =    0.150000
                 energy =   -0.270479
                kinetic =    3.438347
    potential(screened) =   -3.708826
       potential(ionic) =   -7.497707
atom: Total number of Sankey-type orbitals:  8

atm_pop: Valence configuration (for local Pseudopot. screening):
 2s( 2.00)                                                            
 2p( 2.00)                                                            
Vna: chval, zval:    4.00000   4.00000

Vna:  Cut-off radius for the neutral-atom potential:   7.638387

atom: _________________________________________________________________________

prinput: Basis input ----------------------------------------------------------

PAO.BasisType split     

%block ChemicalSpeciesLabel
    1    3 Li-gga                  # Species index, atomic number, species label
    2    6 C-gga                   # Species index, atomic number, species label
%endblock ChemicalSpeciesLabel

%block PAO.Basis                 # Define Basis set
Li-gga                1                    # Species label, number of l-shells
 n=2   0   2                         # n, l, Nzeta 
  11.897      8.489   
   1.000      1.000   
C-gga                 2                    # Species label, number of l-shells
 n=2   0   2                         # n, l, Nzeta 
   5.949      3.519   
   1.000      1.000   
 n=2   1   2                         # n, l, Nzeta 
   7.638      3.841   
   1.000      1.000   
%endblock PAO.Basis

prinput: ----------------------------------------------------------------------

coor:   Atomic-coordinates input format  =     Cartesian coordinates
coor:                                          (in Angstroms)

siesta: Atomic coordinates (Bohr) and species
siesta:      0.00000   0.00000   0.00000  2        1
siesta:     -1.32825   2.30060   3.56578  1        2
siesta:     -2.74990   4.76296   3.56578  1        3
siesta:      2.74990   4.76296   3.56578  1        4
siesta:      1.32825   2.30060   3.56578  1        5
siesta:      2.65651   0.00000   3.56578  1        6
siesta:      5.49980   0.00000   3.56578  1        7

siesta: System type = bulk      

initatomlists: Number of atoms, orbitals, and projectors:      7    20    63

siesta: ******************** Simulation parameters ****************************
siesta:
siesta: The following are some of the parameters of the simulation.
siesta: A complete list of the parameters used, including default values,
siesta: can be found in file out.fdf
siesta:
redata: Spin configuration                          = none
redata: Number of spin components                   = 1
redata: Time-Reversal Symmetry                      = T
redata: Spin spiral                                 = F
redata: Long output                                 =   F
redata: Number of Atomic Species                    =        2
redata: Charge density info will appear in .RHO file
redata: Write Mulliken Pop.                         = NO
redata: Matel table size (NRTAB)                    =     1024
redata: Mesh Cutoff                                 =   300.0000 Ry
redata: Net charge of the system                    =     0.0000 |e|
redata: Min. number of SCF Iter                     =        0
redata: Max. number of SCF Iter                     =     1000
redata: SCF convergence failure will abort job
redata: SCF mix quantity                            = Hamiltonian
redata: Mix DM or H after convergence               =   F
redata: Recompute H after scf cycle                 =   F
redata: Mix DM in first SCF step                    =   T
redata: Write Pulay info on disk                    =   F
redata: New DM Occupancy tolerance                  = 0.000000000001
redata: No kicks to SCF
redata: DM Mixing Weight for Kicks                  =     0.5000
redata: Require Harris convergence for SCF          =   F
redata: Harris energy tolerance for SCF             =     0.000100 eV
redata: Require DM convergence for SCF              =   T
redata: DM tolerance for SCF                        =     0.001000
redata: Require EDM convergence for SCF             =   F
redata: EDM tolerance for SCF                       =     0.005000 eV
redata: Require H convergence for SCF               =   T
redata: Hamiltonian tolerance for SCF               =     0.001000 eV
redata: Require (free) Energy convergence for SCF   =   T
redata: (free) Energy tolerance for SCF             =     0.001000 eV
redata: Using Saved Data (generic)                  =   F
redata: Use continuation files for DM               =   F
redata: Neglect nonoverlap interactions             =   F
redata: Method of Calculation                       = Diagonalization
redata: Electronic Temperature                      =   299.9869 K
redata: Fix the spin of the system                  =   F
redata: Dynamics option                             = Single-point calculation
mix.SCF: Pulay mixing                            = Pulay
mix.SCF:    Variant                              = stable
mix.SCF:    History steps                        = 4
mix.SCF:    Linear mixing weight                 =     0.250000
mix.SCF:    Mixing weight                        =     0.250000
mix.SCF:    SVD condition                        = 0.1000E-07
redata: ***********************************************************************

%block SCF.Mixers
  Pulay
%endblock SCF.Mixers

%block SCF.Mixer.Pulay
  # Mixing method
  method pulay
  variant stable

  # Mixing options
  weight 0.2500
  weight.linear 0.2500
  history 4
%endblock SCF.Mixer.Pulay

DM_history_depth set to one: no extrapolation allowed by default for geometry relaxation
Size of DM history Fstack: 1
Total number of electrons:    10.000000
Total ionic charge:    10.000000

* ProcessorY, Blocksize:    2   1


* Orbital distribution balance (max,min):     5     5

k-point displ. along   1 input, could be:     0.00    0.50
k-point displ. along   2 input, could be:     0.00    0.50
k-point displ. along   3 input, could be:     0.00    0.50
 Kpoints in:           48 . Kpoints trimmed:           44

siesta: k-grid: Number of k-points =    44
siesta: k-grid: Cutoff (effective) =     7.548 Ang
siesta: k-grid: Supercell and displacements
siesta: k-grid:    4   0   0      0.000
siesta: k-grid:    0   4   0      0.000
siesta: k-grid:    0   0   4      0.000

diag: Algorithm                                     = Expert
diag: Parallel over k                               =   T
diag: Use parallel 2D distribution                  =   T
diag: Parallel block-size                           = 1
diag: Parallel distribution                         =     2 x     2
diag: Used triangular part                          = Lower
diag: Absolute tolerance                            =  0.100E-15
diag: Orthogonalization factor                      =  0.100E-05
diag: Memory factor                                 =  1.0000

superc: Internal auxiliary supercell:     9 x     9 x     9  =     729
superc: Number of atoms, orbitals, and projectors:   5103  14580  45927


ts: **************************************************************
ts: Save H and S matrices                           =    F
ts: Save DM and EDM matrices                        =    F
ts: Only save the overlap matrix S                  =    F
ts: **************************************************************

************************ Begin: TS CHECKS AND WARNINGS ************************
************************ End: TS CHECKS AND WARNINGS **************************


                     ====================================
                        Single-point calculation
                     ====================================

outcoor: Atomic coordinates (Ang):                          
    0.00000000    0.00000000    0.00000000   2       1  C-gga
   -0.70288177    1.21742694    1.88692860   1       2  Li-gga
   -1.45518323    2.52045129    1.88692860   1       3  Li-gga
    1.45518323    2.52045129    1.88692860   1       4  Li-gga
    0.70288177    1.21742694    1.88692860   1       5  Li-gga
    1.40576354    0.00000000    1.88692860   1       6  Li-gga
    2.91036646    0.00000000    1.88692860   1       7  Li-gga

superc: Internal auxiliary supercell:     9 x     9 x     9  =     729
superc: Number of atoms, orbitals, and projectors:   5103  14580  45927

outcell: Unit cell vectors (Ang):
        4.316130    0.000000    0.000000
       -2.158065    3.737878    0.000000
        0.000000    0.000000    3.773857

outcell: Cell vector modules (Ang)   :    4.316130    4.316130    3.773857
outcell: Cell angles (23,13,12) (deg):     90.0000     90.0000    120.0000
outcell: Cell volume (Ang**3)        :     60.8843
<dSpData1D:S at geom step 0
  <sparsity:sparsity for geom step 0
    nrows_g=20 nrows=5 sparsity=31.0225 nnzs=12409, refcount: 7>
  <dData1D:(new from dSpData1D) n=12409, refcount: 1>
refcount: 1>
new_DM -- step:     1
Initializing Density Matrix...
DM filled with atomic data:
<dSpData2D:DM initialized from atoms
  <sparsity:sparsity for geom step 0
    nrows_g=20 nrows=5 sparsity=31.0225 nnzs=12409, refcount: 8>
  <dData2D:DM n=12409 m=1, refcount: 1>
refcount: 1>
No. of atoms with KB's overlaping orbs in proc 0. Max # of overlaps:     308     345
New grid distribution:   1
           1       1:   20    1:   10    1:   10
           2       1:   20    1:   10   11:   20
           3       1:   20   11:   20    1:   10
           4       1:   20   11:   20   11:   20

InitMesh: MESH =    40 x    40 x    40 =       64000
InitMesh: (bp) =    20 x    20 x    20 =        8000
InitMesh: Mesh cutoff (required, used) =   300.000   310.492 Ry
ExtMesh (bp) on 0 =   156 x   146 x   146 =     3325296
New grid distribution:   2
           1       1:   20    1:   10    1:   10
           2       1:   20    1:   10   11:   20
           3       1:   20   11:   20    1:   10
           4       1:   20   11:   20   11:   20
New grid distribution:   3
           1       1:   20    1:   10    1:   10
           2       1:   20    1:   10   11:   20
           3       1:   20   11:   20    1:   10
           4       1:   20   11:   20   11:   20
Setting up quadratic distribution...
ExtMesh (bp) on 0 =   156 x   146 x   146 =     3325296
PhiOnMesh: Number of (b)points on node 0 =                 2000
PhiOnMesh: nlist on node 0 =               330635

stepf: Fermi-Dirac step function

siesta: Program's energy decomposition (eV):
siesta: Ebs     =      -121.546213
siesta: Eions   =       321.344870
siesta: Ena     =        87.435117
siesta: Ekin    =       156.224160
siesta: Enl     =         5.711324
siesta: Eso     =         0.000000
siesta: Edftu   =         0.000000
siesta: DEna    =        -7.246349
siesta: DUscf   =         4.928055
siesta: DUext   =         0.000000
siesta: Exc     =      -105.251722
siesta: eta*DQ  =         0.000000
siesta: Emadel  =         0.000000
siesta: Emeta   =         0.000000
siesta: Emolmec =        -3.293345
siesta: Ekinion =         0.000000
siesta: Eharris =      -167.106806
siesta: Etot    =      -182.837630
siesta: FreeEng =      -182.846996

        iscf     Eharris(eV)        E_KS(eV)     FreeEng(eV)     dDmax    Ef(eV) dHmax(eV)
   scf:    1     -167.106806     -182.837630     -182.846996 29.234945-11.170244  7.906553
timer: Routine,Calls,Time,% = IterSCF        1       1.668  27.21
   scf:    2     -186.724698     -185.681102     -185.687845  3.589036-11.013281  0.539700
   scf:    3     -185.704250     -185.696953     -185.703939  0.279664-11.013607  0.047387
   scf:    4     -185.701577     -185.699567     -185.706726  0.437215-11.047834  0.062657
   scf:    5     -185.699676     -185.699738     -185.706854  0.073564-11.053659  0.031628
   scf:    6     -185.699740     -185.699755     -185.706888  0.016901-11.052269  0.004939
   scf:    7     -185.699764     -185.699760     -185.706889  0.003031-11.052420  0.000078
   scf:    8     -185.699760     -185.699760     -185.706889  0.000317-11.052432  0.000077

SCF Convergence by FreeE+DM+H criterion
|FreeE_i-FreeE_(i-1)| (eV) <     0.00100000
max |DM_out - DM_in|         :     0.0003168562
max |H_out - H_in|      (eV) :     0.0000771555
SCF cycle converged after 8 iterations

Using DM_out to compute the final energy and forces
No. of atoms with KB's overlaping orbs in proc 0. Max # of overlaps:     308     345

MM-Stress (kbar):       -7.04       -7.04       23.05        0.00        0.00       -0.00

siesta: E_KS(eV) =             -185.6998

siesta: E_KS - E_eggbox =      -185.6998

siesta: Atomic forces (eV/Ang):
     1    0.000000    0.000000    0.000000
     2    0.699736   -1.211967   -0.000000
     3   -0.699736    1.211967   -0.000000
     4    0.699735    1.211976   -0.000000
     5   -0.699735   -1.211976   -0.000000
     6   -1.399462    0.000006   -0.000000
     7    1.399462   -0.000006   -0.000000
----------------------------------------
   Tot    0.000000   -0.000000    0.000000
----------------------------------------
   Max    1.399462
   Res    0.748045    sqrt( Sum f_i^2 / 3N )
----------------------------------------
   Max    1.399462    constrained

Stress tensor Voigt[x,y,z,yz,xz,xy] (kbar):    -1198.85    -1198.88      981.41        0.00        0.00       -0.02
(Free)E + p*V (eV/cell)     -167.7666
Target enthalpy (eV/cell)     -185.7069

siesta: Eigenvalues (eV):
  ik is       eps
   1  1  -20.5880  -15.0204  -14.0855  -13.9487   -9.9791   -9.5426   -6.8893    1.0051    2.7557    3.1947
           4.2765    8.4728   11.4306   15.9150   19.0006   20.5747   23.3394   30.1722   51.9798   62.9661
   2  1  -20.8130  -14.4376  -14.3203  -11.6490  -10.8522   -9.3530   -3.6459   -3.3358   -0.6030    2.6414
           3.7192    5.5165   18.3238   20.3391   21.8573   24.4207   25.2561   33.6282   42.7014   46.9788
   3  1  -20.8130  -14.4376  -14.3203  -11.6491  -10.8521   -9.3529   -3.6458   -3.3359   -0.6030    2.6414
           3.7189    5.5167   18.3239   20.3391   21.8572   24.4207   25.2560   33.6282   42.7013   46.9787
   4  1  -20.5880  -15.0204  -14.0855  -13.9487   -9.9792   -9.5425   -6.8893    1.0051    2.7559    3.1944
           4.2765    8.4728   11.4306   15.9150   19.0006   20.5747   23.3393   30.1723   51.9798   62.9660
   5  1  -20.8130  -14.4376  -14.3203  -11.6490  -10.8522   -9.3530   -3.6459   -3.3358   -0.6030    2.6414
           3.7192    5.5165   18.3238   20.3391   21.8573   24.4207   25.2561   33.6282   42.7014   46.9788
   6  1  -20.9185  -14.7600  -12.2499  -11.3450  -11.3448   -1.7195   -0.9824    0.9337    0.9338    3.1039
           3.1043    3.5337   22.6748   22.6750   24.2224   56.6247   56.6247   67.8817   67.8819  138.5648
   7  1  -20.5915  -15.2578  -14.0850  -11.8536  -11.5046   -9.0839   -4.9647   -2.2334    1.0066    3.4585
           9.0362   10.4699   15.6209   18.4417   22.1713   26.6500   26.6839   27.8831   58.2871   85.7273
   8  1  -20.5880  -15.0204  -14.0855  -13.9487   -9.9792   -9.5425   -6.8893    1.0051    2.7559    3.1944
           4.2765    8.4728   11.4306   15.9150   19.0006   20.5747   23.3393   30.1723   51.9798   62.9660
   9  1  -20.5880  -15.0204  -14.0855  -13.9487   -9.9792   -9.5425   -6.8893    1.0051    2.7559    3.1944
           4.2765    8.4728   11.4306   15.9150   19.0006   20.5747   23.3393   30.1723   51.9798   62.9660
  10  1  -20.5915  -15.2578  -14.0850  -11.8536  -11.5046   -9.0839   -4.9647   -2.2334    1.0066    3.4585
           9.0362   10.4699   15.6209   18.4417   22.1713   26.6500   26.6839   27.8831   58.2871   85.7273
  11  1  -20.5880  -15.0204  -14.0855  -13.9487   -9.9792   -9.5425   -6.8893    1.0051    2.7559    3.1944
           4.2765    8.4728   11.4306   15.9150   19.0006   20.5747   23.3393   30.1723   51.9798   62.9660
  12  1  -20.5914  -15.2578  -14.0850  -11.8537  -11.5046   -9.0838   -4.9647   -2.2337    1.0066    3.4587
           9.0362   10.4698   15.6209   18.4417   22.1713   26.6500   26.6839   27.8830   58.2871   85.7270
  13  1  -20.3046  -15.0696  -14.1283  -13.2124  -11.0943  -10.5093   -6.4084   -4.1243   -0.4478   -0.2130
           4.5677    4.8027   10.7751   18.8521   19.1259   24.0903   25.0303   29.6713   34.0558   59.9160
  14  1  -20.4561  -15.3018  -13.8533  -11.5357  -11.1643  -10.0653   -6.5306   -1.9565   -1.9228    3.0037
           4.4421    5.9763    6.7658   10.8897   17.1320   19.2421   22.2267   34.3485   43.6122   57.6221
  15  1  -20.4561  -15.3018  -13.8533  -11.5358  -11.1642  -10.0653   -6.5305   -1.9566   -1.9228    3.0040
           4.4418    5.9763    6.7658   10.8897   17.1320   19.2421   22.2267   34.3485   43.6122   57.6221
  16  1  -20.3046  -15.0696  -14.1283  -13.2125  -11.0943  -10.5093   -6.4083   -4.1242   -0.4479   -0.2129
           4.5675    4.8026   10.7752   18.8522   19.1258   24.0903   25.0303   29.6712   34.0558   59.9161
  17  1  -20.4561  -15.3018  -13.8533  -11.5357  -11.1643  -10.0653   -6.5306   -1.9565   -1.9228    3.0037
           4.4421    5.9763    6.7658   10.8897   17.1320   19.2421   22.2267   34.3485   43.6122   57.6221
  18  1  -20.6117  -15.5150  -13.0114  -11.2534  -11.2532   -7.4184   -1.2299   -0.0457   -0.0457    2.6489
           2.6493    9.1773    9.1773   11.5787   14.4195   14.4195   23.5815   24.2152   24.2153   38.2193
  19  1  -20.4561  -15.3018  -13.8533  -11.5357  -11.1643  -10.0653   -6.5306   -1.9565   -1.9228    3.0037
           4.4421    5.9763    6.7658   10.8897   17.1320   19.2421   22.2267   34.3485   43.6122   57.6221
  20  1  -20.2484  -15.0029  -14.4208  -11.7857  -11.7499  -11.0998   -4.7120   -4.1439   -2.5295   -2.0279
           3.5430    4.2764   14.4573   15.4304   16.1996   18.1085   27.6910   36.6455   47.0444   51.1981
  21  1  -20.4561  -15.3018  -13.8533  -11.5358  -11.1642  -10.0653   -6.5305   -1.9566   -1.9228    3.0040
           4.4418    5.9763    6.7658   10.8897   17.1320   19.2421   22.2267   34.3485   43.6122   57.6221
  22  1  -20.4561  -15.3018  -13.8533  -11.5357  -11.1643  -10.0653   -6.5306   -1.9565   -1.9228    3.0037
           4.4421    5.9763    6.7658   10.8897   17.1320   19.2421   22.2267   34.3485   43.6122   57.6221
  23  1  -20.3046  -15.0696  -14.1283  -13.2124  -11.0943  -10.5093   -6.4084   -4.1243   -0.4478   -0.2130
           4.5677    4.8027   10.7751   18.8521   19.1259   24.0903   25.0303   29.6713   34.0558   59.9160
  24  1  -20.3046  -15.0696  -14.1283  -13.2125  -11.0943  -10.5093   -6.4083   -4.1242   -0.4479   -0.2129
           4.5675    4.8026   10.7752   18.8522   19.1258   24.0903   25.0303   29.6712   34.0558   59.9161
  25  1  -20.3046  -15.0696  -14.1283  -13.2125  -11.0943  -10.5093   -6.4083   -4.1242   -0.4479   -0.2129
           4.5675    4.8026   10.7752   18.8522   19.1258   24.0903   25.0303   29.6712   34.0558   59.9161
  26  1  -20.2484  -15.0029  -14.4208  -11.7857  -11.7499  -11.0998   -4.7120   -4.1439   -2.5295   -2.0279
           3.5430    4.2764   14.4573   15.4304   16.1996   18.1085   27.6910   36.6455   47.0444   51.1981
  27  1  -20.3046  -15.0696  -14.1283  -13.2125  -11.0943  -10.5093   -6.4083   -4.1242   -0.4479   -0.2129
           4.5675    4.8026   10.7752   18.8522   19.1258   24.0903   25.0303   29.6712   34.0558   59.9161
  28  1  -20.2484  -15.0029  -14.4208  -11.7856  -11.7500  -11.0997   -4.7117   -4.1439   -2.5297   -2.0279
           3.5430    4.2762   14.4574   15.4304   16.1997   18.1084   27.6909   36.6455   47.0444   51.1980
  29  1  -20.0309  -15.9437  -13.2653  -12.6218  -12.2973  -11.6852   -3.0682   -2.8994   -1.4281   -0.5434
           1.8082    5.7430   18.5821   18.8833   19.9816   27.7598   28.1254   40.2760   51.6550   61.3050
  30  1  -20.2498  -16.0218  -13.1593  -12.6176  -11.4290  -10.2421   -3.3325   -2.6520   -2.0837    2.7769
           3.1658    4.6952   17.3075   22.2895   25.5174   27.6515   27.9593   40.9348   43.0115   47.4952
  31  1  -20.2498  -16.0218  -13.1593  -12.6175  -11.4291  -10.2421   -3.3323   -2.6520   -2.0837    2.7771
           3.1654    4.6952   17.3076   22.2895   25.5174   27.6515   27.9593   40.9347   43.0115   47.4953
  32  1  -20.0309  -15.9437  -13.2653  -12.6218  -12.2974  -11.6852   -3.0682   -2.8990   -1.4281   -0.5438
           1.8082    5.7431   18.5821   18.8833   19.9817   27.7598   28.1254   40.2760   51.6550   61.3050
  33  1  -20.2498  -16.0218  -13.1593  -12.6176  -11.4290  -10.2421   -3.3325   -2.6520   -2.0837    2.7769
           3.1658    4.6952   17.3075   22.2895   25.5174   27.6515   27.9593   40.9348   43.0115   47.4952
  34  1  -20.4244  -16.3369  -13.7144  -11.1595  -11.1593   -2.2870   -2.1711   -2.1711   -2.0597   -1.8917
          -1.8917    5.0872    5.0876   21.1792   22.4183   23.9514   23.9514   25.1294   25.1295   63.9683
  35  1  -20.2498  -16.0218  -13.1593  -12.6176  -11.4290  -10.2421   -3.3325   -2.6520   -2.0837    2.7769
           3.1658    4.6952   17.3075   22.2895   25.5174   27.6515   27.9593   40.9348   43.0115   47.4952
  36  1  -20.0202  -16.0074  -13.6728  -12.5666  -11.9513  -11.6750   -4.4311   -3.0476   -2.0684    1.0029
           1.9157   17.5772   17.6770   18.5004   24.7513   27.8783   59.6047   64.9609   71.7504  128.7280
  37  1  -20.2498  -16.0218  -13.1593  -12.6175  -11.4291  -10.2421   -3.3323   -2.6520   -2.0837    2.7771
           3.1654    4.6952   17.3076   22.2895   25.5174   27.6515   27.9593   40.9347   43.0115   47.4953
  38  1  -20.2498  -16.0218  -13.1593  -12.6176  -11.4290  -10.2421   -3.3325   -2.6520   -2.0837    2.7769
           3.1658    4.6952   17.3075   22.2895   25.5174   27.6515   27.9593   40.9348   43.0115   47.4952
  39  1  -20.0309  -15.9437  -13.2653  -12.6218  -12.2973  -11.6852   -3.0682   -2.8994   -1.4281   -0.5434
           1.8082    5.7430   18.5821   18.8833   19.9816   27.7598   28.1254   40.2760   51.6550   61.3050
  40  1  -20.0309  -15.9437  -13.2653  -12.6218  -12.2974  -11.6852   -3.0682   -2.8990   -1.4281   -0.5438
           1.8082    5.7431   18.5821   18.8833   19.9817   27.7598   28.1254   40.2760   51.6550   61.3050
  41  1  -20.0309  -15.9437  -13.2653  -12.6218  -12.2974  -11.6852   -3.0682   -2.8990   -1.4281   -0.5438
           1.8082    5.7431   18.5821   18.8833   19.9817   27.7598   28.1254   40.2760   51.6550   61.3050
  42  1  -20.0202  -16.0074  -13.6728  -12.5666  -11.9513  -11.6750   -4.4311   -3.0476   -2.0684    1.0029
           1.9157   17.5772   17.6770   18.5004   24.7513   27.8783   59.6047   64.9609   71.7504  128.7280
  43  1  -20.0309  -15.9437  -13.2653  -12.6218  -12.2974  -11.6852   -3.0682   -2.8990   -1.4281   -0.5438
           1.8082    5.7431   18.5821   18.8833   19.9817   27.7598   28.1254   40.2760   51.6550   61.3050
  44  1  -20.0202  -16.0074  -13.6727  -12.5666  -11.9512  -11.6751   -4.4311   -3.0472   -2.0684    1.0029
           1.9153   17.5771   17.6770   18.5004   24.7513   27.8783   59.6047   64.9609   71.7505  128.7279
siesta: Fermi energy =     -11.052432 eV

siesta: Program's energy decomposition (eV):
siesta: Ebs     =      -146.729732
siesta: Eions   =       321.344870
siesta: Ena     =        87.435117
siesta: Ekin    =       133.473704
siesta: Enl     =        12.941180
siesta: Eso     =         0.000000
siesta: Edftu   =         0.000000
siesta: DEna    =         4.640279
siesta: DUscf   =         0.793442
siesta: DUext   =         0.000000
siesta: Exc     =      -100.345266
siesta: eta*DQ  =         0.000000
siesta: Emadel  =         0.000000
siesta: Emeta   =         0.000000
siesta: Emolmec =        -3.293345
siesta: Ekinion =         0.000000
siesta: Eharris =      -185.699760
siesta: Etot    =      -185.699760
siesta: FreeEng =      -185.706889

siesta: Final energy (eV):
siesta:  Band Struct. =    -146.729732
siesta:       Kinetic =     133.473704
siesta:       Hartree =      49.252475
siesta:       Edftu   =       0.000000
siesta:       Eso     =       0.000000
siesta:    Ext. field =       0.000000
siesta:   Exch.-corr. =    -100.345266
siesta:  Ion-electron =    -268.166810
siesta:       Ion-ion =       3.379483
siesta:       Ekinion =       0.000000
siesta:         Total =    -185.699760
siesta:         Fermi =     -11.052432

siesta: Atomic forces (eV/Ang):
siesta:      1    0.000000    0.000000    0.000000
siesta:      2    0.699736   -1.211967   -0.000000
siesta:      3   -0.699736    1.211967   -0.000000
siesta:      4    0.699735    1.211976   -0.000000
siesta:      5   -0.699735   -1.211976   -0.000000
siesta:      6   -1.399462    0.000006   -0.000000
siesta:      7    1.399462   -0.000006   -0.000000
siesta: ----------------------------------------
siesta:    Tot    0.000000   -0.000000    0.000000

siesta: Stress tensor (static) (eV/Ang**3):
siesta:    -0.748258   -0.000012    0.000000
siesta:    -0.000012   -0.748271    0.000000
siesta:     0.000000    0.000000    0.612540

siesta: Cell volume =         60.884274 Ang**3

siesta: Pressure (static):
siesta:                Solid            Molecule  Units
siesta:           0.00320926          0.00283259  Ry/Bohr**3
siesta:           0.29466290          0.26007862  eV/Ang**3
siesta:         472.10712419        416.69639920  kBar
(Free)E+ p_basis*V_orbitals  =        -174.447571
(Free)Eharris+ p_basis*V_orbitals  =        -174.447571

cite: Please see "LiC6_scf.bib" for an exhaustive BiBTeX file.
cite: Please clearly indicate Siesta version in published work: 4.1.5
cite: This calculation has made use of the following articles
cite: which are encouraged to be cited in a published work.
        Primary SIESTA paper
          DOI: www.doi.org/10.1088/0953-8984/14/11/302

>> End of run:   9-NOV-2022  10:36:07
Job completed
