Siesta Version  : 4.1.5
Architecture    : x86_64-unknown-linux-gnu--unknown
Compiler version: GNU Fortran (GCC) 11.3.0
Compiler flags  : mpif90 -g -O2 -fallow-argument-mismatch
PP flags        : -DMPI -DFC_HAVE_FLUSH -DFC_HAVE_ABORT
Libraries       :  -I/global/software/sl-7.x86_64/modules/intel/2020.4.304/mkl/include  /globall/software/sl-7.x86_64/modules/intel/2020.4.304/mkl/lib/intel64/libmkl_scalapack_lp64.a -Wl,--start-group /global/software/sl-7.x86_64/modules/intel/2020.4.304/mkl/lib/intel64/libmkl_intel_lp64.a /global/software/sl-7.x86_64/modules/intel/2020.4.304/mkl/lib/intel64/libmkl_sequential.a /global/software/sl-7.x86_64/modules/intel/2020.4.304/mkl/lib/intel64/libmkl_core.a /global/software/sl-7.x86_64/modules/intel/2020.4.304/mkl/lib/intel64/libmkl_blacs_openmpi_lp64.a -Wl,--end-group -lpthread -lm -ldl
PARALLEL version

* Running on 4 nodes in parallel
>> Start of run:   9-NOV-2022   6:45:05

                           ***********************       
                           *  WELCOME TO SIESTA  *       
                           ***********************       

reinit: Reading from standard input
reinit: Dumped input in INPUT_TMP.72878
************************** Dump of input data file ****************************
SystemName LiC6_scf
SystemLabel LiC6_scf
NumberOfAtoms   7
NumberOfSpecies 2
%block ChemicalSpeciesLabel
1  3   Li-gga
2  6   C-gga
%endblock ChemicalSpeciesLabel
PAO.BasisSize  DZP
PAO.EnergyShift  10 meV
%block PS.Lmax
C-gga   2
Li-gga  2
%endblock PS.Lmax
LatticeConstant 1.000000 Ang
%block LatticeVectors
	4.3161300000	0.0000000000	0.0000000000
	-2.1580650000	3.7378782260	0.0000000000
	0.0000000000	0.0000000000	4.4398320000
%endblock LatticeVectors
AtomicCoordinatesFormat Ang
%block AtomicCoordinatesAndAtomicSpecies
	0.00000000	0.00000000	0.00000000	2
	-0.70288177	1.21742694	2.21991600	1
	-1.45518323	2.52045129	2.21991600	1
	1.45518323	2.52045129	2.21991600	1
	0.70288177	1.21742694	2.21991600	1
	1.40576354	0.00000000	2.21991600	1
	2.91036646	0.00000000	2.21991600	1
%endblock AtomicCoordinatesAndAtomicSpecies
Kgrid_NoTRS  T
%block kgrid_MonkhorstPack
3       0       0       0.0
0       3       0       0.0
0       0       3       0.0
%endblock kgrid_MonkhorstPack
AtomCoorFormatOut Ang
BlockSize 1
#ProcessorY 12
Diag.ParallelOverK   T
Diag.DivideAndConquer F
MeshCutoff   300 Ry
SCF.FreeE.Tolerance 1E-3 eV
SCF.EDM.Tolerance   5E-3 eV
DM.Tolerance  1E-3
DM.Require.Energy.Convergence T
DM.NumberPulay 4
XC.Functional GGA
XC.Authors    PBE
UseSaveData        F
MD.TypeOfRun       CG
MD.VariableCell    F
MD.NumCGsteps      00
MD.MaxCGDispl      0.200000 Bohr
MD.MaxStressTol    1.000000 GPa
MD.MaxForceTol     0.010000 eV/Ang
WriteMDHistory T
WriteCoorStep T
WriteForces T
WriteCoorStep    T
WriteEigenValues T
WriteDM    F
MM.UnitsDistance Ang  # what this program prints out DO NOT CHANGE
MM.UnitsEnergy    eV  # what this program prints out DO NOT CHANGE
MM.Grimme.S6     0.75 # Grimme-paper for PBE (correct for your functional)
MM.Grimme.D     20.   # Grimme-paper (correct for your functional)
%block MM.Potentials
  1   1 Grimme     16.69      1.650 # Li, 10.1002/jcc.20495
  1   2 Grimme     17.40      2.277 # Li / C
  2   2 Grimme     18.14      2.904 # C, 10.1002/jcc.20495
%endblock MM.Potentials
#%block ProjectedDensityOfStates
# -200.0  120.0  0.4  12800  eV
#%endblock ProjectedDensityOfStates
************************** End of input data file *****************************

reinit: -----------------------------------------------------------------------
reinit: System Name: LiC6_scf
reinit: -----------------------------------------------------------------------
reinit: System Label: LiC6_scf
reinit: -----------------------------------------------------------------------
Reading two-body potentials
Grimme - two-body potential between 1 and 1
Grimme - two-body potential between 1 and 2
Grimme - two-body potential between 2 and 2

initatom: Reading input for the pseudopotentials and atomic orbitals ----------
Species number:   1 Atomic number:    3 Label: Li-gga
Species number:   2 Atomic number:    6 Label: C-gga

Ground state valence configuration:   2s01
Reading pseudopotential information in formatted form from Li-gga.psf

Valence configuration for pseudopotential generation:
2s( 1.00) rc: 2.28
2p( 0.00) rc: 2.28
3d( 0.00) rc: 2.59
4f( 0.00) rc: 2.59
Ground state valence configuration:   2s02  2p02
Reading pseudopotential information in formatted form from C-gga.psf

Valence configuration for pseudopotential generation:
2s( 2.00) rc: 1.56
2p( 2.00) rc: 1.56
3d( 0.00) rc: 1.56
4f( 0.00) rc: 1.56
relmxkb: Read Max KB Ang. Momentum=    2 for species C-gga
relmxkb: Read Max KB Ang. Momentum=    2 for species Li-gga

<basis_specs>
===============================================================================
Li-gga               Z=   3    Mass=  6.9400        Charge= 0.17977+309
Lmxo=0 Lmxkb= 2    BasisType=split      Semic=F
L=0  Nsemic=0  Cnfigmx=2
          i=1  nzeta=2  polorb=1  (2s)
            splnorm:   0.15000    
               vcte:    0.0000    
               rinn:    0.0000    
               qcoe:    0.0000    
               qyuk:    0.0000    
               qwid:   0.10000E-01
                rcs:    0.0000      0.0000    
            lambdas:    1.0000      1.0000    
-------------------------------------------------------------------------------
L=0  Nkbl=1  erefs: 0.17977+309
L=1  Nkbl=1  erefs: 0.17977+309
L=2  Nkbl=1  erefs: 0.17977+309
===============================================================================
</basis_specs>

atom: Called for Li-gga                (Z =   3)

read_vps: Pseudopotential generation method:
read_vps: ATM 3.2.2 Troullier-Martins                       
Valence charge for ps generation:    1.00000

read_vps: Pseudopotential includes a core correction:
read_vps: Pseudo-core for xc-correction

xc_check: Exchange-correlation functional:
xc_check: GGA Perdew, Burke & Ernzerhof 1996
V l=0 = -2*Zval/r beyond r=  2.2278
V l=1 = -2*Zval/r beyond r=  2.2278
V l=2 = -2*Zval/r beyond r=  2.5245
All V_l potentials equal beyond r=  2.4622
This should be close to max(r_c) in ps generation
All pots = -2*Zval/r beyond r=  2.5245

VLOCAL1: 99.0% of the norm of Vloc inside      7.160 Ry
VLOCAL1: 99.9% of the norm of Vloc inside     16.318 Ry
atom: Maximum radius for 4*pi*r*r*local-pseudopot. charge    2.86079
atom: Maximum radius for r*vlocal+2*Zval:    2.43160
GHOST: No ghost state for L =  0
GHOST: No ghost state for L =  1
GHOST: No ghost state for L =  2

KBgen: Kleinman-Bylander projectors: 
   l= 0   rc=  2.654023   el= -0.211234   Ekb=  1.742119   kbcos=  0.228463
   l= 1   rc=  2.721230   el= -0.080095   Ekb= -1.122375   kbcos= -0.147941
   l= 2   rc=  2.825246   el=  0.002001   Ekb= -0.207076   kbcos= -0.031965

KBgen: Total number of Kleinman-Bylander projectors:    9
atom: -------------------------------------------------------------------------

atom: SANKEY-TYPE ORBITALS:
atom: Selected multiple-zeta basis: split     

SPLIT: Orbitals with angular momentum L= 0

SPLIT: Basis orbitals for state 2s

SPLIT: PAO cut-off radius determined from an
SPLIT: energy shift=  0.000735 Ry

   izeta = 1
                 lambda =    1.000000
                     rc =   11.897381
                 energy =   -0.210580
                kinetic =    0.143382
    potential(screened) =   -0.353962
       potential(ionic) =   -0.533453

   izeta = 2
                 rmatch =    8.489163
              splitnorm =    0.150000
                 energy =   -0.186081
                kinetic =    0.225882
    potential(screened) =   -0.411964
       potential(ionic) =   -0.593024

POLgen: Perturbative polarization orbital with L=  1

POLgen: Polarization orbital for state 2s

   izeta = 1
                     rc =   11.897381
                 energy =   -0.027011
                kinetic =    0.282985
    potential(screened) =   -0.309997
       potential(ionic) =   -0.490997
atom: Total number of Sankey-type orbitals:  5

atm_pop: Valence configuration (for local Pseudopot. screening):
 2s( 1.00)                                                            
Vna: chval, zval:    1.00000   1.00000

Vna:  Cut-off radius for the neutral-atom potential:  11.897381
comcore: Pseudo-core radius Rcore=  3.450946

atom: _________________________________________________________________________

<basis_specs>
===============================================================================
C-gga                Z=   6    Mass=  12.010        Charge= 0.17977+309
Lmxo=1 Lmxkb= 2    BasisType=split      Semic=F
L=0  Nsemic=0  Cnfigmx=2
          i=1  nzeta=2  polorb=0  (2s)
            splnorm:   0.15000    
               vcte:    0.0000    
               rinn:    0.0000    
               qcoe:    0.0000    
               qyuk:    0.0000    
               qwid:   0.10000E-01
                rcs:    0.0000      0.0000    
            lambdas:    1.0000      1.0000    
L=1  Nsemic=0  Cnfigmx=2
          i=1  nzeta=2  polorb=1  (2p)
            splnorm:   0.15000    
               vcte:    0.0000    
               rinn:    0.0000    
               qcoe:    0.0000    
               qyuk:    0.0000    
               qwid:   0.10000E-01
                rcs:    0.0000      0.0000    
            lambdas:    1.0000      1.0000    
-------------------------------------------------------------------------------
L=0  Nkbl=1  erefs: 0.17977+309
L=1  Nkbl=1  erefs: 0.17977+309
L=2  Nkbl=1  erefs: 0.17977+309
===============================================================================
</basis_specs>

atom: Called for C-gga                 (Z =   6)

read_vps: Pseudopotential generation method:
read_vps: ATM 3.2.2 Troullier-Martins                       
Valence charge for ps generation:    4.00000

xc_check: Exchange-correlation functional:
xc_check: GGA Perdew, Burke & Ernzerhof 1996
V l=0 = -2*Zval/r beyond r=  1.5227
V l=1 = -2*Zval/r beyond r=  1.5227
V l=2 = -2*Zval/r beyond r=  1.5227
All V_l potentials equal beyond r=  1.4851
This should be close to max(r_c) in ps generation
All pots = -2*Zval/r beyond r=  1.5227

VLOCAL1: 99.0% of the norm of Vloc inside     19.682 Ry
VLOCAL1: 99.9% of the norm of Vloc inside     44.856 Ry
atom: Maximum radius for 4*pi*r*r*local-pseudopot. charge    1.79142
atom: Maximum radius for r*vlocal+2*Zval:    1.54183
GHOST: No ghost state for L =  0
GHOST: No ghost state for L =  1
GHOST: No ghost state for L =  2

KBgen: Kleinman-Bylander projectors: 
   l= 0   rc=  1.661951   el= -1.010689   Ekb=  5.289847   kbcos=  0.316429
   l= 1   rc=  1.661951   el= -0.388490   Ekb= -4.102504   kbcos= -0.351025
   l= 2   rc=  1.747182   el=  0.001971   Ekb= -1.006005   kbcos= -0.008530

KBgen: Total number of Kleinman-Bylander projectors:    9
atom: -------------------------------------------------------------------------

atom: SANKEY-TYPE ORBITALS:
atom: Selected multiple-zeta basis: split     

SPLIT: Orbitals with angular momentum L= 0

SPLIT: Basis orbitals for state 2s

SPLIT: PAO cut-off radius determined from an
SPLIT: energy shift=  0.000735 Ry

   izeta = 1
                 lambda =    1.000000
                     rc =    5.948690
                 energy =   -1.010099
                kinetic =    0.827121
    potential(screened) =   -1.837220
       potential(ionic) =   -5.392783

   izeta = 2
                 rmatch =    3.518811
              splitnorm =    0.150000
                 energy =   -0.877891
                kinetic =    1.289227
    potential(screened) =   -2.167118
       potential(ionic) =   -5.982073

SPLIT: Orbitals with angular momentum L= 1

SPLIT: Basis orbitals for state 2p

SPLIT: PAO cut-off radius determined from an
SPLIT: energy shift=  0.000735 Ry

   izeta = 1
                 lambda =    1.000000
                     rc =    7.638387
                 energy =   -0.387843
                kinetic =    2.314739
    potential(screened) =   -2.702582
       potential(ionic) =   -6.092371

   izeta = 2
                 rmatch =    3.840617
              splitnorm =    0.150000
                 energy =   -0.270479
                kinetic =    3.438347
    potential(screened) =   -3.708826
       potential(ionic) =   -7.497707

POLgen: Perturbative polarization orbital with L=  2

POLgen: Polarization orbital for state 2p

   izeta = 1
                     rc =    7.638387
                 energy =    0.921402
                kinetic =    1.955040
    potential(screened) =   -1.033637
       potential(ionic) =   -3.679558
atom: Total number of Sankey-type orbitals: 13

atm_pop: Valence configuration (for local Pseudopot. screening):
 2s( 2.00)                                                            
 2p( 2.00)                                                            
Vna: chval, zval:    4.00000   4.00000

Vna:  Cut-off radius for the neutral-atom potential:   7.638387

atom: _________________________________________________________________________

prinput: Basis input ----------------------------------------------------------

PAO.BasisType split     

%block ChemicalSpeciesLabel
    1    3 Li-gga                  # Species index, atomic number, species label
    2    6 C-gga                   # Species index, atomic number, species label
%endblock ChemicalSpeciesLabel

%block PAO.Basis                 # Define Basis set
Li-gga                1                    # Species label, number of l-shells
 n=2   0   2 P   1                   # n, l, Nzeta, Polarization, NzetaPol
  11.897      8.489   
   1.000      1.000   
C-gga                 2                    # Species label, number of l-shells
 n=2   0   2                         # n, l, Nzeta 
   5.949      3.519   
   1.000      1.000   
 n=2   1   2 P   1                   # n, l, Nzeta, Polarization, NzetaPol
   7.638      3.841   
   1.000      1.000   
%endblock PAO.Basis

prinput: ----------------------------------------------------------------------

coor:   Atomic-coordinates input format  =     Cartesian coordinates
coor:                                          (in Angstroms)

siesta: Atomic coordinates (Bohr) and species
siesta:      0.00000   0.00000   0.00000  2        1
siesta:     -1.32825   2.30060   4.19503  1        2
siesta:     -2.74990   4.76296   4.19503  1        3
siesta:      2.74990   4.76296   4.19503  1        4
siesta:      1.32825   2.30060   4.19503  1        5
siesta:      2.65651   0.00000   4.19503  1        6
siesta:      5.49980   0.00000   4.19503  1        7

siesta: System type = bulk      

initatomlists: Number of atoms, orbitals, and projectors:      7    43    63

siesta: ******************** Simulation parameters ****************************
siesta:
siesta: The following are some of the parameters of the simulation.
siesta: A complete list of the parameters used, including default values,
siesta: can be found in file out.fdf
siesta:
redata: Spin configuration                          = none
redata: Number of spin components                   = 1
redata: Time-Reversal Symmetry                      = T
redata: Spin spiral                                 = F
redata: Long output                                 =   F
redata: Number of Atomic Species                    =        2
redata: Charge density info will appear in .RHO file
redata: Write Mulliken Pop.                         = NO
redata: Matel table size (NRTAB)                    =     1024
redata: Mesh Cutoff                                 =   300.0000 Ry
redata: Net charge of the system                    =     0.0000 |e|
redata: Min. number of SCF Iter                     =        0
redata: Max. number of SCF Iter                     =     1000
redata: SCF convergence failure will abort job
redata: SCF mix quantity                            = Hamiltonian
redata: Mix DM or H after convergence               =   F
redata: Recompute H after scf cycle                 =   F
redata: Mix DM in first SCF step                    =   T
redata: Write Pulay info on disk                    =   F
redata: New DM Occupancy tolerance                  = 0.000000000001
redata: No kicks to SCF
redata: DM Mixing Weight for Kicks                  =     0.5000
redata: Require Harris convergence for SCF          =   F
redata: Harris energy tolerance for SCF             =     0.000100 eV
redata: Require DM convergence for SCF              =   T
redata: DM tolerance for SCF                        =     0.001000
redata: Require EDM convergence for SCF             =   F
redata: EDM tolerance for SCF                       =     0.005000 eV
redata: Require H convergence for SCF               =   T
redata: Hamiltonian tolerance for SCF               =     0.001000 eV
redata: Require (free) Energy convergence for SCF   =   T
redata: (free) Energy tolerance for SCF             =     0.001000 eV
redata: Using Saved Data (generic)                  =   F
redata: Use continuation files for DM               =   F
redata: Neglect nonoverlap interactions             =   F
redata: Method of Calculation                       = Diagonalization
redata: Electronic Temperature                      =   299.9869 K
redata: Fix the spin of the system                  =   F
redata: Dynamics option                             = Single-point calculation
mix.SCF: Pulay mixing                            = Pulay
mix.SCF:    Variant                              = stable
mix.SCF:    History steps                        = 4
mix.SCF:    Linear mixing weight                 =     0.250000
mix.SCF:    Mixing weight                        =     0.250000
mix.SCF:    SVD condition                        = 0.1000E-07
redata: ***********************************************************************

%block SCF.Mixers
  Pulay
%endblock SCF.Mixers

%block SCF.Mixer.Pulay
  # Mixing method
  method pulay
  variant stable

  # Mixing options
  weight 0.2500
  weight.linear 0.2500
  history 4
%endblock SCF.Mixer.Pulay

DM_history_depth set to one: no extrapolation allowed by default for geometry relaxation
Size of DM history Fstack: 1
Total number of electrons:    10.000000
Total ionic charge:    10.000000

* ProcessorY, Blocksize:    2   1


* Orbital distribution balance (max,min):    11    10

 Kpoints in:           18 . Kpoints trimmed:           14

siesta: k-grid: Number of k-points =    14
siesta: k-grid: Cutoff (effective) =     6.474 Ang
siesta: k-grid: Supercell and displacements
siesta: k-grid:    3   0   0      0.000
siesta: k-grid:    0   3   0      0.000
siesta: k-grid:    0   0   3      0.000

diag: Algorithm                                     = Expert
diag: Parallel over k                               =   T
diag: Use parallel 2D distribution                  =   T
diag: Parallel block-size                           = 1
diag: Parallel distribution                         =     2 x     2
diag: Used triangular part                          = Lower
diag: Absolute tolerance                            =  0.100E-15
diag: Orthogonalization factor                      =  0.100E-05
diag: Memory factor                                 =  1.0000

superc: Internal auxiliary supercell:     9 x     9 x     7  =     567
superc: Number of atoms, orbitals, and projectors:   3969  24381  35721


ts: **************************************************************
ts: Save H and S matrices                           =    F
ts: Save DM and EDM matrices                        =    F
ts: Only save the overlap matrix S                  =    F
ts: **************************************************************

************************ Begin: TS CHECKS AND WARNINGS ************************
************************ End: TS CHECKS AND WARNINGS **************************


                     ====================================
                        Single-point calculation
                     ====================================

outcoor: Atomic coordinates (Ang):                          
    0.00000000    0.00000000    0.00000000   2       1  C-gga
   -0.70288177    1.21742694    2.21991600   1       2  Li-gga
   -1.45518323    2.52045129    2.21991600   1       3  Li-gga
    1.45518323    2.52045129    2.21991600   1       4  Li-gga
    0.70288177    1.21742694    2.21991600   1       5  Li-gga
    1.40576354    0.00000000    2.21991600   1       6  Li-gga
    2.91036646    0.00000000    2.21991600   1       7  Li-gga

superc: Internal auxiliary supercell:     9 x     9 x     7  =     567
superc: Number of atoms, orbitals, and projectors:   3969  24381  35721

outcell: Unit cell vectors (Ang):
        4.316130    0.000000    0.000000
       -2.158065    3.737878    0.000000
        0.000000    0.000000    4.439832

outcell: Cell vector modules (Ang)   :    4.316130    4.316130    4.439832
outcell: Cell angles (23,13,12) (deg):     90.0000     90.0000    120.0000
outcell: Cell volume (Ang**3)        :     71.6286
<dSpData1D:S at geom step 0
  <sparsity:sparsity for geom step 0
    nrows_g=43 nrows=11 sparsity=28.2964 nnzs=52320, refcount: 7>
  <dData1D:(new from dSpData1D) n=52320, refcount: 1>
refcount: 1>
new_DM -- step:     1
Initializing Density Matrix...
DM filled with atomic data:
<dSpData2D:DM initialized from atoms
  <sparsity:sparsity for geom step 0
    nrows_g=43 nrows=11 sparsity=28.2964 nnzs=52320, refcount: 8>
  <dData2D:DM n=52320 m=1, refcount: 1>
refcount: 1>
No. of atoms with KB's overlaping orbs in proc 0. Max # of overlaps:     277     818
New grid distribution:   1
           1       1:   20    1:   10    1:   12
           2       1:   20    1:   10   13:   24
           3       1:   20   11:   20    1:   12
           4       1:   20   11:   20   13:   24

InitMesh: MESH =    40 x    40 x    48 =       76800
InitMesh: (bp) =    20 x    20 x    24 =        9600
InitMesh: Mesh cutoff (required, used) =   300.000   316.498 Ry
ExtMesh (bp) on 0 =   156 x   146 x   152 =     3461952
New grid distribution:   2
           1       1:   20    1:   10    1:   12
           2       1:   20    1:   10   13:   24
           3       1:   20   11:   20    1:   12
           4       1:   20   11:   20   13:   24
New grid distribution:   3
           1       1:   20    1:   10    1:   12
           2       1:   20    1:   10   13:   24
           3       1:   20   11:   20    1:   12
           4       1:   20   11:   20   13:   24
Setting up quadratic distribution...
ExtMesh (bp) on 0 =   156 x   146 x   152 =     3461952
PhiOnMesh: Number of (b)points on node 0 =                 2400
PhiOnMesh: nlist on node 0 =              1037406

stepf: Fermi-Dirac step function

siesta: Program's energy decomposition (eV):
siesta: Ebs     =      -150.798083
siesta: Eions   =       321.344870
siesta: Ena     =        92.069201
siesta: Ekin    =       107.784330
siesta: Enl     =        18.468882
siesta: Eso     =         0.000000
siesta: Edftu   =         0.000000
siesta: DEna    =         9.853931
siesta: DUscf   =         7.402904
siesta: DUext   =         0.000000
siesta: Exc     =       -93.666110
siesta: eta*DQ  =         0.000000
siesta: Emadel  =         0.000000
siesta: Emeta   =         0.000000
siesta: Emolmec =        -2.977013
siesta: Ekinion =         0.000000
siesta: Eharris =      -170.336545
siesta: Etot    =      -182.408745
siesta: FreeEng =      -182.411447

        iscf     Eharris(eV)        E_KS(eV)     FreeEng(eV)     dDmax    Ef(eV) dHmax(eV)
   scf:    1     -170.336545     -182.408745     -182.411447 27.939718-10.702336  8.090221
timer: Routine,Calls,Time,% = IterSCF        1      10.702  59.12
   scf:    2     -161.295572     -180.552233     -180.575247 12.801348-11.203438 10.187521
   scf:    3     -183.889896     -186.067976     -186.097251  9.002812-10.843892  1.967760
   scf:    4     -186.437521     -186.285190     -186.309993  0.846555-10.961708  0.817381
   scf:    5     -184.369505     -185.773023     -185.802242  3.494181-11.051648  2.946612
   scf:    6     -186.441711     -186.159287     -186.192374  1.180672-11.045622  1.666469
   scf:    7     -185.279370     -185.771659     -185.800578  1.243879-11.045543  2.920305
   scf:    8     -186.348433     -186.338516     -186.370329  2.491744-11.008905  0.070345
   scf:    9     -186.339248     -186.338902     -186.370441  0.052959-11.010379  0.055479
   scf:   10     -186.338683     -186.338866     -186.370629  0.027864-11.012298  0.005286
   scf:   11     -186.338809     -186.338840     -186.370630  0.003857-11.012757  0.006846
   scf:   12     -186.338890     -186.338866     -186.370632  0.008241-11.012637  0.000800
   scf:   13     -186.338860     -186.338863     -186.370632  0.000381-11.012626  0.000283

SCF Convergence by FreeE+DM+H criterion
|FreeE_i-FreeE_(i-1)| (eV) <     0.00100000
max |DM_out - DM_in|         :     0.0003811451
max |H_out - H_in|      (eV) :     0.0002832770
SCF cycle converged after 13 iterations

Using DM_out to compute the final energy and forces
No. of atoms with KB's overlaping orbs in proc 0. Max # of overlaps:     277     818

MM-Stress (kbar):       -1.37       -1.37       53.16        0.00        0.00        0.00

siesta: E_KS(eV) =             -186.3389

siesta: E_KS - E_eggbox =      -186.3389

siesta: Atomic forces (eV/Ang):
     1    0.000000    0.000000    0.000000
     2    0.152065   -0.263347   -0.000000
     3   -0.152065    0.263347    0.000000
     4    0.151998    0.263269   -0.000000
     5   -0.151998   -0.263269    0.000000
     6   -0.304098    0.000019   -0.000000
     7    0.304098   -0.000019   -0.000000
----------------------------------------
   Tot   -0.000000   -0.000000    0.000000
----------------------------------------
   Max    0.304098
   Res    0.162529    sqrt( Sum f_i^2 / 3N )
----------------------------------------
   Max    0.304098    constrained

Stress tensor Voigt[x,y,z,yz,xz,xy] (kbar):     -825.07     -825.11      436.48        0.00       -0.00       -0.03
(Free)E + p*V (eV/cell)     -168.2839
Target enthalpy (eV/cell)     -186.3706

siesta: Eigenvalues (eV):
  ik is       eps
   1  1  -19.8517  -13.0761  -13.0761  -13.0538  -10.7175   -9.4704   -9.4703   -7.7036   -7.7035   -3.8147
          -2.0424   -1.0338   -1.0338    2.1130    2.1130    3.5683    4.0809    4.0810    8.0216    8.2054
    8.2054    9.9743   15.0877   15.0880   18.7205   19.8591   19.8591   23.5822   27.7358   27.7358
   29.0388   29.0390   30.8174   34.1906   42.5693   42.5693   44.9854   46.0737   57.9972   57.9973
   81.9969   81.9969   94.1519
   2  1  -19.9545  -13.6056  -13.3834  -11.6700  -11.0310  -10.8998   -9.7152   -8.0930   -4.3876   -3.8755
          -3.4761   -2.6347   -1.2191   -0.5941   -0.1598    1.6191    3.4147    5.2598    5.8262    8.5834
    9.3112   11.6896   13.2622   16.2453   19.5229   22.8397   24.6176   25.0049   25.5308   26.1623
   26.9783   28.9448   30.8325   31.0467   33.1513   38.0597   40.6732   44.3547   52.9650   56.0177
   60.7249   70.7969   71.8119
   3  1  -19.9545  -13.6056  -13.3834  -11.6700  -11.0311  -10.8998   -9.7152   -8.0930   -4.3875   -3.8756
          -3.4761   -2.6346   -1.2191   -0.5941   -0.1597    1.6191    3.4147    5.2598    5.8262    8.5833
    9.3112   11.6896   13.2622   16.2451   19.5229   22.8398   24.6176   25.0050   25.5308   26.1626
   26.9780   28.9448   30.8325   31.0469   33.1513   38.0596   40.6731   44.3547   52.9649   56.0178
   60.7248   70.7969   71.8119
   4  1  -19.9545  -13.6056  -13.3834  -11.6700  -11.0310  -10.8998   -9.7152   -8.0930   -4.3876   -3.8755
          -3.4761   -2.6347   -1.2191   -0.5941   -0.1598    1.6191    3.4147    5.2598    5.8262    8.5834
    9.3112   11.6896   13.2622   16.2453   19.5229   22.8397   24.6176   25.0049   25.5308   26.1623
   26.9783   28.9448   30.8325   31.0467   33.1513   38.0597   40.6732   44.3547   52.9650   56.0177
   60.7249   70.7969   71.8119
   5  1  -20.0186  -13.9109  -13.0537  -10.7697  -10.7696  -10.4247  -10.3769   -6.8975   -4.6790   -4.6790
          -2.2656   -1.5091   -1.5089   -0.8708   -0.8707    0.8972    0.8972    7.0598   10.1514   10.1516
   12.4497   12.4498   16.9384   16.9384   19.4745   25.0146   26.5519   30.2204   30.2204   30.2601
   30.2607   32.3869   32.3869   34.8783   34.8784   44.9341   46.9230   61.9645   81.5826   81.5828
   86.8103   86.8104  166.5606
   6  1  -19.6818  -14.7149  -12.5674  -12.5674  -11.0477  -11.0476   -8.0886   -6.2416   -6.2415   -4.0122
          -3.0395   -2.5519   -2.5519    3.7610    3.7610    4.7721    5.2837    5.2837    6.1324    9.2742
    9.2743   11.8738   17.5583   18.1899   18.1900   21.1410   21.1410   22.4417   25.3971   25.3977
   30.9632   34.1011   34.1011   35.8479   40.9461   40.9461   44.7164   60.3242   60.3243   61.5952
   69.8611   69.8612   91.5798
   7  1  -19.8044  -14.8438  -13.0127  -11.5156  -11.1445  -11.0269   -8.5437   -6.9236   -5.4724   -4.9041
          -3.0755   -2.5050   -0.6715   -0.6681    0.3007    2.3342    4.1783    6.4938    7.0156   10.4352
   12.7355   14.4738   16.2433   17.9034   18.2367   21.2026   22.9205   22.9462   24.7456   26.6251
   27.9868   31.2478   33.4760   34.0793   37.6896   45.4596   49.1934   49.4669   53.8634   59.0510
   72.7015   79.7648   84.2924
   8  1  -19.8044  -14.8438  -13.0127  -11.5156  -11.1445  -11.0269   -8.5436   -6.9236   -5.4724   -4.9041
          -3.0755   -2.5051   -0.6714   -0.6682    0.3007    2.3342    4.1783    6.4938    7.0156   10.4352
   12.7354   14.4738   16.2433   17.9035   18.2365   21.2026   22.9204   22.9463   24.7455   26.6251
   27.9869   31.2481   33.4758   34.0793   37.6896   45.4596   49.1934   49.4669   53.8634   59.0510
   72.7015   79.7648   84.2924
   9  1  -19.8044  -14.8438  -13.0127  -11.5156  -11.1445  -11.0269   -8.5437   -6.9236   -5.4724   -4.9041
          -3.0755   -2.5050   -0.6715   -0.6681    0.3007    2.3342    4.1783    6.4938    7.0156   10.4352
   12.7355   14.4738   16.2433   17.9034   18.2367   21.2026   22.9204   22.9461   24.7456   26.6251
   27.9868   31.2478   33.4760   34.0793   37.6896   45.4596   49.1934   49.4669   53.8634   59.0510
   72.7015   79.7648   84.2924
  10  1  -20.0319  -14.7191  -12.5391  -10.7406  -10.7405  -10.5442   -9.9876   -6.6097   -4.0690   -4.0690
          -3.7149   -3.7148   -2.1719   -2.1718    1.2485    1.3285    1.3287   12.0074   15.3945   15.3946
   15.9732   17.9419   17.9421   20.3765   20.3766   22.5323   22.5324   24.2473   25.8138   25.8143
   27.7063   30.4625   30.4626   37.6024   43.9740   43.9741   46.1762   49.1370   52.8031   64.4851
   64.4852   74.3660   74.3660
  11  1  -19.8044  -14.8438  -13.0127  -11.5156  -11.1445  -11.0269   -8.5437   -6.9236   -5.4724   -4.9041
          -3.0755   -2.5050   -0.6715   -0.6681    0.3007    2.3342    4.1783    6.4938    7.0156   10.4352
   12.7355   14.4738   16.2433   17.9034   18.2367   21.2026   22.9204   22.9461   24.7456   26.6251
   27.9868   31.2478   33.4760   34.0793   37.6896   45.4596   49.1934   49.4669   53.8634   59.0510
   72.7015   79.7648   84.2924
  12  1  -19.8044  -14.8438  -13.0127  -11.5156  -11.1445  -11.0269   -8.5436   -6.9236   -5.4724   -4.9041
          -3.0755   -2.5051   -0.6714   -0.6682    0.3007    2.3342    4.1783    6.4938    7.0156   10.4352
   12.7354   14.4738   16.2433   17.9035   18.2365   21.2026   22.9204   22.9463   24.7455   26.6251
   27.9869   31.2481   33.4758   34.0793   37.6896   45.4596   49.1934   49.4669   53.8634   59.0510
   72.7015   79.7648   84.2924
  13  1  -19.8044  -14.8438  -13.0127  -11.5156  -11.1445  -11.0269   -8.5437   -6.9236   -5.4724   -4.9041
          -3.0755   -2.5050   -0.6715   -0.6681    0.3007    2.3342    4.1783    6.4938    7.0156   10.4352
   12.7355   14.4738   16.2433   17.9034   18.2367   21.2026   22.9205   22.9462   24.7456   26.6251
   27.9868   31.2478   33.4760   34.0793   37.6896   45.4596   49.1934   49.4669   53.8634   59.0510
   72.7015   79.7648   84.2924
  14  1  -19.6818  -14.7149  -12.5674  -12.5674  -11.0477  -11.0476   -8.0886   -6.2416   -6.2415   -4.0122
          -3.0395   -2.5519   -2.5519    3.7610    3.7610    4.7721    5.2837    5.2837    6.1324    9.2742
    9.2743   11.8738   17.5583   18.1899   18.1900   21.1410   21.1410   22.4417   25.3971   25.3977
   30.9632   34.1011   34.1011   35.8479   40.9461   40.9461   44.7164   60.3242   60.3243   61.5952
   69.8611   69.8612   91.5798
siesta: Fermi energy =     -11.012626 eV

siesta: Program's energy decomposition (eV):
siesta: Ebs     =      -140.144938
siesta: Eions   =       321.344870
siesta: Ena     =        92.069201
siesta: Ekin    =       128.144638
siesta: Enl     =         8.411089
siesta: Eso     =         0.000000
siesta: Edftu   =         0.000000
siesta: DEna    =         4.586761
siesta: DUscf   =         1.221821
siesta: DUext   =         0.000000
siesta: Exc     =       -96.450490
siesta: eta*DQ  =         0.000000
siesta: Emadel  =         0.000000
siesta: Emeta   =         0.000000
siesta: Emolmec =        -2.977013
siesta: Ekinion =         0.000000
siesta: Eharris =      -186.338860
siesta: Etot    =      -186.338863
siesta: FreeEng =      -186.370632

siesta: Final energy (eV):
siesta:  Band Struct. =    -140.144938
siesta:       Kinetic =     128.144638
siesta:       Hartree =      39.433578
siesta:       Edftu   =       0.000000
siesta:       Eso     =       0.000000
siesta:    Ext. field =       0.000000
siesta:   Exch.-corr. =     -96.450490
siesta:  Ion-electron =    -241.598910
siesta:       Ion-ion =     -12.890666
siesta:       Ekinion =       0.000000
siesta:         Total =    -186.338863
siesta:         Fermi =     -11.012626

siesta: Atomic forces (eV/Ang):
siesta:      1    0.000000    0.000000    0.000000
siesta:      2    0.152065   -0.263347   -0.000000
siesta:      3   -0.152065    0.263347    0.000000
siesta:      4    0.151998    0.263269   -0.000000
siesta:      5   -0.151998   -0.263269    0.000000
siesta:      6   -0.304098    0.000019   -0.000000
siesta:      7    0.304098   -0.000019   -0.000000
siesta: ----------------------------------------
siesta:    Tot   -0.000000   -0.000000    0.000000

siesta: Stress tensor (static) (eV/Ang**3):
siesta:    -0.514964   -0.000018   -0.000000
siesta:    -0.000018   -0.514985    0.000000
siesta:    -0.000000    0.000000    0.272425

siesta: Cell volume =         71.628557 Ang**3

siesta: Pressure (static):
siesta:                Solid            Molecule  Units
siesta:           0.00275013          0.00268057  Ry/Bohr**3
siesta:           0.25250794          0.24612088  eV/Ang**3
siesta:         404.56669382        394.33338892  kBar
(Free)E+ p_basis*V_orbitals  =        -166.936904
(Free)Eharris+ p_basis*V_orbitals  =        -166.936902

cite: Please see "LiC6_scf.bib" for an exhaustive BiBTeX file.
cite: Please clearly indicate Siesta version in published work: 4.1.5
cite: This calculation has made use of the following articles
cite: which are encouraged to be cited in a published work.
        Primary SIESTA paper
          DOI: www.doi.org/10.1088/0953-8984/14/11/302

>> End of run:   9-NOV-2022   6:47:08
Job completed
