Siesta Version  : 4.1.5
Architecture    : x86_64-unknown-linux-gnu--unknown
Compiler version: GNU Fortran (GCC) 11.3.0
Compiler flags  : mpif90 -g -O2 -fallow-argument-mismatch
PP flags        : -DMPI -DFC_HAVE_FLUSH -DFC_HAVE_ABORT
Libraries       :  -I/global/software/sl-7.x86_64/modules/intel/2020.4.304/mkl/include  /globall/software/sl-7.x86_64/modules/intel/2020.4.304/mkl/lib/intel64/libmkl_scalapack_lp64.a -Wl,--start-group /global/software/sl-7.x86_64/modules/intel/2020.4.304/mkl/lib/intel64/libmkl_intel_lp64.a /global/software/sl-7.x86_64/modules/intel/2020.4.304/mkl/lib/intel64/libmkl_sequential.a /global/software/sl-7.x86_64/modules/intel/2020.4.304/mkl/lib/intel64/libmkl_core.a /global/software/sl-7.x86_64/modules/intel/2020.4.304/mkl/lib/intel64/libmkl_blacs_openmpi_lp64.a -Wl,--end-group -lpthread -lm -ldl
PARALLEL version

* Running on 4 nodes in parallel
>> Start of run:   9-NOV-2022   7:12:38

                           ***********************       
                           *  WELCOME TO SIESTA  *       
                           ***********************       

reinit: Reading from standard input
reinit: Dumped input in INPUT_TMP.25929
************************** Dump of input data file ****************************
SystemName LiC6_scf
SystemLabel LiC6_scf
NumberOfAtoms   7
NumberOfSpecies 2
%block ChemicalSpeciesLabel
1  3   Li-gga
2  6   C-gga
%endblock ChemicalSpeciesLabel
PAO.BasisSize  DZP
PAO.EnergyShift  10 meV
%block PS.Lmax
C-gga   2
Li-gga  2
%endblock PS.Lmax
LatticeConstant 1.000000 Ang
%block LatticeVectors
	4.3161300000	0.0000000000	0.0000000000
	-2.1580650000	3.7378782260	0.0000000000
	0.0000000000	0.0000000000	5.1798040000
%endblock LatticeVectors
AtomicCoordinatesFormat Ang
%block AtomicCoordinatesAndAtomicSpecies
	0.00000000	0.00000000	0.00000000	2
	-0.70288177	1.21742694	2.58990200	1
	-1.45518323	2.52045129	2.58990200	1
	1.45518323	2.52045129	2.58990200	1
	0.70288177	1.21742694	2.58990200	1
	1.40576354	0.00000000	2.58990200	1
	2.91036646	0.00000000	2.58990200	1
%endblock AtomicCoordinatesAndAtomicSpecies
Kgrid_NoTRS  T
%block kgrid_MonkhorstPack
3       0       0       0.0
0       3       0       0.0
0       0       3       0.0
%endblock kgrid_MonkhorstPack
AtomCoorFormatOut Ang
BlockSize 1
#ProcessorY 12
Diag.ParallelOverK   T
Diag.DivideAndConquer F
MeshCutoff   300 Ry
SCF.FreeE.Tolerance 1E-3 eV
SCF.EDM.Tolerance   5E-3 eV
DM.Tolerance  1E-3
DM.Require.Energy.Convergence T
DM.NumberPulay 4
XC.Functional GGA
XC.Authors    PBE
UseSaveData        F
MD.TypeOfRun       CG
MD.VariableCell    F
MD.NumCGsteps      00
MD.MaxCGDispl      0.200000 Bohr
MD.MaxStressTol    1.000000 GPa
MD.MaxForceTol     0.010000 eV/Ang
WriteMDHistory T
WriteCoorStep T
WriteForces T
WriteCoorStep    T
WriteEigenValues T
WriteDM    F
MM.UnitsDistance Ang  # what this program prints out DO NOT CHANGE
MM.UnitsEnergy    eV  # what this program prints out DO NOT CHANGE
MM.Grimme.S6     0.75 # Grimme-paper for PBE (correct for your functional)
MM.Grimme.D     20.   # Grimme-paper (correct for your functional)
%block MM.Potentials
  1   1 Grimme     16.69      1.650 # Li, 10.1002/jcc.20495
  1   2 Grimme     17.40      2.277 # Li / C
  2   2 Grimme     18.14      2.904 # C, 10.1002/jcc.20495
%endblock MM.Potentials
#%block ProjectedDensityOfStates
# -200.0  120.0  0.4  12800  eV
#%endblock ProjectedDensityOfStates
************************** End of input data file *****************************

reinit: -----------------------------------------------------------------------
reinit: System Name: LiC6_scf
reinit: -----------------------------------------------------------------------
reinit: System Label: LiC6_scf
reinit: -----------------------------------------------------------------------
Reading two-body potentials
Grimme - two-body potential between 1 and 1
Grimme - two-body potential between 1 and 2
Grimme - two-body potential between 2 and 2

initatom: Reading input for the pseudopotentials and atomic orbitals ----------
Species number:   1 Atomic number:    3 Label: Li-gga
Species number:   2 Atomic number:    6 Label: C-gga

Ground state valence configuration:   2s01
Reading pseudopotential information in formatted form from Li-gga.psf

Valence configuration for pseudopotential generation:
2s( 1.00) rc: 2.28
2p( 0.00) rc: 2.28
3d( 0.00) rc: 2.59
4f( 0.00) rc: 2.59
Ground state valence configuration:   2s02  2p02
Reading pseudopotential information in formatted form from C-gga.psf

Valence configuration for pseudopotential generation:
2s( 2.00) rc: 1.56
2p( 2.00) rc: 1.56
3d( 0.00) rc: 1.56
4f( 0.00) rc: 1.56
relmxkb: Read Max KB Ang. Momentum=    2 for species C-gga
relmxkb: Read Max KB Ang. Momentum=    2 for species Li-gga

<basis_specs>
===============================================================================
Li-gga               Z=   3    Mass=  6.9400        Charge= 0.17977+309
Lmxo=0 Lmxkb= 2    BasisType=split      Semic=F
L=0  Nsemic=0  Cnfigmx=2
          i=1  nzeta=2  polorb=1  (2s)
            splnorm:   0.15000    
               vcte:    0.0000    
               rinn:    0.0000    
               qcoe:    0.0000    
               qyuk:    0.0000    
               qwid:   0.10000E-01
                rcs:    0.0000      0.0000    
            lambdas:    1.0000      1.0000    
-------------------------------------------------------------------------------
L=0  Nkbl=1  erefs: 0.17977+309
L=1  Nkbl=1  erefs: 0.17977+309
L=2  Nkbl=1  erefs: 0.17977+309
===============================================================================
</basis_specs>

atom: Called for Li-gga                (Z =   3)

read_vps: Pseudopotential generation method:
read_vps: ATM 3.2.2 Troullier-Martins                       
Valence charge for ps generation:    1.00000

read_vps: Pseudopotential includes a core correction:
read_vps: Pseudo-core for xc-correction

xc_check: Exchange-correlation functional:
xc_check: GGA Perdew, Burke & Ernzerhof 1996
V l=0 = -2*Zval/r beyond r=  2.2278
V l=1 = -2*Zval/r beyond r=  2.2278
V l=2 = -2*Zval/r beyond r=  2.5245
All V_l potentials equal beyond r=  2.4622
This should be close to max(r_c) in ps generation
All pots = -2*Zval/r beyond r=  2.5245

VLOCAL1: 99.0% of the norm of Vloc inside      7.160 Ry
VLOCAL1: 99.9% of the norm of Vloc inside     16.318 Ry
atom: Maximum radius for 4*pi*r*r*local-pseudopot. charge    2.86079
atom: Maximum radius for r*vlocal+2*Zval:    2.43160
GHOST: No ghost state for L =  0
GHOST: No ghost state for L =  1
GHOST: No ghost state for L =  2

KBgen: Kleinman-Bylander projectors: 
   l= 0   rc=  2.654023   el= -0.211234   Ekb=  1.742119   kbcos=  0.228463
   l= 1   rc=  2.721230   el= -0.080095   Ekb= -1.122375   kbcos= -0.147941
   l= 2   rc=  2.825246   el=  0.002001   Ekb= -0.207076   kbcos= -0.031965

KBgen: Total number of Kleinman-Bylander projectors:    9
atom: -------------------------------------------------------------------------

atom: SANKEY-TYPE ORBITALS:
atom: Selected multiple-zeta basis: split     

SPLIT: Orbitals with angular momentum L= 0

SPLIT: Basis orbitals for state 2s

SPLIT: PAO cut-off radius determined from an
SPLIT: energy shift=  0.000735 Ry

   izeta = 1
                 lambda =    1.000000
                     rc =   11.897381
                 energy =   -0.210580
                kinetic =    0.143382
    potential(screened) =   -0.353962
       potential(ionic) =   -0.533453

   izeta = 2
                 rmatch =    8.489163
              splitnorm =    0.150000
                 energy =   -0.186081
                kinetic =    0.225882
    potential(screened) =   -0.411964
       potential(ionic) =   -0.593024

POLgen: Perturbative polarization orbital with L=  1

POLgen: Polarization orbital for state 2s

   izeta = 1
                     rc =   11.897381
                 energy =   -0.027011
                kinetic =    0.282985
    potential(screened) =   -0.309997
       potential(ionic) =   -0.490997
atom: Total number of Sankey-type orbitals:  5

atm_pop: Valence configuration (for local Pseudopot. screening):
 2s( 1.00)                                                            
Vna: chval, zval:    1.00000   1.00000

Vna:  Cut-off radius for the neutral-atom potential:  11.897381
comcore: Pseudo-core radius Rcore=  3.450946

atom: _________________________________________________________________________

<basis_specs>
===============================================================================
C-gga                Z=   6    Mass=  12.010        Charge= 0.17977+309
Lmxo=1 Lmxkb= 2    BasisType=split      Semic=F
L=0  Nsemic=0  Cnfigmx=2
          i=1  nzeta=2  polorb=0  (2s)
            splnorm:   0.15000    
               vcte:    0.0000    
               rinn:    0.0000    
               qcoe:    0.0000    
               qyuk:    0.0000    
               qwid:   0.10000E-01
                rcs:    0.0000      0.0000    
            lambdas:    1.0000      1.0000    
L=1  Nsemic=0  Cnfigmx=2
          i=1  nzeta=2  polorb=1  (2p)
            splnorm:   0.15000    
               vcte:    0.0000    
               rinn:    0.0000    
               qcoe:    0.0000    
               qyuk:    0.0000    
               qwid:   0.10000E-01
                rcs:    0.0000      0.0000    
            lambdas:    1.0000      1.0000    
-------------------------------------------------------------------------------
L=0  Nkbl=1  erefs: 0.17977+309
L=1  Nkbl=1  erefs: 0.17977+309
L=2  Nkbl=1  erefs: 0.17977+309
===============================================================================
</basis_specs>

atom: Called for C-gga                 (Z =   6)

read_vps: Pseudopotential generation method:
read_vps: ATM 3.2.2 Troullier-Martins                       
Valence charge for ps generation:    4.00000

xc_check: Exchange-correlation functional:
xc_check: GGA Perdew, Burke & Ernzerhof 1996
V l=0 = -2*Zval/r beyond r=  1.5227
V l=1 = -2*Zval/r beyond r=  1.5227
V l=2 = -2*Zval/r beyond r=  1.5227
All V_l potentials equal beyond r=  1.4851
This should be close to max(r_c) in ps generation
All pots = -2*Zval/r beyond r=  1.5227

VLOCAL1: 99.0% of the norm of Vloc inside     19.682 Ry
VLOCAL1: 99.9% of the norm of Vloc inside     44.856 Ry
atom: Maximum radius for 4*pi*r*r*local-pseudopot. charge    1.79142
atom: Maximum radius for r*vlocal+2*Zval:    1.54183
GHOST: No ghost state for L =  0
GHOST: No ghost state for L =  1
GHOST: No ghost state for L =  2

KBgen: Kleinman-Bylander projectors: 
   l= 0   rc=  1.661951   el= -1.010689   Ekb=  5.289847   kbcos=  0.316429
   l= 1   rc=  1.661951   el= -0.388490   Ekb= -4.102504   kbcos= -0.351025
   l= 2   rc=  1.747182   el=  0.001971   Ekb= -1.006005   kbcos= -0.008530

KBgen: Total number of Kleinman-Bylander projectors:    9
atom: -------------------------------------------------------------------------

atom: SANKEY-TYPE ORBITALS:
atom: Selected multiple-zeta basis: split     

SPLIT: Orbitals with angular momentum L= 0

SPLIT: Basis orbitals for state 2s

SPLIT: PAO cut-off radius determined from an
SPLIT: energy shift=  0.000735 Ry

   izeta = 1
                 lambda =    1.000000
                     rc =    5.948690
                 energy =   -1.010099
                kinetic =    0.827121
    potential(screened) =   -1.837220
       potential(ionic) =   -5.392783

   izeta = 2
                 rmatch =    3.518811
              splitnorm =    0.150000
                 energy =   -0.877891
                kinetic =    1.289227
    potential(screened) =   -2.167118
       potential(ionic) =   -5.982073

SPLIT: Orbitals with angular momentum L= 1

SPLIT: Basis orbitals for state 2p

SPLIT: PAO cut-off radius determined from an
SPLIT: energy shift=  0.000735 Ry

   izeta = 1
                 lambda =    1.000000
                     rc =    7.638387
                 energy =   -0.387843
                kinetic =    2.314739
    potential(screened) =   -2.702582
       potential(ionic) =   -6.092371

   izeta = 2
                 rmatch =    3.840617
              splitnorm =    0.150000
                 energy =   -0.270479
                kinetic =    3.438347
    potential(screened) =   -3.708826
       potential(ionic) =   -7.497707

POLgen: Perturbative polarization orbital with L=  2

POLgen: Polarization orbital for state 2p

   izeta = 1
                     rc =    7.638387
                 energy =    0.921402
                kinetic =    1.955040
    potential(screened) =   -1.033637
       potential(ionic) =   -3.679558
atom: Total number of Sankey-type orbitals: 13

atm_pop: Valence configuration (for local Pseudopot. screening):
 2s( 2.00)                                                            
 2p( 2.00)                                                            
Vna: chval, zval:    4.00000   4.00000

Vna:  Cut-off radius for the neutral-atom potential:   7.638387

atom: _________________________________________________________________________

prinput: Basis input ----------------------------------------------------------

PAO.BasisType split     

%block ChemicalSpeciesLabel
    1    3 Li-gga                  # Species index, atomic number, species label
    2    6 C-gga                   # Species index, atomic number, species label
%endblock ChemicalSpeciesLabel

%block PAO.Basis                 # Define Basis set
Li-gga                1                    # Species label, number of l-shells
 n=2   0   2 P   1                   # n, l, Nzeta, Polarization, NzetaPol
  11.897      8.489   
   1.000      1.000   
C-gga                 2                    # Species label, number of l-shells
 n=2   0   2                         # n, l, Nzeta 
   5.949      3.519   
   1.000      1.000   
 n=2   1   2 P   1                   # n, l, Nzeta, Polarization, NzetaPol
   7.638      3.841   
   1.000      1.000   
%endblock PAO.Basis

prinput: ----------------------------------------------------------------------

coor:   Atomic-coordinates input format  =     Cartesian coordinates
coor:                                          (in Angstroms)

siesta: Atomic coordinates (Bohr) and species
siesta:      0.00000   0.00000   0.00000  2        1
siesta:     -1.32825   2.30060   4.89421  1        2
siesta:     -2.74990   4.76296   4.89421  1        3
siesta:      2.74990   4.76296   4.89421  1        4
siesta:      1.32825   2.30060   4.89421  1        5
siesta:      2.65651   0.00000   4.89421  1        6
siesta:      5.49980   0.00000   4.89421  1        7

siesta: System type = bulk      

initatomlists: Number of atoms, orbitals, and projectors:      7    43    63

siesta: ******************** Simulation parameters ****************************
siesta:
siesta: The following are some of the parameters of the simulation.
siesta: A complete list of the parameters used, including default values,
siesta: can be found in file out.fdf
siesta:
redata: Spin configuration                          = none
redata: Number of spin components                   = 1
redata: Time-Reversal Symmetry                      = T
redata: Spin spiral                                 = F
redata: Long output                                 =   F
redata: Number of Atomic Species                    =        2
redata: Charge density info will appear in .RHO file
redata: Write Mulliken Pop.                         = NO
redata: Matel table size (NRTAB)                    =     1024
redata: Mesh Cutoff                                 =   300.0000 Ry
redata: Net charge of the system                    =     0.0000 |e|
redata: Min. number of SCF Iter                     =        0
redata: Max. number of SCF Iter                     =     1000
redata: SCF convergence failure will abort job
redata: SCF mix quantity                            = Hamiltonian
redata: Mix DM or H after convergence               =   F
redata: Recompute H after scf cycle                 =   F
redata: Mix DM in first SCF step                    =   T
redata: Write Pulay info on disk                    =   F
redata: New DM Occupancy tolerance                  = 0.000000000001
redata: No kicks to SCF
redata: DM Mixing Weight for Kicks                  =     0.5000
redata: Require Harris convergence for SCF          =   F
redata: Harris energy tolerance for SCF             =     0.000100 eV
redata: Require DM convergence for SCF              =   T
redata: DM tolerance for SCF                        =     0.001000
redata: Require EDM convergence for SCF             =   F
redata: EDM tolerance for SCF                       =     0.005000 eV
redata: Require H convergence for SCF               =   T
redata: Hamiltonian tolerance for SCF               =     0.001000 eV
redata: Require (free) Energy convergence for SCF   =   T
redata: (free) Energy tolerance for SCF             =     0.001000 eV
redata: Using Saved Data (generic)                  =   F
redata: Use continuation files for DM               =   F
redata: Neglect nonoverlap interactions             =   F
redata: Method of Calculation                       = Diagonalization
redata: Electronic Temperature                      =   299.9869 K
redata: Fix the spin of the system                  =   F
redata: Dynamics option                             = Single-point calculation
mix.SCF: Pulay mixing                            = Pulay
mix.SCF:    Variant                              = stable
mix.SCF:    History steps                        = 4
mix.SCF:    Linear mixing weight                 =     0.250000
mix.SCF:    Mixing weight                        =     0.250000
mix.SCF:    SVD condition                        = 0.1000E-07
redata: ***********************************************************************

%block SCF.Mixers
  Pulay
%endblock SCF.Mixers

%block SCF.Mixer.Pulay
  # Mixing method
  method pulay
  variant stable

  # Mixing options
  weight 0.2500
  weight.linear 0.2500
  history 4
%endblock SCF.Mixer.Pulay

DM_history_depth set to one: no extrapolation allowed by default for geometry relaxation
Size of DM history Fstack: 1
Total number of electrons:    10.000000
Total ionic charge:    10.000000

* ProcessorY, Blocksize:    2   1


* Orbital distribution balance (max,min):    11    10

 Kpoints in:           18 . Kpoints trimmed:           14

siesta: k-grid: Number of k-points =    14
siesta: k-grid: Cutoff (effective) =     6.474 Ang
siesta: k-grid: Supercell and displacements
siesta: k-grid:    3   0   0      0.000
siesta: k-grid:    0   3   0      0.000
siesta: k-grid:    0   0   3      0.000

diag: Algorithm                                     = Expert
diag: Parallel over k                               =   T
diag: Use parallel 2D distribution                  =   T
diag: Parallel block-size                           = 1
diag: Parallel distribution                         =     2 x     2
diag: Used triangular part                          = Lower
diag: Absolute tolerance                            =  0.100E-15
diag: Orthogonalization factor                      =  0.100E-05
diag: Memory factor                                 =  1.0000

superc: Internal auxiliary supercell:     9 x     9 x     5  =     405
superc: Number of atoms, orbitals, and projectors:   2835  17415  25515


ts: **************************************************************
ts: Save H and S matrices                           =    F
ts: Save DM and EDM matrices                        =    F
ts: Only save the overlap matrix S                  =    F
ts: **************************************************************

************************ Begin: TS CHECKS AND WARNINGS ************************
************************ End: TS CHECKS AND WARNINGS **************************


                     ====================================
                        Single-point calculation
                     ====================================

outcoor: Atomic coordinates (Ang):                          
    0.00000000    0.00000000    0.00000000   2       1  C-gga
   -0.70288177    1.21742694    2.58990200   1       2  Li-gga
   -1.45518323    2.52045129    2.58990200   1       3  Li-gga
    1.45518323    2.52045129    2.58990200   1       4  Li-gga
    0.70288177    1.21742694    2.58990200   1       5  Li-gga
    1.40576354    0.00000000    2.58990200   1       6  Li-gga
    2.91036646    0.00000000    2.58990200   1       7  Li-gga

superc: Internal auxiliary supercell:     9 x     9 x     5  =     405
superc: Number of atoms, orbitals, and projectors:   2835  17415  25515

outcell: Unit cell vectors (Ang):
        4.316130    0.000000    0.000000
       -2.158065    3.737878    0.000000
        0.000000    0.000000    5.179804

outcell: Cell vector modules (Ang)   :    4.316130    4.316130    5.179804
outcell: Cell angles (23,13,12) (deg):     90.0000     90.0000    120.0000
outcell: Cell volume (Ang**3)        :     83.5666
<dSpData1D:S at geom step 0
  <sparsity:sparsity for geom step 0
    nrows_g=43 nrows=11 sparsity=25.4494 nnzs=47056, refcount: 7>
  <dData1D:(new from dSpData1D) n=47056, refcount: 1>
refcount: 1>
new_DM -- step:     1
Initializing Density Matrix...
DM filled with atomic data:
<dSpData2D:DM initialized from atoms
  <sparsity:sparsity for geom step 0
    nrows_g=43 nrows=11 sparsity=25.4494 nnzs=47056, refcount: 8>
  <dData2D:DM n=47056 m=1, refcount: 1>
refcount: 1>
No. of atoms with KB's overlaping orbs in proc 0. Max # of overlaps:     253     750
New grid distribution:   1
           1       1:   20    1:   10    1:   14
           2       1:   20    1:   10   15:   27
           3       1:   20   11:   20    1:   14
           4       1:   20   11:   20   15:   27

InitMesh: MESH =    40 x    40 x    54 =       86400
InitMesh: (bp) =    20 x    20 x    27 =       10800
InitMesh: Mesh cutoff (required, used) =   300.000   300.374 Ry
ExtMesh (bp) on 0 =   156 x   146 x   146 =     3325296
New grid distribution:   2
           1       1:   20    1:   10    1:   13
           2       1:   20    1:   10   14:   27
           3       1:   20   11:   20    1:   13
           4       1:   20   11:   20   14:   27
New grid distribution:   3
           1       1:   20    1:   10    1:   14
           2       1:   20    1:   10   15:   27
           3       1:   20   11:   20    1:   14
           4       1:   20   11:   20   15:   27
Setting up quadratic distribution...
ExtMesh (bp) on 0 =   156 x   146 x   145 =     3302520
PhiOnMesh: Number of (b)points on node 0 =                 2600
PhiOnMesh: nlist on node 0 =               966078

stepf: Fermi-Dirac step function

siesta: Program's energy decomposition (eV):
siesta: Ebs     =      -134.643060
siesta: Eions   =       321.344870
siesta: Ena     =        95.189675
siesta: Ekin    =        92.811192
siesta: Enl     =        26.028479
siesta: Eso     =         0.000000
siesta: Edftu   =         0.000000
siesta: DEna    =         9.233954
siesta: DUscf   =        17.597799
siesta: DUext   =         0.000000
siesta: Exc     =       -90.634161
siesta: eta*DQ  =         0.000000
siesta: Emadel  =         0.000000
siesta: Emeta   =         0.000000
siesta: Emolmec =        -2.666004
siesta: Ekinion =         0.000000
siesta: Eharris =      -148.867420
siesta: Etot    =      -173.783938
siesta: FreeEng =      -173.794556

        iscf     Eharris(eV)        E_KS(eV)     FreeEng(eV)     dDmax    Ef(eV) dHmax(eV)
   scf:    1     -148.867420     -173.783938     -173.794556 38.684782 -9.724331 13.925760
timer: Routine,Calls,Time,% = IterSCF        1       9.101  57.56
   scf:    2     -150.471293     -177.037658     -177.062040 22.078279-10.601760 11.295272
   scf:    3     -171.169261     -181.806229     -181.815083 13.946135-10.221715  6.265507
   scf:    4     -162.442843     -178.681233     -178.704769 13.018785-10.430896  9.538662
   scf:    5     -178.399871     -183.247654     -183.251299 10.006235-10.087125  3.789286
   scf:    6     -183.340729     -183.294527     -183.298162  0.029364-10.090669  3.654624
   scf:    7     -183.828831     -183.576393     -183.579412  0.970656-10.071070  2.810157
   scf:    8     -183.833247     -183.710475     -183.714399  0.461942-10.073641  2.287743
   scf:    9     -172.256816     -180.639887     -180.668097  7.667289-10.296368  7.290612
   scf:   10     -182.351872     -183.842623     -183.849358  7.215414-10.101781  1.639653
   scf:   11     -183.659609     -183.755863     -183.760734  0.250176-10.087333  2.083126
   scf:   12     -184.007164     -183.896020     -183.903584  0.524812-10.130848  1.298288
   scf:   13     -183.900299     -183.898165     -183.905752  0.017061-10.132672  1.283303
   scf:   14     -181.036681     -183.156572     -183.195763  4.285662-10.227097  3.482803
   scf:   15     -183.548175     -183.944493     -183.953215  3.830072-10.177031  0.886443
   scf:   16     -183.995727     -183.979079     -183.993795  0.579004-10.204546  0.308712
   scf:   17     -183.982712     -183.981674     -183.998286  0.145934-10.208627  0.144974
   scf:   18     -183.956501     -183.974022     -183.994995  0.342220-10.217524  0.265986
   scf:   19     -183.984138     -183.981677     -183.999456  0.254138-10.212445  0.027618
   scf:   20     -183.981328     -183.981513     -183.999498  0.015900-10.212899  0.008931
   scf:   21     -183.981353     -183.981435     -183.999503  0.006645-10.213029  0.001645
   scf:   22     -183.981399     -183.981417     -183.999503  0.001631-10.213058  0.000101
   scf:   23     -183.981424     -183.981421     -183.999503  0.000269-10.213061  0.000177

SCF Convergence by FreeE+DM+H criterion
|FreeE_i-FreeE_(i-1)| (eV) <     0.00100000
max |DM_out - DM_in|         :     0.0002693489
max |H_out - H_in|      (eV) :     0.0001767980
SCF cycle converged after 23 iterations

Using DM_out to compute the final energy and forces
No. of atoms with KB's overlaping orbs in proc 0. Max # of overlaps:     253     750

MM-Stress (kbar):       -7.11       -7.11       30.19        0.00       -0.00       -0.00

siesta: E_KS(eV) =             -183.9814

siesta: E_KS - E_eggbox =      -183.9814

siesta: Atomic forces (eV/Ang):
     1    0.000000    0.000000   -0.000000
     2   -0.041883    0.072507    0.000000
     3    0.041883   -0.072507    0.000000
     4   -0.041905   -0.072581    0.000000
     5    0.041905    0.072581    0.000000
     6    0.083734   -0.000018    0.000000
     7   -0.083734    0.000018    0.000000
----------------------------------------
   Tot   -0.000000   -0.000000   -0.000000
----------------------------------------
   Max    0.083734
   Res    0.044771    sqrt( Sum f_i^2 / 3N )
----------------------------------------
   Max    0.083734    constrained

Stress tensor Voigt[x,y,z,yz,xz,xy] (kbar):     -722.47     -722.48      274.72       -0.00       -0.00       -0.01
(Free)E + p*V (eV/cell)     -163.6539
Target enthalpy (eV/cell)     -183.9995

siesta: Eigenvalues (eV):
  ik is       eps
   1  1  -18.8287  -11.9277  -11.9277  -11.8070  -10.6040   -9.3904   -9.3903   -7.2473   -7.2472   -4.0695
          -3.0030   -1.0222   -1.0222    0.9406    0.9407    6.5810    6.5810    6.9985    6.9985    7.1534
    7.3422    8.9586   13.5324   13.5325   14.7480   21.4838   21.4838   22.7447   22.7447   23.3001
   24.5226   24.9579   24.9580   26.7298   35.6128   35.6129   35.7145   42.7966   42.7966   46.4515
   56.8766   56.8767   81.3734
   2  1  -18.9184  -12.3541  -12.2045  -10.7926  -10.6601  -10.1521   -9.5296   -7.7847   -4.9459   -3.6404
          -3.3408   -2.3212   -1.3733   -0.1682   -0.0751    0.6460    4.0095    6.7355    6.8409    7.4687
    7.9355   10.4936   14.5750   14.8323   15.5848   22.6233   22.7334   23.2643   23.3752   24.7560
   25.7082   27.7478   28.0902   28.1638   30.9665   32.3129   38.2080   48.6856   54.0868   57.5731
   62.8430   84.0574   94.3978
   3  1  -18.9184  -12.3541  -12.2045  -10.7926  -10.6601  -10.1522   -9.5295   -7.7847   -4.9458   -3.6405
          -3.3408   -2.3212   -1.3733   -0.1682   -0.0751    0.6460    4.0095    6.7355    6.8409    7.4686
    7.9355   10.4936   14.5748   14.8323   15.5848   22.6233   22.7335   23.2643   23.3753   24.7560
   25.7081   27.7478   28.0902   28.1641   30.9665   32.3129   38.2080   48.6856   54.0867   57.5731
   62.8430   84.0574   94.3977
   4  1  -18.9184  -12.3541  -12.2045  -10.7926  -10.6601  -10.1521   -9.5296   -7.7847   -4.9459   -3.6404
          -3.3408   -2.3212   -1.3733   -0.1682   -0.0751    0.6460    4.0095    6.7355    6.8409    7.4687
    7.9355   10.4936   14.5750   14.8323   15.5848   22.6233   22.7334   23.2643   23.3752   24.7560
   25.7082   27.7478   28.0902   28.1638   30.9665   32.3129   38.2081   48.6856   54.0868   57.5731
   62.8430   84.0574   94.3978
   5  1  -19.0337  -12.6784  -11.7656  -10.5262   -9.9542   -9.9541   -9.8113   -7.2350   -3.5792   -3.5791
          -2.6260   -1.8730   -1.8730   -1.3344   -1.3344   -0.2613   -0.2612    8.3049    8.3050    8.9739
   11.6751   11.6752   15.0810   18.8740   18.8740   24.3052   24.3052   24.5660   25.8391   26.8862
   26.8864   28.6116   28.6116   36.5838   36.5839   46.3617   48.5806   51.8908   58.1065   58.1183
   58.1187   83.7059   83.7060
   6  1  -18.7953  -12.9356  -11.4501  -11.4501  -10.4334  -10.4334   -8.5179   -6.4630   -6.4630   -5.5856
          -2.4733   -1.8368   -1.8368    3.5055    3.5056    4.8038    4.8038    4.8060    5.6369    7.2447
    7.2448    9.7941   10.9684   10.9684   13.0751   19.1435   19.1437   22.4504   22.4505   22.9287
   25.9877   28.9025   28.9025   29.7457   42.0842   42.0842   43.1679   43.1680   46.4581   58.4449
   67.7403   67.7404   87.8718
   7  1  -18.8920  -13.1439  -11.9269  -10.6738  -10.2772  -10.1605   -9.0882   -7.4521   -5.3960   -4.1821
          -2.3648   -2.3421   -1.8411   -0.0873    0.3397    1.0001    5.2562    6.9450    7.6184    8.0701
   10.5110   10.9436   12.8731   13.4745   16.7238   17.8245   19.0732   22.1806   24.5752   26.3260
   26.6732   26.7029   29.0397   30.1634   31.9574   36.6122   46.2045   48.2596   52.5506   53.8848
   59.1592   64.1119   78.7438
   8  1  -18.8920  -13.1439  -11.9269  -10.6738  -10.2772  -10.1606   -9.0882   -7.4520   -5.3960   -4.1821
          -2.3648   -2.3422   -1.8411   -0.0873    0.3397    1.0000    5.2562    6.9450    7.6183    8.0702
   10.5109   10.9436   12.8731   13.4745   16.7237   17.8245   19.0731   22.1806   24.5751   26.3260
   26.6732   26.7031   29.0396   30.1634   31.9574   36.6123   46.2044   48.2596   52.5505   53.8847
   59.1591   64.1120   78.7438
   9  1  -18.8920  -13.1439  -11.9269  -10.6738  -10.2772  -10.1605   -9.0882   -7.4521   -5.3960   -4.1821
          -2.3648   -2.3421   -1.8411   -0.0873    0.3397    1.0001    5.2562    6.9450    7.6184    8.0701
   10.5110   10.9436   12.8731   13.4745   16.7238   17.8245   19.0732   22.1806   24.5752   26.3260
   26.6732   26.7029   29.0397   30.1634   31.9574   36.6122   46.2045   48.2596   52.5506   53.8848
   59.1592   64.1119   78.7438
  10  1  -19.0628  -13.1005  -11.5218  -10.0887   -9.9470   -9.9469   -9.5383   -7.1811   -3.1575   -3.1575
          -2.6851   -2.6851   -0.9183   -0.9182   -0.6990    0.5652    0.5652    9.6344   11.5706   12.7970
   12.7970   14.4556   14.4558   19.2838   19.2838   20.8768   20.8769   23.8631   23.8633   25.4239
   26.3820   29.6828   29.6828   36.0979   38.2530   38.2531   47.9346   50.1119   69.9578   69.9579
   74.8650   76.9673   76.9673
  11  1  -18.8920  -13.1439  -11.9269  -10.6738  -10.2772  -10.1605   -9.0882   -7.4521   -5.3960   -4.1821
          -2.3648   -2.3421   -1.8411   -0.0873    0.3397    1.0001    5.2562    6.9450    7.6184    8.0701
   10.5110   10.9436   12.8731   13.4745   16.7238   17.8245   19.0732   22.1806   24.5752   26.3260
   26.6732   26.7029   29.0397   30.1634   31.9574   36.6122   46.2045   48.2596   52.5506   53.8848
   59.1592   64.1119   78.7438
  12  1  -18.8920  -13.1439  -11.9269  -10.6738  -10.2772  -10.1606   -9.0882   -7.4520   -5.3960   -4.1821
          -2.3648   -2.3422   -1.8411   -0.0873    0.3397    1.0000    5.2562    6.9450    7.6183    8.0702
   10.5109   10.9436   12.8731   13.4745   16.7237   17.8245   19.0731   22.1806   24.5751   26.3260
   26.6732   26.7031   29.0396   30.1634   31.9574   36.6123   46.2044   48.2596   52.5505   53.8847
   59.1591   64.1120   78.7438
  13  1  -18.8920  -13.1439  -11.9269  -10.6738  -10.2772  -10.1605   -9.0882   -7.4521   -5.3960   -4.1821
          -2.3648   -2.3421   -1.8411   -0.0873    0.3397    1.0001    5.2562    6.9450    7.6184    8.0701
   10.5110   10.9436   12.8731   13.4745   16.7238   17.8245   19.0732   22.1806   24.5752   26.3260
   26.6732   26.7029   29.0397   30.1634   31.9574   36.6122   46.2045   48.2596   52.5506   53.8848
   59.1592   64.1119   78.7438
  14  1  -18.7953  -12.9356  -11.4501  -11.4501  -10.4334  -10.4334   -8.5179   -6.4630   -6.4630   -5.5856
          -2.4733   -1.8368   -1.8368    3.5055    3.5056    4.8038    4.8038    4.8060    5.6369    7.2447
    7.2448    9.7941   10.9684   10.9684   13.0751   19.1435   19.1437   22.4504   22.4505   22.9287
   25.9877   28.9025   28.9025   29.7457   42.0842   42.0842   43.1679   43.1680   46.4581   58.4449
   67.7403   67.7404   87.8718
siesta: Fermi energy =     -10.213061 eV

siesta: Program's energy decomposition (eV):
siesta: Ebs     =      -129.788979
siesta: Eions   =       321.344870
siesta: Ena     =        95.189675
siesta: Ekin    =       120.871208
siesta: Enl     =        15.008056
siesta: Eso     =         0.000000
siesta: Edftu   =         0.000000
siesta: DEna    =         1.236281
siesta: DUscf   =         1.989550
siesta: DUext   =         0.000000
siesta: Exc     =       -94.265315
siesta: eta*DQ  =         0.000000
siesta: Emadel  =         0.000000
siesta: Emeta   =         0.000000
siesta: Emolmec =        -2.666004
siesta: Ekinion =         0.000000
siesta: Eharris =      -183.981424
siesta: Etot    =      -183.981421
siesta: FreeEng =      -183.999503

siesta: Final energy (eV):
siesta:  Band Struct. =    -129.788979
siesta:       Kinetic =     120.871208
siesta:       Hartree =      36.279843
siesta:       Edftu   =       0.000000
siesta:       Eso     =       0.000000
siesta:    Ext. field =       0.000000
siesta:   Exch.-corr. =     -94.265315
siesta:  Ion-electron =    -220.750009
siesta:       Ion-ion =     -23.451142
siesta:       Ekinion =       0.000000
siesta:         Total =    -183.981421
siesta:         Fermi =     -10.213061

siesta: Atomic forces (eV/Ang):
siesta:      1    0.000000    0.000000   -0.000000
siesta:      2   -0.041883    0.072507    0.000000
siesta:      3    0.041883   -0.072507    0.000000
siesta:      4   -0.041905   -0.072581    0.000000
siesta:      5    0.041905    0.072581    0.000000
siesta:      6    0.083734   -0.000018    0.000000
siesta:      7   -0.083734    0.000018    0.000000
siesta: ----------------------------------------
siesta:    Tot   -0.000000   -0.000000   -0.000000

siesta: Stress tensor (static) (eV/Ang**3):
siesta:    -0.450927   -0.000005   -0.000000
siesta:    -0.000005   -0.450933   -0.000000
siesta:    -0.000000   -0.000000    0.171462

siesta: Cell volume =         83.566650 Ang**3

siesta: Pressure (static):
siesta:                Solid            Molecule  Units
siesta:           0.00265165          0.00266808  Ry/Bohr**3
siesta:           0.24346593          0.24497400  eV/Ang**3
siesta:         390.07964149        392.49585836  kBar
(Free)E+ p_basis*V_orbitals  =        -164.565775
(Free)Eharris+ p_basis*V_orbitals  =        -164.565779

cite: Please see "LiC6_scf.bib" for an exhaustive BiBTeX file.
cite: Please clearly indicate Siesta version in published work: 4.1.5
cite: This calculation has made use of the following articles
cite: which are encouraged to be cited in a published work.
        Primary SIESTA paper
          DOI: www.doi.org/10.1088/0953-8984/14/11/302

>> End of run:   9-NOV-2022   7:15:13
Job completed
