Siesta Version  : 4.1.5
Architecture    : x86_64-unknown-linux-gnu--unknown
Compiler version: GNU Fortran (GCC) 11.3.0
Compiler flags  : mpif90 -g -O2 -fallow-argument-mismatch
PP flags        : -DMPI -DFC_HAVE_FLUSH -DFC_HAVE_ABORT
Libraries       :  -I/global/software/sl-7.x86_64/modules/intel/2020.4.304/mkl/include  /globall/software/sl-7.x86_64/modules/intel/2020.4.304/mkl/lib/intel64/libmkl_scalapack_lp64.a -Wl,--start-group /global/software/sl-7.x86_64/modules/intel/2020.4.304/mkl/lib/intel64/libmkl_intel_lp64.a /global/software/sl-7.x86_64/modules/intel/2020.4.304/mkl/lib/intel64/libmkl_sequential.a /global/software/sl-7.x86_64/modules/intel/2020.4.304/mkl/lib/intel64/libmkl_core.a /global/software/sl-7.x86_64/modules/intel/2020.4.304/mkl/lib/intel64/libmkl_blacs_openmpi_lp64.a -Wl,--end-group -lpthread -lm -ldl
PARALLEL version

* Running on 4 nodes in parallel
>> Start of run:   9-NOV-2022   5:34:04

                           ***********************       
                           *  WELCOME TO SIESTA  *       
                           ***********************       

reinit: Reading from standard input
reinit: Dumped input in INPUT_TMP.11708
************************** Dump of input data file ****************************
SystemName LiC6_scf
SystemLabel LiC6_scf
NumberOfAtoms   7
NumberOfSpecies 2
%block ChemicalSpeciesLabel
1  3   Li-gga
2  6   C-gga
%endblock ChemicalSpeciesLabel
PAO.BasisSize  DZP
PAO.EnergyShift  10 meV
%block PS.Lmax
C-gga   2
Li-gga  2
%endblock PS.Lmax
LatticeConstant 1.000000 Ang
%block LatticeVectors
	4.3161300000	0.0000000000	0.0000000000
	-2.1580650000	3.7378782260	0.0000000000
	0.0000000000	0.0000000000	2.2939132000
%endblock LatticeVectors
AtomicCoordinatesFormat Ang
%block AtomicCoordinatesAndAtomicSpecies
	0.00000000	0.00000000	0.00000000	2
	-0.70288177	1.21742694	1.14695660	1
	-1.45518323	2.52045129	1.14695660	1
	1.45518323	2.52045129	1.14695660	1
	0.70288177	1.21742694	1.14695660	1
	1.40576354	0.00000000	1.14695660	1
	2.91036646	0.00000000	1.14695660	1
%endblock AtomicCoordinatesAndAtomicSpecies
Kgrid_NoTRS  T
%block kgrid_MonkhorstPack
3       0       0       0.0
0       3       0       0.0
0       0       3       0.0
%endblock kgrid_MonkhorstPack
AtomCoorFormatOut Ang
BlockSize 1
#ProcessorY 12
Diag.ParallelOverK   T
Diag.DivideAndConquer F
MeshCutoff   300 Ry
SCF.FreeE.Tolerance 1E-3 eV
SCF.EDM.Tolerance   5E-3 eV
DM.Tolerance  1E-3
DM.Require.Energy.Convergence T
DM.NumberPulay 4
XC.Functional GGA
XC.Authors    PBE
UseSaveData        F
MD.TypeOfRun       CG
MD.VariableCell    F
MD.NumCGsteps      00
MD.MaxCGDispl      0.200000 Bohr
MD.MaxStressTol    1.000000 GPa
MD.MaxForceTol     0.010000 eV/Ang
WriteMDHistory T
WriteCoorStep T
WriteForces T
WriteCoorStep    T
WriteEigenValues T
WriteDM    F
MM.UnitsDistance Ang  # what this program prints out DO NOT CHANGE
MM.UnitsEnergy    eV  # what this program prints out DO NOT CHANGE
MM.Grimme.S6     0.75 # Grimme-paper for PBE (correct for your functional)
MM.Grimme.D     20.   # Grimme-paper (correct for your functional)
%block MM.Potentials
  1   1 Grimme     16.69      1.650 # Li, 10.1002/jcc.20495
  1   2 Grimme     17.40      2.277 # Li / C
  2   2 Grimme     18.14      2.904 # C, 10.1002/jcc.20495
%endblock MM.Potentials
#%block ProjectedDensityOfStates
# -200.0  120.0  0.4  12800  eV
#%endblock ProjectedDensityOfStates
************************** End of input data file *****************************

reinit: -----------------------------------------------------------------------
reinit: System Name: LiC6_scf
reinit: -----------------------------------------------------------------------
reinit: System Label: LiC6_scf
reinit: -----------------------------------------------------------------------
Reading two-body potentials
Grimme - two-body potential between 1 and 1
Grimme - two-body potential between 1 and 2
Grimme - two-body potential between 2 and 2

initatom: Reading input for the pseudopotentials and atomic orbitals ----------
Species number:   1 Atomic number:    3 Label: Li-gga
Species number:   2 Atomic number:    6 Label: C-gga

Ground state valence configuration:   2s01
Reading pseudopotential information in formatted form from Li-gga.psf

Valence configuration for pseudopotential generation:
2s( 1.00) rc: 2.28
2p( 0.00) rc: 2.28
3d( 0.00) rc: 2.59
4f( 0.00) rc: 2.59
Ground state valence configuration:   2s02  2p02
Reading pseudopotential information in formatted form from C-gga.psf

Valence configuration for pseudopotential generation:
2s( 2.00) rc: 1.56
2p( 2.00) rc: 1.56
3d( 0.00) rc: 1.56
4f( 0.00) rc: 1.56
relmxkb: Read Max KB Ang. Momentum=    2 for species C-gga
relmxkb: Read Max KB Ang. Momentum=    2 for species Li-gga

<basis_specs>
===============================================================================
Li-gga               Z=   3    Mass=  6.9400        Charge= 0.17977+309
Lmxo=0 Lmxkb= 2    BasisType=split      Semic=F
L=0  Nsemic=0  Cnfigmx=2
          i=1  nzeta=2  polorb=1  (2s)
            splnorm:   0.15000    
               vcte:    0.0000    
               rinn:    0.0000    
               qcoe:    0.0000    
               qyuk:    0.0000    
               qwid:   0.10000E-01
                rcs:    0.0000      0.0000    
            lambdas:    1.0000      1.0000    
-------------------------------------------------------------------------------
L=0  Nkbl=1  erefs: 0.17977+309
L=1  Nkbl=1  erefs: 0.17977+309
L=2  Nkbl=1  erefs: 0.17977+309
===============================================================================
</basis_specs>

atom: Called for Li-gga                (Z =   3)

read_vps: Pseudopotential generation method:
read_vps: ATM 3.2.2 Troullier-Martins                       
Valence charge for ps generation:    1.00000

read_vps: Pseudopotential includes a core correction:
read_vps: Pseudo-core for xc-correction

xc_check: Exchange-correlation functional:
xc_check: GGA Perdew, Burke & Ernzerhof 1996
V l=0 = -2*Zval/r beyond r=  2.2278
V l=1 = -2*Zval/r beyond r=  2.2278
V l=2 = -2*Zval/r beyond r=  2.5245
All V_l potentials equal beyond r=  2.4622
This should be close to max(r_c) in ps generation
All pots = -2*Zval/r beyond r=  2.5245

VLOCAL1: 99.0% of the norm of Vloc inside      7.160 Ry
VLOCAL1: 99.9% of the norm of Vloc inside     16.318 Ry
atom: Maximum radius for 4*pi*r*r*local-pseudopot. charge    2.86079
atom: Maximum radius for r*vlocal+2*Zval:    2.43160
GHOST: No ghost state for L =  0
GHOST: No ghost state for L =  1
GHOST: No ghost state for L =  2

KBgen: Kleinman-Bylander projectors: 
   l= 0   rc=  2.654023   el= -0.211234   Ekb=  1.742119   kbcos=  0.228463
   l= 1   rc=  2.721230   el= -0.080095   Ekb= -1.122375   kbcos= -0.147941
   l= 2   rc=  2.825246   el=  0.002001   Ekb= -0.207076   kbcos= -0.031965

KBgen: Total number of Kleinman-Bylander projectors:    9
atom: -------------------------------------------------------------------------

atom: SANKEY-TYPE ORBITALS:
atom: Selected multiple-zeta basis: split     

SPLIT: Orbitals with angular momentum L= 0

SPLIT: Basis orbitals for state 2s

SPLIT: PAO cut-off radius determined from an
SPLIT: energy shift=  0.000735 Ry

   izeta = 1
                 lambda =    1.000000
                     rc =   11.897381
                 energy =   -0.210580
                kinetic =    0.143382
    potential(screened) =   -0.353962
       potential(ionic) =   -0.533453

   izeta = 2
                 rmatch =    8.489163
              splitnorm =    0.150000
                 energy =   -0.186081
                kinetic =    0.225882
    potential(screened) =   -0.411964
       potential(ionic) =   -0.593024

POLgen: Perturbative polarization orbital with L=  1

POLgen: Polarization orbital for state 2s

   izeta = 1
                     rc =   11.897381
                 energy =   -0.027011
                kinetic =    0.282985
    potential(screened) =   -0.309997
       potential(ionic) =   -0.490997
atom: Total number of Sankey-type orbitals:  5

atm_pop: Valence configuration (for local Pseudopot. screening):
 2s( 1.00)                                                            
Vna: chval, zval:    1.00000   1.00000

Vna:  Cut-off radius for the neutral-atom potential:  11.897381
comcore: Pseudo-core radius Rcore=  3.450946

atom: _________________________________________________________________________

<basis_specs>
===============================================================================
C-gga                Z=   6    Mass=  12.010        Charge= 0.17977+309
Lmxo=1 Lmxkb= 2    BasisType=split      Semic=F
L=0  Nsemic=0  Cnfigmx=2
          i=1  nzeta=2  polorb=0  (2s)
            splnorm:   0.15000    
               vcte:    0.0000    
               rinn:    0.0000    
               qcoe:    0.0000    
               qyuk:    0.0000    
               qwid:   0.10000E-01
                rcs:    0.0000      0.0000    
            lambdas:    1.0000      1.0000    
L=1  Nsemic=0  Cnfigmx=2
          i=1  nzeta=2  polorb=1  (2p)
            splnorm:   0.15000    
               vcte:    0.0000    
               rinn:    0.0000    
               qcoe:    0.0000    
               qyuk:    0.0000    
               qwid:   0.10000E-01
                rcs:    0.0000      0.0000    
            lambdas:    1.0000      1.0000    
-------------------------------------------------------------------------------
L=0  Nkbl=1  erefs: 0.17977+309
L=1  Nkbl=1  erefs: 0.17977+309
L=2  Nkbl=1  erefs: 0.17977+309
===============================================================================
</basis_specs>

atom: Called for C-gga                 (Z =   6)

read_vps: Pseudopotential generation method:
read_vps: ATM 3.2.2 Troullier-Martins                       
Valence charge for ps generation:    4.00000

xc_check: Exchange-correlation functional:
xc_check: GGA Perdew, Burke & Ernzerhof 1996
V l=0 = -2*Zval/r beyond r=  1.5227
V l=1 = -2*Zval/r beyond r=  1.5227
V l=2 = -2*Zval/r beyond r=  1.5227
All V_l potentials equal beyond r=  1.4851
This should be close to max(r_c) in ps generation
All pots = -2*Zval/r beyond r=  1.5227

VLOCAL1: 99.0% of the norm of Vloc inside     19.682 Ry
VLOCAL1: 99.9% of the norm of Vloc inside     44.856 Ry
atom: Maximum radius for 4*pi*r*r*local-pseudopot. charge    1.79142
atom: Maximum radius for r*vlocal+2*Zval:    1.54183
GHOST: No ghost state for L =  0
GHOST: No ghost state for L =  1
GHOST: No ghost state for L =  2

KBgen: Kleinman-Bylander projectors: 
   l= 0   rc=  1.661951   el= -1.010689   Ekb=  5.289847   kbcos=  0.316429
   l= 1   rc=  1.661951   el= -0.388490   Ekb= -4.102504   kbcos= -0.351025
   l= 2   rc=  1.747182   el=  0.001971   Ekb= -1.006005   kbcos= -0.008530

KBgen: Total number of Kleinman-Bylander projectors:    9
atom: -------------------------------------------------------------------------

atom: SANKEY-TYPE ORBITALS:
atom: Selected multiple-zeta basis: split     

SPLIT: Orbitals with angular momentum L= 0

SPLIT: Basis orbitals for state 2s

SPLIT: PAO cut-off radius determined from an
SPLIT: energy shift=  0.000735 Ry

   izeta = 1
                 lambda =    1.000000
                     rc =    5.948690
                 energy =   -1.010099
                kinetic =    0.827121
    potential(screened) =   -1.837220
       potential(ionic) =   -5.392783

   izeta = 2
                 rmatch =    3.518811
              splitnorm =    0.150000
                 energy =   -0.877891
                kinetic =    1.289227
    potential(screened) =   -2.167118
       potential(ionic) =   -5.982073

SPLIT: Orbitals with angular momentum L= 1

SPLIT: Basis orbitals for state 2p

SPLIT: PAO cut-off radius determined from an
SPLIT: energy shift=  0.000735 Ry

   izeta = 1
                 lambda =    1.000000
                     rc =    7.638387
                 energy =   -0.387843
                kinetic =    2.314739
    potential(screened) =   -2.702582
       potential(ionic) =   -6.092371

   izeta = 2
                 rmatch =    3.840617
              splitnorm =    0.150000
                 energy =   -0.270479
                kinetic =    3.438347
    potential(screened) =   -3.708826
       potential(ionic) =   -7.497707

POLgen: Perturbative polarization orbital with L=  2

POLgen: Polarization orbital for state 2p

   izeta = 1
                     rc =    7.638387
                 energy =    0.921402
                kinetic =    1.955040
    potential(screened) =   -1.033637
       potential(ionic) =   -3.679558
atom: Total number of Sankey-type orbitals: 13

atm_pop: Valence configuration (for local Pseudopot. screening):
 2s( 2.00)                                                            
 2p( 2.00)                                                            
Vna: chval, zval:    4.00000   4.00000

Vna:  Cut-off radius for the neutral-atom potential:   7.638387

atom: _________________________________________________________________________

prinput: Basis input ----------------------------------------------------------

PAO.BasisType split     

%block ChemicalSpeciesLabel
    1    3 Li-gga                  # Species index, atomic number, species label
    2    6 C-gga                   # Species index, atomic number, species label
%endblock ChemicalSpeciesLabel

%block PAO.Basis                 # Define Basis set
Li-gga                1                    # Species label, number of l-shells
 n=2   0   2 P   1                   # n, l, Nzeta, Polarization, NzetaPol
  11.897      8.489   
   1.000      1.000   
C-gga                 2                    # Species label, number of l-shells
 n=2   0   2                         # n, l, Nzeta 
   5.949      3.519   
   1.000      1.000   
 n=2   1   2 P   1                   # n, l, Nzeta, Polarization, NzetaPol
   7.638      3.841   
   1.000      1.000   
%endblock PAO.Basis

prinput: ----------------------------------------------------------------------

coor:   Atomic-coordinates input format  =     Cartesian coordinates
coor:                                          (in Angstroms)

siesta: Atomic coordinates (Bohr) and species
siesta:      0.00000   0.00000   0.00000  2        1
siesta:     -1.32825   2.30060   2.16743  1        2
siesta:     -2.74990   4.76296   2.16743  1        3
siesta:      2.74990   4.76296   2.16743  1        4
siesta:      1.32825   2.30060   2.16743  1        5
siesta:      2.65651   0.00000   2.16743  1        6
siesta:      5.49980   0.00000   2.16743  1        7

siesta: System type = bulk      

initatomlists: Number of atoms, orbitals, and projectors:      7    43    63

siesta: ******************** Simulation parameters ****************************
siesta:
siesta: The following are some of the parameters of the simulation.
siesta: A complete list of the parameters used, including default values,
siesta: can be found in file out.fdf
siesta:
redata: Spin configuration                          = none
redata: Number of spin components                   = 1
redata: Time-Reversal Symmetry                      = T
redata: Spin spiral                                 = F
redata: Long output                                 =   F
redata: Number of Atomic Species                    =        2
redata: Charge density info will appear in .RHO file
redata: Write Mulliken Pop.                         = NO
redata: Matel table size (NRTAB)                    =     1024
redata: Mesh Cutoff                                 =   300.0000 Ry
redata: Net charge of the system                    =     0.0000 |e|
redata: Min. number of SCF Iter                     =        0
redata: Max. number of SCF Iter                     =     1000
redata: SCF convergence failure will abort job
redata: SCF mix quantity                            = Hamiltonian
redata: Mix DM or H after convergence               =   F
redata: Recompute H after scf cycle                 =   F
redata: Mix DM in first SCF step                    =   T
redata: Write Pulay info on disk                    =   F
redata: New DM Occupancy tolerance                  = 0.000000000001
redata: No kicks to SCF
redata: DM Mixing Weight for Kicks                  =     0.5000
redata: Require Harris convergence for SCF          =   F
redata: Harris energy tolerance for SCF             =     0.000100 eV
redata: Require DM convergence for SCF              =   T
redata: DM tolerance for SCF                        =     0.001000
redata: Require EDM convergence for SCF             =   F
redata: EDM tolerance for SCF                       =     0.005000 eV
redata: Require H convergence for SCF               =   T
redata: Hamiltonian tolerance for SCF               =     0.001000 eV
redata: Require (free) Energy convergence for SCF   =   T
redata: (free) Energy tolerance for SCF             =     0.001000 eV
redata: Using Saved Data (generic)                  =   F
redata: Use continuation files for DM               =   F
redata: Neglect nonoverlap interactions             =   F
redata: Method of Calculation                       = Diagonalization
redata: Electronic Temperature                      =   299.9869 K
redata: Fix the spin of the system                  =   F
redata: Dynamics option                             = Single-point calculation
mix.SCF: Pulay mixing                            = Pulay
mix.SCF:    Variant                              = stable
mix.SCF:    History steps                        = 4
mix.SCF:    Linear mixing weight                 =     0.250000
mix.SCF:    Mixing weight                        =     0.250000
mix.SCF:    SVD condition                        = 0.1000E-07
redata: ***********************************************************************

%block SCF.Mixers
  Pulay
%endblock SCF.Mixers

%block SCF.Mixer.Pulay
  # Mixing method
  method pulay
  variant stable

  # Mixing options
  weight 0.2500
  weight.linear 0.2500
  history 4
%endblock SCF.Mixer.Pulay

DM_history_depth set to one: no extrapolation allowed by default for geometry relaxation
Size of DM history Fstack: 1
Total number of electrons:    10.000000
Total ionic charge:    10.000000

* ProcessorY, Blocksize:    2   1


* Orbital distribution balance (max,min):    11    10

 Kpoints in:           18 . Kpoints trimmed:           14

siesta: k-grid: Number of k-points =    14
siesta: k-grid: Cutoff (effective) =     3.441 Ang
siesta: k-grid: Supercell and displacements
siesta: k-grid:    3   0   0      0.000
siesta: k-grid:    0   3   0      0.000
siesta: k-grid:    0   0   3      0.000

diag: Algorithm                                     = Expert
diag: Parallel over k                               =   T
diag: Use parallel 2D distribution                  =   T
diag: Parallel block-size                           = 1
diag: Parallel distribution                         =     2 x     2
diag: Used triangular part                          = Lower
diag: Absolute tolerance                            =  0.100E-15
diag: Orthogonalization factor                      =  0.100E-05
diag: Memory factor                                 =  1.0000

superc: Internal auxiliary supercell:     9 x     9 x    13  =    1053
superc: Number of atoms, orbitals, and projectors:   7371  45279  66339


ts: **************************************************************
ts: Save H and S matrices                           =    F
ts: Save DM and EDM matrices                        =    F
ts: Only save the overlap matrix S                  =    F
ts: **************************************************************

************************ Begin: TS CHECKS AND WARNINGS ************************
************************ End: TS CHECKS AND WARNINGS **************************


                     ====================================
                        Single-point calculation
                     ====================================

outcoor: Atomic coordinates (Ang):                          
    0.00000000    0.00000000    0.00000000   2       1  C-gga
   -0.70288177    1.21742694    1.14695660   1       2  Li-gga
   -1.45518323    2.52045129    1.14695660   1       3  Li-gga
    1.45518323    2.52045129    1.14695660   1       4  Li-gga
    0.70288177    1.21742694    1.14695660   1       5  Li-gga
    1.40576354    0.00000000    1.14695660   1       6  Li-gga
    2.91036646    0.00000000    1.14695660   1       7  Li-gga

superc: Internal auxiliary supercell:     9 x     9 x    13  =    1053
superc: Number of atoms, orbitals, and projectors:   7371  45279  66339

outcell: Unit cell vectors (Ang):
        4.316130    0.000000    0.000000
       -2.158065    3.737878    0.000000
        0.000000    0.000000    2.293913

outcell: Cell vector modules (Ang)   :    4.316130    4.316130    2.293913
outcell: Cell angles (23,13,12) (deg):     90.0000     90.0000    120.0000
outcell: Cell volume (Ang**3)        :     37.0081
<dSpData1D:S at geom step 0
  <sparsity:sparsity for geom step 0
    nrows_g=43 nrows=11 sparsity=61.4354 nnzs=113594, refcount: 7>
  <dData1D:(new from dSpData1D) n=113594, refcount: 1>
refcount: 1>
new_DM -- step:     1
Initializing Density Matrix...
DM filled with atomic data:
<dSpData2D:DM initialized from atoms
  <sparsity:sparsity for geom step 0
    nrows_g=43 nrows=11 sparsity=61.4354 nnzs=113594, refcount: 8>
  <dData2D:DM n=113594 m=1, refcount: 1>
refcount: 1>
No. of atoms with KB's overlaping orbs in proc 0. Max # of overlaps:     529    1560
New grid distribution:   1
           1       1:   20    1:   10    1:    6
           2       1:   20    1:   10    7:   12
           3       1:   20   11:   20    1:    6
           4       1:   20   11:   20    7:   12

InitMesh: MESH =    40 x    40 x    24 =       38400
InitMesh: (bp) =    20 x    20 x    12 =        4800
InitMesh: Mesh cutoff (required, used) =   300.000   302.531 Ry
ExtMesh (bp) on 0 =   156 x   146 x   138 =     3143088
New grid distribution:   2
           1       1:   10    1:   10    1:   12
           2      11:   20    1:   10    1:   12
           3       1:   10   11:   20    1:   12
           4      11:   20   11:   20    1:   12
New grid distribution:   3
           1       1:   10    1:   10    1:   12
           2      11:   20    1:   10    1:   12
           3       1:   10   11:   20    1:   12
           4      11:   20   11:   20    1:   12
Setting up quadratic distribution...
ExtMesh (bp) on 0 =   146 x   146 x   144 =     3069504
PhiOnMesh: Number of (b)points on node 0 =                 1200
PhiOnMesh: nlist on node 0 =              1002154

stepf: Fermi-Dirac step function

siesta: Program's energy decomposition (eV):
siesta: Ebs     =      -139.561304
siesta: Eions   =       321.344870
siesta: Ena     =        69.796334
siesta: Ekin    =       240.709303
siesta: Enl     =       -19.509263
siesta: Eso     =         0.000000
siesta: Edftu   =         0.000000
siesta: DEna    =       -44.257080
siesta: DUscf   =        28.559429
siesta: DUext   =         0.000000
siesta: Exc     =      -126.901839
siesta: eta*DQ  =         0.000000
siesta: Emadel  =         0.000000
siesta: Emeta   =         0.000000
siesta: Emolmec =        -4.504308
siesta: Ekinion =         0.000000
siesta: Eharris =      -131.108967
siesta: Etot    =      -177.452294
siesta: FreeEng =      -177.467901

        iscf     Eharris(eV)        E_KS(eV)     FreeEng(eV)     dDmax    Ef(eV) dHmax(eV)
   scf:    1     -131.108967     -177.452294     -177.467901 22.431585-18.355105 20.814939
timer: Routine,Calls,Time,% = IterSCF        1      22.725  60.02
   scf:    2     -200.551043     -195.905626     -195.916531  6.612056-17.627858  0.417214
   scf:    3     -195.925569     -195.915786     -195.926531  0.940770-17.603178  0.252552
   scf:    4     -195.935549     -195.926296     -195.936936  2.624113-17.539011  0.051845
   scf:    5     -195.926020     -195.926282     -195.936930  0.059466-17.542254  0.056980
   scf:    6     -195.926474     -195.926405     -195.937047  0.060004-17.543203  0.008795
   scf:    7     -195.926410     -195.926409     -195.937050  0.005479-17.543199  0.000377
   scf:    8     -195.926409     -195.926409     -195.937050  0.001036-17.543177  0.000278
   scf:    9     -195.926409     -195.926409     -195.937050  0.000818-17.543161  0.000213

SCF Convergence by FreeE+DM+H criterion
|FreeE_i-FreeE_(i-1)| (eV) <     0.00100000
max |DM_out - DM_in|         :     0.0008182402
max |H_out - H_in|      (eV) :     0.0002134927
SCF cycle converged after 9 iterations

Using DM_out to compute the final energy and forces
No. of atoms with KB's overlaping orbs in proc 0. Max # of overlaps:     529    1560

MM-Stress (kbar):       64.65       64.65      333.44        0.00       -0.00        0.00

siesta: E_KS(eV) =             -195.9264

siesta: E_KS - E_eggbox =      -195.9264

siesta: Atomic forces (eV/Ang):
     1   -0.000000    0.000000    0.000000
     2   -1.430016    2.477244   -0.000000
     3    1.429964   -2.477274   -0.000000
     4   -1.429916   -2.476746   -0.000000
     5    1.429967    2.476716   -0.000000
     6    2.860364    0.000252   -0.000000
     7   -2.860364   -0.000193   -0.000000
----------------------------------------
   Tot   -0.000000    0.000000   -0.000000
----------------------------------------
   Max    2.860364
   Res    1.528843    sqrt( Sum f_i^2 / 3N )
----------------------------------------
   Max    2.860364    constrained

Stress tensor Voigt[x,y,z,yz,xz,xy] (kbar):    -1727.31    -1727.40       -6.36        0.00        0.00       -0.08
(Free)E + p*V (eV/cell)     -169.2887
Target enthalpy (eV/cell)     -195.9370

siesta: Eigenvalues (eV):
  ik is       eps
   1  1  -31.0467  -22.8035  -22.8035  -19.6826  -19.6825  -14.8383  -14.1418   -9.9139   -9.9139   -5.7367
           0.9443    1.3980    4.6006    4.6012    4.8874    4.8874    4.9494    4.9496   12.1199   15.3252
   15.3253   19.2374   19.2375   21.2018   23.6386   25.7950   25.7950   26.6865   29.7144   29.7145
   32.7905   35.3370   35.3372   40.9262   40.9271   43.1354   57.0188   60.1958   60.1962   82.6018
   82.6020  103.7234  172.1121
   2  1  -31.0982  -23.1934  -21.4515  -21.3864  -19.8225  -14.8588  -13.3834  -12.2048   -9.1502   -7.8636
           1.1576    2.4279    3.1691    3.7794    5.0479   10.0707   10.6573   12.1827   14.6424   14.8196
   17.6434   20.0395   21.2509   21.7100   22.6817   25.4019   26.2275   27.1056   29.6336   32.6094
   34.4526   38.6115   47.0297   47.4315   48.7635   51.5856   53.4077   57.4005   59.7809   62.9793
   65.9158   78.3316  104.2741
   3  1  -31.0982  -23.1934  -21.4514  -21.3865  -19.8224  -14.8588  -13.3834  -12.2048   -9.1502   -7.8637
           1.1576    2.4274    3.1691    3.7798    5.0481   10.0713   10.6573   12.1827   14.6424   14.8190
   17.6434   20.0396   21.2509   21.7099   22.6818   25.4019   26.2278   27.1053   29.6335   32.6095
   34.4530   38.6114   47.0297   47.4314   48.7633   51.5855   53.4076   57.4004   59.7810   62.9788
   65.9153   78.3316  104.2741
   4  1  -31.0982  -23.1934  -21.4515  -21.3864  -19.8225  -14.8588  -13.3834  -12.2048   -9.1502   -7.8636
           1.1576    2.4279    3.1691    3.7794    5.0479   10.0707   10.6573   12.1827   14.6424   14.8196
   17.6434   20.0395   21.2509   21.7100   22.6817   25.4019   26.2275   27.1056   29.6336   32.6094
   34.4526   38.6115   47.0297   47.4315   48.7635   51.5856   53.4077   57.4005   59.7809   62.9794
   65.9159   78.3316  104.2741
   5  1  -31.1554  -22.8557  -21.2519  -21.2517  -20.2079  -14.9742  -14.3803  -14.3803   -2.9729   -2.9725
           0.0016    0.0017    0.3633    1.5961    4.6094   15.0666   15.1474   15.1475   16.7515   16.7516
   17.6712   19.5700   19.5702   30.3950   30.3966   32.7556   32.7564   38.4303   39.2521   40.5028
   54.5386   54.5386   61.0066   63.9671   63.9671   64.6934   64.6945   86.6912  135.1767  135.1776
  138.4051  138.4067  294.9599
   6  1  -29.4847  -22.9219  -22.9218  -22.7005  -17.5432  -17.5431  -12.0474  -10.5187  -10.5186   -6.0798
          -6.0797   -2.5971   -0.9396   -0.9395   -0.8206    3.1062    4.2343    4.2344    8.4049   13.7724
   13.7726   18.1057   18.1494   18.1499   29.5134   29.5134   30.7144   40.5137   41.4509   42.2630
   42.2631   49.8926   49.8931   54.5287   56.5381   56.5385   68.7481   70.2968   70.2971   76.3117
   76.3125   85.5856  103.8503
   7  1  -29.5735  -23.7094  -22.4148  -21.4654  -18.5062  -17.1005  -11.7860  -11.6134  -11.0195   -5.3280
          -4.5541   -4.4833   -3.4664   -1.6621    0.3623    3.4636    4.7943    5.9677   12.4396   13.0881
   17.6761   19.7061   19.7573   20.8098   25.6095   29.3004   30.2870   33.7950   37.0387   40.1833
   40.5042   43.1193   44.3905   46.2965   48.9277   62.2160   64.6887   69.0911   76.0671   81.6596
   83.8110   93.6957  102.0058
   8  1  -29.5735  -23.7094  -22.4147  -21.4656  -18.5062  -17.1004  -11.7861  -11.6133  -11.0194   -5.3280
          -4.5543   -4.4832   -3.4664   -1.6620    0.3622    3.4636    4.7942    5.9678   12.4400   13.0878
   17.6764   19.7059   19.7574   20.8097   25.6096   29.3006   30.2867   33.7947   37.0387   40.1832
   40.5042   43.1198   44.3902   46.2957   48.9286   62.2156   64.6886   69.0914   76.0668   81.6597
   83.8109   93.6951  102.0054
   9  1  -29.5735  -23.7094  -22.4148  -21.4654  -18.5062  -17.1005  -11.7860  -11.6134  -11.0195   -5.3280
          -4.5541   -4.4833   -3.4664   -1.6621    0.3623    3.4636    4.7943    5.9677   12.4396   13.0881
   17.6761   19.7061   19.7574   20.8098   25.6095   29.3004   30.2870   33.7950   37.0387   40.1833
   40.5042   43.1193   44.3903   46.2964   48.9278   62.2160   64.6886   69.0912   76.0672   81.6597
   83.8110   93.6953  102.0057
  10  1  -29.6546  -23.9216  -21.1443  -21.1441  -18.2877  -17.3559  -13.8214  -13.8213  -11.1400   -3.3568
          -3.3566   -1.4112   -1.4107   -0.7614   -0.7613    5.6336    9.6231    9.6234   14.3583   18.8854
   21.9780   21.9782   27.2591   27.2594   27.9033   28.5120   30.9289   30.9290   40.2928   41.6760
   41.6776   41.9091   42.3162   49.3482   49.3496   49.4873   49.4880   58.2503   64.5200  130.7033
  130.7033  130.7346  130.7349
  11  1  -29.5735  -23.7094  -22.4148  -21.4654  -18.5062  -17.1005  -11.7860  -11.6134  -11.0195   -5.3280
          -4.5541   -4.4833   -3.4664   -1.6621    0.3623    3.4636    4.7943    5.9677   12.4396   13.0881
   17.6761   19.7061   19.7574   20.8098   25.6095   29.3004   30.2870   33.7950   37.0387   40.1833
   40.5042   43.1193   44.3903   46.2964   48.9278   62.2160   64.6886   69.0912   76.0672   81.6597
   83.8110   93.6953  102.0057
  12  1  -29.5735  -23.7094  -22.4147  -21.4656  -18.5062  -17.1004  -11.7861  -11.6133  -11.0194   -5.3280
          -4.5543   -4.4832   -3.4664   -1.6620    0.3622    3.4636    4.7942    5.9678   12.4400   13.0878
   17.6764   19.7059   19.7574   20.8097   25.6096   29.3006   30.2867   33.7947   37.0387   40.1832
   40.5042   43.1198   44.3902   46.2957   48.9286   62.2156   64.6886   69.0914   76.0668   81.6597
   83.8109   93.6951  102.0054
  13  1  -29.5735  -23.7094  -22.4148  -21.4654  -18.5062  -17.1005  -11.7860  -11.6134  -11.0195   -5.3280
          -4.5541   -4.4833   -3.4664   -1.6621    0.3623    3.4636    4.7943    5.9677   12.4396   13.0881
   17.6761   19.7061   19.7573   20.8098   25.6095   29.3004   30.2870   33.7950   37.0387   40.1833
   40.5042   43.1193   44.3905   46.2965   48.9277   62.2160   64.6887   69.0911   76.0671   81.6596
   83.8110   93.6957  102.0058
  14  1  -29.4847  -22.9219  -22.9218  -22.7005  -17.5432  -17.5431  -12.0474  -10.5187  -10.5186   -6.0798
          -6.0797   -2.5971   -0.9396   -0.9395   -0.8206    3.1062    4.2343    4.2344    8.4049   13.7724
   13.7726   18.1057   18.1494   18.1499   29.5134   29.5134   30.7144   40.5137   41.4509   42.2630
   42.2631   49.8926   49.8931   54.5287   56.5381   56.5385   68.7481   70.2968   70.2971   76.3117
   76.3125   85.5856  103.8503
siesta: Fermi energy =     -17.543161 eV

siesta: Program's energy decomposition (eV):
siesta: Ebs     =      -231.785672
siesta: Eions   =       321.344870
siesta: Ena     =        69.796334
siesta: Ekin    =       176.426290
siesta: Enl     =        -1.007937
siesta: Eso     =         0.000000
siesta: Edftu   =         0.000000
siesta: DEna    =        -4.006862
siesta: DUscf   =         2.915683
siesta: DUext   =         0.000000
siesta: Exc     =      -114.200740
siesta: eta*DQ  =         0.000000
siesta: Emadel  =         0.000000
siesta: Emeta   =         0.000000
siesta: Emolmec =        -4.504308
siesta: Ekinion =         0.000000
siesta: Eharris =      -195.926409
siesta: Etot    =      -195.926409
siesta: FreeEng =      -195.937050

siesta: Final energy (eV):
siesta:  Band Struct. =    -231.785672
siesta:       Kinetic =     176.426290
siesta:       Hartree =      65.729760
siesta:       Edftu   =       0.000000
siesta:       Eso     =       0.000000
siesta:    Ext. field =       0.000000
siesta:   Exch.-corr. =    -114.200740
siesta:  Ion-electron =    -411.435028
siesta:       Ion-ion =      92.057617
siesta:       Ekinion =       0.000000
siesta:         Total =    -195.926409
siesta:         Fermi =     -17.543161

siesta: Atomic forces (eV/Ang):
siesta:      1   -0.000000    0.000000    0.000000
siesta:      2   -1.430016    2.477244   -0.000000
siesta:      3    1.429964   -2.477274   -0.000000
siesta:      4   -1.429916   -2.476746   -0.000000
siesta:      5    1.429967    2.476716   -0.000000
siesta:      6    2.860364    0.000252   -0.000000
siesta:      7   -2.860364   -0.000193   -0.000000
siesta: ----------------------------------------
siesta:    Tot   -0.000000    0.000000   -0.000000

siesta: Stress tensor (static) (eV/Ang**3):
siesta:    -1.078091   -0.000047    0.000000
siesta:    -0.000047   -1.078146    0.000000
siesta:     0.000000    0.000000   -0.003972

siesta: Cell volume =         37.008088 Ang**3

siesta: Pressure (static):
siesta:                Solid            Molecule  Units
siesta:           0.00784248          0.00910897  Ry/Bohr**3
siesta:           0.72006960          0.83635420  eV/Ang**3
siesta:        1153.69115081       1340.00163568  kBar
(Free)E+ p_basis*V_orbitals  =        -176.503322
(Free)Eharris+ p_basis*V_orbitals  =        -176.503322

cite: Please see "LiC6_scf.bib" for an exhaustive BiBTeX file.
cite: Please clearly indicate Siesta version in published work: 4.1.5
cite: This calculation has made use of the following articles
cite: which are encouraged to be cited in a published work.
        Primary SIESTA paper
          DOI: www.doi.org/10.1088/0953-8984/14/11/302

>> End of run:   9-NOV-2022   5:37:45
Job completed
