Siesta Version  : 4.1.5
Architecture    : x86_64-unknown-linux-gnu--unknown
Compiler version: GNU Fortran (GCC) 11.3.0
Compiler flags  : mpif90 -g -O2 -fallow-argument-mismatch
PP flags        : -DMPI -DFC_HAVE_FLUSH -DFC_HAVE_ABORT
Libraries       :  -I/global/software/sl-7.x86_64/modules/intel/2020.4.304/mkl/include  /globall/software/sl-7.x86_64/modules/intel/2020.4.304/mkl/lib/intel64/libmkl_scalapack_lp64.a -Wl,--start-group /global/software/sl-7.x86_64/modules/intel/2020.4.304/mkl/lib/intel64/libmkl_intel_lp64.a /global/software/sl-7.x86_64/modules/intel/2020.4.304/mkl/lib/intel64/libmkl_sequential.a /global/software/sl-7.x86_64/modules/intel/2020.4.304/mkl/lib/intel64/libmkl_core.a /global/software/sl-7.x86_64/modules/intel/2020.4.304/mkl/lib/intel64/libmkl_blacs_openmpi_lp64.a -Wl,--end-group -lpthread -lm -ldl
PARALLEL version

* Running on 4 nodes in parallel
>> Start of run:   9-NOV-2022   5:56:42

                           ***********************       
                           *  WELCOME TO SIESTA  *       
                           ***********************       

reinit: Reading from standard input
reinit: Dumped input in INPUT_TMP.69638
************************** Dump of input data file ****************************
SystemName LiC6_scf
SystemLabel LiC6_scf
NumberOfAtoms   7
NumberOfSpecies 2
%block ChemicalSpeciesLabel
1  3   Li-gga
2  6   C-gga
%endblock ChemicalSpeciesLabel
PAO.BasisSize  DZP
PAO.EnergyShift  10 meV
%block PS.Lmax
C-gga   2
Li-gga  2
%endblock PS.Lmax
LatticeConstant 1.000000 Ang
%block LatticeVectors
	4.3161300000	0.0000000000	0.0000000000
	-2.1580650000	3.7378782260	0.0000000000
	0.0000000000	0.0000000000	1.9239272000
%endblock LatticeVectors
AtomicCoordinatesFormat Ang
%block AtomicCoordinatesAndAtomicSpecies
	0.00000000	0.00000000	0.00000000	2
	-0.70288177	1.21742694	0.96196360	1
	-1.45518323	2.52045129	0.96196360	1
	1.45518323	2.52045129	0.96196360	1
	0.70288177	1.21742694	0.96196360	1
	1.40576354	0.00000000	0.96196360	1
	2.91036646	0.00000000	0.96196360	1
%endblock AtomicCoordinatesAndAtomicSpecies
Kgrid_NoTRS  T
%block kgrid_MonkhorstPack
3       0       0       0.0
0       3       0       0.0
0       0       3       0.0
%endblock kgrid_MonkhorstPack
AtomCoorFormatOut Ang
BlockSize 1
#ProcessorY 12
Diag.ParallelOverK   T
Diag.DivideAndConquer F
MeshCutoff   300 Ry
SCF.FreeE.Tolerance 1E-3 eV
SCF.EDM.Tolerance   5E-3 eV
DM.Tolerance  1E-3
DM.Require.Energy.Convergence T
DM.NumberPulay 4
XC.Functional GGA
XC.Authors    PBE
UseSaveData        F
MD.TypeOfRun       CG
MD.VariableCell    F
MD.NumCGsteps      00
MD.MaxCGDispl      0.200000 Bohr
MD.MaxStressTol    1.000000 GPa
MD.MaxForceTol     0.010000 eV/Ang
WriteMDHistory T
WriteCoorStep T
WriteForces T
WriteCoorStep    T
WriteEigenValues T
WriteDM    F
MM.UnitsDistance Ang  # what this program prints out DO NOT CHANGE
MM.UnitsEnergy    eV  # what this program prints out DO NOT CHANGE
MM.Grimme.S6     0.75 # Grimme-paper for PBE (correct for your functional)
MM.Grimme.D     20.   # Grimme-paper (correct for your functional)
%block MM.Potentials
  1   1 Grimme     16.69      1.650 # Li, 10.1002/jcc.20495
  1   2 Grimme     17.40      2.277 # Li / C
  2   2 Grimme     18.14      2.904 # C, 10.1002/jcc.20495
%endblock MM.Potentials
#%block ProjectedDensityOfStates
# -200.0  120.0  0.4  12800  eV
#%endblock ProjectedDensityOfStates
************************** End of input data file *****************************

reinit: -----------------------------------------------------------------------
reinit: System Name: LiC6_scf
reinit: -----------------------------------------------------------------------
reinit: System Label: LiC6_scf
reinit: -----------------------------------------------------------------------
Reading two-body potentials
Grimme - two-body potential between 1 and 1
Grimme - two-body potential between 1 and 2
Grimme - two-body potential between 2 and 2

initatom: Reading input for the pseudopotentials and atomic orbitals ----------
Species number:   1 Atomic number:    3 Label: Li-gga
Species number:   2 Atomic number:    6 Label: C-gga

Ground state valence configuration:   2s01
Reading pseudopotential information in formatted form from Li-gga.psf

Valence configuration for pseudopotential generation:
2s( 1.00) rc: 2.28
2p( 0.00) rc: 2.28
3d( 0.00) rc: 2.59
4f( 0.00) rc: 2.59
Ground state valence configuration:   2s02  2p02
Reading pseudopotential information in formatted form from C-gga.psf

Valence configuration for pseudopotential generation:
2s( 2.00) rc: 1.56
2p( 2.00) rc: 1.56
3d( 0.00) rc: 1.56
4f( 0.00) rc: 1.56
relmxkb: Read Max KB Ang. Momentum=    2 for species C-gga
relmxkb: Read Max KB Ang. Momentum=    2 for species Li-gga

<basis_specs>
===============================================================================
Li-gga               Z=   3    Mass=  6.9400        Charge= 0.17977+309
Lmxo=0 Lmxkb= 2    BasisType=split      Semic=F
L=0  Nsemic=0  Cnfigmx=2
          i=1  nzeta=2  polorb=1  (2s)
            splnorm:   0.15000    
               vcte:    0.0000    
               rinn:    0.0000    
               qcoe:    0.0000    
               qyuk:    0.0000    
               qwid:   0.10000E-01
                rcs:    0.0000      0.0000    
            lambdas:    1.0000      1.0000    
-------------------------------------------------------------------------------
L=0  Nkbl=1  erefs: 0.17977+309
L=1  Nkbl=1  erefs: 0.17977+309
L=2  Nkbl=1  erefs: 0.17977+309
===============================================================================
</basis_specs>

atom: Called for Li-gga                (Z =   3)

read_vps: Pseudopotential generation method:
read_vps: ATM 3.2.2 Troullier-Martins                       
Valence charge for ps generation:    1.00000

read_vps: Pseudopotential includes a core correction:
read_vps: Pseudo-core for xc-correction

xc_check: Exchange-correlation functional:
xc_check: GGA Perdew, Burke & Ernzerhof 1996
V l=0 = -2*Zval/r beyond r=  2.2278
V l=1 = -2*Zval/r beyond r=  2.2278
V l=2 = -2*Zval/r beyond r=  2.5245
All V_l potentials equal beyond r=  2.4622
This should be close to max(r_c) in ps generation
All pots = -2*Zval/r beyond r=  2.5245

VLOCAL1: 99.0% of the norm of Vloc inside      7.160 Ry
VLOCAL1: 99.9% of the norm of Vloc inside     16.318 Ry
atom: Maximum radius for 4*pi*r*r*local-pseudopot. charge    2.86079
atom: Maximum radius for r*vlocal+2*Zval:    2.43160
GHOST: No ghost state for L =  0
GHOST: No ghost state for L =  1
GHOST: No ghost state for L =  2

KBgen: Kleinman-Bylander projectors: 
   l= 0   rc=  2.654023   el= -0.211234   Ekb=  1.742119   kbcos=  0.228463
   l= 1   rc=  2.721230   el= -0.080095   Ekb= -1.122375   kbcos= -0.147941
   l= 2   rc=  2.825246   el=  0.002001   Ekb= -0.207076   kbcos= -0.031965

KBgen: Total number of Kleinman-Bylander projectors:    9
atom: -------------------------------------------------------------------------

atom: SANKEY-TYPE ORBITALS:
atom: Selected multiple-zeta basis: split     

SPLIT: Orbitals with angular momentum L= 0

SPLIT: Basis orbitals for state 2s

SPLIT: PAO cut-off radius determined from an
SPLIT: energy shift=  0.000735 Ry

   izeta = 1
                 lambda =    1.000000
                     rc =   11.897381
                 energy =   -0.210580
                kinetic =    0.143382
    potential(screened) =   -0.353962
       potential(ionic) =   -0.533453

   izeta = 2
                 rmatch =    8.489163
              splitnorm =    0.150000
                 energy =   -0.186081
                kinetic =    0.225882
    potential(screened) =   -0.411964
       potential(ionic) =   -0.593024

POLgen: Perturbative polarization orbital with L=  1

POLgen: Polarization orbital for state 2s

   izeta = 1
                     rc =   11.897381
                 energy =   -0.027011
                kinetic =    0.282985
    potential(screened) =   -0.309997
       potential(ionic) =   -0.490997
atom: Total number of Sankey-type orbitals:  5

atm_pop: Valence configuration (for local Pseudopot. screening):
 2s( 1.00)                                                            
Vna: chval, zval:    1.00000   1.00000

Vna:  Cut-off radius for the neutral-atom potential:  11.897381
comcore: Pseudo-core radius Rcore=  3.450946

atom: _________________________________________________________________________

<basis_specs>
===============================================================================
C-gga                Z=   6    Mass=  12.010        Charge= 0.17977+309
Lmxo=1 Lmxkb= 2    BasisType=split      Semic=F
L=0  Nsemic=0  Cnfigmx=2
          i=1  nzeta=2  polorb=0  (2s)
            splnorm:   0.15000    
               vcte:    0.0000    
               rinn:    0.0000    
               qcoe:    0.0000    
               qyuk:    0.0000    
               qwid:   0.10000E-01
                rcs:    0.0000      0.0000    
            lambdas:    1.0000      1.0000    
L=1  Nsemic=0  Cnfigmx=2
          i=1  nzeta=2  polorb=1  (2p)
            splnorm:   0.15000    
               vcte:    0.0000    
               rinn:    0.0000    
               qcoe:    0.0000    
               qyuk:    0.0000    
               qwid:   0.10000E-01
                rcs:    0.0000      0.0000    
            lambdas:    1.0000      1.0000    
-------------------------------------------------------------------------------
L=0  Nkbl=1  erefs: 0.17977+309
L=1  Nkbl=1  erefs: 0.17977+309
L=2  Nkbl=1  erefs: 0.17977+309
===============================================================================
</basis_specs>

atom: Called for C-gga                 (Z =   6)

read_vps: Pseudopotential generation method:
read_vps: ATM 3.2.2 Troullier-Martins                       
Valence charge for ps generation:    4.00000

xc_check: Exchange-correlation functional:
xc_check: GGA Perdew, Burke & Ernzerhof 1996
V l=0 = -2*Zval/r beyond r=  1.5227
V l=1 = -2*Zval/r beyond r=  1.5227
V l=2 = -2*Zval/r beyond r=  1.5227
All V_l potentials equal beyond r=  1.4851
This should be close to max(r_c) in ps generation
All pots = -2*Zval/r beyond r=  1.5227

VLOCAL1: 99.0% of the norm of Vloc inside     19.682 Ry
VLOCAL1: 99.9% of the norm of Vloc inside     44.856 Ry
atom: Maximum radius for 4*pi*r*r*local-pseudopot. charge    1.79142
atom: Maximum radius for r*vlocal+2*Zval:    1.54183
GHOST: No ghost state for L =  0
GHOST: No ghost state for L =  1
GHOST: No ghost state for L =  2

KBgen: Kleinman-Bylander projectors: 
   l= 0   rc=  1.661951   el= -1.010689   Ekb=  5.289847   kbcos=  0.316429
   l= 1   rc=  1.661951   el= -0.388490   Ekb= -4.102504   kbcos= -0.351025
   l= 2   rc=  1.747182   el=  0.001971   Ekb= -1.006005   kbcos= -0.008530

KBgen: Total number of Kleinman-Bylander projectors:    9
atom: -------------------------------------------------------------------------

atom: SANKEY-TYPE ORBITALS:
atom: Selected multiple-zeta basis: split     

SPLIT: Orbitals with angular momentum L= 0

SPLIT: Basis orbitals for state 2s

SPLIT: PAO cut-off radius determined from an
SPLIT: energy shift=  0.000735 Ry

   izeta = 1
                 lambda =    1.000000
                     rc =    5.948690
                 energy =   -1.010099
                kinetic =    0.827121
    potential(screened) =   -1.837220
       potential(ionic) =   -5.392783

   izeta = 2
                 rmatch =    3.518811
              splitnorm =    0.150000
                 energy =   -0.877891
                kinetic =    1.289227
    potential(screened) =   -2.167118
       potential(ionic) =   -5.982073

SPLIT: Orbitals with angular momentum L= 1

SPLIT: Basis orbitals for state 2p

SPLIT: PAO cut-off radius determined from an
SPLIT: energy shift=  0.000735 Ry

   izeta = 1
                 lambda =    1.000000
                     rc =    7.638387
                 energy =   -0.387843
                kinetic =    2.314739
    potential(screened) =   -2.702582
       potential(ionic) =   -6.092371

   izeta = 2
                 rmatch =    3.840617
              splitnorm =    0.150000
                 energy =   -0.270479
                kinetic =    3.438347
    potential(screened) =   -3.708826
       potential(ionic) =   -7.497707

POLgen: Perturbative polarization orbital with L=  2

POLgen: Polarization orbital for state 2p

   izeta = 1
                     rc =    7.638387
                 energy =    0.921402
                kinetic =    1.955040
    potential(screened) =   -1.033637
       potential(ionic) =   -3.679558
atom: Total number of Sankey-type orbitals: 13

atm_pop: Valence configuration (for local Pseudopot. screening):
 2s( 2.00)                                                            
 2p( 2.00)                                                            
Vna: chval, zval:    4.00000   4.00000

Vna:  Cut-off radius for the neutral-atom potential:   7.638387

atom: _________________________________________________________________________

prinput: Basis input ----------------------------------------------------------

PAO.BasisType split     

%block ChemicalSpeciesLabel
    1    3 Li-gga                  # Species index, atomic number, species label
    2    6 C-gga                   # Species index, atomic number, species label
%endblock ChemicalSpeciesLabel

%block PAO.Basis                 # Define Basis set
Li-gga                1                    # Species label, number of l-shells
 n=2   0   2 P   1                   # n, l, Nzeta, Polarization, NzetaPol
  11.897      8.489   
   1.000      1.000   
C-gga                 2                    # Species label, number of l-shells
 n=2   0   2                         # n, l, Nzeta 
   5.949      3.519   
   1.000      1.000   
 n=2   1   2 P   1                   # n, l, Nzeta, Polarization, NzetaPol
   7.638      3.841   
   1.000      1.000   
%endblock PAO.Basis

prinput: ----------------------------------------------------------------------

coor:   Atomic-coordinates input format  =     Cartesian coordinates
coor:                                          (in Angstroms)

siesta: Atomic coordinates (Bohr) and species
siesta:      0.00000   0.00000   0.00000  2        1
siesta:     -1.32825   2.30060   1.81785  1        2
siesta:     -2.74990   4.76296   1.81785  1        3
siesta:      2.74990   4.76296   1.81785  1        4
siesta:      1.32825   2.30060   1.81785  1        5
siesta:      2.65651   0.00000   1.81785  1        6
siesta:      5.49980   0.00000   1.81785  1        7

siesta: System type = bulk      

initatomlists: Number of atoms, orbitals, and projectors:      7    43    63

siesta: ******************** Simulation parameters ****************************
siesta:
siesta: The following are some of the parameters of the simulation.
siesta: A complete list of the parameters used, including default values,
siesta: can be found in file out.fdf
siesta:
redata: Spin configuration                          = none
redata: Number of spin components                   = 1
redata: Time-Reversal Symmetry                      = T
redata: Spin spiral                                 = F
redata: Long output                                 =   F
redata: Number of Atomic Species                    =        2
redata: Charge density info will appear in .RHO file
redata: Write Mulliken Pop.                         = NO
redata: Matel table size (NRTAB)                    =     1024
redata: Mesh Cutoff                                 =   300.0000 Ry
redata: Net charge of the system                    =     0.0000 |e|
redata: Min. number of SCF Iter                     =        0
redata: Max. number of SCF Iter                     =     1000
redata: SCF convergence failure will abort job
redata: SCF mix quantity                            = Hamiltonian
redata: Mix DM or H after convergence               =   F
redata: Recompute H after scf cycle                 =   F
redata: Mix DM in first SCF step                    =   T
redata: Write Pulay info on disk                    =   F
redata: New DM Occupancy tolerance                  = 0.000000000001
redata: No kicks to SCF
redata: DM Mixing Weight for Kicks                  =     0.5000
redata: Require Harris convergence for SCF          =   F
redata: Harris energy tolerance for SCF             =     0.000100 eV
redata: Require DM convergence for SCF              =   T
redata: DM tolerance for SCF                        =     0.001000
redata: Require EDM convergence for SCF             =   F
redata: EDM tolerance for SCF                       =     0.005000 eV
redata: Require H convergence for SCF               =   T
redata: Hamiltonian tolerance for SCF               =     0.001000 eV
redata: Require (free) Energy convergence for SCF   =   T
redata: (free) Energy tolerance for SCF             =     0.001000 eV
redata: Using Saved Data (generic)                  =   F
redata: Use continuation files for DM               =   F
redata: Neglect nonoverlap interactions             =   F
redata: Method of Calculation                       = Diagonalization
redata: Electronic Temperature                      =   299.9869 K
redata: Fix the spin of the system                  =   F
redata: Dynamics option                             = Single-point calculation
mix.SCF: Pulay mixing                            = Pulay
mix.SCF:    Variant                              = stable
mix.SCF:    History steps                        = 4
mix.SCF:    Linear mixing weight                 =     0.250000
mix.SCF:    Mixing weight                        =     0.250000
mix.SCF:    SVD condition                        = 0.1000E-07
redata: ***********************************************************************

%block SCF.Mixers
  Pulay
%endblock SCF.Mixers

%block SCF.Mixer.Pulay
  # Mixing method
  method pulay
  variant stable

  # Mixing options
  weight 0.2500
  weight.linear 0.2500
  history 4
%endblock SCF.Mixer.Pulay

DM_history_depth set to one: no extrapolation allowed by default for geometry relaxation
Size of DM history Fstack: 1
Total number of electrons:    10.000000
Total ionic charge:    10.000000

* ProcessorY, Blocksize:    2   1


* Orbital distribution balance (max,min):    11    10

 Kpoints in:           18 . Kpoints trimmed:           14

siesta: k-grid: Number of k-points =    14
siesta: k-grid: Cutoff (effective) =     2.886 Ang
siesta: k-grid: Supercell and displacements
siesta: k-grid:    3   0   0      0.000
siesta: k-grid:    0   3   0      0.000
siesta: k-grid:    0   0   3      0.000

diag: Algorithm                                     = Expert
diag: Parallel over k                               =   T
diag: Use parallel 2D distribution                  =   T
diag: Parallel block-size                           = 1
diag: Parallel distribution                         =     2 x     2
diag: Used triangular part                          = Lower
diag: Absolute tolerance                            =  0.100E-15
diag: Orthogonalization factor                      =  0.100E-05
diag: Memory factor                                 =  1.0000

superc: Internal auxiliary supercell:     9 x     9 x    17  =    1377
superc: Number of atoms, orbitals, and projectors:   9639  59211  86751


ts: **************************************************************
ts: Save H and S matrices                           =    F
ts: Save DM and EDM matrices                        =    F
ts: Only save the overlap matrix S                  =    F
ts: **************************************************************

************************ Begin: TS CHECKS AND WARNINGS ************************
************************ End: TS CHECKS AND WARNINGS **************************


                     ====================================
                        Single-point calculation
                     ====================================

outcoor: Atomic coordinates (Ang):                          
    0.00000000    0.00000000    0.00000000   2       1  C-gga
   -0.70288177    1.21742694    0.96196360   1       2  Li-gga
   -1.45518323    2.52045129    0.96196360   1       3  Li-gga
    1.45518323    2.52045129    0.96196360   1       4  Li-gga
    0.70288177    1.21742694    0.96196360   1       5  Li-gga
    1.40576354    0.00000000    0.96196360   1       6  Li-gga
    2.91036646    0.00000000    0.96196360   1       7  Li-gga

superc: Internal auxiliary supercell:     9 x     9 x    17  =    1377
superc: Number of atoms, orbitals, and projectors:   9639  59211  86751

outcell: Unit cell vectors (Ang):
        4.316130    0.000000    0.000000
       -2.158065    3.737878    0.000000
        0.000000    0.000000    1.923927

outcell: Cell vector modules (Ang)   :    4.316130    4.316130    1.923927
outcell: Cell angles (23,13,12) (deg):     90.0000     90.0000    120.0000
outcell: Cell volume (Ang**3)        :     31.0390
<dSpData1D:S at geom step 0
  <sparsity:sparsity for geom step 0
    nrows_g=43 nrows=11 sparsity=77.6896 nnzs=143648, refcount: 7>
  <dData1D:(new from dSpData1D) n=143648, refcount: 1>
refcount: 1>
new_DM -- step:     1
Initializing Density Matrix...
DM filled with atomic data:
<dSpData2D:DM initialized from atoms
  <sparsity:sparsity for geom step 0
    nrows_g=43 nrows=11 sparsity=77.6896 nnzs=143648, refcount: 8>
  <dData2D:DM n=143648 m=1, refcount: 1>
refcount: 1>
No. of atoms with KB's overlaping orbs in proc 0. Max # of overlaps:     673    1964
New grid distribution:   1
           1       1:   20    1:   10    1:    6
           2       1:   20    1:   10    7:   12
           3       1:   20   11:   20    1:    6
           4       1:   20   11:   20    7:   12

InitMesh: MESH =    40 x    40 x    24 =       38400
InitMesh: (bp) =    20 x    20 x    12 =        4800
InitMesh: Mesh cutoff (required, used) =   300.000   316.498 Ry
ExtMesh (bp) on 0 =   156 x   146 x   166 =     3780816
New grid distribution:   2
           1       1:   10    1:   10    1:   12
           2      11:   20    1:   10    1:   12
           3       1:   10   11:   20    1:   12
           4      11:   20   11:   20    1:   12
New grid distribution:   3
           1       1:   10    1:   10    1:   12
           2      11:   20    1:   10    1:   12
           3       1:   10   11:   20    1:   12
           4      11:   20   11:   20    1:   12
Setting up quadratic distribution...
ExtMesh (bp) on 0 =   146 x   146 x   172 =     3666352
PhiOnMesh: Number of (b)points on node 0 =                 1200
PhiOnMesh: nlist on node 0 =              1192371

stepf: Fermi-Dirac step function

siesta: Program's energy decomposition (eV):
siesta: Ebs     =      -199.857429
siesta: Eions   =       321.344870
siesta: Ena     =        64.794560
siesta: Ekin    =       242.119773
siesta: Enl     =       -14.007145
siesta: Eso     =         0.000000
siesta: Edftu   =         0.000000
siesta: DEna    =       -40.283638
siesta: DUscf   =        22.596809
siesta: DUext   =         0.000000
siesta: Exc     =      -129.207033
siesta: eta*DQ  =         0.000000
siesta: Emadel  =         0.000000
siesta: Emeta   =         0.000000
siesta: Emolmec =        -6.521227
siesta: Ekinion =         0.000000
siesta: Eharris =      -150.565922
siesta: Etot    =      -181.852771
siesta: FreeEng =      -181.863392

        iscf     Eharris(eV)        E_KS(eV)     FreeEng(eV)     dDmax    Ef(eV) dHmax(eV)
   scf:    1     -150.565922     -181.852771     -181.863392 18.528064-21.223916 18.962389
timer: Routine,Calls,Time,% = IterSCF        1      33.376  61.12
   scf:    2     -199.428067     -192.826423     -192.835045  5.440323-21.225398  4.799577
   scf:    3     -193.896540     -193.669704     -193.678318  2.353160-21.023644  0.336761
   scf:    4     -193.677389     -193.675168     -193.683783  0.494937-20.987255  0.204063
   scf:    5     -193.681817     -193.678764     -193.687378  1.129020-20.897390  0.073512
   scf:    6     -193.679009     -193.678942     -193.687556  0.029806-20.898845  0.003276
   scf:    7     -193.678945     -193.678943     -193.687558  0.007523-20.900010  0.000433
   scf:    8     -193.678944     -193.678944     -193.687558  0.000393-20.900036  0.000246

SCF Convergence by FreeE+DM+H criterion
|FreeE_i-FreeE_(i-1)| (eV) <     0.00100000
max |DM_out - DM_in|         :     0.0003925397
max |H_out - H_in|      (eV) :     0.0002463443
SCF cycle converged after 8 iterations

Using DM_out to compute the final energy and forces
No. of atoms with KB's overlaping orbs in proc 0. Max # of overlaps:     673    1964

MM-Stress (kbar):      171.73      171.73      801.97        0.00        0.00        0.00

siesta: E_KS(eV) =             -193.6789

siesta: E_KS - E_eggbox =      -193.6789

siesta: Atomic forces (eV/Ang):
     1    0.000000   -0.000000    0.000000
     2   -2.075783    3.595830   -0.000000
     3    2.075789   -3.595827   -0.000000
     4   -2.075782   -3.595352   -0.000000
     5    2.075776    3.595356   -0.000000
     6    4.151972    0.000227   -0.000000
     7   -4.151972   -0.000234   -0.000000
----------------------------------------
   Tot   -0.000000   -0.000000    0.000000
----------------------------------------
   Max    4.151972
   Res    2.219248    sqrt( Sum f_i^2 / 3N )
----------------------------------------
   Max    4.151972    constrained

Stress tensor Voigt[x,y,z,yz,xz,xy] (kbar):    -2093.92    -2094.03    -1040.37        0.00       -0.00       -0.10
(Free)E + p*V (eV/cell)     -159.9251
Target enthalpy (eV/cell)     -193.6876

siesta: Eigenvalues (eV):
  ik is       eps
   1  1  -35.8469  -26.4145  -26.4144  -24.8006  -24.8004  -17.7616  -14.9688  -14.9688  -13.0651  -11.7132
          -3.7652    0.5453    0.5458    2.8321    2.8331    7.7774    9.4720    9.4720   16.3088   17.5786
   17.5787   18.1031   24.5160   24.5160   26.2202   26.6768   26.6768   28.6859   30.5360   37.9178
   37.9181   42.8125   42.8127   45.1475   45.1477   52.6645   56.8194   56.8196   59.4973   69.5072
   73.5426   73.5427  112.7359
   2  1  -35.8964  -26.6580  -25.6798  -25.5918  -24.8503  -17.6867  -16.5259  -13.3555  -12.9258  -12.8900
          -1.3483   -1.2309    2.9935    3.5698    7.3568    8.2508    8.4601   10.9991   15.4206   17.6368
   23.6180   23.9876   24.4448   25.6509   27.2978   27.4903   29.4728   30.3496   34.5485   36.1587
   41.1064   43.1250   43.2196   44.6778   53.7907   56.5816   64.9398   66.3642   68.6390   72.6415
  116.8527  123.9900  125.6567
   3  1  -35.8964  -26.6580  -25.6799  -25.5918  -24.8501  -17.6867  -16.5259  -13.3555  -12.9258  -12.8900
          -1.3481   -1.2315    2.9940    3.5704    7.3568    8.2508    8.4596   10.9992   15.4204   17.6368
   23.6180   23.9875   24.4448   25.6511   27.2974   27.4902   29.4734   30.3495   34.5485   36.1586
   41.1061   43.1251   43.2196   44.6777   53.7910   56.5816   64.9396   66.3631   68.6392   72.6416
  116.8527  123.9902  125.6565
   4  1  -35.8964  -26.6580  -25.6798  -25.5918  -24.8503  -17.6867  -16.5259  -13.3555  -12.9258  -12.8900
          -1.3483   -1.2309    2.9935    3.5698    7.3568    8.2508    8.4601   10.9991   15.4206   17.6368
   23.6180   23.9876   24.4448   25.6509   27.2978   27.4903   29.4728   30.3496   34.5485   36.1588
   41.1063   43.1250   43.2196   44.6779   53.7907   56.5816   64.9398   66.3643   68.6389   72.6415
  116.8528  123.9900  125.6568
   5  1  -35.9912  -26.5998  -25.6137  -25.6135  -24.9005  -18.1457  -18.1456  -12.7329   -7.1031   -7.1027
          -3.7934   -3.7933   -0.6439    8.4591   10.8150   12.9142   12.9143   14.7985   14.7990   15.7897
   15.7900   16.0144   23.5122   23.5123   25.8708   27.1554   31.5568   31.5575   33.6729   33.6743
   36.2172   38.7707   45.3588   45.3590   49.9042   49.9048   57.3982   62.4108   62.4124   82.9537
   91.4930   91.4941  103.3274
   6  1  -33.3764  -26.4100  -26.4099  -25.1523  -20.9285  -20.9284  -15.0727  -11.5035  -11.5033   -7.7283
          -7.7282   -4.2042   -4.0968   -1.2981   -1.2980    3.6037    4.8695    4.8695   12.3108   12.3109
   15.0881   16.5767   16.5772   20.5226   23.4430   23.4430   28.4677   36.8358   37.8715   37.8723
   38.2645   38.2646   49.0484   49.4573   49.4574   57.9753   69.2921   75.7205   75.7229   87.2781
  100.8542  100.8543  141.9000
   7  1  -33.4268  -27.0586  -25.3564  -25.1054  -21.5376  -20.2214  -15.5674  -13.5569  -11.1603   -8.5624
          -7.2521   -3.0704   -2.3497   -1.5135    0.3905    3.3046    6.0522    7.7392    9.4603   13.8345
   17.2920   17.4769   18.9653   22.2933   26.5694   27.8867   30.3772   34.6920   35.3225   37.4769
   39.9230   47.1573   48.3012   48.9913   55.3311   56.9245   60.5255   77.9596   82.8541   91.8964
  100.1137  100.6790  150.1180
   8  1  -33.4268  -27.0585  -25.3563  -25.1056  -21.5376  -20.2213  -15.5675  -13.5569  -11.1603   -8.5626
          -7.2519   -3.0704   -2.3497   -1.5133    0.3902    3.3047    6.0524    7.7391    9.4607   13.8339
   17.2918   17.4772   18.9651   22.2934   26.5700   27.8863   30.3773   34.6917   35.3233   37.4767
   39.9227   47.1570   48.3005   48.9917   55.3312   56.9243   60.5255   77.9596   82.8541   91.8965
  100.1138  100.6784  150.1162
   9  1  -33.4268  -27.0586  -25.3564  -25.1054  -21.5376  -20.2214  -15.5674  -13.5569  -11.1603   -8.5624
          -7.2521   -3.0704   -2.3497   -1.5135    0.3905    3.3046    6.0522    7.7392    9.4603   13.8345
   17.2920   17.4770   18.9653   22.2933   26.5695   27.8867   30.3772   34.6920   35.3225   37.4769
   39.9230   47.1573   48.3007   48.9916   55.3311   56.9244   60.5256   77.9596   82.8542   91.8963
  100.1137  100.6788  150.1176
  10  1  -33.4698  -27.3883  -24.8612  -24.8609  -20.3090  -20.2815  -17.4873  -17.4873   -9.8908   -5.5752
          -5.5746   -2.0713   -2.0713    3.5261    3.5264    5.0367    7.0106    7.0109    9.2199   19.3128
   19.3129   19.9501   21.8411   27.6367   27.6374   29.0303   36.6606   37.7387   37.7393   39.6659
   41.0737   41.0745   48.0553   48.0559   50.8445   50.8451   54.7883   86.0755   96.5291   96.5303
  100.1538  132.1055  132.1058
  11  1  -33.4268  -27.0586  -25.3564  -25.1054  -21.5376  -20.2214  -15.5674  -13.5569  -11.1603   -8.5624
          -7.2521   -3.0704   -2.3497   -1.5135    0.3905    3.3046    6.0522    7.7392    9.4603   13.8345
   17.2920   17.4770   18.9653   22.2933   26.5695   27.8867   30.3772   34.6920   35.3225   37.4769
   39.9230   47.1573   48.3007   48.9916   55.3311   56.9244   60.5256   77.9596   82.8542   91.8963
  100.1137  100.6788  150.1176
  12  1  -33.4268  -27.0585  -25.3563  -25.1056  -21.5376  -20.2213  -15.5675  -13.5569  -11.1603   -8.5626
          -7.2519   -3.0704   -2.3497   -1.5133    0.3902    3.3047    6.0524    7.7391    9.4607   13.8339
   17.2918   17.4772   18.9651   22.2934   26.5700   27.8863   30.3773   34.6917   35.3233   37.4767
   39.9227   47.1570   48.3005   48.9917   55.3312   56.9243   60.5255   77.9596   82.8541   91.8965
  100.1138  100.6784  150.1162
  13  1  -33.4268  -27.0586  -25.3564  -25.1054  -21.5376  -20.2214  -15.5674  -13.5569  -11.1603   -8.5624
          -7.2521   -3.0704   -2.3497   -1.5135    0.3905    3.3046    6.0522    7.7392    9.4603   13.8345
   17.2920   17.4769   18.9653   22.2933   26.5694   27.8867   30.3772   34.6920   35.3225   37.4769
   39.9230   47.1573   48.3012   48.9913   55.3311   56.9245   60.5255   77.9596   82.8541   91.8964
  100.1137  100.6790  150.1180
  14  1  -33.3764  -26.4100  -26.4099  -25.1523  -20.9285  -20.9284  -15.0727  -11.5035  -11.5033   -7.7283
          -7.7282   -4.2042   -4.0968   -1.2981   -1.2980    3.6037    4.8695    4.8695   12.3108   12.3109
   15.0881   16.5767   16.5772   20.5226   23.4430   23.4430   28.4677   36.8358   37.8715   37.8723
   38.2645   38.2646   49.0484   49.4573   49.4574   57.9753   69.2921   75.7205   75.7229   87.2781
  100.8542  100.8543  141.9000
siesta: Fermi energy =     -20.900036 eV

siesta: Program's energy decomposition (eV):
siesta: Ebs     =      -268.836552
siesta: Eions   =       321.344870
siesta: Ena     =        64.794560
siesta: Ekin    =       195.403028
siesta: Enl     =        -2.308562
siesta: Eso     =         0.000000
siesta: Edftu   =         0.000000
siesta: DEna    =        -7.754426
siesta: DUscf   =         4.080804
siesta: DUext   =         0.000000
siesta: Exc     =      -120.028251
siesta: eta*DQ  =         0.000000
siesta: Emadel  =         0.000000
siesta: Emeta   =         0.000000
siesta: Emolmec =        -6.521227
siesta: Ekinion =         0.000000
siesta: Eharris =      -193.678944
siesta: Etot    =      -193.678944
siesta: FreeEng =      -193.687558

siesta: Final energy (eV):
siesta:  Band Struct. =    -268.836552
siesta:       Kinetic =     195.403028
siesta:       Hartree =      75.498235
siesta:       Edftu   =       0.000000
siesta:       Eso     =       0.000000
siesta:    Ext. field =       0.000000
siesta:   Exch.-corr. =    -120.028251
siesta:  Ion-electron =    -479.930974
siesta:       Ion-ion =     141.900246
siesta:       Ekinion =       0.000000
siesta:         Total =    -193.678944
siesta:         Fermi =     -20.900036

siesta: Atomic forces (eV/Ang):
siesta:      1    0.000000   -0.000000    0.000000
siesta:      2   -2.075783    3.595830   -0.000000
siesta:      3    2.075789   -3.595827   -0.000000
siesta:      4   -2.075782   -3.595352   -0.000000
siesta:      5    2.075776    3.595356   -0.000000
siesta:      6    4.151972    0.000227   -0.000000
siesta:      7   -4.151972   -0.000234   -0.000000
siesta: ----------------------------------------
siesta:    Tot   -0.000000   -0.000000    0.000000

siesta: Stress tensor (static) (eV/Ang**3):
siesta:    -1.306906   -0.000061   -0.000000
siesta:    -0.000061   -1.306977    0.000000
siesta:    -0.000000    0.000000   -0.649343

siesta: Cell volume =         31.039041 Ang**3

siesta: Pressure (static):
siesta:                Solid            Molecule  Units
siesta:           0.01184690          0.01403886  Ry/Bohr**3
siesta:           1.08774200          1.28900018  eV/Ang**3
siesta:        1742.77365249       2065.22829573  kBar
(Free)E+ p_basis*V_orbitals  =        -174.253831
(Free)Eharris+ p_basis*V_orbitals  =        -174.253831

cite: Please see "LiC6_scf.bib" for an exhaustive BiBTeX file.
cite: Please clearly indicate Siesta version in published work: 4.1.5
cite: This calculation has made use of the following articles
cite: which are encouraged to be cited in a published work.
        Primary SIESTA paper
          DOI: www.doi.org/10.1088/0953-8984/14/11/302

>> End of run:   9-NOV-2022   6:01:48
Job completed
