Siesta Version  : 4.1.5
Architecture    : x86_64-unknown-linux-gnu--unknown
Compiler version: GNU Fortran (GCC) 11.3.0
Compiler flags  : mpif90 -g -O2 -fallow-argument-mismatch
PP flags        : -DMPI -DFC_HAVE_FLUSH -DFC_HAVE_ABORT
Libraries       :  -I/global/software/sl-7.x86_64/modules/intel/2020.4.304/mkl/include  /globall/software/sl-7.x86_64/modules/intel/2020.4.304/mkl/lib/intel64/libmkl_scalapack_lp64.a -Wl,--start-group /global/software/sl-7.x86_64/modules/intel/2020.4.304/mkl/lib/intel64/libmkl_intel_lp64.a /global/software/sl-7.x86_64/modules/intel/2020.4.304/mkl/lib/intel64/libmkl_sequential.a /global/software/sl-7.x86_64/modules/intel/2020.4.304/mkl/lib/intel64/libmkl_core.a /global/software/sl-7.x86_64/modules/intel/2020.4.304/mkl/lib/intel64/libmkl_blacs_openmpi_lp64.a -Wl,--end-group -lpthread -lm -ldl
PARALLEL version

* Running on 16 nodes in parallel
>> Start of run:   9-NOV-2022   8:41:29

                           ***********************       
                           *  WELCOME TO SIESTA  *       
                           ***********************       

reinit: Reading from standard input
reinit: Dumped input in INPUT_TMP.64953
************************** Dump of input data file ****************************
SystemName LiC18_scf
SystemLabel LiC18_scf
NumberOfAtoms   19
NumberOfSpecies 2
%block ChemicalSpeciesLabel
1  3   Li-gga
2  6   C-gga
%endblock ChemicalSpeciesLabel
PAO.BasisSize  DZ
PAO.EnergyShift  10 meV
%block PS.Lmax
C-gga   2
Li-gga  2
%endblock PS.Lmax
LatticeConstant 1.000000 Ang
%block LatticeVectors
	4.3161300000	0.0000000000	0.0000000000
	-2.1580650000	3.7378782260	0.0000000000
	0.0000000000	0.0000000000	7.7697067000
%endblock LatticeVectors
AtomicCoordinatesFormat Ang
%block AtomicCoordinatesAndAtomicSpecies
	0.00000000	0.00000000	0.00000000	2
	-0.70288177	1.21742694	1.29495371	1
	-1.45518323	2.52045129	6.47475299	1
	1.45518323	2.52045129	1.29495371	1
	0.70288177	1.21742694	6.47475299	1
	1.40576354	0.00000000	1.29495371	1
	2.91036646	0.00000000	6.47475299	1
	-1.45518323	2.52045129	1.29495371	1
	-0.70288177	1.21742694	6.47475299	1
	0.70288177	1.21742694	1.29495371	1
	1.45518323	2.52045129	6.47475299	1
	2.91036646	0.00000000	1.29495371	1
	1.40576354	0.00000000	6.47475299	1
	-0.70288177	1.21742694	3.88485335	1
	-1.45518323	2.52045129	3.88485335	1
	1.45518323	2.52045129	3.88485335	1
	0.70288177	1.21742694	3.88485335	1
	1.40576354	0.00000000	3.88485335	1
	2.91036646	0.00000000	3.88485335	1
%endblock AtomicCoordinatesAndAtomicSpecies
Kgrid_NoTRS  T
%block kgrid_MonkhorstPack
4       0       0       0.0
0       4       0       0.0
0       0       4       0.0
%endblock kgrid_MonkhorstPack
AtomCoorFormatOut Ang
BlockSize 1
#ProcessorY 12
Diag.ParallelOverK   T
Diag.DivideAndConquer F
MeshCutoff   300 Ry
SCF.FreeE.Tolerance 1E-3 eV
SCF.EDM.Tolerance   5E-3 eV
DM.Tolerance  1E-3
DM.Require.Energy.Convergence T
DM.NumberPulay 4
XC.Functional GGA
XC.Authors    PBE
UseSaveData        F
MD.TypeOfRun       CG
MD.VariableCell    F
MD.NumCGsteps      00
MD.MaxCGDispl      0.200000 Bohr
MD.MaxStressTol    1.000000 GPa
MD.MaxForceTol     0.010000 eV/Ang
WriteMDHistory T
WriteCoorStep T
WriteForces T
WriteCoorStep    T
WriteEigenValues T
WriteDM    F
MM.UnitsDistance Ang  # what this program prints out DO NOT CHANGE
MM.UnitsEnergy    eV  # what this program prints out DO NOT CHANGE
MM.Grimme.S6     0.75 # Grimme-paper for PBE (correct for your functional)
MM.Grimme.D     20.   # Grimme-paper (correct for your functional)
%block MM.Potentials
  1   1 Grimme     16.69      1.650 # Li, 10.1002/jcc.20495
  1   2 Grimme     17.40      2.277 # Li / C
  2   2 Grimme     18.14      2.904 # C, 10.1002/jcc.20495
%endblock MM.Potentials
#%block ProjectedDensityOfStates
# -200.0  120.0  0.4  12800  eV
#%endblock ProjectedDensityOfStates
************************** End of input data file *****************************

reinit: -----------------------------------------------------------------------
reinit: System Name: LiC18_scf
reinit: -----------------------------------------------------------------------
reinit: System Label: LiC18_scf
reinit: -----------------------------------------------------------------------
Reading two-body potentials
Grimme - two-body potential between 1 and 1
Grimme - two-body potential between 1 and 2
Grimme - two-body potential between 2 and 2

initatom: Reading input for the pseudopotentials and atomic orbitals ----------
Species number:   1 Atomic number:    3 Label: Li-gga
Species number:   2 Atomic number:    6 Label: C-gga

Ground state valence configuration:   2s01
Reading pseudopotential information in formatted form from Li-gga.psf

Valence configuration for pseudopotential generation:
2s( 1.00) rc: 2.28
2p( 0.00) rc: 2.28
3d( 0.00) rc: 2.59
4f( 0.00) rc: 2.59
Ground state valence configuration:   2s02  2p02
Reading pseudopotential information in formatted form from C-gga.psf

Valence configuration for pseudopotential generation:
2s( 2.00) rc: 1.56
2p( 2.00) rc: 1.56
3d( 0.00) rc: 1.56
4f( 0.00) rc: 1.56
relmxkb: Read Max KB Ang. Momentum=    2 for species C-gga
relmxkb: Read Max KB Ang. Momentum=    2 for species Li-gga

<basis_specs>
===============================================================================
Li-gga               Z=   3    Mass=  6.9400        Charge= 0.17977+309
Lmxo=0 Lmxkb= 2    BasisType=split      Semic=F
L=0  Nsemic=0  Cnfigmx=2
          i=1  nzeta=2  polorb=0  (2s)
            splnorm:   0.15000    
               vcte:    0.0000    
               rinn:    0.0000    
               qcoe:    0.0000    
               qyuk:    0.0000    
               qwid:   0.10000E-01
                rcs:    0.0000      0.0000    
            lambdas:    1.0000      1.0000    
-------------------------------------------------------------------------------
L=0  Nkbl=1  erefs: 0.17977+309
L=1  Nkbl=1  erefs: 0.17977+309
L=2  Nkbl=1  erefs: 0.17977+309
===============================================================================
</basis_specs>

atom: Called for Li-gga                (Z =   3)

read_vps: Pseudopotential generation method:
read_vps: ATM 3.2.2 Troullier-Martins                       
Valence charge for ps generation:    1.00000

read_vps: Pseudopotential includes a core correction:
read_vps: Pseudo-core for xc-correction

xc_check: Exchange-correlation functional:
xc_check: GGA Perdew, Burke & Ernzerhof 1996
V l=0 = -2*Zval/r beyond r=  2.2278
V l=1 = -2*Zval/r beyond r=  2.2278
V l=2 = -2*Zval/r beyond r=  2.5245
All V_l potentials equal beyond r=  2.4622
This should be close to max(r_c) in ps generation
All pots = -2*Zval/r beyond r=  2.5245

VLOCAL1: 99.0% of the norm of Vloc inside      7.160 Ry
VLOCAL1: 99.9% of the norm of Vloc inside     16.318 Ry
atom: Maximum radius for 4*pi*r*r*local-pseudopot. charge    2.86079
atom: Maximum radius for r*vlocal+2*Zval:    2.43160
GHOST: No ghost state for L =  0
GHOST: No ghost state for L =  1
GHOST: No ghost state for L =  2

KBgen: Kleinman-Bylander projectors: 
   l= 0   rc=  2.654023   el= -0.211234   Ekb=  1.742119   kbcos=  0.228463
   l= 1   rc=  2.721230   el= -0.080095   Ekb= -1.122375   kbcos= -0.147941
   l= 2   rc=  2.825246   el=  0.002001   Ekb= -0.207076   kbcos= -0.031965

KBgen: Total number of Kleinman-Bylander projectors:    9
atom: -------------------------------------------------------------------------

atom: SANKEY-TYPE ORBITALS:
atom: Selected multiple-zeta basis: split     

SPLIT: Orbitals with angular momentum L= 0

SPLIT: Basis orbitals for state 2s

SPLIT: PAO cut-off radius determined from an
SPLIT: energy shift=  0.000735 Ry

   izeta = 1
                 lambda =    1.000000
                     rc =   11.897381
                 energy =   -0.210580
                kinetic =    0.143382
    potential(screened) =   -0.353962
       potential(ionic) =   -0.533453

   izeta = 2
                 rmatch =    8.489163
              splitnorm =    0.150000
                 energy =   -0.186081
                kinetic =    0.225882
    potential(screened) =   -0.411964
       potential(ionic) =   -0.593024
atom: Total number of Sankey-type orbitals:  2

atm_pop: Valence configuration (for local Pseudopot. screening):
 2s( 1.00)                                                            
Vna: chval, zval:    1.00000   1.00000

Vna:  Cut-off radius for the neutral-atom potential:  11.897381
comcore: Pseudo-core radius Rcore=  3.450946

atom: _________________________________________________________________________

<basis_specs>
===============================================================================
C-gga                Z=   6    Mass=  12.010        Charge= 0.17977+309
Lmxo=1 Lmxkb= 2    BasisType=split      Semic=F
L=0  Nsemic=0  Cnfigmx=2
          i=1  nzeta=2  polorb=0  (2s)
            splnorm:   0.15000    
               vcte:    0.0000    
               rinn:    0.0000    
               qcoe:    0.0000    
               qyuk:    0.0000    
               qwid:   0.10000E-01
                rcs:    0.0000      0.0000    
            lambdas:    1.0000      1.0000    
L=1  Nsemic=0  Cnfigmx=2
          i=1  nzeta=2  polorb=0  (2p)
            splnorm:   0.15000    
               vcte:    0.0000    
               rinn:    0.0000    
               qcoe:    0.0000    
               qyuk:    0.0000    
               qwid:   0.10000E-01
                rcs:    0.0000      0.0000    
            lambdas:    1.0000      1.0000    
-------------------------------------------------------------------------------
L=0  Nkbl=1  erefs: 0.17977+309
L=1  Nkbl=1  erefs: 0.17977+309
L=2  Nkbl=1  erefs: 0.17977+309
===============================================================================
</basis_specs>

atom: Called for C-gga                 (Z =   6)

read_vps: Pseudopotential generation method:
read_vps: ATM 3.2.2 Troullier-Martins                       
Valence charge for ps generation:    4.00000

xc_check: Exchange-correlation functional:
xc_check: GGA Perdew, Burke & Ernzerhof 1996
V l=0 = -2*Zval/r beyond r=  1.5227
V l=1 = -2*Zval/r beyond r=  1.5227
V l=2 = -2*Zval/r beyond r=  1.5227
All V_l potentials equal beyond r=  1.4851
This should be close to max(r_c) in ps generation
All pots = -2*Zval/r beyond r=  1.5227

VLOCAL1: 99.0% of the norm of Vloc inside     19.682 Ry
VLOCAL1: 99.9% of the norm of Vloc inside     44.856 Ry
atom: Maximum radius for 4*pi*r*r*local-pseudopot. charge    1.79142
atom: Maximum radius for r*vlocal+2*Zval:    1.54183
GHOST: No ghost state for L =  0
GHOST: No ghost state for L =  1
GHOST: No ghost state for L =  2

KBgen: Kleinman-Bylander projectors: 
   l= 0   rc=  1.661951   el= -1.010689   Ekb=  5.289847   kbcos=  0.316429
   l= 1   rc=  1.661951   el= -0.388490   Ekb= -4.102504   kbcos= -0.351025
   l= 2   rc=  1.747182   el=  0.001971   Ekb= -1.006005   kbcos= -0.008530

KBgen: Total number of Kleinman-Bylander projectors:    9
atom: -------------------------------------------------------------------------

atom: SANKEY-TYPE ORBITALS:
atom: Selected multiple-zeta basis: split     

SPLIT: Orbitals with angular momentum L= 0

SPLIT: Basis orbitals for state 2s

SPLIT: PAO cut-off radius determined from an
SPLIT: energy shift=  0.000735 Ry

   izeta = 1
                 lambda =    1.000000
                     rc =    5.948690
                 energy =   -1.010099
                kinetic =    0.827121
    potential(screened) =   -1.837220
       potential(ionic) =   -5.392783

   izeta = 2
                 rmatch =    3.518811
              splitnorm =    0.150000
                 energy =   -0.877891
                kinetic =    1.289227
    potential(screened) =   -2.167118
       potential(ionic) =   -5.982073

SPLIT: Orbitals with angular momentum L= 1

SPLIT: Basis orbitals for state 2p

SPLIT: PAO cut-off radius determined from an
SPLIT: energy shift=  0.000735 Ry

   izeta = 1
                 lambda =    1.000000
                     rc =    7.638387
                 energy =   -0.387843
                kinetic =    2.314739
    potential(screened) =   -2.702582
       potential(ionic) =   -6.092371

   izeta = 2
                 rmatch =    3.840617
              splitnorm =    0.150000
                 energy =   -0.270479
                kinetic =    3.438347
    potential(screened) =   -3.708826
       potential(ionic) =   -7.497707
atom: Total number of Sankey-type orbitals:  8

atm_pop: Valence configuration (for local Pseudopot. screening):
 2s( 2.00)                                                            
 2p( 2.00)                                                            
Vna: chval, zval:    4.00000   4.00000

Vna:  Cut-off radius for the neutral-atom potential:   7.638387

atom: _________________________________________________________________________

prinput: Basis input ----------------------------------------------------------

PAO.BasisType split     

%block ChemicalSpeciesLabel
    1    3 Li-gga                  # Species index, atomic number, species label
    2    6 C-gga                   # Species index, atomic number, species label
%endblock ChemicalSpeciesLabel

%block PAO.Basis                 # Define Basis set
Li-gga                1                    # Species label, number of l-shells
 n=2   0   2                         # n, l, Nzeta 
  11.897      8.489   
   1.000      1.000   
C-gga                 2                    # Species label, number of l-shells
 n=2   0   2                         # n, l, Nzeta 
   5.949      3.519   
   1.000      1.000   
 n=2   1   2                         # n, l, Nzeta 
   7.638      3.841   
   1.000      1.000   
%endblock PAO.Basis

prinput: ----------------------------------------------------------------------

coor:   Atomic-coordinates input format  =     Cartesian coordinates
coor:                                          (in Angstroms)

siesta: Atomic coordinates (Bohr) and species
siesta:      0.00000   0.00000   0.00000  2        1
siesta:     -1.32825   2.30060   2.44711  1        2
siesta:     -2.74990   4.76296  12.23551  1        3
siesta:      2.74990   4.76296   2.44711  1        4
siesta:      1.32825   2.30060  12.23551  1        5
siesta:      2.65651   0.00000   2.44711  1        6
siesta:      5.49980   0.00000  12.23551  1        7
siesta:     -2.74990   4.76296   2.44711  1        8
siesta:     -1.32825   2.30060  12.23551  1        9
siesta:      1.32825   2.30060   2.44711  1       10
siesta:      2.74990   4.76296  12.23551  1       11
siesta:      5.49980   0.00000   2.44711  1       12
siesta:      2.65651   0.00000  12.23551  1       13
siesta:     -1.32825   2.30060   7.34131  1       14
siesta:     -2.74990   4.76296   7.34131  1       15
siesta:      2.74990   4.76296   7.34131  1       16
siesta:      1.32825   2.30060   7.34131  1       17
siesta:      2.65651   0.00000   7.34131  1       18
siesta:      5.49980   0.00000   7.34131  1       19

siesta: System type = bulk      

initatomlists: Number of atoms, orbitals, and projectors:     19    44   171

siesta: ******************** Simulation parameters ****************************
siesta:
siesta: The following are some of the parameters of the simulation.
siesta: A complete list of the parameters used, including default values,
siesta: can be found in file out.fdf
siesta:
redata: Spin configuration                          = none
redata: Number of spin components                   = 1
redata: Time-Reversal Symmetry                      = T
redata: Spin spiral                                 = F
redata: Long output                                 =   F
redata: Number of Atomic Species                    =        2
redata: Charge density info will appear in .RHO file
redata: Write Mulliken Pop.                         = NO
redata: Matel table size (NRTAB)                    =     1024
redata: Mesh Cutoff                                 =   300.0000 Ry
redata: Net charge of the system                    =     0.0000 |e|
redata: Min. number of SCF Iter                     =        0
redata: Max. number of SCF Iter                     =     1000
redata: SCF convergence failure will abort job
redata: SCF mix quantity                            = Hamiltonian
redata: Mix DM or H after convergence               =   F
redata: Recompute H after scf cycle                 =   F
redata: Mix DM in first SCF step                    =   T
redata: Write Pulay info on disk                    =   F
redata: New DM Occupancy tolerance                  = 0.000000000001
redata: No kicks to SCF
redata: DM Mixing Weight for Kicks                  =     0.5000
redata: Require Harris convergence for SCF          =   F
redata: Harris energy tolerance for SCF             =     0.000100 eV
redata: Require DM convergence for SCF              =   T
redata: DM tolerance for SCF                        =     0.001000
redata: Require EDM convergence for SCF             =   F
redata: EDM tolerance for SCF                       =     0.005000 eV
redata: Require H convergence for SCF               =   T
redata: Hamiltonian tolerance for SCF               =     0.001000 eV
redata: Require (free) Energy convergence for SCF   =   T
redata: (free) Energy tolerance for SCF             =     0.001000 eV
redata: Using Saved Data (generic)                  =   F
redata: Use continuation files for DM               =   F
redata: Neglect nonoverlap interactions             =   F
redata: Method of Calculation                       = Diagonalization
redata: Electronic Temperature                      =   299.9869 K
redata: Fix the spin of the system                  =   F
redata: Dynamics option                             = Single-point calculation
mix.SCF: Pulay mixing                            = Pulay
mix.SCF:    Variant                              = stable
mix.SCF:    History steps                        = 4
mix.SCF:    Linear mixing weight                 =     0.250000
mix.SCF:    Mixing weight                        =     0.250000
mix.SCF:    SVD condition                        = 0.1000E-07
redata: ***********************************************************************

%block SCF.Mixers
  Pulay
%endblock SCF.Mixers

%block SCF.Mixer.Pulay
  # Mixing method
  method pulay
  variant stable

  # Mixing options
  weight 0.2500
  weight.linear 0.2500
  history 4
%endblock SCF.Mixer.Pulay

DM_history_depth set to one: no extrapolation allowed by default for geometry relaxation
Size of DM history Fstack: 1
Total number of electrons:    22.000000
Total ionic charge:    22.000000

* ProcessorY, Blocksize:    4   1


* Orbital distribution balance (max,min):     3     2

k-point displ. along   1 input, could be:     0.00    0.50
k-point displ. along   2 input, could be:     0.00    0.50
k-point displ. along   3 input, could be:     0.00    0.50
 Kpoints in:           48 . Kpoints trimmed:           44

siesta: k-grid: Number of k-points =    44
siesta: k-grid: Cutoff (effective) =     8.632 Ang
siesta: k-grid: Supercell and displacements
siesta: k-grid:    4   0   0      0.000
siesta: k-grid:    0   4   0      0.000
siesta: k-grid:    0   0   4      0.000

diag: Algorithm                                     = Expert
diag: Parallel over k                               =   T
diag: Use parallel 2D distribution                  =   T
diag: Parallel block-size                           = 1
diag: Parallel distribution                         =     4 x     4
diag: Used triangular part                          = Lower
diag: Absolute tolerance                            =  0.100E-15
diag: Orthogonalization factor                      =  0.100E-05
diag: Memory factor                                 =  1.0000

superc: Internal auxiliary supercell:     9 x     9 x     5  =     405
superc: Number of atoms, orbitals, and projectors:   7695  17820  69255


ts: **************************************************************
ts: Save H and S matrices                           =    F
ts: Save DM and EDM matrices                        =    F
ts: Only save the overlap matrix S                  =    F
ts: **************************************************************

************************ Begin: TS CHECKS AND WARNINGS ************************
************************ End: TS CHECKS AND WARNINGS **************************


                     ====================================
                        Single-point calculation
                     ====================================

outcoor: Atomic coordinates (Ang):                          
    0.00000000    0.00000000    0.00000000   2       1  C-gga
   -0.70288177    1.21742694    1.29495371   1       2  Li-gga
   -1.45518323    2.52045129    6.47475299   1       3  Li-gga
    1.45518323    2.52045129    1.29495371   1       4  Li-gga
    0.70288177    1.21742694    6.47475299   1       5  Li-gga
    1.40576354    0.00000000    1.29495371   1       6  Li-gga
    2.91036646    0.00000000    6.47475299   1       7  Li-gga
   -1.45518323    2.52045129    1.29495371   1       8  Li-gga
   -0.70288177    1.21742694    6.47475299   1       9  Li-gga
    0.70288177    1.21742694    1.29495371   1      10  Li-gga
    1.45518323    2.52045129    6.47475299   1      11  Li-gga
    2.91036646    0.00000000    1.29495371   1      12  Li-gga
    1.40576354    0.00000000    6.47475299   1      13  Li-gga
   -0.70288177    1.21742694    3.88485335   1      14  Li-gga
   -1.45518323    2.52045129    3.88485335   1      15  Li-gga
    1.45518323    2.52045129    3.88485335   1      16  Li-gga
    0.70288177    1.21742694    3.88485335   1      17  Li-gga
    1.40576354    0.00000000    3.88485335   1      18  Li-gga
    2.91036646    0.00000000    3.88485335   1      19  Li-gga

superc: Internal auxiliary supercell:     9 x     9 x     5  =     405
superc: Number of atoms, orbitals, and projectors:   7695  17820  69255

outcell: Unit cell vectors (Ang):
        4.316130    0.000000    0.000000
       -2.158065    3.737878    0.000000
        0.000000    0.000000    7.769707

outcell: Cell vector modules (Ang)   :    4.316130    4.316130    7.769707
outcell: Cell angles (23,13,12) (deg):     90.0000     90.0000    120.0000
outcell: Cell volume (Ang**3)        :    125.3500
<dSpData1D:S at geom step 0
  <sparsity:sparsity for geom step 0
    nrows_g=44 nrows=3 sparsity=4.6229 nnzs=8950, refcount: 7>
  <dData1D:(new from dSpData1D) n=8950, refcount: 1>
refcount: 1>
new_DM -- step:     1
Initializing Density Matrix...
DM filled with atomic data:
<dSpData2D:DM initialized from atoms
  <sparsity:sparsity for geom step 0
    nrows_g=44 nrows=3 sparsity=4.6229 nnzs=8950, refcount: 8>
  <dData2D:DM n=8950 m=1, refcount: 1>
refcount: 1>
No. of atoms with KB's overlaping orbs in proc 0. Max # of overlaps:     384     445
New grid distribution:   1
           1       1:   20    1:    5    1:   12
           2       1:   20    1:    5   13:   23
           3       1:   20    1:    5   24:   34
           4       1:   20    1:    5   35:   45
           5       1:   20    6:   10    1:   12
           6       1:   20    6:   10   13:   23
           7       1:   20    6:   10   24:   34
           8       1:   20    6:   10   35:   45
           9       1:   20   11:   15    1:   12
          10       1:   20   11:   15   13:   23
          11       1:   20   11:   15   24:   34
          12       1:   20   11:   15   35:   45
          13       1:   20   16:   20    1:   12
          14       1:   20   16:   20   13:   23
          15       1:   20   16:   20   24:   34
          16       1:   20   16:   20   35:   45

InitMesh: MESH =    40 x    40 x    90 =      144000
InitMesh: (bp) =    20 x    20 x    45 =       18000
InitMesh: Mesh cutoff (required, used) =   300.000   316.498 Ry
ExtMesh (bp) on 0 =   156 x   141 x   160 =     3519360
New grid distribution:   2
           1       1:   10    1:   10    1:   11
           2       1:   10    1:   10   12:   22
           3       1:   10    1:   10   23:   34
           4       1:   10    1:   10   35:   45
           5      11:   20    1:   10    1:   11
           6      11:   20    1:   10   12:   22
           7      11:   20    1:   10   23:   34
           8      11:   20    1:   10   35:   45
           9       1:   10   11:   20    1:   11
          10       1:   10   11:   20   12:   22
          11       1:   10   11:   20   23:   34
          12       1:   10   11:   20   35:   45
          13      11:   20   11:   20    1:   11
          14      11:   20   11:   20   12:   22
          15      11:   20   11:   20   23:   34
          16      11:   20   11:   20   35:   45
New grid distribution:   3
           1       1:   10    1:   10    1:   12
           2      11:   20    1:   10   13:   23
           3       1:   10    1:   10   13:   23
           4       1:   10    1:   10   35:   45
           5      11:   20    1:   10    1:   12
           6       1:   10   11:   20   35:   45
           7       1:   10    1:   10   24:   34
           8      11:   20    1:   10   35:   45
           9       1:   10   11:   20    1:   12
          10      11:   20    1:   10   24:   34
          11      11:   20   11:   20   24:   34
          12      11:   20   11:   20   35:   45
          13      11:   20   11:   20    1:   12
          14       1:   10   11:   20   13:   23
          15       1:   10   11:   20   24:   34
          16      11:   20   11:   20   13:   23
Setting up quadratic distribution...
ExtMesh (bp) on 0 =   146 x   146 x   159 =     3389244
PhiOnMesh: Number of (b)points on node 0 =                 1100
PhiOnMesh: nlist on node 0 =               249117

stepf: Fermi-Dirac step function

siesta: Program's energy decomposition (eV):
siesta: Ebs     =      -295.819471
siesta: Eions   =       439.895300
siesta: Ena     =       107.531711
siesta: Ekin    =       321.892675
siesta: Enl     =        24.042053
siesta: Eso     =         0.000000
siesta: Edftu   =         0.000000
siesta: DEna    =       -29.855425
siesta: DUscf   =        28.153413
siesta: DUext   =         0.000000
siesta: Exc     =      -241.230232
siesta: eta*DQ  =         0.000000
siesta: Emadel  =         0.000000
siesta: Emeta   =         0.000000
siesta: Emolmec =       -10.416289
siesta: Ekinion =         0.000000
siesta: Eharris =      -170.119788
siesta: Etot    =      -239.777393
siesta: FreeEng =      -239.784563

        iscf     Eharris(eV)        E_KS(eV)     FreeEng(eV)     dDmax    Ef(eV) dHmax(eV)
   scf:    1     -170.119788     -239.777393     -239.784563136.076335-12.001880 22.588144
timer: Routine,Calls,Time,% = IterSCF        1       1.916  22.85
   scf:    2     -261.770207     -254.431143     -254.449234 27.192710-12.467479  4.196918
   scf:    3     -255.783546     -255.287766     -255.300644  3.557707-12.444816  0.681266
   scf:    4     -255.357794     -255.333145     -255.346623  1.312693-12.400791  0.078473
   scf:    5     -255.326032     -255.333971     -255.346387  3.855806-12.363673  0.166597
   scf:    6     -255.328384     -255.335884     -255.349227  3.543311-12.409481  0.114021
   scf:    7     -255.340731     -255.338880     -255.351880  1.281848-12.396936  0.008388
   scf:    8     -255.338900     -255.338894     -255.351892  0.062717-12.395946  0.001044
   scf:    9     -255.338869     -255.338882     -255.351895  0.055436-12.396548  0.000857
   scf:   10     -255.338879     -255.338880     -255.351895  0.013779-12.396843  0.000267
   scf:   11     -255.338882     -255.338881     -255.351895  0.003345-12.396885  0.000165
   scf:   12     -255.338881     -255.338881     -255.351895  0.000338-12.396897  0.000116

SCF Convergence by FreeE+DM+H criterion
|FreeE_i-FreeE_(i-1)| (eV) <     0.00100000
max |DM_out - DM_in|         :     0.0003378001
max |H_out - H_in|      (eV) :     0.0001163047
SCF cycle converged after 12 iterations

Using DM_out to compute the final energy and forces
No. of atoms with KB's overlaping orbs in proc 0. Max # of overlaps:     384     445

MM-Stress (kbar):       13.14       13.14      166.10        0.00        0.00       -0.00

siesta: E_KS(eV) =             -255.3389

siesta: E_KS - E_eggbox =      -255.3389

siesta: Atomic forces (eV/Ang):
     1    0.000000    0.000000    0.000000
     2   -0.347882    0.602514    0.207848
     3    0.347882   -0.602514   -0.207848
     4   -0.347854   -0.602501    0.207791
     5    0.347854    0.602501   -0.207791
     6    0.695734   -0.000018    0.207848
     7   -0.695734    0.000018   -0.207848
     8    0.347882   -0.602514    0.207848
     9   -0.347882    0.602514   -0.207848
    10    0.347854    0.602501    0.207791
    11   -0.347854   -0.602501   -0.207791
    12   -0.695734    0.000018    0.207848
    13    0.695734   -0.000018   -0.207848
    14   -0.124309    0.215258   -0.000000
    15    0.124309   -0.215258    0.000000
    16   -0.124317   -0.215323   -0.000000
    17    0.124317    0.215323   -0.000000
    18    0.248573   -0.000026   -0.000000
    19   -0.248573    0.000026   -0.000000
----------------------------------------
   Tot   -0.000000   -0.000000    0.000000
----------------------------------------
   Max    0.695734
   Res    0.342783    sqrt( Sum f_i^2 / 3N )
----------------------------------------
   Max    0.695734    constrained

Stress tensor Voigt[x,y,z,yz,xz,xy] (kbar):    -1838.34    -1838.35      160.59       -0.00        0.00       -0.01
(Free)E + p*V (eV/cell)     -163.6561
Target enthalpy (eV/cell)     -255.3519

siesta: Eigenvalues (eV):
  ik is       eps
   1  1  -24.8555  -19.4903  -18.3743  -18.3516  -17.8845  -17.6616  -17.6584  -17.1871  -16.0332  -15.1726
         -13.7624  -13.3005   -8.2976   -6.1233   -4.1716   -4.0325   -3.8160   -0.3893    0.0787    1.8653
    2.0212    2.4464    4.1255    5.9549    8.9666   10.8059   15.2588   15.3720   16.0223   16.2398
   16.4644   16.9975   17.9236   17.9265   19.4625   24.6675   32.7576   36.1868   40.5737   47.6317
   48.9666   49.3368   52.0823   62.6378
   2  1  -25.0662  -20.2496  -19.3423  -17.8944  -17.6145  -16.7993  -16.4902  -16.3978  -14.7904  -13.3816
         -12.3983  -11.9671  -10.0133   -6.7278   -5.6856   -4.5998   -2.4679   -2.2499   -0.2208    2.1145
    3.1452    4.4493   10.5268   10.5453   13.9200   16.7450   17.5917   18.1518   19.2717   20.2499
   20.5115   21.4876   22.1654   22.1684   22.6136   23.2058   23.9071   24.5729   33.8829   36.7653
   43.3385   44.6054   46.3979   54.7874
   3  1  -25.0662  -20.2496  -19.3423  -17.8943  -17.6145  -16.7993  -16.4902  -16.3980  -14.7904  -13.3815
         -12.3983  -11.9671  -10.0133   -6.7278   -5.6855   -4.5998   -2.4679   -2.2501   -0.2207    2.1146
    3.1452    4.4491   10.5268   10.5453   13.9200   16.7449   17.5917   18.1518   19.2717   20.2499
   20.5115   21.4876   22.1653   22.1684   22.6135   23.2059   23.9071   24.5728   33.8829   36.7652
   43.3385   44.6054   46.3979   54.7874
   4  1  -24.8555  -19.4903  -18.3742  -18.3516  -17.8845  -17.6616  -17.6584  -17.1872  -16.0332  -15.1726
         -13.7625  -13.3004   -8.2975   -6.1233   -4.1716   -4.0326   -3.8160   -0.3893    0.0787    1.8649
    2.0212    2.4466    4.1255    5.9549    8.9666   10.8059   15.2588   15.3720   16.0223   16.2398
   16.4644   16.9975   17.9236   17.9265   19.4625   24.6675   32.7576   36.1868   40.5738   47.6316
   48.9666   49.3368   52.0824   62.6379
   5  1  -25.0662  -20.2496  -19.3423  -17.8944  -17.6145  -16.7993  -16.4902  -16.3978  -14.7904  -13.3816
         -12.3983  -11.9671  -10.0133   -6.7278   -5.6856   -4.5998   -2.4679   -2.2499   -0.2208    2.1145
    3.1452    4.4493   10.5268   10.5453   13.9200   16.7450   17.5917   18.1518   19.2717   20.2499
   20.5115   21.4876   22.1654   22.1684   22.6136   23.2058   23.9071   24.5729   33.8829   36.7653
   43.3385   44.6054   46.3979   54.7874
   6  1  -25.2248  -20.7127  -20.5828  -17.0668  -16.2845  -16.2842  -16.1841  -11.9089  -10.4214   -9.5169
          -9.5169   -9.4812   -9.4812   -8.9522   -8.9522   -8.7391   -8.7391   -7.3223   -7.3223    0.2735
    0.6333    1.9431    1.9437   13.8282   16.7992   16.7992   16.9196   16.9197   16.9728   16.9728
   17.6474   17.6475   18.3640   21.6929   22.3988   27.1916   27.1917   44.7096   85.3357   85.6038
   89.1529   89.1529  113.3769  113.3771
   7  1  -24.7928  -19.2828  -18.8718  -18.3005  -18.0494  -17.4202  -17.2431  -16.9827  -16.5174  -13.1839
         -12.9498  -12.8189  -10.8971   -7.6669   -7.1569   -5.7559   -5.0247   -2.8883   -1.3176    0.1126
   11.2766   11.5005   11.8160   14.7726   15.2167   15.3386   15.7169   15.8944   16.5054   17.4667
   17.4915   18.3430   19.6997   22.9658   34.6911   43.1511   43.6766   46.8081   47.7123   48.6499
   57.3992   60.1298   60.3663   70.6782
   8  1  -24.8555  -19.4903  -18.3742  -18.3516  -17.8845  -17.6616  -17.6584  -17.1872  -16.0332  -15.1726
         -13.7625  -13.3004   -8.2975   -6.1233   -4.1716   -4.0326   -3.8160   -0.3893    0.0787    1.8649
    2.0212    2.4466    4.1255    5.9549    8.9666   10.8059   15.2588   15.3720   16.0223   16.2398
   16.4644   16.9975   17.9236   17.9265   19.4625   24.6675   32.7576   36.1868   40.5738   47.6316
   48.9666   49.3368   52.0824   62.6379
   9  1  -24.8555  -19.4903  -18.3742  -18.3516  -17.8845  -17.6616  -17.6584  -17.1872  -16.0332  -15.1726
         -13.7625  -13.3004   -8.2975   -6.1233   -4.1716   -4.0326   -3.8160   -0.3893    0.0787    1.8649
    2.0212    2.4466    4.1255    5.9549    8.9666   10.8059   15.2588   15.3720   16.0223   16.2398
   16.4644   16.9975   17.9236   17.9265   19.4625   24.6675   32.7576   36.1868   40.5738   47.6316
   48.9666   49.3368   52.0824   62.6379
  10  1  -24.7928  -19.2828  -18.8718  -18.3005  -18.0494  -17.4202  -17.2431  -16.9827  -16.5174  -13.1839
         -12.9498  -12.8189  -10.8971   -7.6669   -7.1569   -5.7559   -5.0247   -2.8883   -1.3176    0.1126
   11.2766   11.5005   11.8160   14.7726   15.2167   15.3386   15.7169   15.8944   16.5054   17.4667
   17.4915   18.3430   19.6997   22.9658   34.6911   43.1511   43.6766   46.8081   47.7123   48.6499
   57.3992   60.1298   60.3663   70.6782
  11  1  -24.8555  -19.4903  -18.3742  -18.3516  -17.8845  -17.6616  -17.6584  -17.1872  -16.0332  -15.1726
         -13.7625  -13.3004   -8.2975   -6.1233   -4.1716   -4.0326   -3.8160   -0.3893    0.0787    1.8649
    2.0212    2.4466    4.1255    5.9549    8.9666   10.8059   15.2588   15.3720   16.0223   16.2398
   16.4644   16.9975   17.9236   17.9265   19.4625   24.6675   32.7576   36.1868   40.5738   47.6316
   48.9666   49.3368   52.0824   62.6379
  12  1  -24.7928  -19.2827  -18.8719  -18.3004  -18.0494  -17.4202  -17.2431  -16.9827  -16.5175  -13.1838
         -12.9498  -12.8190  -10.8971   -7.6669   -7.1570   -5.7559   -5.0244   -2.8887   -1.3176    0.1126
   11.2766   11.5006   11.8161   14.7726   15.2167   15.3386   15.7168   15.8944   16.5054   17.4666
   17.4915   18.3431   19.6998   22.9658   34.6911   43.1511   43.6766   46.8081   47.7123   48.6499
   57.3993   60.1299   60.3664   70.6781
  13  1  -24.8869  -19.5581  -18.8803  -18.2554  -17.8174  -17.4645  -17.3716  -17.1704  -16.0922  -15.8268
         -13.3453  -13.0625   -8.1009   -6.7583   -6.1619   -5.5422   -4.7632   -3.3096   -0.4445   -0.2058
    2.7845    6.7648    6.7738   10.0733   13.4832   14.2733   14.6087   16.2731   16.6817   16.8147
   17.9372   18.0080   18.9486   19.5357   24.4826   27.2825   28.3523   29.5680   31.8132   38.1099
   43.5474   45.3707   45.9836   55.2937
  14  1  -25.1351  -20.4018  -19.6778  -18.3292  -18.1867  -16.6759  -16.2976  -16.1965  -15.2036  -13.4240
         -12.3569  -11.6146  -10.0791   -9.3803   -6.0476   -6.0206   -3.5169   -2.4200   -0.3498    1.5850
    2.3398    6.0865    6.2766    9.6101   10.3683   11.1567   13.4794   15.0281   18.8896   18.9443
   19.3441   20.0216   20.4510   21.4760   22.0467   22.4000   23.2224   24.9338   34.6507   38.3181
   44.4430   45.3317   46.7074   50.0450
  15  1  -25.1351  -20.4018  -19.6778  -18.3292  -18.1867  -16.6759  -16.2978  -16.1964  -15.2036  -13.4239
         -12.3569  -11.6146  -10.0791   -9.3804   -6.0476   -6.0206   -3.5169   -2.4199   -0.3496    1.5847
    2.3399    6.0864    6.2766    9.6102   10.3683   11.1567   13.4794   15.0281   18.8896   18.9443
   19.3441   20.0216   20.4510   21.4760   22.0467   22.4000   23.2224   24.9337   34.6506   38.3180
   44.4430   45.3317   46.7074   50.0449
  16  1  -24.8869  -19.5581  -18.8803  -18.2553  -17.8174  -17.4645  -17.3716  -17.1704  -16.0923  -15.8268
         -13.3454  -13.0624   -8.1009   -6.7583   -6.1617   -5.5422   -4.7632   -3.3094   -0.4445   -0.2061
    2.7845    6.7649    6.7737   10.0733   13.4832   14.2733   14.6086   16.2731   16.6817   16.8147
   17.9372   18.0080   18.9486   19.5357   24.4826   27.2825   28.3523   29.5680   31.8131   38.1099
   43.5473   45.3707   45.9836   55.2937
  17  1  -25.1351  -20.4018  -19.6778  -18.3292  -18.1867  -16.6759  -16.2976  -16.1965  -15.2036  -13.4240
         -12.3569  -11.6146  -10.0791   -9.3803   -6.0476   -6.0206   -3.5169   -2.4200   -0.3498    1.5850
    2.3398    6.0865    6.2766    9.6101   10.3683   11.1567   13.4794   15.0281   18.8896   18.9443
   19.3441   20.0216   20.4510   21.4760   22.0467   22.4000   23.2224   24.9338   34.6507   38.3181
   44.4430   45.3317   46.7074   50.0450
  18  1  -25.2994  -20.9070  -20.3740  -18.2602  -16.7963  -16.2029  -16.2027  -12.4490   -9.2271   -9.2271
          -8.9295   -8.9295   -6.6660   -6.6660   -6.2213   -6.2213   -4.8334   -4.8334   -1.0850    0.5828
    2.1110    2.1116   12.1468   12.1468   13.3526   13.9816   13.9816   19.2412   19.3211   21.6216
   21.6217   21.6845   22.1861   22.1862   22.3618   30.2439   30.2440   40.9335   46.0932   81.6642
   81.6642   89.0966   89.0966  112.1897
  19  1  -25.1351  -20.4018  -19.6778  -18.3292  -18.1867  -16.6759  -16.2976  -16.1965  -15.2036  -13.4240
         -12.3569  -11.6146  -10.0791   -9.3803   -6.0476   -6.0206   -3.5169   -2.4200   -0.3498    1.5850
    2.3398    6.0865    6.2766    9.6101   10.3683   11.1567   13.4794   15.0281   18.8896   18.9443
   19.3441   20.0216   20.4510   21.4760   22.0467   22.4000   23.2224   24.9338   34.6507   38.3181
   44.4430   45.3317   46.7074   50.0450
  20  1  -24.7987  -19.1874  -19.0479  -18.5544  -17.9465  -17.7101  -17.2996  -16.9813  -16.5141  -13.9995
         -12.8890  -12.8147  -11.3576  -10.9930   -5.8684   -5.1744   -3.0436   -1.9454   -0.3489    1.3115
    1.9193    8.0712   13.4238   13.6076   15.0021   15.6333   15.9179   15.9840   16.2489   16.6881
   17.5282   18.4180   18.5580   18.6862   22.7054   24.8755   30.1481   30.6843   36.0066   38.3209
   44.4397   47.2980   69.5120   71.1553
  21  1  -25.1351  -20.4018  -19.6778  -18.3292  -18.1867  -16.6759  -16.2978  -16.1964  -15.2036  -13.4239
         -12.3569  -11.6146  -10.0791   -9.3804   -6.0476   -6.0206   -3.5169   -2.4199   -0.3496    1.5847
    2.3399    6.0864    6.2766    9.6102   10.3683   11.1567   13.4794   15.0281   18.8896   18.9443
   19.3441   20.0216   20.4510   21.4760   22.0467   22.4000   23.2224   24.9337   34.6506   38.3180
   44.4430   45.3317   46.7074   50.0449
  22  1  -25.1351  -20.4018  -19.6778  -18.3292  -18.1867  -16.6759  -16.2976  -16.1965  -15.2036  -13.4240
         -12.3569  -11.6146  -10.0791   -9.3803   -6.0476   -6.0206   -3.5169   -2.4200   -0.3498    1.5850
    2.3398    6.0865    6.2766    9.6101   10.3683   11.1567   13.4794   15.0281   18.8896   18.9443
   19.3441   20.0216   20.4510   21.4760   22.0467   22.4000   23.2224   24.9338   34.6507   38.3181
   44.4430   45.3317   46.7074   50.0450
  23  1  -24.8869  -19.5581  -18.8803  -18.2554  -17.8174  -17.4645  -17.3716  -17.1704  -16.0922  -15.8268
         -13.3453  -13.0625   -8.1009   -6.7583   -6.1619   -5.5422   -4.7632   -3.3096   -0.4445   -0.2058
    2.7845    6.7648    6.7738   10.0733   13.4832   14.2733   14.6087   16.2731   16.6817   16.8147
   17.9372   18.0080   18.9486   19.5357   24.4826   27.2825   28.3523   29.5680   31.8132   38.1099
   43.5474   45.3707   45.9836   55.2937
  24  1  -24.8869  -19.5581  -18.8803  -18.2553  -17.8174  -17.4645  -17.3716  -17.1704  -16.0923  -15.8268
         -13.3454  -13.0624   -8.1009   -6.7583   -6.1617   -5.5422   -4.7632   -3.3094   -0.4445   -0.2061
    2.7845    6.7649    6.7737   10.0733   13.4832   14.2733   14.6086   16.2731   16.6817   16.8147
   17.9372   18.0080   18.9486   19.5357   24.4826   27.2825   28.3523   29.5680   31.8131   38.1099
   43.5473   45.3707   45.9836   55.2937
  25  1  -24.8869  -19.5581  -18.8803  -18.2553  -17.8174  -17.4645  -17.3716  -17.1704  -16.0923  -15.8268
         -13.3454  -13.0624   -8.1009   -6.7583   -6.1617   -5.5422   -4.7632   -3.3094   -0.4445   -0.2061
    2.7845    6.7649    6.7737   10.0733   13.4832   14.2733   14.6086   16.2731   16.6817   16.8147
   17.9372   18.0080   18.9486   19.5357   24.4826   27.2825   28.3523   29.5680   31.8131   38.1099
   43.5473   45.3707   45.9836   55.2937
  26  1  -24.7987  -19.1874  -19.0479  -18.5544  -17.9465  -17.7101  -17.2996  -16.9813  -16.5141  -13.9995
         -12.8890  -12.8147  -11.3576  -10.9930   -5.8684   -5.1744   -3.0436   -1.9454   -0.3489    1.3115
    1.9193    8.0712   13.4238   13.6076   15.0021   15.6333   15.9179   15.9840   16.2489   16.6881
   17.5282   18.4180   18.5580   18.6862   22.7054   24.8755   30.1481   30.6843   36.0066   38.3209
   44.4397   47.2980   69.5120   71.1553
  27  1  -24.8869  -19.5581  -18.8803  -18.2553  -17.8174  -17.4645  -17.3716  -17.1704  -16.0923  -15.8268
         -13.3454  -13.0624   -8.1009   -6.7583   -6.1617   -5.5422   -4.7632   -3.3094   -0.4445   -0.2061
    2.7845    6.7649    6.7737   10.0733   13.4832   14.2733   14.6086   16.2731   16.6817   16.8147
   17.9372   18.0080   18.9486   19.5357   24.4826   27.2825   28.3523   29.5680   31.8131   38.1099
   43.5473   45.3707   45.9836   55.2937
  28  1  -24.7987  -19.1874  -19.0479  -18.5544  -17.9465  -17.7101  -17.2996  -16.9813  -16.5142  -13.9995
         -12.8890  -12.8146  -11.3576  -10.9930   -5.8681   -5.1744   -3.0439   -1.9454   -0.3488    1.3113
    1.9193    8.0712   13.4239   13.6076   15.0020   15.6333   15.9179   15.9840   16.2489   16.6880
   17.5282   18.4180   18.5580   18.6863   22.7054   24.8754   30.1481   30.6842   36.0066   38.3209
   44.4397   47.2980   69.5120   71.1553
  29  1  -24.8960  -19.5929  -18.9324  -18.3673  -17.6798  -17.5874  -17.4151  -16.8299  -15.9423  -15.9348
         -12.6902  -11.9543   -8.1119   -7.0281   -6.4742   -4.4608   -3.1186   -2.6963   -0.3676   -0.2616
    7.7697   11.9745   12.1574   12.2339   13.1510   15.0180   16.7377   17.0280   17.5159   18.0168
   18.1841   19.0393   19.7126   25.4780   26.1008   27.1771   27.2990   39.1667   39.8313   42.2831
   52.3747   54.3239   60.7464   64.0921
  30  1  -25.1462  -20.4016  -19.2156  -18.4812  -17.0787  -16.4509  -16.1895  -15.9427  -14.6406  -12.6600
         -12.3854  -11.6313   -9.6178   -9.4764   -4.7103   -3.5390   -3.3396   -1.8849    0.0454    0.6961
    2.9150    5.7970   10.3960   11.1443   11.5473   13.4782   13.7587   18.7777   19.1886   20.2133
   20.3426   20.4160   20.6055   21.6491   23.2631   23.3935   24.9188   25.2308   28.1626   35.2338
   45.4481   49.5397   51.4115   62.6727
  31  1  -25.1462  -20.4016  -19.2156  -18.4812  -17.0786  -16.4509  -16.1897  -15.9427  -14.6406  -12.6600
         -12.3855  -11.6312   -9.6179   -9.4764   -4.7103   -3.5390   -3.3395   -1.8849    0.0453    0.6964
    2.9148    5.7970   10.3960   11.1442   11.5473   13.4782   13.7587   18.7777   19.1886   20.2133
   20.3426   20.4159   20.6055   21.6491   23.2631   23.3936   24.9189   25.2307   28.1626   35.2338
   45.4481   49.5397   51.4115   62.6727
  32  1  -24.8960  -19.5929  -18.9324  -18.3673  -17.6799  -17.5874  -17.4151  -16.8299  -15.9423  -15.9349
         -12.6902  -11.9543   -8.1119   -7.0279   -6.4742   -4.4608   -3.1183   -2.6963   -0.3680   -0.2615
    7.7697   11.9746   12.1574   12.2339   13.1510   15.0180   16.7377   17.0280   17.5160   18.0168
   18.1841   19.0393   19.7126   25.4780   26.1008   27.1771   27.2989   39.1667   39.8313   42.2830
   52.3747   54.3239   60.7464   64.0921
  33  1  -25.1462  -20.4016  -19.2156  -18.4812  -17.0787  -16.4509  -16.1895  -15.9427  -14.6406  -12.6600
         -12.3854  -11.6313   -9.6178   -9.4764   -4.7103   -3.5390   -3.3396   -1.8849    0.0454    0.6961
    2.9150    5.7970   10.3960   11.1443   11.5473   13.4782   13.7587   18.7777   19.1886   20.2133
   20.3426   20.4160   20.6055   21.6491   23.2631   23.3935   24.9188   25.2308   28.1626   35.2338
   45.4481   49.5397   51.4115   62.6727
  34  1  -25.3235  -20.7981  -19.3395  -18.7021  -16.1540  -16.1538  -13.3286   -7.5774   -7.5774   -6.9495
          -6.9495   -6.5271   -6.5271   -2.7738   -1.7247    0.0928    0.0934    5.3525    5.3525    5.7051
    5.7051   10.2171   10.2171   13.3944   14.8420   20.7220   21.6892   22.1853   23.8338   31.8033
   31.8033   32.4110   32.4110   32.8431   32.8431   37.5663   37.9501   42.0781   42.0781   43.1753
   43.1753   48.9475   48.9477   88.4989
  35  1  -25.1462  -20.4016  -19.2156  -18.4812  -17.0787  -16.4509  -16.1895  -15.9427  -14.6406  -12.6600
         -12.3854  -11.6313   -9.6178   -9.4764   -4.7103   -3.5390   -3.3396   -1.8849    0.0454    0.6961
    2.9150    5.7970   10.3960   11.1443   11.5473   13.4782   13.7587   18.7777   19.1886   20.2133
   20.3426   20.4160   20.6055   21.6491   23.2631   23.3935   24.9188   25.2308   28.1626   35.2338
   45.4481   49.5397   51.4115   62.6727
  36  1  -24.8245  -19.2608  -19.0414  -18.8440  -18.0728  -17.6388  -17.4667  -16.4419  -16.4376  -15.3412
         -12.8354  -12.6434  -12.3664  -10.6993   -5.8027   -5.4995   -3.5507   -0.8081    0.8671    7.9076
   14.2949   14.7443   15.2450   15.4624   15.7551   15.9939   16.3326   16.4841   16.5364   17.5593
   17.7818   18.7831   19.2098   20.4945   20.6152   20.8835   27.0696   33.7442   35.3796   35.7344
   36.2398   40.1925   65.3855   69.1727
  37  1  -25.1462  -20.4016  -19.2156  -18.4812  -17.0786  -16.4509  -16.1897  -15.9427  -14.6406  -12.6600
         -12.3855  -11.6312   -9.6179   -9.4764   -4.7103   -3.5390   -3.3395   -1.8849    0.0453    0.6964
    2.9148    5.7970   10.3960   11.1442   11.5473   13.4782   13.7587   18.7777   19.1886   20.2133
   20.3426   20.4159   20.6055   21.6491   23.2631   23.3936   24.9189   25.2307   28.1626   35.2338
   45.4481   49.5397   51.4115   62.6727
  38  1  -25.1462  -20.4016  -19.2156  -18.4812  -17.0787  -16.4509  -16.1895  -15.9427  -14.6406  -12.6600
         -12.3854  -11.6313   -9.6178   -9.4764   -4.7103   -3.5390   -3.3396   -1.8849    0.0454    0.6961
    2.9150    5.7970   10.3960   11.1443   11.5473   13.4782   13.7587   18.7777   19.1886   20.2133
   20.3426   20.4160   20.6055   21.6491   23.2631   23.3935   24.9188   25.2308   28.1626   35.2338
   45.4481   49.5397   51.4115   62.6727
  39  1  -24.8960  -19.5929  -18.9324  -18.3673  -17.6798  -17.5874  -17.4151  -16.8299  -15.9423  -15.9348
         -12.6902  -11.9543   -8.1119   -7.0281   -6.4742   -4.4608   -3.1186   -2.6963   -0.3676   -0.2616
    7.7697   11.9745   12.1574   12.2339   13.1510   15.0180   16.7377   17.0280   17.5159   18.0168
   18.1841   19.0393   19.7126   25.4780   26.1008   27.1771   27.2990   39.1667   39.8313   42.2831
   52.3747   54.3239   60.7464   64.0921
  40  1  -24.8960  -19.5929  -18.9324  -18.3673  -17.6799  -17.5874  -17.4151  -16.8299  -15.9423  -15.9349
         -12.6902  -11.9543   -8.1119   -7.0279   -6.4742   -4.4608   -3.1183   -2.6963   -0.3680   -0.2615
    7.7697   11.9746   12.1574   12.2339   13.1510   15.0180   16.7377   17.0280   17.5160   18.0168
   18.1841   19.0393   19.7126   25.4780   26.1008   27.1771   27.2989   39.1667   39.8313   42.2830
   52.3747   54.3239   60.7464   64.0921
  41  1  -24.8960  -19.5929  -18.9324  -18.3673  -17.6799  -17.5874  -17.4151  -16.8299  -15.9423  -15.9349
         -12.6902  -11.9543   -8.1119   -7.0279   -6.4742   -4.4608   -3.1183   -2.6963   -0.3680   -0.2615
    7.7697   11.9746   12.1574   12.2339   13.1510   15.0180   16.7377   17.0280   17.5160   18.0168
   18.1841   19.0393   19.7126   25.4780   26.1008   27.1771   27.2989   39.1667   39.8313   42.2830
   52.3747   54.3239   60.7464   64.0921
  42  1  -24.8245  -19.2608  -19.0414  -18.8440  -18.0728  -17.6388  -17.4667  -16.4419  -16.4376  -15.3412
         -12.8354  -12.6434  -12.3664  -10.6993   -5.8027   -5.4995   -3.5507   -0.8081    0.8671    7.9076
   14.2949   14.7443   15.2450   15.4624   15.7551   15.9939   16.3326   16.4841   16.5364   17.5593
   17.7818   18.7831   19.2098   20.4945   20.6152   20.8835   27.0696   33.7442   35.3796   35.7344
   36.2398   40.1925   65.3855   69.1727
  43  1  -24.8960  -19.5929  -18.9324  -18.3673  -17.6799  -17.5874  -17.4151  -16.8299  -15.9423  -15.9349
         -12.6902  -11.9543   -8.1119   -7.0279   -6.4742   -4.4608   -3.1183   -2.6963   -0.3680   -0.2615
    7.7697   11.9746   12.1574   12.2339   13.1510   15.0180   16.7377   17.0280   17.5160   18.0168
   18.1841   19.0393   19.7126   25.4780   26.1008   27.1771   27.2989   39.1667   39.8313   42.2830
   52.3747   54.3239   60.7464   64.0921
  44  1  -24.8245  -19.2608  -19.0414  -18.8440  -18.0728  -17.6388  -17.4667  -16.4419  -16.4378  -15.3412
         -12.8354  -12.6434  -12.3664  -10.6993   -5.8023   -5.4995   -3.5507   -0.8081    0.8667    7.9076
   14.2949   14.7443   15.2449   15.4624   15.7552   15.9939   16.3325   16.4841   16.5364   17.5593
   17.7818   18.7831   19.2097   20.4944   20.6152   20.8835   27.0696   33.7442   35.3796   35.7344
   36.2397   40.1924   65.3855   69.1727
siesta: Fermi energy =     -12.396897 eV

siesta: Program's energy decomposition (eV):
siesta: Ebs     =      -386.766397
siesta: Eions   =       439.895300
siesta: Ena     =       107.531711
siesta: Ekin    =       263.376525
siesta: Enl     =        45.762124
siesta: Eso     =         0.000000
siesta: Edftu   =         0.000000
siesta: DEna    =         3.443733
siesta: DUscf   =         4.554221
siesta: DUext   =         0.000000
siesta: Exc     =      -229.695605
siesta: eta*DQ  =         0.000000
siesta: Emadel  =         0.000000
siesta: Emeta   =         0.000000
siesta: Emolmec =       -10.416289
siesta: Ekinion =         0.000000
siesta: Eharris =      -255.338881
siesta: Etot    =      -255.338881
siesta: FreeEng =      -255.351895

siesta: Final energy (eV):
siesta:  Band Struct. =    -386.766397
siesta:       Kinetic =     263.376525
siesta:       Hartree =     100.641521
siesta:       Edftu   =       0.000000
siesta:       Eso     =       0.000000
siesta:    Ext. field =       0.000000
siesta:   Exch.-corr. =    -229.695605
siesta:  Ion-electron =    -613.369866
siesta:       Ion-ion =     234.124834
siesta:       Ekinion =       0.000000
siesta:         Total =    -255.338881
siesta:         Fermi =     -12.396897

siesta: Atomic forces (eV/Ang):
siesta:      1    0.000000    0.000000    0.000000
siesta:      2   -0.347882    0.602514    0.207848
siesta:      3    0.347882   -0.602514   -0.207848
siesta:      4   -0.347854   -0.602501    0.207791
siesta:      5    0.347854    0.602501   -0.207791
siesta:      6    0.695734   -0.000018    0.207848
siesta:      7   -0.695734    0.000018   -0.207848
siesta:      8    0.347882   -0.602514    0.207848
siesta:      9   -0.347882    0.602514   -0.207848
siesta:     10    0.347854    0.602501    0.207791
siesta:     11   -0.347854   -0.602501   -0.207791
siesta:     12   -0.695734    0.000018    0.207848
siesta:     13    0.695734   -0.000018   -0.207848
siesta:     14   -0.124309    0.215258   -0.000000
siesta:     15    0.124309   -0.215258    0.000000
siesta:     16   -0.124317   -0.215323   -0.000000
siesta:     17    0.124317    0.215323   -0.000000
siesta:     18    0.248573   -0.000026   -0.000000
siesta:     19   -0.248573    0.000026   -0.000000
siesta: ----------------------------------------
siesta:    Tot   -0.000000   -0.000000    0.000000

siesta: Stress tensor (static) (eV/Ang**3):
siesta:    -1.147389   -0.000008    0.000000
siesta:    -0.000008   -1.147398    0.000000
siesta:     0.000000   -0.000000    0.100232

siesta: Cell volume =        125.349986 Ang**3

siesta: Pressure (static):
siesta:                Solid            Molecule  Units
siesta:           0.00796717          0.00836864  Ry/Bohr**3
siesta:           0.73151855          0.76838044  eV/Ang**3
siesta:        1172.03459107       1231.09449887  kBar
(Free)E+ p_basis*V_orbitals  =        -222.746085
(Free)Eharris+ p_basis*V_orbitals  =        -222.746085

cite: Please see "LiC18_scf.bib" for an exhaustive BiBTeX file.
cite: Please clearly indicate Siesta version in published work: 4.1.5
cite: This calculation has made use of the following articles
cite: which are encouraged to be cited in a published work.
        Primary SIESTA paper
          DOI: www.doi.org/10.1088/0953-8984/14/11/302

>> End of run:   9-NOV-2022   8:41:57
Job completed
