Siesta Version  : 4.1.5
Architecture    : x86_64-unknown-linux-gnu--unknown
Compiler version: GNU Fortran (GCC) 11.3.0
Compiler flags  : mpif90 -g -O2 -fallow-argument-mismatch
PP flags        : -DMPI -DFC_HAVE_FLUSH -DFC_HAVE_ABORT
Libraries       :  -I/global/software/sl-7.x86_64/modules/intel/2020.4.304/mkl/include  /globall/software/sl-7.x86_64/modules/intel/2020.4.304/mkl/lib/intel64/libmkl_scalapack_lp64.a -Wl,--start-group /global/software/sl-7.x86_64/modules/intel/2020.4.304/mkl/lib/intel64/libmkl_intel_lp64.a /global/software/sl-7.x86_64/modules/intel/2020.4.304/mkl/lib/intel64/libmkl_sequential.a /global/software/sl-7.x86_64/modules/intel/2020.4.304/mkl/lib/intel64/libmkl_core.a /global/software/sl-7.x86_64/modules/intel/2020.4.304/mkl/lib/intel64/libmkl_blacs_openmpi_lp64.a -Wl,--end-group -lpthread -lm -ldl
PARALLEL version

* Running on 16 nodes in parallel
>> Start of run:   9-NOV-2022   8:47:55

                           ***********************       
                           *  WELCOME TO SIESTA  *       
                           ***********************       

reinit: Reading from standard input
reinit: Dumped input in INPUT_TMP.50534
************************** Dump of input data file ****************************
SystemName LiC18_scf
SystemLabel LiC18_scf
NumberOfAtoms   19
NumberOfSpecies 2
%block ChemicalSpeciesLabel
1  3   Li-gga
2  6   C-gga
%endblock ChemicalSpeciesLabel
PAO.BasisSize  DZ
PAO.EnergyShift  10 meV
%block PS.Lmax
C-gga   2
Li-gga  2
%endblock PS.Lmax
LatticeConstant 1.000000 Ang
%block LatticeVectors
	4.3161300000	0.0000000000	0.0000000000
	-2.1580650000	3.7378782260	0.0000000000
	0.0000000000	0.0000000000	12.8755139600
%endblock LatticeVectors
AtomicCoordinatesFormat Ang
%block AtomicCoordinatesAndAtomicSpecies
	0.00000000	0.00000000	0.00000000	2
	-0.70288177	1.21742694	2.14592329	1
	-1.45518323	2.52045129	10.72959067	1
	1.45518323	2.52045129	2.14592329	1
	0.70288177	1.21742694	10.72959067	1
	1.40576354	0.00000000	2.14592329	1
	2.91036646	0.00000000	10.72959067	1
	-1.45518323	2.52045129	2.14592329	1
	-0.70288177	1.21742694	10.72959067	1
	0.70288177	1.21742694	2.14592329	1
	1.45518323	2.52045129	10.72959067	1
	2.91036646	0.00000000	2.14592329	1
	1.40576354	0.00000000	10.72959067	1
	-0.70288177	1.21742694	6.43775698	1
	-1.45518323	2.52045129	6.43775698	1
	1.45518323	2.52045129	6.43775698	1
	0.70288177	1.21742694	6.43775698	1
	1.40576354	0.00000000	6.43775698	1
	2.91036646	0.00000000	6.43775698	1
%endblock AtomicCoordinatesAndAtomicSpecies
Kgrid_NoTRS  T
%block kgrid_MonkhorstPack
4       0       0       0.0
0       4       0       0.0
0       0       4       0.0
%endblock kgrid_MonkhorstPack
AtomCoorFormatOut Ang
BlockSize 1
#ProcessorY 12
Diag.ParallelOverK   T
Diag.DivideAndConquer F
MeshCutoff   300 Ry
SCF.FreeE.Tolerance 1E-3 eV
SCF.EDM.Tolerance   5E-3 eV
DM.Tolerance  1E-3
DM.Require.Energy.Convergence T
DM.NumberPulay 4
XC.Functional GGA
XC.Authors    PBE
UseSaveData        F
MD.TypeOfRun       CG
MD.VariableCell    F
MD.NumCGsteps      00
MD.MaxCGDispl      0.200000 Bohr
MD.MaxStressTol    1.000000 GPa
MD.MaxForceTol     0.010000 eV/Ang
WriteMDHistory T
WriteCoorStep T
WriteForces T
WriteCoorStep    T
WriteEigenValues T
WriteDM    F
MM.UnitsDistance Ang  # what this program prints out DO NOT CHANGE
MM.UnitsEnergy    eV  # what this program prints out DO NOT CHANGE
MM.Grimme.S6     0.75 # Grimme-paper for PBE (correct for your functional)
MM.Grimme.D     20.   # Grimme-paper (correct for your functional)
%block MM.Potentials
  1   1 Grimme     16.69      1.650 # Li, 10.1002/jcc.20495
  1   2 Grimme     17.40      2.277 # Li / C
  2   2 Grimme     18.14      2.904 # C, 10.1002/jcc.20495
%endblock MM.Potentials
#%block ProjectedDensityOfStates
# -200.0  120.0  0.4  12800  eV
#%endblock ProjectedDensityOfStates
************************** End of input data file *****************************

reinit: -----------------------------------------------------------------------
reinit: System Name: LiC18_scf
reinit: -----------------------------------------------------------------------
reinit: System Label: LiC18_scf
reinit: -----------------------------------------------------------------------
Reading two-body potentials
Grimme - two-body potential between 1 and 1
Grimme - two-body potential between 1 and 2
Grimme - two-body potential between 2 and 2

initatom: Reading input for the pseudopotentials and atomic orbitals ----------
Species number:   1 Atomic number:    3 Label: Li-gga
Species number:   2 Atomic number:    6 Label: C-gga

Ground state valence configuration:   2s01
Reading pseudopotential information in formatted form from Li-gga.psf

Valence configuration for pseudopotential generation:
2s( 1.00) rc: 2.28
2p( 0.00) rc: 2.28
3d( 0.00) rc: 2.59
4f( 0.00) rc: 2.59
Ground state valence configuration:   2s02  2p02
Reading pseudopotential information in formatted form from C-gga.psf

Valence configuration for pseudopotential generation:
2s( 2.00) rc: 1.56
2p( 2.00) rc: 1.56
3d( 0.00) rc: 1.56
4f( 0.00) rc: 1.56
relmxkb: Read Max KB Ang. Momentum=    2 for species C-gga
relmxkb: Read Max KB Ang. Momentum=    2 for species Li-gga

<basis_specs>
===============================================================================
Li-gga               Z=   3    Mass=  6.9400        Charge= 0.17977+309
Lmxo=0 Lmxkb= 2    BasisType=split      Semic=F
L=0  Nsemic=0  Cnfigmx=2
          i=1  nzeta=2  polorb=0  (2s)
            splnorm:   0.15000    
               vcte:    0.0000    
               rinn:    0.0000    
               qcoe:    0.0000    
               qyuk:    0.0000    
               qwid:   0.10000E-01
                rcs:    0.0000      0.0000    
            lambdas:    1.0000      1.0000    
-------------------------------------------------------------------------------
L=0  Nkbl=1  erefs: 0.17977+309
L=1  Nkbl=1  erefs: 0.17977+309
L=2  Nkbl=1  erefs: 0.17977+309
===============================================================================
</basis_specs>

atom: Called for Li-gga                (Z =   3)

read_vps: Pseudopotential generation method:
read_vps: ATM 3.2.2 Troullier-Martins                       
Valence charge for ps generation:    1.00000

read_vps: Pseudopotential includes a core correction:
read_vps: Pseudo-core for xc-correction

xc_check: Exchange-correlation functional:
xc_check: GGA Perdew, Burke & Ernzerhof 1996
V l=0 = -2*Zval/r beyond r=  2.2278
V l=1 = -2*Zval/r beyond r=  2.2278
V l=2 = -2*Zval/r beyond r=  2.5245
All V_l potentials equal beyond r=  2.4622
This should be close to max(r_c) in ps generation
All pots = -2*Zval/r beyond r=  2.5245

VLOCAL1: 99.0% of the norm of Vloc inside      7.160 Ry
VLOCAL1: 99.9% of the norm of Vloc inside     16.318 Ry
atom: Maximum radius for 4*pi*r*r*local-pseudopot. charge    2.86079
atom: Maximum radius for r*vlocal+2*Zval:    2.43160
GHOST: No ghost state for L =  0
GHOST: No ghost state for L =  1
GHOST: No ghost state for L =  2

KBgen: Kleinman-Bylander projectors: 
   l= 0   rc=  2.654023   el= -0.211234   Ekb=  1.742119   kbcos=  0.228463
   l= 1   rc=  2.721230   el= -0.080095   Ekb= -1.122375   kbcos= -0.147941
   l= 2   rc=  2.825246   el=  0.002001   Ekb= -0.207076   kbcos= -0.031965

KBgen: Total number of Kleinman-Bylander projectors:    9
atom: -------------------------------------------------------------------------

atom: SANKEY-TYPE ORBITALS:
atom: Selected multiple-zeta basis: split     

SPLIT: Orbitals with angular momentum L= 0

SPLIT: Basis orbitals for state 2s

SPLIT: PAO cut-off radius determined from an
SPLIT: energy shift=  0.000735 Ry

   izeta = 1
                 lambda =    1.000000
                     rc =   11.897381
                 energy =   -0.210580
                kinetic =    0.143382
    potential(screened) =   -0.353962
       potential(ionic) =   -0.533453

   izeta = 2
                 rmatch =    8.489163
              splitnorm =    0.150000
                 energy =   -0.186081
                kinetic =    0.225882
    potential(screened) =   -0.411964
       potential(ionic) =   -0.593024
atom: Total number of Sankey-type orbitals:  2

atm_pop: Valence configuration (for local Pseudopot. screening):
 2s( 1.00)                                                            
Vna: chval, zval:    1.00000   1.00000

Vna:  Cut-off radius for the neutral-atom potential:  11.897381
comcore: Pseudo-core radius Rcore=  3.450946

atom: _________________________________________________________________________

<basis_specs>
===============================================================================
C-gga                Z=   6    Mass=  12.010        Charge= 0.17977+309
Lmxo=1 Lmxkb= 2    BasisType=split      Semic=F
L=0  Nsemic=0  Cnfigmx=2
          i=1  nzeta=2  polorb=0  (2s)
            splnorm:   0.15000    
               vcte:    0.0000    
               rinn:    0.0000    
               qcoe:    0.0000    
               qyuk:    0.0000    
               qwid:   0.10000E-01
                rcs:    0.0000      0.0000    
            lambdas:    1.0000      1.0000    
L=1  Nsemic=0  Cnfigmx=2
          i=1  nzeta=2  polorb=0  (2p)
            splnorm:   0.15000    
               vcte:    0.0000    
               rinn:    0.0000    
               qcoe:    0.0000    
               qyuk:    0.0000    
               qwid:   0.10000E-01
                rcs:    0.0000      0.0000    
            lambdas:    1.0000      1.0000    
-------------------------------------------------------------------------------
L=0  Nkbl=1  erefs: 0.17977+309
L=1  Nkbl=1  erefs: 0.17977+309
L=2  Nkbl=1  erefs: 0.17977+309
===============================================================================
</basis_specs>

atom: Called for C-gga                 (Z =   6)

read_vps: Pseudopotential generation method:
read_vps: ATM 3.2.2 Troullier-Martins                       
Valence charge for ps generation:    4.00000

xc_check: Exchange-correlation functional:
xc_check: GGA Perdew, Burke & Ernzerhof 1996
V l=0 = -2*Zval/r beyond r=  1.5227
V l=1 = -2*Zval/r beyond r=  1.5227
V l=2 = -2*Zval/r beyond r=  1.5227
All V_l potentials equal beyond r=  1.4851
This should be close to max(r_c) in ps generation
All pots = -2*Zval/r beyond r=  1.5227

VLOCAL1: 99.0% of the norm of Vloc inside     19.682 Ry
VLOCAL1: 99.9% of the norm of Vloc inside     44.856 Ry
atom: Maximum radius for 4*pi*r*r*local-pseudopot. charge    1.79142
atom: Maximum radius for r*vlocal+2*Zval:    1.54183
GHOST: No ghost state for L =  0
GHOST: No ghost state for L =  1
GHOST: No ghost state for L =  2

KBgen: Kleinman-Bylander projectors: 
   l= 0   rc=  1.661951   el= -1.010689   Ekb=  5.289847   kbcos=  0.316429
   l= 1   rc=  1.661951   el= -0.388490   Ekb= -4.102504   kbcos= -0.351025
   l= 2   rc=  1.747182   el=  0.001971   Ekb= -1.006005   kbcos= -0.008530

KBgen: Total number of Kleinman-Bylander projectors:    9
atom: -------------------------------------------------------------------------

atom: SANKEY-TYPE ORBITALS:
atom: Selected multiple-zeta basis: split     

SPLIT: Orbitals with angular momentum L= 0

SPLIT: Basis orbitals for state 2s

SPLIT: PAO cut-off radius determined from an
SPLIT: energy shift=  0.000735 Ry

   izeta = 1
                 lambda =    1.000000
                     rc =    5.948690
                 energy =   -1.010099
                kinetic =    0.827121
    potential(screened) =   -1.837220
       potential(ionic) =   -5.392783

   izeta = 2
                 rmatch =    3.518811
              splitnorm =    0.150000
                 energy =   -0.877891
                kinetic =    1.289227
    potential(screened) =   -2.167118
       potential(ionic) =   -5.982073

SPLIT: Orbitals with angular momentum L= 1

SPLIT: Basis orbitals for state 2p

SPLIT: PAO cut-off radius determined from an
SPLIT: energy shift=  0.000735 Ry

   izeta = 1
                 lambda =    1.000000
                     rc =    7.638387
                 energy =   -0.387843
                kinetic =    2.314739
    potential(screened) =   -2.702582
       potential(ionic) =   -6.092371

   izeta = 2
                 rmatch =    3.840617
              splitnorm =    0.150000
                 energy =   -0.270479
                kinetic =    3.438347
    potential(screened) =   -3.708826
       potential(ionic) =   -7.497707
atom: Total number of Sankey-type orbitals:  8

atm_pop: Valence configuration (for local Pseudopot. screening):
 2s( 2.00)                                                            
 2p( 2.00)                                                            
Vna: chval, zval:    4.00000   4.00000

Vna:  Cut-off radius for the neutral-atom potential:   7.638387

atom: _________________________________________________________________________

prinput: Basis input ----------------------------------------------------------

PAO.BasisType split     

%block ChemicalSpeciesLabel
    1    3 Li-gga                  # Species index, atomic number, species label
    2    6 C-gga                   # Species index, atomic number, species label
%endblock ChemicalSpeciesLabel

%block PAO.Basis                 # Define Basis set
Li-gga                1                    # Species label, number of l-shells
 n=2   0   2                         # n, l, Nzeta 
  11.897      8.489   
   1.000      1.000   
C-gga                 2                    # Species label, number of l-shells
 n=2   0   2                         # n, l, Nzeta 
   5.949      3.519   
   1.000      1.000   
 n=2   1   2                         # n, l, Nzeta 
   7.638      3.841   
   1.000      1.000   
%endblock PAO.Basis

prinput: ----------------------------------------------------------------------

coor:   Atomic-coordinates input format  =     Cartesian coordinates
coor:                                          (in Angstroms)

siesta: Atomic coordinates (Bohr) and species
siesta:      0.00000   0.00000   0.00000  2        1
siesta:     -1.32825   2.30060   4.05521  1        2
siesta:     -2.74990   4.76296  20.27600  1        3
siesta:      2.74990   4.76296   4.05521  1        4
siesta:      1.32825   2.30060  20.27600  1        5
siesta:      2.65651   0.00000   4.05521  1        6
siesta:      5.49980   0.00000  20.27600  1        7
siesta:     -2.74990   4.76296   4.05521  1        8
siesta:     -1.32825   2.30060  20.27600  1        9
siesta:      1.32825   2.30060   4.05521  1       10
siesta:      2.74990   4.76296  20.27600  1       11
siesta:      5.49980   0.00000   4.05521  1       12
siesta:      2.65651   0.00000  20.27600  1       13
siesta:     -1.32825   2.30060  12.16560  1       14
siesta:     -2.74990   4.76296  12.16560  1       15
siesta:      2.74990   4.76296  12.16560  1       16
siesta:      1.32825   2.30060  12.16560  1       17
siesta:      2.65651   0.00000  12.16560  1       18
siesta:      5.49980   0.00000  12.16560  1       19

siesta: System type = bulk      

initatomlists: Number of atoms, orbitals, and projectors:     19    44   171

siesta: ******************** Simulation parameters ****************************
siesta:
siesta: The following are some of the parameters of the simulation.
siesta: A complete list of the parameters used, including default values,
siesta: can be found in file out.fdf
siesta:
redata: Spin configuration                          = none
redata: Number of spin components                   = 1
redata: Time-Reversal Symmetry                      = T
redata: Spin spiral                                 = F
redata: Long output                                 =   F
redata: Number of Atomic Species                    =        2
redata: Charge density info will appear in .RHO file
redata: Write Mulliken Pop.                         = NO
redata: Matel table size (NRTAB)                    =     1024
redata: Mesh Cutoff                                 =   300.0000 Ry
redata: Net charge of the system                    =     0.0000 |e|
redata: Min. number of SCF Iter                     =        0
redata: Max. number of SCF Iter                     =     1000
redata: SCF convergence failure will abort job
redata: SCF mix quantity                            = Hamiltonian
redata: Mix DM or H after convergence               =   F
redata: Recompute H after scf cycle                 =   F
redata: Mix DM in first SCF step                    =   T
redata: Write Pulay info on disk                    =   F
redata: New DM Occupancy tolerance                  = 0.000000000001
redata: No kicks to SCF
redata: DM Mixing Weight for Kicks                  =     0.5000
redata: Require Harris convergence for SCF          =   F
redata: Harris energy tolerance for SCF             =     0.000100 eV
redata: Require DM convergence for SCF              =   T
redata: DM tolerance for SCF                        =     0.001000
redata: Require EDM convergence for SCF             =   F
redata: EDM tolerance for SCF                       =     0.005000 eV
redata: Require H convergence for SCF               =   T
redata: Hamiltonian tolerance for SCF               =     0.001000 eV
redata: Require (free) Energy convergence for SCF   =   T
redata: (free) Energy tolerance for SCF             =     0.001000 eV
redata: Using Saved Data (generic)                  =   F
redata: Use continuation files for DM               =   F
redata: Neglect nonoverlap interactions             =   F
redata: Method of Calculation                       = Diagonalization
redata: Electronic Temperature                      =   299.9869 K
redata: Fix the spin of the system                  =   F
redata: Dynamics option                             = Single-point calculation
mix.SCF: Pulay mixing                            = Pulay
mix.SCF:    Variant                              = stable
mix.SCF:    History steps                        = 4
mix.SCF:    Linear mixing weight                 =     0.250000
mix.SCF:    Mixing weight                        =     0.250000
mix.SCF:    SVD condition                        = 0.1000E-07
redata: ***********************************************************************

%block SCF.Mixers
  Pulay
%endblock SCF.Mixers

%block SCF.Mixer.Pulay
  # Mixing method
  method pulay
  variant stable

  # Mixing options
  weight 0.2500
  weight.linear 0.2500
  history 4
%endblock SCF.Mixer.Pulay

DM_history_depth set to one: no extrapolation allowed by default for geometry relaxation
Size of DM history Fstack: 1
Total number of electrons:    22.000000
Total ionic charge:    22.000000

* ProcessorY, Blocksize:    4   1


* Orbital distribution balance (max,min):     3     2

k-point displ. along   1 input, could be:     0.00    0.50
k-point displ. along   2 input, could be:     0.00    0.50
k-point displ. along   3 input, could be:     0.00    0.50
 Kpoints in:           48 . Kpoints trimmed:           44

siesta: k-grid: Number of k-points =    44
siesta: k-grid: Cutoff (effective) =     8.632 Ang
siesta: k-grid: Supercell and displacements
siesta: k-grid:    4   0   0      0.000
siesta: k-grid:    0   4   0      0.000
siesta: k-grid:    0   0   4      0.000

diag: Algorithm                                     = Expert
diag: Parallel over k                               =   T
diag: Use parallel 2D distribution                  =   T
diag: Parallel block-size                           = 1
diag: Parallel distribution                         =     4 x     4
diag: Used triangular part                          = Lower
diag: Absolute tolerance                            =  0.100E-15
diag: Orthogonalization factor                      =  0.100E-05
diag: Memory factor                                 =  1.0000

superc: Internal auxiliary supercell:     9 x     9 x     3  =     243
superc: Number of atoms, orbitals, and projectors:   4617  10692  41553


ts: **************************************************************
ts: Save H and S matrices                           =    F
ts: Save DM and EDM matrices                        =    F
ts: Only save the overlap matrix S                  =    F
ts: **************************************************************

************************ Begin: TS CHECKS AND WARNINGS ************************
************************ End: TS CHECKS AND WARNINGS **************************


                     ====================================
                        Single-point calculation
                     ====================================

outcoor: Atomic coordinates (Ang):                          
    0.00000000    0.00000000    0.00000000   2       1  C-gga
   -0.70288177    1.21742694    2.14592329   1       2  Li-gga
   -1.45518323    2.52045129   10.72959067   1       3  Li-gga
    1.45518323    2.52045129    2.14592329   1       4  Li-gga
    0.70288177    1.21742694   10.72959067   1       5  Li-gga
    1.40576354    0.00000000    2.14592329   1       6  Li-gga
    2.91036646    0.00000000   10.72959067   1       7  Li-gga
   -1.45518323    2.52045129    2.14592329   1       8  Li-gga
   -0.70288177    1.21742694   10.72959067   1       9  Li-gga
    0.70288177    1.21742694    2.14592329   1      10  Li-gga
    1.45518323    2.52045129   10.72959067   1      11  Li-gga
    2.91036646    0.00000000    2.14592329   1      12  Li-gga
    1.40576354    0.00000000   10.72959067   1      13  Li-gga
   -0.70288177    1.21742694    6.43775698   1      14  Li-gga
   -1.45518323    2.52045129    6.43775698   1      15  Li-gga
    1.45518323    2.52045129    6.43775698   1      16  Li-gga
    0.70288177    1.21742694    6.43775698   1      17  Li-gga
    1.40576354    0.00000000    6.43775698   1      18  Li-gga
    2.91036646    0.00000000    6.43775698   1      19  Li-gga

superc: Internal auxiliary supercell:     9 x     9 x     3  =     243
superc: Number of atoms, orbitals, and projectors:   4617  10692  41553

outcell: Unit cell vectors (Ang):
        4.316130    0.000000    0.000000
       -2.158065    3.737878    0.000000
        0.000000    0.000000   12.875514

outcell: Cell vector modules (Ang)   :    4.316130    4.316130   12.875514
outcell: Cell angles (23,13,12) (deg):     90.0000     90.0000    120.0000
outcell: Cell volume (Ang**3)        :    207.7228
<dSpData1D:S at geom step 0
  <sparsity:sparsity for geom step 0
    nrows_g=44 nrows=3 sparsity=2.5878 nnzs=5010, refcount: 7>
  <dData1D:(new from dSpData1D) n=5010, refcount: 1>
refcount: 1>
new_DM -- step:     1
Initializing Density Matrix...
DM filled with atomic data:
<dSpData2D:DM initialized from atoms
  <sparsity:sparsity for geom step 0
    nrows_g=44 nrows=3 sparsity=2.5878 nnzs=5010, refcount: 8>
  <dData2D:DM n=5010 m=1, refcount: 1>
refcount: 1>
No. of atoms with KB's overlaping orbs in proc 0. Max # of overlaps:     255     263
New grid distribution:   1
           1       1:   20    1:    5    1:   18
           2       1:   20    1:    5   19:   36
           3       1:   20    1:    5   37:   54
           4       1:   20    1:    5   55:   72
           5       1:   20    6:   10    1:   18
           6       1:   20    6:   10   19:   36
           7       1:   20    6:   10   37:   54
           8       1:   20    6:   10   55:   72
           9       1:   20   11:   15    1:   18
          10       1:   20   11:   15   19:   36
          11       1:   20   11:   15   37:   54
          12       1:   20   11:   15   55:   72
          13       1:   20   16:   20    1:   18
          14       1:   20   16:   20   19:   36
          15       1:   20   16:   20   37:   54
          16       1:   20   16:   20   55:   72

InitMesh: MESH =    40 x    40 x   144 =      230400
InitMesh: (bp) =    20 x    20 x    72 =       28800
InitMesh: Mesh cutoff (required, used) =   300.000   316.498 Ry
ExtMesh (bp) on 0 =   156 x   141 x   162 =     3563352
New grid distribution:   2
           1      11:   20    1:   10    1:   17
           2      11:   20    1:   10   18:   36
           3       1:   10    1:   10   37:   55
           4       1:   10    1:   10   56:   72
           5       1:   10    1:   10    1:   17
           6       1:   10    1:   10   18:   36
           7      11:   20    1:   10   37:   55
           8      11:   20    1:   10   56:   72
           9      11:   20   11:   20    1:   17
          10      11:   20   11:   20   18:   36
          11       1:   10   11:   20   37:   55
          12       1:   10   11:   20   56:   72
          13       1:   10   11:   20    1:   17
          14       1:   10   11:   20   18:   36
          15      11:   20   11:   20   37:   55
          16      11:   20   11:   20   56:   72
New grid distribution:   3
           1       1:   10    1:   10    1:   18
           2       1:   10    1:   10   19:   36
           3       1:   10    1:   10   37:   54
           4       1:   10    1:   10   55:   72
           5      11:   20    1:   10    1:   18
           6      11:   20    1:   10   19:   36
           7      11:   20    1:   10   37:   54
           8      11:   20    1:   10   55:   72
           9       1:   10   11:   20    1:   18
          10       1:   10   11:   20   19:   36
          11       1:   10   11:   20   37:   54
          12       1:   10   11:   20   55:   72
          13      11:   20   11:   20    1:   18
          14      11:   20   11:   20   19:   36
          15      11:   20   11:   20   37:   54
          16      11:   20   11:   20   55:   72
Setting up quadratic distribution...
ExtMesh (bp) on 0 =   146 x   146 x   161 =     3431876
PhiOnMesh: Number of (b)points on node 0 =                 1700
PhiOnMesh: nlist on node 0 =               238618

stepf: Fermi-Dirac step function

siesta: Program's energy decomposition (eV):
siesta: Ebs     =      -164.741567
siesta: Eions   =       439.895300
siesta: Ena     =       148.190781
siesta: Ekin    =       218.342145
siesta: Enl     =        65.134085
siesta: Eso     =         0.000000
siesta: Edftu   =         0.000000
siesta: DEna    =        -6.628460
siesta: DUscf   =        16.303823
siesta: DUext   =         0.000000
siesta: Exc     =      -211.505934
siesta: eta*DQ  =         0.000000
siesta: Emadel  =         0.000000
siesta: Emeta   =         0.000000
siesta: Emolmec =        -7.837203
siesta: Ekinion =         0.000000
siesta: Eharris =      -161.617438
siesta: Etot    =      -217.896063
siesta: FreeEng =      -217.907379

        iscf     Eharris(eV)        E_KS(eV)     FreeEng(eV)     dDmax    Ef(eV) dHmax(eV)
   scf:    1     -161.617438     -217.896063     -217.907379 38.763730 -9.049229 21.241883
timer: Routine,Calls,Time,% = IterSCF        1       1.050  20.50
   scf:    2      -75.923836     -191.251955     -191.263924 31.893293 -7.185067 34.541823
   scf:    3     -230.109820     -230.469219     -230.494390 29.787896 -8.532408  1.358484
   scf:    4     -230.519852     -230.532570     -230.559634  0.900993 -8.495769  0.269186
   scf:    5     -228.468201     -229.864562     -229.885383  1.790664 -8.604134  4.608208
   scf:    6     -230.780387     -230.467655     -230.494645  1.176421 -8.511269  1.482399
   scf:    7     -230.492281     -230.538895     -230.567603  1.195992 -8.487620  0.390549
   scf:    8     -230.544782     -230.542240     -230.570963  0.127448 -8.490716  0.229577
   scf:    9     -230.544790     -230.543757     -230.572403  0.129721 -8.493993  0.104990
   scf:   10     -230.544140     -230.544264     -230.572813  0.106779 -8.495599  0.024293
   scf:   11     -230.544250     -230.544264     -230.572836  0.017037 -8.495356  0.006530
   scf:   12     -230.544263     -230.544264     -230.572836  0.001683 -8.495331  0.004309
   scf:   13     -230.544260     -230.544262     -230.572837  0.004048 -8.495323  0.000407
   scf:   14     -230.544262     -230.544262     -230.572837  0.000286 -8.495340  0.000507

SCF Convergence by FreeE+DM+H criterion
|FreeE_i-FreeE_(i-1)| (eV) <     0.00100000
max |DM_out - DM_in|         :     0.0002858629
max |H_out - H_in|      (eV) :     0.0005068985
SCF cycle converged after 14 iterations

Using DM_out to compute the final energy and forces
No. of atoms with KB's overlaping orbs in proc 0. Max # of overlaps:     255     263

MM-Stress (kbar):      -10.54      -10.54       26.80        0.00        0.00        0.00

siesta: E_KS(eV) =             -230.5443

siesta: E_KS - E_eggbox =      -230.5443

siesta: Atomic forces (eV/Ang):
     1   -0.000000   -0.000000    0.000000
     2    0.037923   -0.065664   -1.038367
     3   -0.037923    0.065664    1.038367
     4    0.037898    0.065641   -1.038437
     5   -0.037898   -0.065641    1.038437
     6   -0.075828    0.000010   -1.038367
     7    0.075828   -0.000010    1.038367
     8   -0.037923    0.065664   -1.038367
     9    0.037923   -0.065664    1.038367
    10   -0.037898   -0.065641   -1.038437
    11    0.037898    0.065641    1.038437
    12    0.075828   -0.000010   -1.038367
    13   -0.075828    0.000010    1.038367
    14   -0.370106    0.641000   -0.000000
    15    0.370106   -0.641000   -0.000000
    16   -0.370114   -0.641057   -0.000000
    17    0.370114    0.641057   -0.000000
    18    0.740176   -0.000021   -0.000000
    19   -0.740176    0.000021   -0.000000
----------------------------------------
   Tot    0.000000   -0.000000    0.000000
----------------------------------------
   Max    1.038437
   Res    0.534681    sqrt( Sum f_i^2 / 3N )
----------------------------------------
   Max    1.038437    constrained

Stress tensor Voigt[x,y,z,yz,xz,xy] (kbar):    -1194.45    -1194.46      498.18        0.00        0.00       -0.01
(Free)E + p*V (eV/cell)     -148.8624
Target enthalpy (eV/cell)     -230.5728

siesta: Eigenvalues (eV):
  ik is       eps
   1  1  -17.4941  -13.7116  -12.9106  -12.3466  -12.0871  -12.0323  -11.6431  -11.3773  -10.7409  -10.6497
         -10.0975   -9.1012   -8.4933   -8.3123   -5.9004    0.0092    0.6154    1.2674    2.3762    3.8540
    4.1027    4.2947    5.0982    5.1491    7.0399    9.5191   10.9164   16.5592   18.5317   19.1693
   19.3595   19.7724   20.3903   20.5883   20.9658   21.1701   21.3588   21.6631   21.7550   28.5319
   31.4642   49.1725   57.8265   58.4345
   2  1  -17.6698  -14.1867  -13.2727  -12.3451  -11.9113  -10.7520  -10.6009  -10.3168   -8.8095   -8.7017
          -8.5211   -6.9148   -4.5682   -4.5046   -3.1991   -2.7274   -1.4256   -0.4231    0.3218    0.8984
    4.1637    4.2252    4.3002    4.9852    5.1851    6.2043   10.0644   10.7887   13.0247   13.1449
   14.5652   19.5148   20.9968   21.8094   22.6864   23.2443   23.2679   24.5167   28.0152   35.8160
   42.4261   54.8606   55.2926   59.6507
   3  1  -17.6698  -14.1867  -13.2727  -12.3451  -11.9113  -10.7520  -10.6009  -10.3168   -8.8095   -8.7017
          -8.5210   -6.9148   -4.5682   -4.5046   -3.1991   -2.7274   -1.4256   -0.4231    0.3218    0.8984
    4.1637    4.2252    4.3004    4.9851    5.1851    6.2042   10.0645   10.7887   13.0247   13.1449
   14.5653   19.5148   20.9968   21.8094   22.6864   23.2443   23.2679   24.5167   28.0152   35.8160
   42.4261   54.8606   55.2926   59.6508
   4  1  -17.4941  -13.7116  -12.9106  -12.3466  -12.0871  -12.0323  -11.6431  -11.3773  -10.7409  -10.6497
         -10.0975   -9.1012   -8.4933   -8.3123   -5.9003    0.0093    0.6154    1.2674    2.3759    3.8541
    4.1027    4.2947    5.0982    5.1491    7.0399    9.5190   10.9163   16.5592   18.5317   19.1693
   19.3595   19.7724   20.3902   20.5883   20.9658   21.1701   21.3588   21.6631   21.7550   28.5319
   31.4641   49.1726   57.8265   58.4345
   5  1  -17.6698  -14.1867  -13.2727  -12.3451  -11.9113  -10.7520  -10.6009  -10.3168   -8.8095   -8.7017
          -8.5211   -6.9148   -4.5682   -4.5046   -3.1991   -2.7274   -1.4256   -0.4231    0.3218    0.8984
    4.1637    4.2252    4.3002    4.9852    5.1851    6.2043   10.0644   10.7887   13.0247   13.1449
   14.5652   19.5148   20.9968   21.8094   22.6864   23.2443   23.2679   24.5167   28.0152   35.8160
   42.4261   54.8606   55.2926   59.6507
   6  1  -17.8374  -14.4937  -13.5595  -12.3902  -12.3693  -10.1124   -8.5362   -8.4053   -8.4051   -3.6674
          -0.2665   -0.1503   -0.1503    0.0859    0.0859    0.3651    0.3651    0.7412    0.7413    3.8273
    3.8273    4.8907    4.8908    8.1980    8.1982   10.5388   15.0378   15.0378   15.6416   15.6417
   16.2098   16.2098   22.7540   23.9849   24.2582   24.2582   24.4419   51.4444   51.6686   56.5818
   56.5818   59.0743   59.0744  110.2083
   7  1  -17.5171  -13.6030  -13.3157  -12.8009  -12.5559  -11.7038  -11.0195  -10.5833   -9.7512   -9.0340
          -8.9759   -8.4894   -7.1757   -6.7223   -5.8835   -5.0447   -4.9050   -4.4924   -3.8954   -3.0412
    1.1378    2.9051    3.0720    4.0455    5.2314    9.5071   13.5142   17.6419   17.9262   18.5046
   18.9175   19.1889   19.3984   19.9965   21.2459   28.1515   28.9377   37.5822   53.1559   53.3154
   53.5503   54.7966   55.0813   57.2449
   8  1  -17.4941  -13.7116  -12.9106  -12.3466  -12.0871  -12.0323  -11.6431  -11.3773  -10.7409  -10.6497
         -10.0975   -9.1012   -8.4933   -8.3123   -5.9003    0.0093    0.6154    1.2674    2.3759    3.8541
    4.1027    4.2947    5.0982    5.1491    7.0399    9.5190   10.9163   16.5592   18.5317   19.1693
   19.3595   19.7724   20.3902   20.5883   20.9658   21.1701   21.3588   21.6631   21.7550   28.5319
   31.4641   49.1726   57.8265   58.4345
   9  1  -17.4941  -13.7116  -12.9106  -12.3466  -12.0871  -12.0323  -11.6431  -11.3773  -10.7409  -10.6497
         -10.0975   -9.1012   -8.4933   -8.3123   -5.9003    0.0093    0.6154    1.2674    2.3759    3.8541
    4.1027    4.2947    5.0982    5.1491    7.0399    9.5190   10.9163   16.5592   18.5317   19.1693
   19.3595   19.7724   20.3902   20.5883   20.9658   21.1701   21.3588   21.6631   21.7550   28.5319
   31.4641   49.1726   57.8265   58.4345
  10  1  -17.5171  -13.6030  -13.3157  -12.8009  -12.5559  -11.7038  -11.0195  -10.5833   -9.7512   -9.0340
          -8.9759   -8.4894   -7.1757   -6.7223   -5.8835   -5.0447   -4.9050   -4.4924   -3.8954   -3.0412
    1.1378    2.9051    3.0720    4.0455    5.2314    9.5071   13.5142   17.6419   17.9262   18.5046
   18.9175   19.1889   19.3984   19.9965   21.2459   28.1515   28.9377   37.5822   53.1559   53.3154
   53.5503   54.7966   55.0813   57.2449
  11  1  -17.4941  -13.7116  -12.9106  -12.3466  -12.0871  -12.0323  -11.6431  -11.3773  -10.7409  -10.6497
         -10.0975   -9.1012   -8.4933   -8.3123   -5.9003    0.0093    0.6154    1.2674    2.3759    3.8541
    4.1027    4.2947    5.0982    5.1491    7.0399    9.5190   10.9163   16.5592   18.5317   19.1693
   19.3595   19.7724   20.3902   20.5883   20.9658   21.1701   21.3588   21.6631   21.7550   28.5319
   31.4641   49.1726   57.8265   58.4345
  12  1  -17.5171  -13.6030  -13.3157  -12.8009  -12.5559  -11.7038  -11.0195  -10.5833   -9.7512   -9.0340
          -8.9760   -8.4894   -7.1757   -6.7223   -5.8835   -5.0446   -4.9050   -4.4924   -3.8954   -3.0412
    1.1378    2.9051    3.0722    4.0453    5.2314    9.5070   13.5142   17.6419   17.9262   18.5046
   18.9175   19.1889   19.3984   19.9965   21.2459   28.1515   28.9377   37.5821   53.1559   53.3154
   53.5503   54.7966   55.0813   57.2448
  13  1  -17.4704  -13.6324  -12.8991  -12.3686  -12.0443  -11.9837  -11.5995  -11.3550  -10.7526  -10.7517
          -9.8496   -9.1490   -8.4864   -8.4861   -5.7645   -2.9113    1.0631    1.8336    2.5379    3.8804
    4.1361    4.8468    5.4351    5.5434    8.8958    9.3726   12.0704   15.6687   18.4659   19.0751
   19.3992   19.6219   19.9200   20.5474   20.7606   20.7942   21.2212   23.9685   24.6559   34.6391
   34.9983   48.8516   53.3983   64.2110
  14  1  -17.6520  -14.1932  -13.2499  -12.4657  -11.6697  -10.8195  -10.6395  -10.0481   -9.0737   -8.6932
          -8.3830   -6.6609   -4.5782   -4.5319   -4.1184   -2.9792   -1.7952   -1.5292    0.5140    2.9839
    4.3248    4.3971    5.2298    5.5572    5.8522    6.5267    8.7786    9.3678   13.2580   14.9462
   19.5402   19.5454   21.0824   21.7636   22.8274   23.0496   23.1987   23.6740   24.5478   30.1130
   42.7548   52.7344   57.4126   60.0657
  15  1  -17.6520  -14.1932  -13.2499  -12.4657  -11.6698  -10.8195  -10.6395  -10.0481   -9.0737   -8.6933
          -8.3829   -6.6608   -4.5782   -4.5319   -4.1184   -2.9792   -1.7953   -1.5292    0.5140    2.9839
    4.3248    4.3972    5.2298    5.5570    5.8522    6.5266    8.7786    9.3679   13.2580   14.9462
   19.5402   19.5453   21.0824   21.7636   22.8273   23.0497   23.1987   23.6740   24.5478   30.1130
   42.7549   52.7344   57.4126   60.0657
  16  1  -17.4704  -13.6324  -12.8991  -12.3686  -12.0443  -11.9837  -11.5995  -11.3550  -10.7526  -10.7517
          -9.8496   -9.1489   -8.4864   -8.4861   -5.7645   -2.9112    1.0631    1.8337    2.5376    3.8804
    4.1361    4.8468    5.4351    5.5434    8.8958    9.3726   12.0704   15.6687   18.4659   19.0751
   19.3992   19.6219   19.9200   20.5473   20.7606   20.7942   21.2211   23.9685   24.6559   34.6391
   34.9983   48.8516   53.3982   64.2110
  17  1  -17.6520  -14.1932  -13.2499  -12.4657  -11.6697  -10.8195  -10.6395  -10.0481   -9.0737   -8.6932
          -8.3830   -6.6609   -4.5782   -4.5319   -4.1184   -2.9792   -1.7952   -1.5292    0.5140    2.9839
    4.3248    4.3971    5.2298    5.5572    5.8522    6.5267    8.7786    9.3678   13.2580   14.9462
   19.5402   19.5454   21.0824   21.7636   22.8274   23.0496   23.1987   23.6740   24.5478   30.1130
   42.7548   52.7344   57.4126   60.0657
  18  1  -17.8244  -14.5143  -13.5294  -12.6774  -11.9680  -10.3107   -8.4025   -8.4023   -7.8535   -4.8405
          -1.3701   -1.3701   -1.3268   -1.3268    0.5186    1.9055    1.9055    2.6899    2.6900    3.9429
    3.9429    5.0011    5.0013    9.0489    9.0490   10.5964   14.1688   14.1688   15.6046   15.6046
   20.9825   20.9825   22.5348   23.7761   23.7762   24.1344   24.7551   34.0806   34.0807   35.6209
   35.6209   46.7726   65.9408  109.7593
  19  1  -17.6520  -14.1932  -13.2499  -12.4657  -11.6697  -10.8195  -10.6395  -10.0481   -9.0737   -8.6932
          -8.3830   -6.6609   -4.5782   -4.5319   -4.1184   -2.9792   -1.7952   -1.5292    0.5140    2.9839
    4.3248    4.3971    5.2298    5.5572    5.8522    6.5267    8.7786    9.3678   13.2580   14.9462
   19.5402   19.5454   21.0824   21.7636   22.8274   23.0496   23.1987   23.6740   24.5478   30.1130
   42.7548   52.7344   57.4126   60.0657
  20  1  -17.4703  -13.3244  -13.2502  -12.7737  -12.5773  -11.6805  -11.0338  -10.4527   -9.7306   -8.9571
          -8.7143   -8.4619   -6.9793   -6.7154   -5.8867   -5.6638   -5.5477   -4.7561   -3.3884   -2.8555
   -2.1927   -1.0436    3.8985    4.1441    4.8739   10.0107   11.9395   15.0213   17.6356   17.9045
   18.7327   18.8049   18.9561   19.2164   19.3844   21.6915   30.2988   36.4386   51.0985   52.6087
   54.4736   54.6569   57.3444   59.8159
  21  1  -17.6520  -14.1932  -13.2499  -12.4657  -11.6698  -10.8195  -10.6395  -10.0481   -9.0737   -8.6933
          -8.3829   -6.6608   -4.5782   -4.5319   -4.1184   -2.9792   -1.7953   -1.5292    0.5140    2.9839
    4.3248    4.3972    5.2298    5.5570    5.8522    6.5266    8.7786    9.3679   13.2580   14.9462
   19.5402   19.5453   21.0824   21.7636   22.8273   23.0497   23.1987   23.6740   24.5478   30.1130
   42.7549   52.7344   57.4126   60.0657
  22  1  -17.6520  -14.1932  -13.2499  -12.4657  -11.6697  -10.8195  -10.6395  -10.0481   -9.0737   -8.6932
          -8.3830   -6.6609   -4.5782   -4.5319   -4.1184   -2.9792   -1.7952   -1.5292    0.5140    2.9839
    4.3248    4.3971    5.2298    5.5572    5.8522    6.5267    8.7786    9.3678   13.2580   14.9462
   19.5402   19.5454   21.0824   21.7636   22.8274   23.0496   23.1987   23.6740   24.5478   30.1130
   42.7548   52.7344   57.4126   60.0657
  23  1  -17.4704  -13.6324  -12.8991  -12.3686  -12.0443  -11.9837  -11.5995  -11.3550  -10.7526  -10.7517
          -9.8496   -9.1490   -8.4864   -8.4861   -5.7645   -2.9113    1.0631    1.8336    2.5379    3.8804
    4.1361    4.8468    5.4351    5.5434    8.8958    9.3726   12.0704   15.6687   18.4659   19.0751
   19.3992   19.6219   19.9200   20.5474   20.7606   20.7942   21.2212   23.9685   24.6559   34.6391
   34.9983   48.8516   53.3983   64.2110
  24  1  -17.4704  -13.6324  -12.8991  -12.3686  -12.0443  -11.9837  -11.5995  -11.3550  -10.7526  -10.7517
          -9.8496   -9.1489   -8.4864   -8.4861   -5.7645   -2.9112    1.0631    1.8337    2.5376    3.8804
    4.1361    4.8468    5.4351    5.5434    8.8958    9.3726   12.0704   15.6687   18.4659   19.0751
   19.3992   19.6219   19.9200   20.5473   20.7606   20.7942   21.2211   23.9685   24.6559   34.6391
   34.9983   48.8516   53.3982   64.2110
  25  1  -17.4704  -13.6324  -12.8991  -12.3686  -12.0443  -11.9837  -11.5995  -11.3550  -10.7526  -10.7517
          -9.8496   -9.1489   -8.4864   -8.4861   -5.7645   -2.9112    1.0631    1.8337    2.5376    3.8804
    4.1361    4.8468    5.4351    5.5434    8.8958    9.3726   12.0704   15.6687   18.4659   19.0751
   19.3992   19.6219   19.9200   20.5473   20.7606   20.7942   21.2211   23.9685   24.6559   34.6391
   34.9983   48.8516   53.3982   64.2110
  26  1  -17.4703  -13.3244  -13.2502  -12.7737  -12.5773  -11.6805  -11.0338  -10.4527   -9.7306   -8.9571
          -8.7143   -8.4619   -6.9793   -6.7154   -5.8867   -5.6638   -5.5477   -4.7561   -3.3884   -2.8555
   -2.1927   -1.0436    3.8985    4.1441    4.8739   10.0107   11.9395   15.0213   17.6356   17.9045
   18.7327   18.8049   18.9561   19.2164   19.3844   21.6915   30.2988   36.4386   51.0985   52.6087
   54.4736   54.6569   57.3444   59.8159
  27  1  -17.4704  -13.6324  -12.8991  -12.3686  -12.0443  -11.9837  -11.5995  -11.3550  -10.7526  -10.7517
          -9.8496   -9.1489   -8.4864   -8.4861   -5.7645   -2.9112    1.0631    1.8337    2.5376    3.8804
    4.1361    4.8468    5.4351    5.5434    8.8958    9.3726   12.0704   15.6687   18.4659   19.0751
   19.3992   19.6219   19.9200   20.5473   20.7606   20.7942   21.2211   23.9685   24.6559   34.6391
   34.9983   48.8516   53.3982   64.2110
  28  1  -17.4703  -13.3244  -13.2502  -12.7737  -12.5773  -11.6805  -11.0338  -10.4527   -9.7305   -8.9572
          -8.7143   -8.4619   -6.9793   -6.7154   -5.8867   -5.6637   -5.5477   -4.7561   -3.3884   -2.8555
   -2.1925   -1.0435    3.8986    4.1439    4.8739   10.0107   11.9396   15.0213   17.6356   17.9045
   18.7327   18.8049   18.9561   19.2164   19.3843   21.6915   30.2988   36.4386   51.0985   52.6087
   54.4736   54.6569   57.3444   59.8159
  29  1  -17.4410  -13.5789  -12.8964  -12.3938  -11.9936  -11.9224  -11.5725  -11.3395  -10.7837  -10.2496
          -9.4160   -8.9345   -8.4777   -8.1948   -5.6056    0.0377    1.2779    2.7956    2.9851    3.3858
    3.7022    5.4422    6.2618    7.0340    9.3528   17.7216   18.0227   19.1553   19.2810   19.6625
   19.6637   19.6730   20.5083   20.6781   22.0586   22.3544   24.7149   24.8540   25.1990   25.7677
   50.0048   50.6786   67.2214   69.8152
  30  1  -17.6221  -14.2425  -13.4526  -12.2769  -11.6844  -10.6234   -9.9391   -9.4915   -8.9391   -8.6834
          -8.2750   -6.2251   -4.5885   -4.0335   -3.4418   -2.5335   -2.3314    0.3584    0.4930    4.0363
    4.4612    4.7296    5.6080    5.6365    6.9826    8.5569    9.3918   10.5690   11.1161   18.3728
   18.5745   19.5508   20.1459   21.1263   21.8117   22.4902   23.1901   23.2602   26.0302   46.5757
   53.6035   54.1421   62.6167   66.3786
  31  1  -17.6221  -14.2425  -13.4526  -12.2769  -11.6844  -10.6234   -9.9391   -9.4915   -8.9391   -8.6835
          -8.2749   -6.2251   -4.5885   -4.0335   -3.4418   -2.5335   -2.3313    0.3585    0.4930    4.0363
    4.4612    4.7298    5.6078    5.6365    6.9826    8.5569    9.3918   10.5691   11.1161   18.3728
   18.5745   19.5508   20.1459   21.1262   21.8117   22.4902   23.1901   23.2602   26.0302   46.5758
   53.6035   54.1421   62.6167   66.3786
  32  1  -17.4410  -13.5789  -12.8964  -12.3938  -11.9936  -11.9224  -11.5725  -11.3395  -10.7837  -10.2496
          -9.4160   -8.9345   -8.4778   -8.1948   -5.6056    0.0379    1.2779    2.7953    2.9852    3.3858
    3.7022    5.4422    6.2618    7.0340    9.3528   17.7216   18.0227   19.1552   19.2810   19.6625
   19.6637   19.6730   20.5083   20.6781   22.0586   22.3544   24.7149   24.8540   25.1990   25.7677
   50.0048   50.6786   67.2214   69.8152
  33  1  -17.6221  -14.2425  -13.4526  -12.2769  -11.6844  -10.6234   -9.9391   -9.4915   -8.9391   -8.6834
          -8.2750   -6.2251   -4.5885   -4.0335   -3.4418   -2.5335   -2.3314    0.3584    0.4930    4.0363
    4.4612    4.7296    5.6080    5.6365    6.9826    8.5569    9.3918   10.5690   11.1161   18.3728
   18.5745   19.5508   20.1459   21.1263   21.8117   22.4902   23.1901   23.2602   26.0302   46.5757
   53.6035   54.1421   62.6167   66.3786
  34  1  -17.7909  -14.5845  -13.7717  -12.1837  -11.9912   -8.9160   -8.3996   -8.3995   -6.2539   -1.9789
          -1.9789   -1.8209   -1.8209    0.9647    2.1856    2.6905    2.6905    3.5966    3.5966    4.1554
    4.1554    5.1176    5.1179   10.9943   10.9943   17.4991   17.4991   18.6859   19.0886   19.0886
   19.1893   19.1894   19.4971   19.4972   22.3813   23.4428   23.4428   24.2465   24.2466   24.2801
   24.9835   45.6740   93.6872   94.0638
  35  1  -17.6221  -14.2425  -13.4526  -12.2769  -11.6844  -10.6234   -9.9391   -9.4915   -8.9391   -8.6834
          -8.2750   -6.2251   -4.5885   -4.0335   -3.4418   -2.5335   -2.3314    0.3584    0.4930    4.0363
    4.4612    4.7296    5.6080    5.6365    6.9826    8.5569    9.3918   10.5690   11.1161   18.3728
   18.5745   19.5508   20.1459   21.1263   21.8117   22.4902   23.1901   23.2602   26.0302   46.5757
   53.6035   54.1421   62.6167   66.3786
  36  1  -17.4003  -13.2168  -13.1778  -12.7972  -12.5362  -11.7030  -10.9174  -10.3292   -9.3354   -8.9313
          -7.7783   -7.7283   -7.2066   -6.7643   -6.5066   -6.0519   -5.8897   -4.4267   -3.8941   -1.8194
    0.0503    4.3508    4.7943    4.9240    9.3763    9.9864   15.3514   17.6292   17.9370   18.3654
   18.9956   19.2899   19.3689   19.8653   34.2241   35.0962   50.2316   51.8262   52.4978   55.5626
   56.5081   56.8120   56.8422   61.3001
  37  1  -17.6221  -14.2425  -13.4526  -12.2769  -11.6844  -10.6234   -9.9391   -9.4915   -8.9391   -8.6835
          -8.2749   -6.2251   -4.5885   -4.0335   -3.4418   -2.5335   -2.3313    0.3585    0.4930    4.0363
    4.4612    4.7298    5.6078    5.6365    6.9826    8.5569    9.3918   10.5691   11.1161   18.3728
   18.5745   19.5508   20.1459   21.1262   21.8117   22.4902   23.1901   23.2602   26.0302   46.5758
   53.6035   54.1421   62.6167   66.3786
  38  1  -17.6221  -14.2425  -13.4526  -12.2769  -11.6844  -10.6234   -9.9391   -9.4915   -8.9391   -8.6834
          -8.2750   -6.2251   -4.5885   -4.0335   -3.4418   -2.5335   -2.3314    0.3584    0.4930    4.0363
    4.4612    4.7296    5.6080    5.6365    6.9826    8.5569    9.3918   10.5690   11.1161   18.3728
   18.5745   19.5508   20.1459   21.1263   21.8117   22.4902   23.1901   23.2602   26.0302   46.5757
   53.6035   54.1421   62.6167   66.3786
  39  1  -17.4410  -13.5789  -12.8964  -12.3938  -11.9936  -11.9224  -11.5725  -11.3395  -10.7837  -10.2496
          -9.4160   -8.9345   -8.4777   -8.1948   -5.6056    0.0377    1.2779    2.7956    2.9851    3.3858
    3.7022    5.4422    6.2618    7.0340    9.3528   17.7216   18.0227   19.1553   19.2810   19.6625
   19.6637   19.6730   20.5083   20.6781   22.0586   22.3544   24.7149   24.8540   25.1990   25.7677
   50.0048   50.6786   67.2214   69.8152
  40  1  -17.4410  -13.5789  -12.8964  -12.3938  -11.9936  -11.9224  -11.5725  -11.3395  -10.7837  -10.2496
          -9.4160   -8.9345   -8.4778   -8.1948   -5.6056    0.0379    1.2779    2.7953    2.9852    3.3858
    3.7022    5.4422    6.2618    7.0340    9.3528   17.7216   18.0227   19.1552   19.2810   19.6625
   19.6637   19.6730   20.5083   20.6781   22.0586   22.3544   24.7149   24.8540   25.1990   25.7677
   50.0048   50.6786   67.2214   69.8152
  41  1  -17.4410  -13.5789  -12.8964  -12.3938  -11.9936  -11.9224  -11.5725  -11.3395  -10.7837  -10.2496
          -9.4160   -8.9345   -8.4778   -8.1948   -5.6056    0.0379    1.2779    2.7953    2.9852    3.3858
    3.7022    5.4422    6.2618    7.0340    9.3528   17.7216   18.0227   19.1552   19.2810   19.6625
   19.6637   19.6730   20.5083   20.6781   22.0586   22.3544   24.7149   24.8540   25.1990   25.7677
   50.0048   50.6786   67.2214   69.8152
  42  1  -17.4003  -13.2168  -13.1778  -12.7972  -12.5362  -11.7030  -10.9174  -10.3292   -9.3354   -8.9313
          -7.7783   -7.7283   -7.2066   -6.7643   -6.5066   -6.0519   -5.8897   -4.4267   -3.8941   -1.8194
    0.0503    4.3508    4.7943    4.9240    9.3763    9.9864   15.3514   17.6292   17.9370   18.3654
   18.9956   19.2899   19.3689   19.8653   34.2241   35.0962   50.2316   51.8262   52.4978   55.5626
   56.5081   56.8120   56.8422   61.3001
  43  1  -17.4410  -13.5789  -12.8964  -12.3938  -11.9936  -11.9224  -11.5725  -11.3395  -10.7837  -10.2496
          -9.4160   -8.9345   -8.4778   -8.1948   -5.6056    0.0379    1.2779    2.7953    2.9852    3.3858
    3.7022    5.4422    6.2618    7.0340    9.3528   17.7216   18.0227   19.1552   19.2810   19.6625
   19.6637   19.6730   20.5083   20.6781   22.0586   22.3544   24.7149   24.8540   25.1990   25.7677
   50.0048   50.6786   67.2214   69.8152
  44  1  -17.4003  -13.2168  -13.1778  -12.7972  -12.5362  -11.7030  -10.9174  -10.3292   -9.3354   -8.9314
          -7.7783   -7.7283   -7.2066   -6.7643   -6.5066   -6.0518   -5.8897   -4.4267   -3.8941   -1.8194
    0.0506    4.3508    4.7943    4.9238    9.3763    9.9864   15.3514   17.6292   17.9370   18.3654
   18.9956   19.2899   19.3689   19.8654   34.2241   35.0962   50.2316   51.8262   52.4978   55.5625
   56.5081   56.8119   56.8422   61.3001
siesta: Fermi energy =      -8.495340 eV

siesta: Program's energy decomposition (eV):
siesta: Ebs     =      -260.380157
siesta: Eions   =       439.895300
siesta: Ena     =       148.190781
siesta: Ekin    =       185.911332
siesta: Enl     =        73.865958
siesta: Eso     =         0.000000
siesta: Edftu   =         0.000000
siesta: DEna    =        11.686096
siesta: DUscf   =         0.949686
siesta: DUext   =         0.000000
siesta: Exc     =      -203.415612
siesta: eta*DQ  =         0.000000
siesta: Emadel  =         0.000000
siesta: Emeta   =         0.000000
siesta: Emolmec =        -7.837203
siesta: Ekinion =         0.000000
siesta: Eharris =      -230.544262
siesta: Etot    =      -230.544262
siesta: FreeEng =      -230.572837

siesta: Final energy (eV):
siesta:  Band Struct. =    -260.380157
siesta:       Kinetic =     185.911332
siesta:       Hartree =     111.299748
siesta:       Edftu   =       0.000000
siesta:       Eso     =       0.000000
siesta:    Ext. field =       0.000000
siesta:   Exch.-corr. =    -203.415612
siesta:  Ion-electron =    -465.020566
siesta:       Ion-ion =     148.518038
siesta:       Ekinion =       0.000000
siesta:         Total =    -230.544262
siesta:         Fermi =      -8.495340

siesta: Atomic forces (eV/Ang):
siesta:      1   -0.000000   -0.000000    0.000000
siesta:      2    0.037923   -0.065664   -1.038367
siesta:      3   -0.037923    0.065664    1.038367
siesta:      4    0.037898    0.065641   -1.038437
siesta:      5   -0.037898   -0.065641    1.038437
siesta:      6   -0.075828    0.000010   -1.038367
siesta:      7    0.075828   -0.000010    1.038367
siesta:      8   -0.037923    0.065664   -1.038367
siesta:      9    0.037923   -0.065664    1.038367
siesta:     10   -0.037898   -0.065641   -1.038437
siesta:     11    0.037898    0.065641    1.038437
siesta:     12    0.075828   -0.000010   -1.038367
siesta:     13   -0.075828    0.000010    1.038367
siesta:     14   -0.370106    0.641000   -0.000000
siesta:     15    0.370106   -0.641000   -0.000000
siesta:     16   -0.370114   -0.641057   -0.000000
siesta:     17    0.370114    0.641057   -0.000000
siesta:     18    0.740176   -0.000021   -0.000000
siesta:     19   -0.740176    0.000021   -0.000000
siesta: ----------------------------------------
siesta:    Tot    0.000000   -0.000000    0.000000

siesta: Stress tensor (static) (eV/Ang**3):
siesta:    -0.745511   -0.000005    0.000000
siesta:    -0.000005   -0.745516    0.000000
siesta:     0.000000    0.000000    0.310938

siesta: Cell volume =        207.722834 Ang**3

siesta: Pressure (static):
siesta:                Solid            Molecule  Units
siesta:           0.00428422          0.00339599  Ry/Bohr**3
siesta:           0.39336293          0.31180785  eV/Ang**3
siesta:         630.24370064        499.57665465  kBar
(Free)E+ p_basis*V_orbitals  =        -197.967027
(Free)Eharris+ p_basis*V_orbitals  =        -197.967027

cite: Please see "LiC18_scf.bib" for an exhaustive BiBTeX file.
cite: Please clearly indicate Siesta version in published work: 4.1.5
cite: This calculation has made use of the following articles
cite: which are encouraged to be cited in a published work.
        Primary SIESTA paper
          DOI: www.doi.org/10.1088/0953-8984/14/11/302

>> End of run:   9-NOV-2022   8:48:10
Job completed
