Siesta Version  : 4.1.5
Architecture    : x86_64-unknown-linux-gnu--unknown
Compiler version: GNU Fortran (GCC) 11.3.0
Compiler flags  : mpif90 -g -O2 -fallow-argument-mismatch
PP flags        : -DMPI -DFC_HAVE_FLUSH -DFC_HAVE_ABORT
Libraries       :  -I/global/software/sl-7.x86_64/modules/intel/2020.4.304/mkl/include  /globall/software/sl-7.x86_64/modules/intel/2020.4.304/mkl/lib/intel64/libmkl_scalapack_lp64.a -Wl,--start-group /global/software/sl-7.x86_64/modules/intel/2020.4.304/mkl/lib/intel64/libmkl_intel_lp64.a /global/software/sl-7.x86_64/modules/intel/2020.4.304/mkl/lib/intel64/libmkl_sequential.a /global/software/sl-7.x86_64/modules/intel/2020.4.304/mkl/lib/intel64/libmkl_core.a /global/software/sl-7.x86_64/modules/intel/2020.4.304/mkl/lib/intel64/libmkl_blacs_openmpi_lp64.a -Wl,--end-group -lpthread -lm -ldl
PARALLEL version

* Running on 16 nodes in parallel
>> Start of run:   9-NOV-2022   8:48:28

                           ***********************       
                           *  WELCOME TO SIESTA  *       
                           ***********************       

reinit: Reading from standard input
reinit: Dumped input in INPUT_TMP.83853
************************** Dump of input data file ****************************
SystemName LiC18_scf
SystemLabel LiC18_scf
NumberOfAtoms   19
NumberOfSpecies 2
%block ChemicalSpeciesLabel
1  3   Li-gga
2  6   C-gga
%endblock ChemicalSpeciesLabel
PAO.BasisSize  DZ
PAO.EnergyShift  10 meV
%block PS.Lmax
C-gga   2
Li-gga  2
%endblock PS.Lmax
LatticeConstant 1.000000 Ang
%block LatticeVectors
	4.3161300000	0.0000000000	0.0000000000
	-2.1580650000	3.7378782260	0.0000000000
	0.0000000000	0.0000000000	12.2095391000
%endblock LatticeVectors
AtomicCoordinatesFormat Ang
%block AtomicCoordinatesAndAtomicSpecies
	0.00000000	0.00000000	0.00000000	2
	-0.70288177	1.21742694	2.03492725	1
	-1.45518323	2.52045129	10.17461185	1
	1.45518323	2.52045129	2.03492725	1
	0.70288177	1.21742694	10.17461185	1
	1.40576354	0.00000000	2.03492725	1
	2.91036646	0.00000000	10.17461185	1
	-1.45518323	2.52045129	2.03492725	1
	-0.70288177	1.21742694	10.17461185	1
	0.70288177	1.21742694	2.03492725	1
	1.45518323	2.52045129	10.17461185	1
	2.91036646	0.00000000	2.03492725	1
	1.40576354	0.00000000	10.17461185	1
	-0.70288177	1.21742694	6.10476955	1
	-1.45518323	2.52045129	6.10476955	1
	1.45518323	2.52045129	6.10476955	1
	0.70288177	1.21742694	6.10476955	1
	1.40576354	0.00000000	6.10476955	1
	2.91036646	0.00000000	6.10476955	1
%endblock AtomicCoordinatesAndAtomicSpecies
Kgrid_NoTRS  T
%block kgrid_MonkhorstPack
4       0       0       0.0
0       4       0       0.0
0       0       4       0.0
%endblock kgrid_MonkhorstPack
AtomCoorFormatOut Ang
BlockSize 1
#ProcessorY 12
Diag.ParallelOverK   T
Diag.DivideAndConquer F
MeshCutoff   300 Ry
SCF.FreeE.Tolerance 1E-3 eV
SCF.EDM.Tolerance   5E-3 eV
DM.Tolerance  1E-3
DM.Require.Energy.Convergence T
DM.NumberPulay 4
XC.Functional GGA
XC.Authors    PBE
UseSaveData        F
MD.TypeOfRun       CG
MD.VariableCell    F
MD.NumCGsteps      00
MD.MaxCGDispl      0.200000 Bohr
MD.MaxStressTol    1.000000 GPa
MD.MaxForceTol     0.010000 eV/Ang
WriteMDHistory T
WriteCoorStep T
WriteForces T
WriteCoorStep    T
WriteEigenValues T
WriteDM    F
MM.UnitsDistance Ang  # what this program prints out DO NOT CHANGE
MM.UnitsEnergy    eV  # what this program prints out DO NOT CHANGE
MM.Grimme.S6     0.75 # Grimme-paper for PBE (correct for your functional)
MM.Grimme.D     20.   # Grimme-paper (correct for your functional)
%block MM.Potentials
  1   1 Grimme     16.69      1.650 # Li, 10.1002/jcc.20495
  1   2 Grimme     17.40      2.277 # Li / C
  2   2 Grimme     18.14      2.904 # C, 10.1002/jcc.20495
%endblock MM.Potentials
#%block ProjectedDensityOfStates
# -200.0  120.0  0.4  12800  eV
#%endblock ProjectedDensityOfStates
************************** End of input data file *****************************

reinit: -----------------------------------------------------------------------
reinit: System Name: LiC18_scf
reinit: -----------------------------------------------------------------------
reinit: System Label: LiC18_scf
reinit: -----------------------------------------------------------------------
Reading two-body potentials
Grimme - two-body potential between 1 and 1
Grimme - two-body potential between 1 and 2
Grimme - two-body potential between 2 and 2

initatom: Reading input for the pseudopotentials and atomic orbitals ----------
Species number:   1 Atomic number:    3 Label: Li-gga
Species number:   2 Atomic number:    6 Label: C-gga

Ground state valence configuration:   2s01
Reading pseudopotential information in formatted form from Li-gga.psf

Valence configuration for pseudopotential generation:
2s( 1.00) rc: 2.28
2p( 0.00) rc: 2.28
3d( 0.00) rc: 2.59
4f( 0.00) rc: 2.59
Ground state valence configuration:   2s02  2p02
Reading pseudopotential information in formatted form from C-gga.psf

Valence configuration for pseudopotential generation:
2s( 2.00) rc: 1.56
2p( 2.00) rc: 1.56
3d( 0.00) rc: 1.56
4f( 0.00) rc: 1.56
relmxkb: Read Max KB Ang. Momentum=    2 for species C-gga
relmxkb: Read Max KB Ang. Momentum=    2 for species Li-gga

<basis_specs>
===============================================================================
Li-gga               Z=   3    Mass=  6.9400        Charge= 0.17977+309
Lmxo=0 Lmxkb= 2    BasisType=split      Semic=F
L=0  Nsemic=0  Cnfigmx=2
          i=1  nzeta=2  polorb=0  (2s)
            splnorm:   0.15000    
               vcte:    0.0000    
               rinn:    0.0000    
               qcoe:    0.0000    
               qyuk:    0.0000    
               qwid:   0.10000E-01
                rcs:    0.0000      0.0000    
            lambdas:    1.0000      1.0000    
-------------------------------------------------------------------------------
L=0  Nkbl=1  erefs: 0.17977+309
L=1  Nkbl=1  erefs: 0.17977+309
L=2  Nkbl=1  erefs: 0.17977+309
===============================================================================
</basis_specs>

atom: Called for Li-gga                (Z =   3)

read_vps: Pseudopotential generation method:
read_vps: ATM 3.2.2 Troullier-Martins                       
Valence charge for ps generation:    1.00000

read_vps: Pseudopotential includes a core correction:
read_vps: Pseudo-core for xc-correction

xc_check: Exchange-correlation functional:
xc_check: GGA Perdew, Burke & Ernzerhof 1996
V l=0 = -2*Zval/r beyond r=  2.2278
V l=1 = -2*Zval/r beyond r=  2.2278
V l=2 = -2*Zval/r beyond r=  2.5245
All V_l potentials equal beyond r=  2.4622
This should be close to max(r_c) in ps generation
All pots = -2*Zval/r beyond r=  2.5245

VLOCAL1: 99.0% of the norm of Vloc inside      7.160 Ry
VLOCAL1: 99.9% of the norm of Vloc inside     16.318 Ry
atom: Maximum radius for 4*pi*r*r*local-pseudopot. charge    2.86079
atom: Maximum radius for r*vlocal+2*Zval:    2.43160
GHOST: No ghost state for L =  0
GHOST: No ghost state for L =  1
GHOST: No ghost state for L =  2

KBgen: Kleinman-Bylander projectors: 
   l= 0   rc=  2.654023   el= -0.211234   Ekb=  1.742119   kbcos=  0.228463
   l= 1   rc=  2.721230   el= -0.080095   Ekb= -1.122375   kbcos= -0.147941
   l= 2   rc=  2.825246   el=  0.002001   Ekb= -0.207076   kbcos= -0.031965

KBgen: Total number of Kleinman-Bylander projectors:    9
atom: -------------------------------------------------------------------------

atom: SANKEY-TYPE ORBITALS:
atom: Selected multiple-zeta basis: split     

SPLIT: Orbitals with angular momentum L= 0

SPLIT: Basis orbitals for state 2s

SPLIT: PAO cut-off radius determined from an
SPLIT: energy shift=  0.000735 Ry

   izeta = 1
                 lambda =    1.000000
                     rc =   11.897381
                 energy =   -0.210580
                kinetic =    0.143382
    potential(screened) =   -0.353962
       potential(ionic) =   -0.533453

   izeta = 2
                 rmatch =    8.489163
              splitnorm =    0.150000
                 energy =   -0.186081
                kinetic =    0.225882
    potential(screened) =   -0.411964
       potential(ionic) =   -0.593024
atom: Total number of Sankey-type orbitals:  2

atm_pop: Valence configuration (for local Pseudopot. screening):
 2s( 1.00)                                                            
Vna: chval, zval:    1.00000   1.00000

Vna:  Cut-off radius for the neutral-atom potential:  11.897381
comcore: Pseudo-core radius Rcore=  3.450946

atom: _________________________________________________________________________

<basis_specs>
===============================================================================
C-gga                Z=   6    Mass=  12.010        Charge= 0.17977+309
Lmxo=1 Lmxkb= 2    BasisType=split      Semic=F
L=0  Nsemic=0  Cnfigmx=2
          i=1  nzeta=2  polorb=0  (2s)
            splnorm:   0.15000    
               vcte:    0.0000    
               rinn:    0.0000    
               qcoe:    0.0000    
               qyuk:    0.0000    
               qwid:   0.10000E-01
                rcs:    0.0000      0.0000    
            lambdas:    1.0000      1.0000    
L=1  Nsemic=0  Cnfigmx=2
          i=1  nzeta=2  polorb=0  (2p)
            splnorm:   0.15000    
               vcte:    0.0000    
               rinn:    0.0000    
               qcoe:    0.0000    
               qyuk:    0.0000    
               qwid:   0.10000E-01
                rcs:    0.0000      0.0000    
            lambdas:    1.0000      1.0000    
-------------------------------------------------------------------------------
L=0  Nkbl=1  erefs: 0.17977+309
L=1  Nkbl=1  erefs: 0.17977+309
L=2  Nkbl=1  erefs: 0.17977+309
===============================================================================
</basis_specs>

atom: Called for C-gga                 (Z =   6)

read_vps: Pseudopotential generation method:
read_vps: ATM 3.2.2 Troullier-Martins                       
Valence charge for ps generation:    4.00000

xc_check: Exchange-correlation functional:
xc_check: GGA Perdew, Burke & Ernzerhof 1996
V l=0 = -2*Zval/r beyond r=  1.5227
V l=1 = -2*Zval/r beyond r=  1.5227
V l=2 = -2*Zval/r beyond r=  1.5227
All V_l potentials equal beyond r=  1.4851
This should be close to max(r_c) in ps generation
All pots = -2*Zval/r beyond r=  1.5227

VLOCAL1: 99.0% of the norm of Vloc inside     19.682 Ry
VLOCAL1: 99.9% of the norm of Vloc inside     44.856 Ry
atom: Maximum radius for 4*pi*r*r*local-pseudopot. charge    1.79142
atom: Maximum radius for r*vlocal+2*Zval:    1.54183
GHOST: No ghost state for L =  0
GHOST: No ghost state for L =  1
GHOST: No ghost state for L =  2

KBgen: Kleinman-Bylander projectors: 
   l= 0   rc=  1.661951   el= -1.010689   Ekb=  5.289847   kbcos=  0.316429
   l= 1   rc=  1.661951   el= -0.388490   Ekb= -4.102504   kbcos= -0.351025
   l= 2   rc=  1.747182   el=  0.001971   Ekb= -1.006005   kbcos= -0.008530

KBgen: Total number of Kleinman-Bylander projectors:    9
atom: -------------------------------------------------------------------------

atom: SANKEY-TYPE ORBITALS:
atom: Selected multiple-zeta basis: split     

SPLIT: Orbitals with angular momentum L= 0

SPLIT: Basis orbitals for state 2s

SPLIT: PAO cut-off radius determined from an
SPLIT: energy shift=  0.000735 Ry

   izeta = 1
                 lambda =    1.000000
                     rc =    5.948690
                 energy =   -1.010099
                kinetic =    0.827121
    potential(screened) =   -1.837220
       potential(ionic) =   -5.392783

   izeta = 2
                 rmatch =    3.518811
              splitnorm =    0.150000
                 energy =   -0.877891
                kinetic =    1.289227
    potential(screened) =   -2.167118
       potential(ionic) =   -5.982073

SPLIT: Orbitals with angular momentum L= 1

SPLIT: Basis orbitals for state 2p

SPLIT: PAO cut-off radius determined from an
SPLIT: energy shift=  0.000735 Ry

   izeta = 1
                 lambda =    1.000000
                     rc =    7.638387
                 energy =   -0.387843
                kinetic =    2.314739
    potential(screened) =   -2.702582
       potential(ionic) =   -6.092371

   izeta = 2
                 rmatch =    3.840617
              splitnorm =    0.150000
                 energy =   -0.270479
                kinetic =    3.438347
    potential(screened) =   -3.708826
       potential(ionic) =   -7.497707
atom: Total number of Sankey-type orbitals:  8

atm_pop: Valence configuration (for local Pseudopot. screening):
 2s( 2.00)                                                            
 2p( 2.00)                                                            
Vna: chval, zval:    4.00000   4.00000

Vna:  Cut-off radius for the neutral-atom potential:   7.638387

atom: _________________________________________________________________________

prinput: Basis input ----------------------------------------------------------

PAO.BasisType split     

%block ChemicalSpeciesLabel
    1    3 Li-gga                  # Species index, atomic number, species label
    2    6 C-gga                   # Species index, atomic number, species label
%endblock ChemicalSpeciesLabel

%block PAO.Basis                 # Define Basis set
Li-gga                1                    # Species label, number of l-shells
 n=2   0   2                         # n, l, Nzeta 
  11.897      8.489   
   1.000      1.000   
C-gga                 2                    # Species label, number of l-shells
 n=2   0   2                         # n, l, Nzeta 
   5.949      3.519   
   1.000      1.000   
 n=2   1   2                         # n, l, Nzeta 
   7.638      3.841   
   1.000      1.000   
%endblock PAO.Basis

prinput: ----------------------------------------------------------------------

coor:   Atomic-coordinates input format  =     Cartesian coordinates
coor:                                          (in Angstroms)

siesta: Atomic coordinates (Bohr) and species
siesta:      0.00000   0.00000   0.00000  2        1
siesta:     -1.32825   2.30060   3.84546  1        2
siesta:     -2.74990   4.76296  19.22724  1        3
siesta:      2.74990   4.76296   3.84546  1        4
siesta:      1.32825   2.30060  19.22724  1        5
siesta:      2.65651   0.00000   3.84546  1        6
siesta:      5.49980   0.00000  19.22724  1        7
siesta:     -2.74990   4.76296   3.84546  1        8
siesta:     -1.32825   2.30060  19.22724  1        9
siesta:      1.32825   2.30060   3.84546  1       10
siesta:      2.74990   4.76296  19.22724  1       11
siesta:      5.49980   0.00000   3.84546  1       12
siesta:      2.65651   0.00000  19.22724  1       13
siesta:     -1.32825   2.30060  11.53635  1       14
siesta:     -2.74990   4.76296  11.53635  1       15
siesta:      2.74990   4.76296  11.53635  1       16
siesta:      1.32825   2.30060  11.53635  1       17
siesta:      2.65651   0.00000  11.53635  1       18
siesta:      5.49980   0.00000  11.53635  1       19

siesta: System type = bulk      

initatomlists: Number of atoms, orbitals, and projectors:     19    44   171

siesta: ******************** Simulation parameters ****************************
siesta:
siesta: The following are some of the parameters of the simulation.
siesta: A complete list of the parameters used, including default values,
siesta: can be found in file out.fdf
siesta:
redata: Spin configuration                          = none
redata: Number of spin components                   = 1
redata: Time-Reversal Symmetry                      = T
redata: Spin spiral                                 = F
redata: Long output                                 =   F
redata: Number of Atomic Species                    =        2
redata: Charge density info will appear in .RHO file
redata: Write Mulliken Pop.                         = NO
redata: Matel table size (NRTAB)                    =     1024
redata: Mesh Cutoff                                 =   300.0000 Ry
redata: Net charge of the system                    =     0.0000 |e|
redata: Min. number of SCF Iter                     =        0
redata: Max. number of SCF Iter                     =     1000
redata: SCF convergence failure will abort job
redata: SCF mix quantity                            = Hamiltonian
redata: Mix DM or H after convergence               =   F
redata: Recompute H after scf cycle                 =   F
redata: Mix DM in first SCF step                    =   T
redata: Write Pulay info on disk                    =   F
redata: New DM Occupancy tolerance                  = 0.000000000001
redata: No kicks to SCF
redata: DM Mixing Weight for Kicks                  =     0.5000
redata: Require Harris convergence for SCF          =   F
redata: Harris energy tolerance for SCF             =     0.000100 eV
redata: Require DM convergence for SCF              =   T
redata: DM tolerance for SCF                        =     0.001000
redata: Require EDM convergence for SCF             =   F
redata: EDM tolerance for SCF                       =     0.005000 eV
redata: Require H convergence for SCF               =   T
redata: Hamiltonian tolerance for SCF               =     0.001000 eV
redata: Require (free) Energy convergence for SCF   =   T
redata: (free) Energy tolerance for SCF             =     0.001000 eV
redata: Using Saved Data (generic)                  =   F
redata: Use continuation files for DM               =   F
redata: Neglect nonoverlap interactions             =   F
redata: Method of Calculation                       = Diagonalization
redata: Electronic Temperature                      =   299.9869 K
redata: Fix the spin of the system                  =   F
redata: Dynamics option                             = Single-point calculation
mix.SCF: Pulay mixing                            = Pulay
mix.SCF:    Variant                              = stable
mix.SCF:    History steps                        = 4
mix.SCF:    Linear mixing weight                 =     0.250000
mix.SCF:    Mixing weight                        =     0.250000
mix.SCF:    SVD condition                        = 0.1000E-07
redata: ***********************************************************************

%block SCF.Mixers
  Pulay
%endblock SCF.Mixers

%block SCF.Mixer.Pulay
  # Mixing method
  method pulay
  variant stable

  # Mixing options
  weight 0.2500
  weight.linear 0.2500
  history 4
%endblock SCF.Mixer.Pulay

DM_history_depth set to one: no extrapolation allowed by default for geometry relaxation
Size of DM history Fstack: 1
Total number of electrons:    22.000000
Total ionic charge:    22.000000

* ProcessorY, Blocksize:    4   1


* Orbital distribution balance (max,min):     3     2

k-point displ. along   1 input, could be:     0.00    0.50
k-point displ. along   2 input, could be:     0.00    0.50
k-point displ. along   3 input, could be:     0.00    0.50
 Kpoints in:           48 . Kpoints trimmed:           44

siesta: k-grid: Number of k-points =    44
siesta: k-grid: Cutoff (effective) =     8.632 Ang
siesta: k-grid: Supercell and displacements
siesta: k-grid:    4   0   0      0.000
siesta: k-grid:    0   4   0      0.000
siesta: k-grid:    0   0   4      0.000

diag: Algorithm                                     = Expert
diag: Parallel over k                               =   T
diag: Use parallel 2D distribution                  =   T
diag: Parallel block-size                           = 1
diag: Parallel distribution                         =     4 x     4
diag: Used triangular part                          = Lower
diag: Absolute tolerance                            =  0.100E-15
diag: Orthogonalization factor                      =  0.100E-05
diag: Memory factor                                 =  1.0000

superc: Internal auxiliary supercell:     9 x     9 x     3  =     243
superc: Number of atoms, orbitals, and projectors:   4617  10692  41553


ts: **************************************************************
ts: Save H and S matrices                           =    F
ts: Save DM and EDM matrices                        =    F
ts: Only save the overlap matrix S                  =    F
ts: **************************************************************

************************ Begin: TS CHECKS AND WARNINGS ************************
************************ End: TS CHECKS AND WARNINGS **************************


                     ====================================
                        Single-point calculation
                     ====================================

outcoor: Atomic coordinates (Ang):                          
    0.00000000    0.00000000    0.00000000   2       1  C-gga
   -0.70288177    1.21742694    2.03492725   1       2  Li-gga
   -1.45518323    2.52045129   10.17461185   1       3  Li-gga
    1.45518323    2.52045129    2.03492725   1       4  Li-gga
    0.70288177    1.21742694   10.17461185   1       5  Li-gga
    1.40576354    0.00000000    2.03492725   1       6  Li-gga
    2.91036646    0.00000000   10.17461185   1       7  Li-gga
   -1.45518323    2.52045129    2.03492725   1       8  Li-gga
   -0.70288177    1.21742694   10.17461185   1       9  Li-gga
    0.70288177    1.21742694    2.03492725   1      10  Li-gga
    1.45518323    2.52045129   10.17461185   1      11  Li-gga
    2.91036646    0.00000000    2.03492725   1      12  Li-gga
    1.40576354    0.00000000   10.17461185   1      13  Li-gga
   -0.70288177    1.21742694    6.10476955   1      14  Li-gga
   -1.45518323    2.52045129    6.10476955   1      15  Li-gga
    1.45518323    2.52045129    6.10476955   1      16  Li-gga
    0.70288177    1.21742694    6.10476955   1      17  Li-gga
    1.40576354    0.00000000    6.10476955   1      18  Li-gga
    2.91036646    0.00000000    6.10476955   1      19  Li-gga

superc: Internal auxiliary supercell:     9 x     9 x     3  =     243
superc: Number of atoms, orbitals, and projectors:   4617  10692  41553

outcell: Unit cell vectors (Ang):
        4.316130    0.000000    0.000000
       -2.158065    3.737878    0.000000
        0.000000    0.000000   12.209539

outcell: Cell vector modules (Ang)   :    4.316130    4.316130   12.209539
outcell: Cell angles (23,13,12) (deg):     90.0000     90.0000    120.0000
outcell: Cell volume (Ang**3)        :    196.9785
<dSpData1D:S at geom step 0
  <sparsity:sparsity for geom step 0
    nrows_g=44 nrows=3 sparsity=2.9086 nnzs=5631, refcount: 7>
  <dData1D:(new from dSpData1D) n=5631, refcount: 1>
refcount: 1>
new_DM -- step:     1
Initializing Density Matrix...
DM filled with atomic data:
<dSpData2D:DM initialized from atoms
  <sparsity:sparsity for geom step 0
    nrows_g=44 nrows=3 sparsity=2.9086 nnzs=5631, refcount: 8>
  <dData2D:DM n=5631 m=1, refcount: 1>
refcount: 1>
No. of atoms with KB's overlaping orbs in proc 0. Max # of overlaps:     289     299
New grid distribution:   1
           1       1:   20    1:    5    1:   16
           2       1:   20    1:    5   17:   32
           3       1:   20    1:    5   33:   48
           4       1:   20    1:    5   49:   64
           5       1:   20    6:   10    1:   16
           6       1:   20    6:   10   17:   32
           7       1:   20    6:   10   33:   48
           8       1:   20    6:   10   49:   64
           9       1:   20   11:   15    1:   16
          10       1:   20   11:   15   17:   32
          11       1:   20   11:   15   33:   48
          12       1:   20   11:   15   49:   64
          13       1:   20   16:   20    1:   16
          14       1:   20   16:   20   17:   32
          15       1:   20   16:   20   33:   48
          16       1:   20   16:   20   49:   64

InitMesh: MESH =    40 x    40 x   128 =      204800
InitMesh: (bp) =    20 x    20 x    64 =       25600
InitMesh: Mesh cutoff (required, used) =   300.000   303.755 Ry
ExtMesh (bp) on 0 =   156 x   141 x   152 =     3343392
New grid distribution:   2
           1      11:   20    1:   10    1:   15
           2      11:   20    1:   10   16:   32
           3       1:   10    1:   10   33:   49
           4       1:   10    1:   10   50:   64
           5       1:   10    1:   10    1:   15
           6       1:   10    1:   10   16:   32
           7      11:   20    1:   10   33:   49
           8      11:   20    1:   10   50:   64
           9      11:   20   11:   20    1:   15
          10      11:   20   11:   20   16:   32
          11       1:   10   11:   20   33:   49
          12       1:   10   11:   20   50:   64
          13       1:   10   11:   20    1:   15
          14       1:   10   11:   20   16:   32
          15      11:   20   11:   20   33:   49
          16      11:   20   11:   20   50:   64
New grid distribution:   3
           1       1:   10    1:   10    1:   16
           2       1:   10    1:   10   17:   32
           3       1:   10    1:   10   33:   48
           4       1:   10    1:   10   49:   64
           5      11:   20    1:   10    1:   16
           6      11:   20    1:   10   17:   32
           7      11:   20    1:   10   33:   48
           8      11:   20    1:   10   49:   64
           9       1:   10   11:   20    1:   16
          10       1:   10   11:   20   17:   32
          11       1:   10   11:   20   33:   48
          12       1:   10   11:   20   49:   64
          13      11:   20   11:   20    1:   16
          14      11:   20   11:   20   17:   32
          15      11:   20   11:   20   33:   48
          16      11:   20   11:   20   49:   64
Setting up quadratic distribution...
ExtMesh (bp) on 0 =   146 x   146 x   151 =     3218716
PhiOnMesh: Number of (b)points on node 0 =                 1500
PhiOnMesh: nlist on node 0 =               221829

stepf: Fermi-Dirac step function

siesta: Program's energy decomposition (eV):
siesta: Ebs     =      -187.954767
siesta: Eions   =       439.895300
siesta: Ena     =       145.271511
siesta: Ekin    =       222.677015
siesta: Enl     =        62.384443
siesta: Eso     =         0.000000
siesta: Edftu   =         0.000000
siesta: DEna    =        -6.929793
siesta: DUscf   =        13.827886
siesta: DUext   =         0.000000
siesta: Exc     =      -213.152356
siesta: eta*DQ  =         0.000000
siesta: Emadel  =         0.000000
siesta: Emeta   =         0.000000
siesta: Emolmec =        -8.022198
siesta: Ekinion =         0.000000
siesta: Eharris =      -172.404555
siesta: Etot    =      -223.838792
siesta: FreeEng =      -223.853406

        iscf     Eharris(eV)        E_KS(eV)     FreeEng(eV)     dDmax    Ef(eV) dHmax(eV)
   scf:    1     -172.404555     -223.838792     -223.853406 38.846170 -9.426965 19.203886
timer: Routine,Calls,Time,% = IterSCF        1       1.072  21.34
   scf:    2     -115.288182     -203.489329     -203.495378 22.924211 -8.124778 29.322121
   scf:    3     -217.596076     -232.215968     -232.221056 20.291784 -9.217823  7.411083
   scf:    4     -233.741912     -233.859725     -233.877564  3.527690 -8.868003  0.680953
   scf:    5     -233.622098     -233.802640     -233.819710  0.681257 -8.985518  1.498766
   scf:    6     -233.311503     -233.742468     -233.767868  2.139510 -8.827905  1.980685
   scf:    7     -233.610572     -233.833729     -233.850404  1.503596 -8.962732  1.247005
   scf:    8     -233.898485     -233.878364     -233.895849  0.389918 -8.896605  0.299080
   scf:    9     -233.880892     -233.879827     -233.897748  0.045315 -8.890228  0.187131
   scf:   10     -233.879067     -233.880141     -233.898962  0.090668 -8.880367  0.021676
   scf:   11     -233.880446     -233.880351     -233.898925  0.028060 -8.883341  0.038962
   scf:   12     -233.879588     -233.880051     -233.898942  0.031766 -8.880353  0.032340
   scf:   13     -233.880378     -233.880232     -233.898978  0.014588 -8.881825  0.001008
   scf:   14     -233.880218     -233.880225     -233.898978  0.000744 -8.881778  0.000864

SCF Convergence by FreeE+DM+H criterion
|FreeE_i-FreeE_(i-1)| (eV) <     0.00100000
max |DM_out - DM_in|         :     0.0007437013
max |H_out - H_in|      (eV) :     0.0008641915
SCF cycle converged after 14 iterations

Using DM_out to compute the final energy and forces
No. of atoms with KB's overlaping orbs in proc 0. Max # of overlaps:     289     299

MM-Stress (kbar):      -10.65      -10.65       27.70        0.00        0.00        0.00

siesta: E_KS(eV) =             -233.8802

siesta: E_KS - E_eggbox =      -233.8802

siesta: Atomic forces (eV/Ang):
     1    0.000000   -0.000000    0.000004
     2    0.125656   -0.217624   -1.264891
     3   -0.125656    0.217624    1.264891
     4    0.125621    0.217582   -1.264962
     5   -0.125622   -0.217583    1.264962
     6   -0.251296    0.000009   -1.264891
     7    0.251296   -0.000009    1.264891
     8   -0.125656    0.217624   -1.264891
     9    0.125656   -0.217624    1.264891
    10   -0.125621   -0.217582   -1.264962
    11    0.125622    0.217583    1.264962
    12    0.251296   -0.000009   -1.264891
    13   -0.251296    0.000009    1.264891
    14   -0.384142    0.665309   -0.000001
    15    0.384142   -0.665310   -0.000001
    16   -0.384149   -0.665365   -0.000001
    17    0.384149    0.665365   -0.000001
    18    0.768246   -0.000022   -0.000001
    19   -0.768246    0.000022   -0.000001
----------------------------------------
   Tot    0.000000   -0.000000    0.000000
----------------------------------------
   Max    1.264962
   Res    0.642080    sqrt( Sum f_i^2 / 3N )
----------------------------------------
   Max    1.264962    constrained

Stress tensor Voigt[x,y,z,yz,xz,xy] (kbar):    -1234.32    -1234.33      495.72        0.00       -0.00       -0.01
(Free)E + p*V (eV/cell)     -153.0465
Target enthalpy (eV/cell)     -233.8990

siesta: Eigenvalues (eV):
  ik is       eps
   1  1  -17.9684  -14.1247  -13.2724  -12.6208  -12.4227  -12.4036  -12.0189  -11.6546  -10.9610  -10.8660
         -10.5899   -9.3596   -8.8884   -8.7086   -5.8915    0.5219    0.7321    2.4325    3.4485    3.9007
    4.0409    4.1705    4.5200    5.2002    7.4198    8.5572   10.9374   17.4697   18.6386   19.0632
   19.5484   19.9194   20.4570   20.6160   20.8884   21.4650   23.5249   27.0473   27.1389   27.2373
   28.6972   49.0818   59.9691   60.6383
   2  1  -18.1443  -14.5754  -13.5025  -12.6934  -12.4733  -11.1371  -10.9652  -10.8114   -9.2031   -9.1683
          -8.8056   -7.2499   -5.6793   -5.4082   -3.6403   -2.1474   -1.2451   -0.6422    0.6202    1.1211
    3.3210    3.9089    4.0302    4.2107    5.0440    5.7718    8.1550   10.9920   12.3103   12.6712
   14.9488   19.0549   20.9835   21.6673   22.5786   23.2169   23.2259   25.1864   28.9996   37.1094
   41.5495   55.0994   55.4666   56.2630
   3  1  -18.1443  -14.5754  -13.5025  -12.6934  -12.4733  -11.1371  -10.9652  -10.8114   -9.2031   -9.1684
          -8.8055   -7.2499   -5.6793   -5.4082   -3.6403   -2.1474   -1.2452   -0.6422    0.6203    1.1211
    3.3210    3.9089    4.0303    4.2107    5.0440    5.7715    8.1550   10.9920   12.3103   12.6712
   14.9489   19.0549   20.9835   21.6673   22.5785   23.2169   23.2259   25.1865   28.9996   37.1094
   41.5494   55.0994   55.4666   56.2630
   4  1  -17.9684  -14.1247  -13.2724  -12.6208  -12.4227  -12.4036  -12.0189  -11.6545  -10.9610  -10.8660
         -10.5899   -9.3595   -8.8884   -8.7086   -5.8914    0.5219    0.7322    2.4322    3.4486    3.9007
    4.0409    4.1706    4.5200    5.2001    7.4198    8.5572   10.9374   17.4697   18.6387   19.0632
   19.5484   19.9193   20.4570   20.6161   20.8884   21.4650   23.5250   27.0473   27.1389   27.2373
   28.6972   49.0818   59.9691   60.6383
   5  1  -18.1443  -14.5754  -13.5025  -12.6934  -12.4733  -11.1371  -10.9652  -10.8114   -9.2031   -9.1683
          -8.8056   -7.2499   -5.6793   -5.4082   -3.6403   -2.1474   -1.2451   -0.6422    0.6202    1.1211
    3.3210    3.9089    4.0302    4.2107    5.0440    5.7718    8.1550   10.9920   12.3103   12.6712
   14.9488   19.0549   20.9835   21.6673   22.5786   23.2169   23.2259   25.1864   28.9996   37.1094
   41.5495   55.0994   55.4666   56.2630
   6  1  -18.3105  -14.8685  -13.7569  -13.2223  -12.4996  -10.7967   -8.9270   -8.8733   -8.8732   -3.4101
          -0.6339   -0.6339   -0.5494   -0.5494   -0.3749   -0.0521   -0.0521    0.2724    0.2724    2.7467
    2.7467    4.2150    4.2151    7.3710    7.3712    9.5047   14.2915   14.2915   15.0116   15.0117
   15.5200   15.5201   22.4514   23.7196   24.3759   24.3760   24.4181   49.3333   49.6718   59.2668
   59.2668   63.3228   63.3228   91.4768
   7  1  -17.9665  -13.8102  -13.5505  -13.1771  -12.8124  -11.9227  -11.2266  -11.0286  -10.0794   -9.4307
          -9.3681   -8.8093   -8.0394   -7.0234   -6.4671   -5.4073   -4.7476   -4.3526   -2.8202   -2.4320
    1.0878    2.1148    3.6756    6.5462    8.1951   12.7382   16.9238   17.5123   17.6417   17.9592
   18.8829   19.1395   19.3431   21.3995   24.0904   24.5623   29.9468   44.4022   50.2969   51.7067
   51.7268   51.7485   59.5146   64.2392
   8  1  -17.9684  -14.1247  -13.2724  -12.6208  -12.4227  -12.4036  -12.0189  -11.6545  -10.9610  -10.8660
         -10.5899   -9.3595   -8.8884   -8.7086   -5.8914    0.5219    0.7322    2.4322    3.4486    3.9007
    4.0409    4.1706    4.5200    5.2001    7.4198    8.5572   10.9374   17.4697   18.6387   19.0632
   19.5484   19.9193   20.4570   20.6161   20.8884   21.4650   23.5250   27.0473   27.1389   27.2373
   28.6972   49.0818   59.9691   60.6383
   9  1  -17.9684  -14.1247  -13.2724  -12.6208  -12.4227  -12.4036  -12.0189  -11.6545  -10.9610  -10.8660
         -10.5899   -9.3595   -8.8884   -8.7086   -5.8914    0.5219    0.7322    2.4322    3.4486    3.9007
    4.0409    4.1706    4.5200    5.2001    7.4198    8.5572   10.9374   17.4697   18.6387   19.0632
   19.5484   19.9193   20.4570   20.6161   20.8884   21.4650   23.5250   27.0473   27.1389   27.2373
   28.6972   49.0818   59.9691   60.6383
  10  1  -17.9665  -13.8102  -13.5505  -13.1771  -12.8124  -11.9227  -11.2266  -11.0286  -10.0794   -9.4307
          -9.3681   -8.8093   -8.0394   -7.0234   -6.4671   -5.4073   -4.7476   -4.3526   -2.8202   -2.4320
    1.0878    2.1148    3.6756    6.5462    8.1951   12.7382   16.9238   17.5123   17.6417   17.9592
   18.8829   19.1395   19.3431   21.3995   24.0904   24.5623   29.9468   44.4022   50.2969   51.7067
   51.7268   51.7485   59.5146   64.2392
  11  1  -17.9684  -14.1247  -13.2724  -12.6208  -12.4227  -12.4036  -12.0189  -11.6545  -10.9610  -10.8660
         -10.5899   -9.3595   -8.8884   -8.7086   -5.8914    0.5219    0.7322    2.4322    3.4486    3.9007
    4.0409    4.1706    4.5200    5.2001    7.4198    8.5572   10.9374   17.4697   18.6387   19.0632
   19.5484   19.9193   20.4570   20.6161   20.8884   21.4650   23.5250   27.0473   27.1389   27.2373
   28.6972   49.0818   59.9691   60.6383
  12  1  -17.9665  -13.8102  -13.5505  -13.1771  -12.8125  -11.9227  -11.2266  -11.0285  -10.0794   -9.4308
          -9.3681   -8.8093   -8.0394   -7.0234   -6.4671   -5.4073   -4.7474   -4.3526   -2.8203   -2.4320
    1.0878    2.1148    3.6753    6.5464    8.1950   12.7382   16.9239   17.5123   17.6417   17.9592
   18.8829   19.1395   19.3430   21.3995   24.0905   24.5623   29.9468   44.4021   50.2969   51.7067
   51.7268   51.7484   59.5146   64.2391
  13  1  -17.9333  -14.0055  -13.2578  -12.6524  -12.3834  -12.3351  -11.8852  -11.6428  -11.1101  -10.9163
         -10.2414   -9.4877   -8.9139   -8.8109   -5.8428   -2.3856    0.8070    1.4253    2.2548    3.9034
    4.1495    4.5850    4.8471    5.4171    8.2208    8.5400   11.2078   15.5874   18.4360   18.9963
   19.4586   19.5680   19.9630   20.5319   20.5769   20.7840   21.3469   25.4606   26.1123   31.6951
   33.0594   46.9904   55.5636   62.4216
  14  1  -18.1182  -14.5624  -13.4591  -12.8683  -12.1797  -11.3760  -10.9605  -10.4667   -9.4102   -9.1627
          -8.7391   -7.1280   -5.3725   -5.3367   -4.7223   -3.4089   -1.7559   -1.6828    0.4153    3.6772
    4.0230    4.0948    4.7618    5.1442    5.6474    6.5267    7.4332    9.8404   12.9432   15.9345
   18.2205   19.4520   21.0935   21.6520   23.0940   23.1764   24.2128   24.6431   26.0681   29.0661
   40.1019   53.4658   54.9773   57.2119
  15  1  -18.1182  -14.5624  -13.4591  -12.8683  -12.1797  -11.3760  -10.9605  -10.4667   -9.4102   -9.1627
          -8.7391   -7.1279   -5.3725   -5.3367   -4.7222   -3.4089   -1.7559   -1.6828    0.4153    3.6772
    4.0231    4.0948    4.7617    5.1442    5.6473    6.5266    7.4332    9.8404   12.9432   15.9345
   18.2205   19.4519   21.0934   21.6520   23.0940   23.1764   24.2128   24.6430   26.0681   29.0661
   40.1019   53.4658   54.9773   57.2119
  16  1  -17.9333  -14.0055  -13.2578  -12.6524  -12.3834  -12.3351  -11.8852  -11.6428  -11.1101  -10.9163
         -10.2414   -9.4876   -8.9140   -8.8109   -5.8428   -2.3855    0.8070    1.4254    2.2546    3.9034
    4.1495    4.5850    4.8471    5.4171    8.2208    8.5400   11.2077   15.5874   18.4360   18.9963
   19.4586   19.5680   19.9630   20.5319   20.5769   20.7840   21.3469   25.4606   26.1123   31.6951
   33.0594   46.9904   55.5636   62.4216
  17  1  -18.1182  -14.5624  -13.4591  -12.8683  -12.1797  -11.3760  -10.9605  -10.4667   -9.4102   -9.1627
          -8.7391   -7.1280   -5.3725   -5.3367   -4.7223   -3.4089   -1.7559   -1.6828    0.4153    3.6772
    4.0230    4.0948    4.7618    5.1442    5.6474    6.5267    7.4332    9.8404   12.9432   15.9345
   18.2205   19.4520   21.0935   21.6520   23.0940   23.1764   24.2128   24.6431   26.0681   29.0661
   40.1019   53.4658   54.9773   57.2119
  18  1  -18.2923  -14.8874  -13.6897  -13.2857  -12.4351  -10.8434   -8.8649   -8.8648   -8.4464   -5.1753
          -1.2912   -1.2912   -1.2232   -1.2232    0.4511    1.1884    1.1884    1.9067    1.9068    2.9324
    2.9324    4.7815    4.7817    8.2890    8.2891    9.5523   14.1374   14.1375   15.2224   15.2225
   20.8936   20.8937   22.1358   24.0143   24.1245   24.1245   24.7311   44.9161   44.9161   45.4344
   45.4344   46.9787   56.8459   87.1084
  19  1  -18.1182  -14.5624  -13.4591  -12.8683  -12.1797  -11.3760  -10.9605  -10.4667   -9.4102   -9.1627
          -8.7391   -7.1280   -5.3725   -5.3367   -4.7223   -3.4089   -1.7559   -1.6828    0.4153    3.6772
    4.0230    4.0948    4.7618    5.1442    5.6474    6.5267    7.4332    9.8404   12.9432   15.9345
   18.2205   19.4520   21.0935   21.6520   23.0940   23.1764   24.2128   24.6431   26.0681   29.0661
   40.1019   53.4658   54.9773   57.2119
  20  1  -17.9187  -13.6296  -13.5713  -13.1492  -12.8572  -11.8544  -11.2943  -10.8709  -10.1175   -9.4197
          -9.0514   -8.7415   -7.8705   -6.8943   -6.4753   -5.1807   -5.1508   -4.9307   -3.3319   -1.2880
   -0.8221    0.1386    3.5198    4.9926    6.4403    8.9406   11.8166   17.5017   17.5280   17.7773
   18.6611   18.9114   19.1676   19.3318   20.5881   24.6526   29.5694   37.7518   50.0660   50.2391
   53.5680   55.5659   56.6795   60.7718
  21  1  -18.1182  -14.5624  -13.4591  -12.8683  -12.1797  -11.3760  -10.9605  -10.4667   -9.4102   -9.1627
          -8.7391   -7.1279   -5.3725   -5.3367   -4.7222   -3.4089   -1.7559   -1.6828    0.4153    3.6772
    4.0231    4.0948    4.7617    5.1442    5.6473    6.5266    7.4332    9.8404   12.9432   15.9345
   18.2205   19.4519   21.0934   21.6520   23.0940   23.1764   24.2128   24.6430   26.0681   29.0661
   40.1019   53.4658   54.9773   57.2119
  22  1  -18.1182  -14.5624  -13.4591  -12.8683  -12.1797  -11.3760  -10.9605  -10.4667   -9.4102   -9.1627
          -8.7391   -7.1280   -5.3725   -5.3367   -4.7223   -3.4089   -1.7559   -1.6828    0.4153    3.6772
    4.0230    4.0948    4.7618    5.1442    5.6474    6.5267    7.4332    9.8404   12.9432   15.9345
   18.2205   19.4520   21.0935   21.6520   23.0940   23.1764   24.2128   24.6431   26.0681   29.0661
   40.1019   53.4658   54.9773   57.2119
  23  1  -17.9333  -14.0055  -13.2578  -12.6524  -12.3834  -12.3351  -11.8852  -11.6428  -11.1101  -10.9163
         -10.2414   -9.4877   -8.9139   -8.8109   -5.8428   -2.3856    0.8070    1.4253    2.2548    3.9034
    4.1495    4.5850    4.8471    5.4171    8.2208    8.5400   11.2078   15.5874   18.4360   18.9963
   19.4586   19.5680   19.9630   20.5319   20.5769   20.7840   21.3469   25.4606   26.1123   31.6951
   33.0594   46.9904   55.5636   62.4216
  24  1  -17.9333  -14.0055  -13.2578  -12.6524  -12.3834  -12.3351  -11.8852  -11.6428  -11.1101  -10.9163
         -10.2414   -9.4876   -8.9140   -8.8109   -5.8428   -2.3855    0.8070    1.4254    2.2546    3.9034
    4.1495    4.5850    4.8471    5.4171    8.2208    8.5400   11.2077   15.5874   18.4360   18.9963
   19.4586   19.5680   19.9630   20.5319   20.5769   20.7840   21.3469   25.4606   26.1123   31.6951
   33.0594   46.9904   55.5636   62.4216
  25  1  -17.9333  -14.0055  -13.2578  -12.6524  -12.3834  -12.3351  -11.8852  -11.6428  -11.1101  -10.9163
         -10.2414   -9.4876   -8.9140   -8.8109   -5.8428   -2.3855    0.8070    1.4254    2.2546    3.9034
    4.1495    4.5850    4.8471    5.4171    8.2208    8.5400   11.2077   15.5874   18.4360   18.9963
   19.4586   19.5680   19.9630   20.5319   20.5769   20.7840   21.3469   25.4606   26.1123   31.6951
   33.0594   46.9904   55.5636   62.4216
  26  1  -17.9187  -13.6296  -13.5713  -13.1492  -12.8572  -11.8544  -11.2943  -10.8709  -10.1175   -9.4197
          -9.0514   -8.7415   -7.8705   -6.8943   -6.4753   -5.1807   -5.1508   -4.9307   -3.3319   -1.2880
   -0.8221    0.1386    3.5198    4.9926    6.4403    8.9406   11.8166   17.5017   17.5280   17.7773
   18.6611   18.9114   19.1676   19.3318   20.5881   24.6526   29.5694   37.7518   50.0660   50.2391
   53.5680   55.5659   56.6795   60.7718
  27  1  -17.9333  -14.0055  -13.2578  -12.6524  -12.3834  -12.3351  -11.8852  -11.6428  -11.1101  -10.9163
         -10.2414   -9.4876   -8.9140   -8.8109   -5.8428   -2.3855    0.8070    1.4254    2.2546    3.9034
    4.1495    4.5850    4.8471    5.4171    8.2208    8.5400   11.2077   15.5874   18.4360   18.9963
   19.4586   19.5680   19.9630   20.5319   20.5769   20.7840   21.3469   25.4606   26.1123   31.6951
   33.0594   46.9904   55.5636   62.4216
  28  1  -17.9187  -13.6296  -13.5713  -13.1492  -12.8572  -11.8544  -11.2943  -10.8709  -10.1175   -9.4197
          -9.0514   -8.7415   -7.8705   -6.8943   -6.4753   -5.1806   -5.1508   -4.9306   -3.3319   -1.2880
   -0.8220    0.1386    3.5196    4.9926    6.4403    8.9406   11.8167   17.5017   17.5280   17.7773
   18.6611   18.9114   19.1676   19.3318   20.5881   24.6526   29.5694   37.7518   50.0660   50.2391
   53.5680   55.5659   56.6795   60.7717
  29  1  -17.8986  -13.9266  -13.2369  -12.6892  -12.3005  -12.2431  -11.7030  -11.6362  -10.8812  -10.4925
          -9.7393   -9.4130   -8.9392   -8.7018   -5.8129   -0.5774    0.8405    2.0837    2.4728    3.9227
    4.5291    5.1483    5.4403    5.6124    8.1150   14.3378   16.2701   17.7458   18.6094   18.6377
   18.9865   19.7554   19.7698   20.3406   20.5678   21.3311   21.5719   23.6856   26.2798   26.4651
   49.5751   50.6852   62.3893   83.0121
  30  1  -18.0861  -14.5982  -13.6647  -12.5238  -12.1888  -10.9482  -10.2991   -9.7674   -9.6989   -9.1565
          -8.6969   -6.8484   -5.3500   -4.8323   -4.1131   -3.0734   -2.1175   -0.1393    0.2793    4.1662
    4.2184    4.5177    5.2732    5.4465    6.7720    7.8316    9.0831   12.6017   13.0101   19.4099
   20.2282   20.9650   21.0621   21.6725   23.0475   23.1551   23.2047   24.2348   26.6413   42.2097
   53.1570   53.3555   54.3543   58.0088
  31  1  -18.0861  -14.5982  -13.6647  -12.5238  -12.1889  -10.9482  -10.2991   -9.7674   -9.6988   -9.1566
          -8.6968   -6.8484   -5.3500   -4.8323   -4.1130   -3.0735   -2.1175   -0.1392    0.2793    4.1662
    4.2186    4.5177    5.2732    5.4463    6.7720    7.8316    9.0831   12.6017   13.0101   19.4098
   20.2282   20.9650   21.0621   21.6725   23.0475   23.1551   23.2047   24.2348   26.6413   42.2097
   53.1569   53.3554   54.3543   58.0088
  32  1  -17.8986  -13.9266  -13.2369  -12.6892  -12.3005  -12.2431  -11.7030  -11.6362  -10.8812  -10.4925
          -9.7393   -9.4130   -8.9392   -8.7018   -5.8129   -0.5772    0.8405    2.0835    2.4729    3.9227
    4.5291    5.1484    5.4403    5.6123    8.1150   14.3378   16.2701   17.7458   18.6094   18.6377
   18.9864   19.7554   19.7698   20.3406   20.5678   21.3311   21.5719   23.6856   26.2798   26.4651
   49.5751   50.6853   62.3893   83.0121
  33  1  -18.0861  -14.5982  -13.6647  -12.5238  -12.1888  -10.9482  -10.2991   -9.7674   -9.6989   -9.1565
          -8.6969   -6.8484   -5.3500   -4.8323   -4.1131   -3.0734   -2.1175   -0.1393    0.2793    4.1662
    4.2184    4.5177    5.2732    5.4465    6.7720    7.8316    9.0831   12.6017   13.0101   19.4099
   20.2282   20.9650   21.0621   21.6725   23.0475   23.1551   23.2047   24.2348   26.6413   42.2097
   53.1570   53.3555   54.3543   58.0088
  34  1  -18.2572  -14.9500  -13.9280  -12.5562  -12.3976   -9.7381   -8.8570   -8.8569   -6.8392   -1.5588
          -1.5588   -1.4182   -1.4182    0.8172    1.5111    1.8342    1.8342    2.6797    2.6797    3.3021
    3.3021    5.3058    5.3062   10.4897   10.4897   19.8008   21.5377   21.5377   21.9248   22.9139
   22.9139   23.3403   23.3403   23.7488   23.7488   24.0722   24.0722   24.2137   24.7915   24.7915
   25.0068   46.3471   72.2158   72.8780
  35  1  -18.0861  -14.5982  -13.6647  -12.5238  -12.1888  -10.9482  -10.2991   -9.7674   -9.6989   -9.1565
          -8.6969   -6.8484   -5.3500   -4.8323   -4.1131   -3.0734   -2.1175   -0.1393    0.2793    4.1662
    4.2184    4.5177    5.2732    5.4465    6.7720    7.8316    9.0831   12.6017   13.0101   19.4099
   20.2282   20.9650   21.0621   21.6725   23.0475   23.1551   23.2047   24.2348   26.6413   42.2097
   53.1570   53.3555   54.3543   58.0088
  36  1  -17.8609  -13.5737  -13.5059  -13.1980  -12.8613  -11.8073  -11.1067  -10.7896   -9.9038   -9.4029
          -7.9511   -7.8586   -7.6261   -7.3976   -6.8241   -6.4835   -5.8002   -4.3937   -4.2433   -0.6741
   -0.3630    3.6554    4.4170    6.8736   10.8206   11.2098   16.7970   17.4912   17.7841   18.9416
   19.2334   19.3188   19.8714   20.7029   27.3855   28.4555   51.4582   51.9646   52.0287   55.1997
   56.3153   57.8606   76.8661   83.5125
  37  1  -18.0861  -14.5982  -13.6647  -12.5238  -12.1889  -10.9482  -10.2991   -9.7674   -9.6988   -9.1566
          -8.6968   -6.8484   -5.3500   -4.8323   -4.1130   -3.0735   -2.1175   -0.1392    0.2793    4.1662
    4.2186    4.5177    5.2732    5.4463    6.7720    7.8316    9.0831   12.6017   13.0101   19.4098
   20.2282   20.9650   21.0621   21.6725   23.0475   23.1551   23.2047   24.2348   26.6413   42.2097
   53.1569   53.3554   54.3543   58.0088
  38  1  -18.0861  -14.5982  -13.6647  -12.5238  -12.1888  -10.9482  -10.2991   -9.7674   -9.6989   -9.1565
          -8.6969   -6.8484   -5.3500   -4.8323   -4.1131   -3.0734   -2.1175   -0.1393    0.2793    4.1662
    4.2184    4.5177    5.2732    5.4465    6.7720    7.8316    9.0831   12.6017   13.0101   19.4099
   20.2282   20.9650   21.0621   21.6725   23.0475   23.1551   23.2047   24.2348   26.6413   42.2097
   53.1570   53.3555   54.3543   58.0088
  39  1  -17.8986  -13.9266  -13.2369  -12.6892  -12.3005  -12.2431  -11.7030  -11.6362  -10.8812  -10.4925
          -9.7393   -9.4130   -8.9392   -8.7018   -5.8129   -0.5774    0.8405    2.0837    2.4728    3.9227
    4.5291    5.1483    5.4403    5.6124    8.1150   14.3378   16.2701   17.7458   18.6094   18.6377
   18.9865   19.7554   19.7698   20.3406   20.5678   21.3311   21.5719   23.6856   26.2798   26.4651
   49.5751   50.6852   62.3893   83.0121
  40  1  -17.8986  -13.9266  -13.2369  -12.6892  -12.3005  -12.2431  -11.7030  -11.6362  -10.8812  -10.4925
          -9.7393   -9.4130   -8.9392   -8.7018   -5.8129   -0.5772    0.8405    2.0835    2.4729    3.9227
    4.5291    5.1484    5.4403    5.6123    8.1150   14.3378   16.2701   17.7458   18.6094   18.6377
   18.9864   19.7554   19.7698   20.3406   20.5678   21.3311   21.5719   23.6856   26.2798   26.4651
   49.5751   50.6853   62.3893   83.0121
  41  1  -17.8986  -13.9266  -13.2369  -12.6892  -12.3005  -12.2431  -11.7030  -11.6362  -10.8812  -10.4925
          -9.7393   -9.4130   -8.9392   -8.7018   -5.8129   -0.5772    0.8405    2.0835    2.4729    3.9227
    4.5291    5.1484    5.4403    5.6123    8.1150   14.3378   16.2701   17.7458   18.6094   18.6377
   18.9864   19.7554   19.7698   20.3406   20.5678   21.3311   21.5719   23.6856   26.2798   26.4651
   49.5751   50.6853   62.3893   83.0121
  42  1  -17.8609  -13.5737  -13.5059  -13.1980  -12.8613  -11.8073  -11.1067  -10.7896   -9.9038   -9.4029
          -7.9511   -7.8586   -7.6261   -7.3976   -6.8241   -6.4835   -5.8002   -4.3937   -4.2433   -0.6741
   -0.3630    3.6554    4.4170    6.8736   10.8206   11.2098   16.7970   17.4912   17.7841   18.9416
   19.2334   19.3188   19.8714   20.7029   27.3855   28.4555   51.4582   51.9646   52.0287   55.1997
   56.3153   57.8606   76.8661   83.5125
  43  1  -17.8986  -13.9266  -13.2369  -12.6892  -12.3005  -12.2431  -11.7030  -11.6362  -10.8812  -10.4925
          -9.7393   -9.4130   -8.9392   -8.7018   -5.8129   -0.5772    0.8405    2.0835    2.4729    3.9227
    4.5291    5.1484    5.4403    5.6123    8.1150   14.3378   16.2701   17.7458   18.6094   18.6377
   18.9864   19.7554   19.7698   20.3406   20.5678   21.3311   21.5719   23.6856   26.2798   26.4651
   49.5751   50.6853   62.3893   83.0121
  44  1  -17.8609  -13.5737  -13.5059  -13.1980  -12.8613  -11.8073  -11.1066  -10.7896   -9.9038   -9.4030
          -7.9511   -7.8586   -7.6261   -7.3976   -6.8240   -6.4835   -5.8002   -4.3937   -4.2432   -0.6741
   -0.3626    3.6554    4.4167    6.8736   10.8206   11.2098   16.7970   17.4912   17.7841   18.9416
   19.2334   19.3188   19.8714   20.7030   27.3855   28.4555   51.4582   51.9646   52.0288   55.1997
   56.3152   57.8606   76.8660   83.5125
siesta: Fermi energy =      -8.881778 eV

siesta: Program's energy decomposition (eV):
siesta: Ebs     =      -268.367619
siesta: Eions   =       439.895300
siesta: Ena     =       145.271511
siesta: Ekin    =       190.592145
siesta: Enl     =        70.923368
siesta: Eso     =         0.000000
siesta: Edftu   =         0.000000
siesta: DEna    =        11.596494
siesta: DUscf   =         1.144659
siesta: DUext   =         0.000000
siesta: Exc     =      -205.490904
siesta: eta*DQ  =         0.000000
siesta: Emadel  =         0.000000
siesta: Emeta   =         0.000000
siesta: Emolmec =        -8.022198
siesta: Ekinion =         0.000000
siesta: Eharris =      -233.880218
siesta: Etot    =      -233.880225
siesta: FreeEng =      -233.898978

siesta: Final energy (eV):
siesta:  Band Struct. =    -268.367619
siesta:       Kinetic =     190.592145
siesta:       Hartree =     109.499226
siesta:       Edftu   =       0.000000
siesta:       Eso     =       0.000000
siesta:    Ext. field =       0.000000
siesta:   Exch.-corr. =    -205.490904
siesta:  Ion-electron =    -471.315167
siesta:       Ion-ion =     150.856672
siesta:       Ekinion =       0.000000
siesta:         Total =    -233.880225
siesta:         Fermi =      -8.881778

siesta: Atomic forces (eV/Ang):
siesta:      1    0.000000   -0.000000    0.000004
siesta:      2    0.125656   -0.217624   -1.264891
siesta:      3   -0.125656    0.217624    1.264891
siesta:      4    0.125621    0.217582   -1.264962
siesta:      5   -0.125622   -0.217583    1.264962
siesta:      6   -0.251296    0.000009   -1.264891
siesta:      7    0.251296   -0.000009    1.264891
siesta:      8   -0.125656    0.217624   -1.264891
siesta:      9    0.125656   -0.217624    1.264891
siesta:     10   -0.125621   -0.217582   -1.264962
siesta:     11    0.125622    0.217583    1.264962
siesta:     12    0.251296   -0.000009   -1.264891
siesta:     13   -0.251296    0.000009    1.264891
siesta:     14   -0.384142    0.665309   -0.000001
siesta:     15    0.384142   -0.665310   -0.000001
siesta:     16   -0.384149   -0.665365   -0.000001
siesta:     17    0.384149    0.665365   -0.000001
siesta:     18    0.768246   -0.000022   -0.000001
siesta:     19   -0.768246    0.000022   -0.000001
siesta: ----------------------------------------
siesta:    Tot    0.000000   -0.000000    0.000000

siesta: Stress tensor (static) (eV/Ang**3):
siesta:    -0.770392   -0.000006   -0.000000
siesta:    -0.000006   -0.770398    0.000000
siesta:    -0.000000    0.000000    0.309400

siesta: Cell volume =        196.978550 Ang**3

siesta: Pressure (static):
siesta:                Solid            Molecule  Units
siesta:           0.00447047          0.00335401  Ry/Bohr**3
siesta:           0.41046332          0.30795355  eV/Ang**3
siesta:         657.64185358        493.40130847  kBar
(Free)E+ p_basis*V_orbitals  =        -201.293168
(Free)Eharris+ p_basis*V_orbitals  =        -201.293161

cite: Please see "LiC18_scf.bib" for an exhaustive BiBTeX file.
cite: Please clearly indicate Siesta version in published work: 4.1.5
cite: This calculation has made use of the following articles
cite: which are encouraged to be cited in a published work.
        Primary SIESTA paper
          DOI: www.doi.org/10.1088/0953-8984/14/11/302

>> End of run:   9-NOV-2022   8:48:44
Job completed
