Siesta Version  : 4.1.5
Architecture    : x86_64-unknown-linux-gnu--unknown
Compiler version: GNU Fortran (GCC) 11.3.0
Compiler flags  : mpif90 -g -O2 -fallow-argument-mismatch
PP flags        : -DMPI -DFC_HAVE_FLUSH -DFC_HAVE_ABORT
Libraries       :  -I/global/software/sl-7.x86_64/modules/intel/2020.4.304/mkl/include  /globall/software/sl-7.x86_64/modules/intel/2020.4.304/mkl/lib/intel64/libmkl_scalapack_lp64.a -Wl,--start-group /global/software/sl-7.x86_64/modules/intel/2020.4.304/mkl/lib/intel64/libmkl_intel_lp64.a /global/software/sl-7.x86_64/modules/intel/2020.4.304/mkl/lib/intel64/libmkl_sequential.a /global/software/sl-7.x86_64/modules/intel/2020.4.304/mkl/lib/intel64/libmkl_core.a /global/software/sl-7.x86_64/modules/intel/2020.4.304/mkl/lib/intel64/libmkl_blacs_openmpi_lp64.a -Wl,--end-group -lpthread -lm -ldl
PARALLEL version

* Running on 16 nodes in parallel
>> Start of run:   9-NOV-2022   8:51:53

                           ***********************       
                           *  WELCOME TO SIESTA  *       
                           ***********************       

reinit: Reading from standard input
reinit: Dumped input in INPUT_TMP.88701
************************** Dump of input data file ****************************
SystemName LiC18_scf
SystemLabel LiC18_scf
NumberOfAtoms   19
NumberOfSpecies 2
%block ChemicalSpeciesLabel
1  3   Li-gga
2  6   C-gga
%endblock ChemicalSpeciesLabel
PAO.BasisSize  DZ
PAO.EnergyShift  10 meV
%block PS.Lmax
C-gga   2
Li-gga  2
%endblock PS.Lmax
LatticeConstant 1.000000 Ang
%block LatticeVectors
	4.3161300000	0.0000000000	0.0000000000
	-2.1580650000	3.7378782260	0.0000000000
	0.0000000000	0.0000000000	15.7614050200
%endblock LatticeVectors
AtomicCoordinatesFormat Ang
%block AtomicCoordinatesAndAtomicSpecies
	0.00000000	0.00000000	0.00000000	2
	-0.70288177	1.21742694	2.62690609	1
	-1.45518323	2.52045129	13.13449893	1
	1.45518323	2.52045129	2.62690609	1
	0.70288177	1.21742694	13.13449893	1
	1.40576354	0.00000000	2.62690609	1
	2.91036646	0.00000000	13.13449893	1
	-1.45518323	2.52045129	2.62690609	1
	-0.70288177	1.21742694	13.13449893	1
	0.70288177	1.21742694	2.62690609	1
	1.45518323	2.52045129	13.13449893	1
	2.91036646	0.00000000	2.62690609	1
	1.40576354	0.00000000	13.13449893	1
	-0.70288177	1.21742694	7.88070251	1
	-1.45518323	2.52045129	7.88070251	1
	1.45518323	2.52045129	7.88070251	1
	0.70288177	1.21742694	7.88070251	1
	1.40576354	0.00000000	7.88070251	1
	2.91036646	0.00000000	7.88070251	1
%endblock AtomicCoordinatesAndAtomicSpecies
Kgrid_NoTRS  T
%block kgrid_MonkhorstPack
4       0       0       0.0
0       4       0       0.0
0       0       4       0.0
%endblock kgrid_MonkhorstPack
AtomCoorFormatOut Ang
BlockSize 1
#ProcessorY 12
Diag.ParallelOverK   T
Diag.DivideAndConquer F
MeshCutoff   300 Ry
SCF.FreeE.Tolerance 1E-3 eV
SCF.EDM.Tolerance   5E-3 eV
DM.Tolerance  1E-3
DM.Require.Energy.Convergence T
DM.NumberPulay 4
XC.Functional GGA
XC.Authors    PBE
UseSaveData        F
MD.TypeOfRun       CG
MD.VariableCell    F
MD.NumCGsteps      00
MD.MaxCGDispl      0.200000 Bohr
MD.MaxStressTol    1.000000 GPa
MD.MaxForceTol     0.010000 eV/Ang
WriteMDHistory T
WriteCoorStep T
WriteForces T
WriteCoorStep    T
WriteEigenValues T
WriteDM    F
MM.UnitsDistance Ang  # what this program prints out DO NOT CHANGE
MM.UnitsEnergy    eV  # what this program prints out DO NOT CHANGE
MM.Grimme.S6     0.75 # Grimme-paper for PBE (correct for your functional)
MM.Grimme.D     20.   # Grimme-paper (correct for your functional)
%block MM.Potentials
  1   1 Grimme     16.69      1.650 # Li, 10.1002/jcc.20495
  1   2 Grimme     17.40      2.277 # Li / C
  2   2 Grimme     18.14      2.904 # C, 10.1002/jcc.20495
%endblock MM.Potentials
#%block ProjectedDensityOfStates
# -200.0  120.0  0.4  12800  eV
#%endblock ProjectedDensityOfStates
************************** End of input data file *****************************

reinit: -----------------------------------------------------------------------
reinit: System Name: LiC18_scf
reinit: -----------------------------------------------------------------------
reinit: System Label: LiC18_scf
reinit: -----------------------------------------------------------------------
Reading two-body potentials
Grimme - two-body potential between 1 and 1
Grimme - two-body potential between 1 and 2
Grimme - two-body potential between 2 and 2

initatom: Reading input for the pseudopotentials and atomic orbitals ----------
Species number:   1 Atomic number:    3 Label: Li-gga
Species number:   2 Atomic number:    6 Label: C-gga

Ground state valence configuration:   2s01
Reading pseudopotential information in formatted form from Li-gga.psf

Valence configuration for pseudopotential generation:
2s( 1.00) rc: 2.28
2p( 0.00) rc: 2.28
3d( 0.00) rc: 2.59
4f( 0.00) rc: 2.59
Ground state valence configuration:   2s02  2p02
Reading pseudopotential information in formatted form from C-gga.psf

Valence configuration for pseudopotential generation:
2s( 2.00) rc: 1.56
2p( 2.00) rc: 1.56
3d( 0.00) rc: 1.56
4f( 0.00) rc: 1.56
relmxkb: Read Max KB Ang. Momentum=    2 for species C-gga
relmxkb: Read Max KB Ang. Momentum=    2 for species Li-gga

<basis_specs>
===============================================================================
Li-gga               Z=   3    Mass=  6.9400        Charge= 0.17977+309
Lmxo=0 Lmxkb= 2    BasisType=split      Semic=F
L=0  Nsemic=0  Cnfigmx=2
          i=1  nzeta=2  polorb=0  (2s)
            splnorm:   0.15000    
               vcte:    0.0000    
               rinn:    0.0000    
               qcoe:    0.0000    
               qyuk:    0.0000    
               qwid:   0.10000E-01
                rcs:    0.0000      0.0000    
            lambdas:    1.0000      1.0000    
-------------------------------------------------------------------------------
L=0  Nkbl=1  erefs: 0.17977+309
L=1  Nkbl=1  erefs: 0.17977+309
L=2  Nkbl=1  erefs: 0.17977+309
===============================================================================
</basis_specs>

atom: Called for Li-gga                (Z =   3)

read_vps: Pseudopotential generation method:
read_vps: ATM 3.2.2 Troullier-Martins                       
Valence charge for ps generation:    1.00000

read_vps: Pseudopotential includes a core correction:
read_vps: Pseudo-core for xc-correction

xc_check: Exchange-correlation functional:
xc_check: GGA Perdew, Burke & Ernzerhof 1996
V l=0 = -2*Zval/r beyond r=  2.2278
V l=1 = -2*Zval/r beyond r=  2.2278
V l=2 = -2*Zval/r beyond r=  2.5245
All V_l potentials equal beyond r=  2.4622
This should be close to max(r_c) in ps generation
All pots = -2*Zval/r beyond r=  2.5245

VLOCAL1: 99.0% of the norm of Vloc inside      7.160 Ry
VLOCAL1: 99.9% of the norm of Vloc inside     16.318 Ry
atom: Maximum radius for 4*pi*r*r*local-pseudopot. charge    2.86079
atom: Maximum radius for r*vlocal+2*Zval:    2.43160
GHOST: No ghost state for L =  0
GHOST: No ghost state for L =  1
GHOST: No ghost state for L =  2

KBgen: Kleinman-Bylander projectors: 
   l= 0   rc=  2.654023   el= -0.211234   Ekb=  1.742119   kbcos=  0.228463
   l= 1   rc=  2.721230   el= -0.080095   Ekb= -1.122375   kbcos= -0.147941
   l= 2   rc=  2.825246   el=  0.002001   Ekb= -0.207076   kbcos= -0.031965

KBgen: Total number of Kleinman-Bylander projectors:    9
atom: -------------------------------------------------------------------------

atom: SANKEY-TYPE ORBITALS:
atom: Selected multiple-zeta basis: split     

SPLIT: Orbitals with angular momentum L= 0

SPLIT: Basis orbitals for state 2s

SPLIT: PAO cut-off radius determined from an
SPLIT: energy shift=  0.000735 Ry

   izeta = 1
                 lambda =    1.000000
                     rc =   11.897381
                 energy =   -0.210580
                kinetic =    0.143382
    potential(screened) =   -0.353962
       potential(ionic) =   -0.533453

   izeta = 2
                 rmatch =    8.489163
              splitnorm =    0.150000
                 energy =   -0.186081
                kinetic =    0.225882
    potential(screened) =   -0.411964
       potential(ionic) =   -0.593024
atom: Total number of Sankey-type orbitals:  2

atm_pop: Valence configuration (for local Pseudopot. screening):
 2s( 1.00)                                                            
Vna: chval, zval:    1.00000   1.00000

Vna:  Cut-off radius for the neutral-atom potential:  11.897381
comcore: Pseudo-core radius Rcore=  3.450946

atom: _________________________________________________________________________

<basis_specs>
===============================================================================
C-gga                Z=   6    Mass=  12.010        Charge= 0.17977+309
Lmxo=1 Lmxkb= 2    BasisType=split      Semic=F
L=0  Nsemic=0  Cnfigmx=2
          i=1  nzeta=2  polorb=0  (2s)
            splnorm:   0.15000    
               vcte:    0.0000    
               rinn:    0.0000    
               qcoe:    0.0000    
               qyuk:    0.0000    
               qwid:   0.10000E-01
                rcs:    0.0000      0.0000    
            lambdas:    1.0000      1.0000    
L=1  Nsemic=0  Cnfigmx=2
          i=1  nzeta=2  polorb=0  (2p)
            splnorm:   0.15000    
               vcte:    0.0000    
               rinn:    0.0000    
               qcoe:    0.0000    
               qyuk:    0.0000    
               qwid:   0.10000E-01
                rcs:    0.0000      0.0000    
            lambdas:    1.0000      1.0000    
-------------------------------------------------------------------------------
L=0  Nkbl=1  erefs: 0.17977+309
L=1  Nkbl=1  erefs: 0.17977+309
L=2  Nkbl=1  erefs: 0.17977+309
===============================================================================
</basis_specs>

atom: Called for C-gga                 (Z =   6)

read_vps: Pseudopotential generation method:
read_vps: ATM 3.2.2 Troullier-Martins                       
Valence charge for ps generation:    4.00000

xc_check: Exchange-correlation functional:
xc_check: GGA Perdew, Burke & Ernzerhof 1996
V l=0 = -2*Zval/r beyond r=  1.5227
V l=1 = -2*Zval/r beyond r=  1.5227
V l=2 = -2*Zval/r beyond r=  1.5227
All V_l potentials equal beyond r=  1.4851
This should be close to max(r_c) in ps generation
All pots = -2*Zval/r beyond r=  1.5227

VLOCAL1: 99.0% of the norm of Vloc inside     19.682 Ry
VLOCAL1: 99.9% of the norm of Vloc inside     44.856 Ry
atom: Maximum radius for 4*pi*r*r*local-pseudopot. charge    1.79142
atom: Maximum radius for r*vlocal+2*Zval:    1.54183
GHOST: No ghost state for L =  0
GHOST: No ghost state for L =  1
GHOST: No ghost state for L =  2

KBgen: Kleinman-Bylander projectors: 
   l= 0   rc=  1.661951   el= -1.010689   Ekb=  5.289847   kbcos=  0.316429
   l= 1   rc=  1.661951   el= -0.388490   Ekb= -4.102504   kbcos= -0.351025
   l= 2   rc=  1.747182   el=  0.001971   Ekb= -1.006005   kbcos= -0.008530

KBgen: Total number of Kleinman-Bylander projectors:    9
atom: -------------------------------------------------------------------------

atom: SANKEY-TYPE ORBITALS:
atom: Selected multiple-zeta basis: split     

SPLIT: Orbitals with angular momentum L= 0

SPLIT: Basis orbitals for state 2s

SPLIT: PAO cut-off radius determined from an
SPLIT: energy shift=  0.000735 Ry

   izeta = 1
                 lambda =    1.000000
                     rc =    5.948690
                 energy =   -1.010099
                kinetic =    0.827121
    potential(screened) =   -1.837220
       potential(ionic) =   -5.392783

   izeta = 2
                 rmatch =    3.518811
              splitnorm =    0.150000
                 energy =   -0.877891
                kinetic =    1.289227
    potential(screened) =   -2.167118
       potential(ionic) =   -5.982073

SPLIT: Orbitals with angular momentum L= 1

SPLIT: Basis orbitals for state 2p

SPLIT: PAO cut-off radius determined from an
SPLIT: energy shift=  0.000735 Ry

   izeta = 1
                 lambda =    1.000000
                     rc =    7.638387
                 energy =   -0.387843
                kinetic =    2.314739
    potential(screened) =   -2.702582
       potential(ionic) =   -6.092371

   izeta = 2
                 rmatch =    3.840617
              splitnorm =    0.150000
                 energy =   -0.270479
                kinetic =    3.438347
    potential(screened) =   -3.708826
       potential(ionic) =   -7.497707
atom: Total number of Sankey-type orbitals:  8

atm_pop: Valence configuration (for local Pseudopot. screening):
 2s( 2.00)                                                            
 2p( 2.00)                                                            
Vna: chval, zval:    4.00000   4.00000

Vna:  Cut-off radius for the neutral-atom potential:   7.638387

atom: _________________________________________________________________________

prinput: Basis input ----------------------------------------------------------

PAO.BasisType split     

%block ChemicalSpeciesLabel
    1    3 Li-gga                  # Species index, atomic number, species label
    2    6 C-gga                   # Species index, atomic number, species label
%endblock ChemicalSpeciesLabel

%block PAO.Basis                 # Define Basis set
Li-gga                1                    # Species label, number of l-shells
 n=2   0   2                         # n, l, Nzeta 
  11.897      8.489   
   1.000      1.000   
C-gga                 2                    # Species label, number of l-shells
 n=2   0   2                         # n, l, Nzeta 
   5.949      3.519   
   1.000      1.000   
 n=2   1   2                         # n, l, Nzeta 
   7.638      3.841   
   1.000      1.000   
%endblock PAO.Basis

prinput: ----------------------------------------------------------------------

coor:   Atomic-coordinates input format  =     Cartesian coordinates
coor:                                          (in Angstroms)

siesta: Atomic coordinates (Bohr) and species
siesta:      0.00000   0.00000   0.00000  2        1
siesta:     -1.32825   2.30060   4.96414  1        2
siesta:     -2.74990   4.76296  24.82062  1        3
siesta:      2.74990   4.76296   4.96414  1        4
siesta:      1.32825   2.30060  24.82062  1        5
siesta:      2.65651   0.00000   4.96414  1        6
siesta:      5.49980   0.00000  24.82062  1        7
siesta:     -2.74990   4.76296   4.96414  1        8
siesta:     -1.32825   2.30060  24.82062  1        9
siesta:      1.32825   2.30060   4.96414  1       10
siesta:      2.74990   4.76296  24.82062  1       11
siesta:      5.49980   0.00000   4.96414  1       12
siesta:      2.65651   0.00000  24.82062  1       13
siesta:     -1.32825   2.30060  14.89238  1       14
siesta:     -2.74990   4.76296  14.89238  1       15
siesta:      2.74990   4.76296  14.89238  1       16
siesta:      1.32825   2.30060  14.89238  1       17
siesta:      2.65651   0.00000  14.89238  1       18
siesta:      5.49980   0.00000  14.89238  1       19

siesta: System type = bulk      

initatomlists: Number of atoms, orbitals, and projectors:     19    44   171

siesta: ******************** Simulation parameters ****************************
siesta:
siesta: The following are some of the parameters of the simulation.
siesta: A complete list of the parameters used, including default values,
siesta: can be found in file out.fdf
siesta:
redata: Spin configuration                          = none
redata: Number of spin components                   = 1
redata: Time-Reversal Symmetry                      = T
redata: Spin spiral                                 = F
redata: Long output                                 =   F
redata: Number of Atomic Species                    =        2
redata: Charge density info will appear in .RHO file
redata: Write Mulliken Pop.                         = NO
redata: Matel table size (NRTAB)                    =     1024
redata: Mesh Cutoff                                 =   300.0000 Ry
redata: Net charge of the system                    =     0.0000 |e|
redata: Min. number of SCF Iter                     =        0
redata: Max. number of SCF Iter                     =     1000
redata: SCF convergence failure will abort job
redata: SCF mix quantity                            = Hamiltonian
redata: Mix DM or H after convergence               =   F
redata: Recompute H after scf cycle                 =   F
redata: Mix DM in first SCF step                    =   T
redata: Write Pulay info on disk                    =   F
redata: New DM Occupancy tolerance                  = 0.000000000001
redata: No kicks to SCF
redata: DM Mixing Weight for Kicks                  =     0.5000
redata: Require Harris convergence for SCF          =   F
redata: Harris energy tolerance for SCF             =     0.000100 eV
redata: Require DM convergence for SCF              =   T
redata: DM tolerance for SCF                        =     0.001000
redata: Require EDM convergence for SCF             =   F
redata: EDM tolerance for SCF                       =     0.005000 eV
redata: Require H convergence for SCF               =   T
redata: Hamiltonian tolerance for SCF               =     0.001000 eV
redata: Require (free) Energy convergence for SCF   =   T
redata: (free) Energy tolerance for SCF             =     0.001000 eV
redata: Using Saved Data (generic)                  =   F
redata: Use continuation files for DM               =   F
redata: Neglect nonoverlap interactions             =   F
redata: Method of Calculation                       = Diagonalization
redata: Electronic Temperature                      =   299.9869 K
redata: Fix the spin of the system                  =   F
redata: Dynamics option                             = Single-point calculation
mix.SCF: Pulay mixing                            = Pulay
mix.SCF:    Variant                              = stable
mix.SCF:    History steps                        = 4
mix.SCF:    Linear mixing weight                 =     0.250000
mix.SCF:    Mixing weight                        =     0.250000
mix.SCF:    SVD condition                        = 0.1000E-07
redata: ***********************************************************************

%block SCF.Mixers
  Pulay
%endblock SCF.Mixers

%block SCF.Mixer.Pulay
  # Mixing method
  method pulay
  variant stable

  # Mixing options
  weight 0.2500
  weight.linear 0.2500
  history 4
%endblock SCF.Mixer.Pulay

DM_history_depth set to one: no extrapolation allowed by default for geometry relaxation
Size of DM history Fstack: 1
Total number of electrons:    22.000000
Total ionic charge:    22.000000

* ProcessorY, Blocksize:    4   1


* Orbital distribution balance (max,min):     3     2

k-point displ. along   1 input, could be:     0.00    0.50
k-point displ. along   2 input, could be:     0.00    0.50
k-point displ. along   3 input, could be:     0.00    0.50
 Kpoints in:           48 . Kpoints trimmed:           44

siesta: k-grid: Number of k-points =    44
siesta: k-grid: Cutoff (effective) =     8.632 Ang
siesta: k-grid: Supercell and displacements
siesta: k-grid:    4   0   0      0.000
siesta: k-grid:    0   4   0      0.000
siesta: k-grid:    0   0   4      0.000

diag: Algorithm                                     = Expert
diag: Parallel over k                               =   T
diag: Use parallel 2D distribution                  =   T
diag: Parallel block-size                           = 1
diag: Parallel distribution                         =     4 x     4
diag: Used triangular part                          = Lower
diag: Absolute tolerance                            =  0.100E-15
diag: Orthogonalization factor                      =  0.100E-05
diag: Memory factor                                 =  1.0000

superc: Internal auxiliary supercell:     9 x     9 x     3  =     243
superc: Number of atoms, orbitals, and projectors:   4617  10692  41553


ts: **************************************************************
ts: Save H and S matrices                           =    F
ts: Save DM and EDM matrices                        =    F
ts: Only save the overlap matrix S                  =    F
ts: **************************************************************

************************ Begin: TS CHECKS AND WARNINGS ************************
************************ End: TS CHECKS AND WARNINGS **************************


                     ====================================
                        Single-point calculation
                     ====================================

outcoor: Atomic coordinates (Ang):                          
    0.00000000    0.00000000    0.00000000   2       1  C-gga
   -0.70288177    1.21742694    2.62690609   1       2  Li-gga
   -1.45518323    2.52045129   13.13449893   1       3  Li-gga
    1.45518323    2.52045129    2.62690609   1       4  Li-gga
    0.70288177    1.21742694   13.13449893   1       5  Li-gga
    1.40576354    0.00000000    2.62690609   1       6  Li-gga
    2.91036646    0.00000000   13.13449893   1       7  Li-gga
   -1.45518323    2.52045129    2.62690609   1       8  Li-gga
   -0.70288177    1.21742694   13.13449893   1       9  Li-gga
    0.70288177    1.21742694    2.62690609   1      10  Li-gga
    1.45518323    2.52045129   13.13449893   1      11  Li-gga
    2.91036646    0.00000000    2.62690609   1      12  Li-gga
    1.40576354    0.00000000   13.13449893   1      13  Li-gga
   -0.70288177    1.21742694    7.88070251   1      14  Li-gga
   -1.45518323    2.52045129    7.88070251   1      15  Li-gga
    1.45518323    2.52045129    7.88070251   1      16  Li-gga
    0.70288177    1.21742694    7.88070251   1      17  Li-gga
    1.40576354    0.00000000    7.88070251   1      18  Li-gga
    2.91036646    0.00000000    7.88070251   1      19  Li-gga

superc: Internal auxiliary supercell:     9 x     9 x     3  =     243
superc: Number of atoms, orbitals, and projectors:   4617  10692  41553

outcell: Unit cell vectors (Ang):
        4.316130    0.000000    0.000000
       -2.158065    3.737878    0.000000
        0.000000    0.000000   15.761405

outcell: Cell vector modules (Ang)   :    4.316130    4.316130   15.761405
outcell: Cell angles (23,13,12) (deg):     90.0000     90.0000    120.0000
outcell: Cell volume (Ang**3)        :    254.2814
<dSpData1D:S at geom step 0
  <sparsity:sparsity for geom step 0
    nrows_g=44 nrows=3 sparsity=2.2924 nnzs=4438, refcount: 7>
  <dData1D:(new from dSpData1D) n=4438, refcount: 1>
refcount: 1>
new_DM -- step:     1
Initializing Density Matrix...
DM filled with atomic data:
<dSpData2D:DM initialized from atoms
  <sparsity:sparsity for geom step 0
    nrows_g=44 nrows=3 sparsity=2.2924 nnzs=4438, refcount: 8>
  <dData2D:DM n=4438 m=1, refcount: 1>
refcount: 1>
No. of atoms with KB's overlaping orbs in proc 0. Max # of overlaps:     233     233
New grid distribution:   1
           1       1:   20    1:    5    1:   23
           2       1:   20    1:    5   24:   46
           3       1:   20    1:    5   47:   68
           4       1:   20    1:    5   69:   90
           5       1:   20    6:   10    1:   23
           6       1:   20    6:   10   24:   46
           7       1:   20    6:   10   47:   68
           8       1:   20    6:   10   69:   90
           9       1:   20   11:   15    1:   23
          10       1:   20   11:   15   24:   46
          11       1:   20   11:   15   47:   68
          12       1:   20   11:   15   69:   90
          13       1:   20   16:   20    1:   23
          14       1:   20   16:   20   24:   46
          15       1:   20   16:   20   47:   68
          16       1:   20   16:   20   69:   90

InitMesh: MESH =    40 x    40 x   180 =      288000
InitMesh: (bp) =    20 x    20 x    90 =       36000
InitMesh: Mesh cutoff (required, used) =   300.000   316.498 Ry
ExtMesh (bp) on 0 =   156 x   141 x   167 =     3673332
New grid distribution:   2
           1       1:   20    1:   10   10:   21
           2       1:   20    1:   10   33:   45
           3       1:   20    1:   10   59:   69
           4       1:   20    1:   10   82:   90
           5       1:   20    1:   10    1:    9
           6       1:   20    1:   10   22:   32
           7       1:   20    1:   10   46:   58
           8       1:   20    1:   10   70:   81
           9       1:   20   11:   20   10:   21
          10       1:   20   11:   20   33:   45
          11       1:   20   11:   20   59:   69
          12       1:   20   11:   20   82:   90
          13       1:   20   11:   20    1:    9
          14       1:   20   11:   20   22:   32
          15       1:   20   11:   20   46:   58
          16       1:   20   11:   20   70:   81
New grid distribution:   3
           1       1:   20    1:   10   13:   23
           2       1:   20    1:   10   24:   34
           3       1:   20    1:   10   46:   57
           4       1:   20    1:   10   80:   90
           5       1:   20    1:   10    1:   12
           6       1:   20    1:   10   35:   45
           7       1:   20    1:   10   58:   68
           8       1:   20    1:   10   69:   79
           9       1:   20   11:   20   13:   23
          10       1:   20   11:   20   35:   45
          11       1:   20   11:   20   46:   57
          12       1:   20   11:   20   80:   90
          13       1:   20   11:   20    1:   12
          14       1:   20   11:   20   24:   34
          15       1:   20   11:   20   58:   68
          16       1:   20   11:   20   69:   79
Setting up quadratic distribution...
ExtMesh (bp) on 0 =   156 x   146 x   156 =     3553056
PhiOnMesh: Number of (b)points on node 0 =                 2400
PhiOnMesh: nlist on node 0 =               257941

stepf: Fermi-Dirac step function

siesta: Program's energy decomposition (eV):
siesta: Ebs     =         5.684254
siesta: Eions   =       439.895300
siesta: Ena     =       155.578369
siesta: Ekin    =       227.427447
siesta: Enl     =        64.821548
siesta: Eso     =         0.000000
siesta: Edftu   =         0.000000
siesta: DEna    =       -11.758065
siesta: DUscf   =        51.793329
siesta: DUext   =         0.000000
siesta: Exc     =      -210.955603
siesta: eta*DQ  =         0.000000
siesta: Emadel  =         0.000000
siesta: Emeta   =         0.000000
siesta: Emolmec =        -7.271238
siesta: Ekinion =         0.000000
siesta: Eharris =       -42.740698
siesta: Etot    =      -170.259513
siesta: FreeEng =      -170.260731

        iscf     Eharris(eV)        E_KS(eV)     FreeEng(eV)     dDmax    Ef(eV) dHmax(eV)
   scf:    1      -42.740698     -170.259513     -170.260731 35.958574 -6.875050 41.167067
timer: Routine,Calls,Time,% = IterSCF        1       0.926  20.64
   scf:    2      668.771216       20.348160       20.339329 59.038200 -5.518214 87.288506
   scf:    3     -300.241192     -189.797174     -189.803915 37.792679 -5.185892 30.107467
   scf:    4     -210.492649     -215.430023     -215.457709  6.096719 -5.921364  3.080087
   scf:    5        7.364581     -143.317366     -143.327548 11.812628 -5.299071 47.830659
   scf:    6      -80.321919     -194.433554     -194.441648 12.898124 -6.429476 27.220995
   scf:    7     -172.577442     -208.921971     -208.934998  9.633529 -5.368459 16.350414
   scf:    8     -217.770307     -214.198451     -214.209206  2.438480 -5.704784  7.839040
   scf:    9     -212.751635     -213.503656     -213.512969  0.420708 -5.620133  9.438453
   scf:   10     -211.836844     -215.236299     -215.267000  4.371730 -5.935460  4.306841
   scf:   11     -215.450033     -215.346269     -215.377944  0.236018 -5.946357  3.968791
   scf:   12     -210.357051     -214.527061     -214.545742  3.506639 -5.860972  6.507664
   scf:   13     -216.212494     -215.553023     -215.579748  0.779332 -5.899937  3.065276
   scf:   14     -215.764899     -215.832425     -215.865592  1.327162 -5.929097  0.332010
   scf:   15     -215.825736     -215.829320     -215.862852  0.098669 -5.948648  0.449333
   scf:   16     -215.836614     -215.833454     -215.866806  0.077298 -5.945311  0.267593
   scf:   17     -215.836823     -215.835847     -215.868937  0.112679 -5.945994  0.049903
   scf:   18     -215.836027     -215.835972     -215.869016  0.020577 -5.945562  0.002430
   scf:   19     -215.835953     -215.835962     -215.869015  0.004190 -5.946129  0.005322
   scf:   20     -215.835957     -215.835960     -215.869014  0.001809 -5.946054  0.007893
   scf:   21     -215.835966     -215.835963     -215.869014  0.001480 -5.945574  0.008661
   scf:   22     -215.835972     -215.835968     -215.869016  0.001761 -5.945417  0.003847
   scf:   23     -215.835976     -215.835972     -215.869016  0.001980 -5.945201  0.001512
   scf:   24     -215.835970     -215.835971     -215.869016  0.000946 -5.945237  0.000573

SCF Convergence by FreeE+DM+H criterion
|FreeE_i-FreeE_(i-1)| (eV) <     0.00100000
max |DM_out - DM_in|         :     0.0009464277
max |H_out - H_in|      (eV) :     0.0005727854
SCF cycle converged after 24 iterations

Using DM_out to compute the final energy and forces
No. of atoms with KB's overlaping orbs in proc 0. Max # of overlaps:     233     233

MM-Stress (kbar):      -11.97      -11.97       12.45        0.00        0.00        0.00

siesta: E_KS(eV) =             -215.8360

siesta: E_KS - E_eggbox =      -215.8360

siesta: Atomic forces (eV/Ang):
     1    0.000000   -0.000000   -0.000002
     2   -0.218353    0.378176   -0.512473
     3    0.218353   -0.378177    0.512473
     4   -0.218371   -0.378230   -0.512495
     5    0.218372    0.378231    0.512495
     6    0.436687   -0.000011   -0.512473
     7   -0.436687    0.000011    0.512473
     8    0.218353   -0.378176   -0.512473
     9   -0.218353    0.378177    0.512473
    10    0.218371    0.378230   -0.512495
    11   -0.218372   -0.378231    0.512495
    12   -0.436687    0.000011   -0.512473
    13    0.436687   -0.000011    0.512473
    14   -0.382282    0.662084    0.000000
    15    0.382282   -0.662084    0.000000
    16   -0.382293   -0.662150    0.000000
    17    0.382293    0.662150    0.000000
    18    0.764523   -0.000023    0.000000
    19   -0.764523    0.000023    0.000000
----------------------------------------
   Tot   -0.000000   -0.000000    0.000000
----------------------------------------
   Max    0.764523
   Res    0.396195    sqrt( Sum f_i^2 / 3N )
----------------------------------------
   Max    0.764523    constrained

Stress tensor Voigt[x,y,z,yz,xz,xy] (kbar):    -1153.44    -1153.45      495.53        0.00       -0.00       -0.00
(Free)E + p*V (eV/cell)     -120.0433
Target enthalpy (eV/cell)     -215.8690

siesta: Eigenvalues (eV):
  ik is       eps
   1  1  -14.5084  -13.7450  -11.9388  -11.8856  -11.8102  -11.6460  -10.4102  -10.3566  -10.1198   -9.9398
          -7.4256   -6.8364   -5.9879   -5.9618   -4.2222   -0.3571    0.2862    0.2906    1.5039    1.8480
    3.8057    5.3923    5.8853    7.3492    7.4169    8.1698    9.1588   13.8627   14.1372   16.3104
   17.6998   17.8053   18.4760   19.9413   20.0609   20.2320   20.4153   20.7548   21.3105   51.5237
   51.8048   53.7251   60.6515   60.8921
   2  1  -14.7159  -14.4168  -12.5090  -11.9638  -10.6387   -9.1324   -8.9921   -8.0997   -6.3387   -6.2582
          -5.8020   -4.8763   -4.0704   -2.4485   -2.3031   -1.5644   -1.5207   -0.4848    0.0564    2.9779
    4.6816    6.0755    6.5286    6.7242    8.1137    8.6800   10.4480   13.0554   14.3129   17.4057
   19.4062   19.5478   21.0257   21.4107   21.4332   21.7491   22.7773   23.2744   23.3225   27.9924
   35.0087   61.4519   61.7544   63.3788
   3  1  -14.7159  -14.4168  -12.5090  -11.9638  -10.6387   -9.1324   -8.9921   -8.0997   -6.3387   -6.2582
          -5.8021   -4.8763   -4.0704   -2.4484   -2.3031   -1.5643   -1.5207   -0.4848    0.0565    2.9779
    4.6816    6.0755    6.5286    6.7242    8.1136    8.6801   10.4480   13.0553   14.3129   17.4058
   19.4061   19.5478   21.0257   21.4107   21.4332   21.7491   22.7773   23.2744   23.3225   27.9924
   35.0087   61.4519   61.7544   63.3788
   4  1  -14.5084  -13.7450  -11.9388  -11.8856  -11.8102  -11.6460  -10.4102  -10.3566  -10.1198   -9.9398
          -7.4256   -6.8364   -5.9879   -5.9619   -4.2221   -0.3571    0.2862    0.2906    1.5038    1.8480
    3.8057    5.3923    5.8853    7.3492    7.4169    8.1698    9.1588   13.8627   14.1372   16.3104
   17.6998   17.8053   18.4760   19.9413   20.0609   20.2320   20.4152   20.7548   21.3105   51.5237
   51.8048   53.7251   60.6515   60.8921
   5  1  -14.7159  -14.4168  -12.5090  -11.9638  -10.6387   -9.1324   -8.9921   -8.0997   -6.3387   -6.2582
          -5.8020   -4.8763   -4.0704   -2.4485   -2.3031   -1.5644   -1.5207   -0.4848    0.0564    2.9779
    4.6816    6.0755    6.5286    6.7242    8.1137    8.6800   10.4480   13.0554   14.3129   17.4057
   19.4062   19.5478   21.0257   21.4107   21.4332   21.7491   22.7773   23.2744   23.3225   27.9924
   35.0087   61.4519   61.7544   63.3788
   6  1  -14.9213  -14.7361  -12.8463  -12.0670   -8.7482   -6.4977   -5.7619   -5.4766   -5.4765   -2.2369
           0.1593    0.1593    0.4531    0.4531    1.0200    1.0201    1.5336    1.5336    2.3636    4.3518
    4.3519    5.3061    5.3062   10.4371   10.4372   14.1877   14.1877   14.8929   15.7776   15.7777
   17.2718   17.2718   17.4849   17.4849   18.3924   18.3924   22.4877   24.5808   24.7628   24.7629
   24.9543   56.7865   68.8893   69.4149
   7  1  -14.5035  -13.4808  -13.3363  -11.7002  -11.4617  -11.3060  -10.7934   -7.7396   -7.2611   -6.8299
          -6.4812   -6.1616   -6.1228   -5.7245   -4.8054   -4.4662   -3.8781   -3.7186   -3.7155   -3.0866
   -0.4654    0.3146    3.9459    6.8785   10.7976   11.3790   12.2146   13.0843   13.6251   16.7968
   17.0969   18.9343   19.2048   19.2119   19.5808   19.6965   24.2116   34.1409   53.3530   54.2053
   54.8075   55.5514   55.9636   56.2884
   8  1  -14.5084  -13.7450  -11.9388  -11.8856  -11.8102  -11.6460  -10.4102  -10.3566  -10.1198   -9.9398
          -7.4256   -6.8364   -5.9879   -5.9619   -4.2221   -0.3571    0.2862    0.2906    1.5038    1.8480
    3.8057    5.3923    5.8853    7.3492    7.4169    8.1698    9.1588   13.8627   14.1372   16.3104
   17.6998   17.8053   18.4760   19.9413   20.0609   20.2320   20.4152   20.7548   21.3105   51.5237
   51.8048   53.7251   60.6515   60.8921
   9  1  -14.5084  -13.7450  -11.9388  -11.8856  -11.8102  -11.6460  -10.4102  -10.3566  -10.1198   -9.9398
          -7.4256   -6.8364   -5.9879   -5.9619   -4.2221   -0.3571    0.2862    0.2906    1.5038    1.8480
    3.8057    5.3923    5.8853    7.3492    7.4169    8.1698    9.1588   13.8627   14.1372   16.3104
   17.6998   17.8053   18.4760   19.9413   20.0609   20.2320   20.4152   20.7548   21.3105   51.5237
   51.8048   53.7251   60.6515   60.8921
  10  1  -14.5035  -13.4808  -13.3363  -11.7002  -11.4617  -11.3060  -10.7934   -7.7396   -7.2611   -6.8299
          -6.4812   -6.1616   -6.1228   -5.7245   -4.8054   -4.4662   -3.8781   -3.7186   -3.7155   -3.0866
   -0.4654    0.3146    3.9459    6.8785   10.7976   11.3790   12.2146   13.0843   13.6251   16.7968
   17.0969   18.9343   19.2048   19.2119   19.5808   19.6965   24.2116   34.1409   53.3530   54.2053
   54.8075   55.5514   55.9636   56.2884
  11  1  -14.5084  -13.7450  -11.9388  -11.8856  -11.8102  -11.6460  -10.4102  -10.3566  -10.1198   -9.9398
          -7.4256   -6.8364   -5.9879   -5.9619   -4.2221   -0.3571    0.2862    0.2906    1.5038    1.8480
    3.8057    5.3923    5.8853    7.3492    7.4169    8.1698    9.1588   13.8627   14.1372   16.3104
   17.6998   17.8053   18.4760   19.9413   20.0609   20.2320   20.4152   20.7548   21.3105   51.5237
   51.8048   53.7251   60.6515   60.8921
  12  1  -14.5035  -13.4808  -13.3363  -11.7002  -11.4617  -11.3060  -10.7934   -7.7396   -7.2611   -6.8299
          -6.4812   -6.1616   -6.1228   -5.7245   -4.8054   -4.4662   -3.8781   -3.7186   -3.7155   -3.0866
   -0.4653    0.3146    3.9459    6.8785   10.7975   11.3790   12.2147   13.0843   13.6251   16.7967
   17.0970   18.9342   19.2048   19.2119   19.5808   19.6965   24.2116   34.1409   53.3530   54.2053
   54.8075   55.5514   55.9636   56.2884
  13  1  -14.4907  -13.7464  -11.9378  -11.8858  -11.8196  -11.6402  -10.4216  -10.3456  -10.1219   -9.9283
          -7.3019   -6.7835   -5.9450   -5.9311   -3.9451   -0.7726   -0.6567   -0.4906    2.9092    2.9281
    3.9798    4.4075    6.1828    6.6150    7.3689    8.1448    8.6639   13.7594   15.3050   16.7110
   17.4594   18.2504   18.7754   19.0904   19.2074   19.9064   20.2013   20.5321   20.8394   21.4239
   22.9420   53.6086   58.0567   62.8772
  14  1  -14.7069  -14.4383  -12.5552  -11.9439  -10.6358   -9.1234   -9.0016   -7.9733   -6.6554   -5.9663
          -5.7880   -4.6113   -4.1033   -2.4559   -2.4397   -1.6141   -1.5230   -0.4295    0.0519    3.1614
    4.6929    6.1209    6.6499    7.0767    8.5398    9.1357   10.5086   12.3629   14.6436   16.0886
   17.7319   18.9899   19.4860   21.0304   21.5767   23.1257   23.2788   23.3381   23.4899   33.5589
   37.6737   60.7871   62.6623   63.2279
  15  1  -14.7069  -14.4383  -12.5552  -11.9439  -10.6358   -9.1234   -9.0016   -7.9733   -6.6554   -5.9663
          -5.7881   -4.6113   -4.1033   -2.4559   -2.4397   -1.6140   -1.5231   -0.4294    0.0519    3.1614
    4.6929    6.1209    6.6499    7.0768    8.5398    9.1357   10.5086   12.3628   14.6436   16.0886
   17.7319   18.9899   19.4860   21.0304   21.5767   23.1257   23.2788   23.3381   23.4899   33.5589
   37.6737   60.7871   62.6623   63.2279
  16  1  -14.4907  -13.7464  -11.9378  -11.8858  -11.8196  -11.6402  -10.4216  -10.3456  -10.1218   -9.9283
          -7.3019   -6.7834   -5.9450   -5.9312   -3.9451   -0.7725   -0.6567   -0.4905    2.9092    2.9281
    3.9798    4.4075    6.1828    6.6150    7.3689    8.1448    8.6638   13.7594   15.3050   16.7110
   17.4594   18.2504   18.7754   19.0904   19.2074   19.9064   20.2013   20.5321   20.8394   21.4239
   22.9420   53.6086   58.0567   62.8772
  17  1  -14.7069  -14.4383  -12.5552  -11.9439  -10.6358   -9.1234   -9.0016   -7.9733   -6.6554   -5.9663
          -5.7880   -4.6113   -4.1033   -2.4559   -2.4397   -1.6141   -1.5230   -0.4295    0.0519    3.1614
    4.6929    6.1209    6.6499    7.0767    8.5398    9.1357   10.5086   12.3629   14.6436   16.0886
   17.7319   18.9899   19.4860   21.0304   21.5767   23.1257   23.2788   23.3381   23.4899   33.5589
   37.6737   60.7871   62.6623   63.2279
  18  1  -14.9123  -14.7596  -12.8867  -12.0578   -8.6060   -6.8429   -5.4728   -5.4727   -5.1290   -2.3076
          -0.0646   -0.0646    0.1634    0.1634    1.5686    1.5687    2.2241    2.2241    2.5438    3.9059
    3.9060    4.9108    4.9108   10.8176   10.8177   13.2689   13.2689   14.3849   14.3849   14.4375
   14.4375   14.9744   17.1669   17.1669   22.4906   22.7219   22.7220   24.5834   24.6207   24.6208
   24.9308   57.5599   64.2669   72.7796
  19  1  -14.7069  -14.4383  -12.5552  -11.9439  -10.6358   -9.1234   -9.0016   -7.9733   -6.6554   -5.9663
          -5.7880   -4.6113   -4.1033   -2.4559   -2.4397   -1.6141   -1.5230   -0.4295    0.0519    3.1614
    4.6929    6.1209    6.6499    7.0767    8.5398    9.1357   10.5086   12.3629   14.6436   16.0886
   17.7319   18.9899   19.4860   21.0304   21.5767   23.1257   23.2788   23.3381   23.4899   33.5589
   37.6737   60.7871   62.6623   63.2279
  20  1  -14.4840  -13.4574  -13.3437  -11.6927  -11.4793  -11.3366  -10.7805   -7.9177   -7.0685   -7.0281
          -6.1357   -6.0977   -5.9423   -5.7305   -4.6667   -4.0079   -4.0007   -3.6884   -3.4285   -3.0429
   -0.9875   -0.2820    4.5148    7.2489   10.2477   11.6399   12.0142   12.2174   13.5912   16.8003
   17.0985   17.5388   18.9342   19.2032   19.2395   19.6138   25.6287   32.7838   52.6238   54.5133
   54.6851   54.7980   55.6953   56.7296
  21  1  -14.7069  -14.4383  -12.5552  -11.9439  -10.6358   -9.1234   -9.0016   -7.9733   -6.6554   -5.9663
          -5.7881   -4.6113   -4.1033   -2.4559   -2.4397   -1.6140   -1.5231   -0.4294    0.0519    3.1614
    4.6929    6.1209    6.6499    7.0768    8.5398    9.1357   10.5086   12.3628   14.6436   16.0886
   17.7319   18.9899   19.4860   21.0304   21.5767   23.1257   23.2788   23.3381   23.4899   33.5589
   37.6737   60.7871   62.6623   63.2279
  22  1  -14.7069  -14.4383  -12.5552  -11.9439  -10.6358   -9.1234   -9.0016   -7.9733   -6.6554   -5.9663
          -5.7880   -4.6113   -4.1033   -2.4559   -2.4397   -1.6141   -1.5230   -0.4295    0.0519    3.1614
    4.6929    6.1209    6.6499    7.0767    8.5398    9.1357   10.5086   12.3629   14.6436   16.0886
   17.7319   18.9899   19.4860   21.0304   21.5767   23.1257   23.2788   23.3381   23.4899   33.5589
   37.6737   60.7871   62.6623   63.2279
  23  1  -14.4907  -13.7464  -11.9378  -11.8858  -11.8196  -11.6402  -10.4216  -10.3456  -10.1219   -9.9283
          -7.3019   -6.7835   -5.9450   -5.9311   -3.9451   -0.7726   -0.6567   -0.4906    2.9092    2.9281
    3.9798    4.4075    6.1828    6.6150    7.3689    8.1448    8.6639   13.7594   15.3050   16.7110
   17.4594   18.2504   18.7754   19.0904   19.2074   19.9064   20.2013   20.5321   20.8394   21.4239
   22.9420   53.6086   58.0567   62.8772
  24  1  -14.4907  -13.7464  -11.9378  -11.8858  -11.8196  -11.6402  -10.4216  -10.3456  -10.1218   -9.9283
          -7.3019   -6.7834   -5.9450   -5.9312   -3.9451   -0.7725   -0.6567   -0.4905    2.9092    2.9281
    3.9798    4.4075    6.1828    6.6150    7.3689    8.1448    8.6638   13.7594   15.3050   16.7110
   17.4594   18.2504   18.7754   19.0904   19.2074   19.9064   20.2013   20.5321   20.8394   21.4239
   22.9420   53.6086   58.0567   62.8772
  25  1  -14.4907  -13.7464  -11.9378  -11.8858  -11.8196  -11.6402  -10.4216  -10.3456  -10.1218   -9.9283
          -7.3019   -6.7834   -5.9450   -5.9312   -3.9451   -0.7725   -0.6567   -0.4905    2.9092    2.9281
    3.9798    4.4075    6.1828    6.6150    7.3689    8.1448    8.6638   13.7594   15.3050   16.7110
   17.4594   18.2504   18.7754   19.0904   19.2074   19.9064   20.2013   20.5321   20.8394   21.4239
   22.9420   53.6086   58.0567   62.8772
  26  1  -14.4840  -13.4574  -13.3437  -11.6927  -11.4793  -11.3366  -10.7805   -7.9177   -7.0685   -7.0281
          -6.1357   -6.0977   -5.9423   -5.7305   -4.6667   -4.0079   -4.0007   -3.6884   -3.4285   -3.0429
   -0.9875   -0.2820    4.5148    7.2489   10.2477   11.6399   12.0142   12.2174   13.5912   16.8003
   17.0985   17.5388   18.9342   19.2032   19.2395   19.6138   25.6287   32.7838   52.6238   54.5133
   54.6851   54.7980   55.6953   56.7296
  27  1  -14.4907  -13.7464  -11.9378  -11.8858  -11.8196  -11.6402  -10.4216  -10.3456  -10.1218   -9.9283
          -7.3019   -6.7834   -5.9450   -5.9312   -3.9451   -0.7725   -0.6567   -0.4905    2.9092    2.9281
    3.9798    4.4075    6.1828    6.6150    7.3689    8.1448    8.6638   13.7594   15.3050   16.7110
   17.4594   18.2504   18.7754   19.0904   19.2074   19.9064   20.2013   20.5321   20.8394   21.4239
   22.9420   53.6086   58.0567   62.8772
  28  1  -14.4840  -13.4574  -13.3437  -11.6927  -11.4793  -11.3366  -10.7805   -7.9178   -7.0685   -7.0281
          -6.1357   -6.0977   -5.9423   -5.7305   -4.6667   -4.0079   -4.0007   -3.6884   -3.4284   -3.0430
   -0.9874   -0.2819    4.5148    7.2489   10.2476   11.6399   12.0142   12.2174   13.5911   16.8003
   17.0985   17.5388   18.9342   19.2032   19.2395   19.6138   25.6287   32.7838   52.6238   54.5133
   54.6851   54.7980   55.6953   56.7296
  29  1  -14.4625  -13.7510  -11.9399  -11.8860  -11.8305  -11.6257  -10.4336  -10.3364  -10.1238   -9.8907
          -7.2750   -6.3771   -5.9000   -4.7424   -3.9138   -0.6726   -0.1792    0.0566    1.3794    3.4047
    3.5365    3.6921    5.4592    6.9963    9.0161    9.6032   10.4884   10.6171   11.1630   11.6779
   17.5440   17.7411   18.4478   19.7398   19.9337   20.0476   20.0556   20.5984   20.8806   33.0680
   33.1209   55.3298   55.5594   64.0213
  30  1  -14.6910  -14.5723  -12.8481  -11.8602  -10.6353   -9.1297   -8.9532   -7.9333   -5.9188   -5.7719
          -4.9812   -4.4202   -4.1466   -2.5849   -2.4708   -1.5266   -0.7764   -0.3901    3.3242    3.4028
    4.7039    6.1800    6.5677    7.7091    9.5847    9.8410   10.6709   11.7529   13.5394   15.0113
   18.2193   19.5295   21.0306   21.7596   21.8036   23.1841   23.2524   23.2818   23.8099   40.7360
   42.1642   61.2387   61.4913   64.0476
  31  1  -14.6910  -14.5723  -12.8481  -11.8602  -10.6353   -9.1297   -8.9532   -7.9333   -5.9188   -5.7720
          -4.9812   -4.4202   -4.1466   -2.5849   -2.4708   -1.5266   -0.7764   -0.3901    3.3242    3.4029
    4.7040    6.1800    6.5677    7.7091    9.5847    9.8409   10.6709   11.7528   13.5394   15.0114
   18.2193   19.5294   21.0306   21.7596   21.8036   23.1841   23.2525   23.2818   23.8099   40.7360
   42.1642   61.2387   61.4913   64.0476
  32  1  -14.4625  -13.7510  -11.9399  -11.8860  -11.8305  -11.6258  -10.4336  -10.3364  -10.1238   -9.8907
          -7.2750   -6.3771   -5.9001   -4.7424   -3.9138   -0.6726   -0.1792    0.0566    1.3794    3.4048
    3.5365    3.6921    5.4592    6.9962    9.0161    9.6032   10.4884   10.6171   11.1630   11.6779
   17.5440   17.7411   18.4478   19.7399   19.9337   20.0476   20.0556   20.5984   20.8806   33.0680
   33.1209   55.3298   55.5594   64.0213
  33  1  -14.6910  -14.5723  -12.8481  -11.8602  -10.6353   -9.1297   -8.9532   -7.9333   -5.9188   -5.7719
          -4.9812   -4.4202   -4.1466   -2.5849   -2.4708   -1.5266   -0.7764   -0.3901    3.3242    3.4028
    4.7039    6.1800    6.5677    7.7091    9.5847    9.8410   10.6709   11.7529   13.5394   15.0113
   18.2193   19.5295   21.0306   21.7596   21.8036   23.1841   23.2524   23.2818   23.8099   40.7360
   42.1642   61.2387   61.4913   64.0476
  34  1  -15.0106  -14.8828  -13.2763  -11.9575   -8.5309   -5.4690   -5.4689   -4.8625   -4.7281   -0.2054
          -0.2054   -0.0194   -0.0193    2.3814    2.3815    2.7152    3.1008    3.1008    3.2618    3.2618
    4.0187    4.0187    5.8695   11.6725   11.6725   12.6242   12.6242   12.7230   12.7231   12.9923
   12.9923   17.0440   17.0440   21.4597   22.4937   24.5553   24.5554   24.5868   24.9063   25.3262
   25.3263   59.8978   60.1938   74.0400
  35  1  -14.6910  -14.5723  -12.8481  -11.8602  -10.6353   -9.1297   -8.9532   -7.9333   -5.9188   -5.7719
          -4.9812   -4.4202   -4.1466   -2.5849   -2.4708   -1.5266   -0.7764   -0.3901    3.3242    3.4028
    4.7039    6.1800    6.5677    7.7091    9.5847    9.8410   10.6709   11.7529   13.5394   15.0113
   18.2193   19.5295   21.0306   21.7596   21.8036   23.1841   23.2524   23.2818   23.8099   40.7360
   42.1642   61.2387   61.4913   64.0476
  36  1  -14.4329  -13.4526  -13.3912  -11.6666  -11.5357  -11.4326  -10.7520   -8.1983   -7.2219   -6.5946
          -6.1083   -5.7367   -4.9496   -4.9158   -4.5315   -4.2286   -4.1267   -3.8833   -3.0105   -2.6435
    2.9966    4.4661    7.6949    8.1557    8.8933   11.6671   11.6948   12.3815   13.7307   15.3927
   16.8039   17.0997   18.9354   19.1984   19.2734   19.6446   26.7877   31.8149   52.2005   54.1823
   54.4575   54.4850   55.6663   57.0909
  37  1  -14.6910  -14.5723  -12.8481  -11.8602  -10.6353   -9.1297   -8.9532   -7.9333   -5.9188   -5.7720
          -4.9812   -4.4202   -4.1466   -2.5849   -2.4708   -1.5266   -0.7764   -0.3901    3.3242    3.4029
    4.7040    6.1800    6.5677    7.7091    9.5847    9.8409   10.6709   11.7528   13.5394   15.0114
   18.2193   19.5294   21.0306   21.7596   21.8036   23.1841   23.2525   23.2818   23.8099   40.7360
   42.1642   61.2387   61.4913   64.0476
  38  1  -14.6910  -14.5723  -12.8481  -11.8602  -10.6353   -9.1297   -8.9532   -7.9333   -5.9188   -5.7719
          -4.9812   -4.4202   -4.1466   -2.5849   -2.4708   -1.5266   -0.7764   -0.3901    3.3242    3.4028
    4.7039    6.1800    6.5677    7.7091    9.5847    9.8410   10.6709   11.7529   13.5394   15.0113
   18.2193   19.5295   21.0306   21.7596   21.8036   23.1841   23.2524   23.2818   23.8099   40.7360
   42.1642   61.2387   61.4913   64.0476
  39  1  -14.4625  -13.7510  -11.9399  -11.8860  -11.8305  -11.6257  -10.4336  -10.3364  -10.1238   -9.8907
          -7.2750   -6.3771   -5.9000   -4.7424   -3.9138   -0.6726   -0.1792    0.0566    1.3794    3.4047
    3.5365    3.6921    5.4592    6.9963    9.0161    9.6032   10.4884   10.6171   11.1630   11.6779
   17.5440   17.7411   18.4478   19.7398   19.9337   20.0476   20.0556   20.5984   20.8806   33.0680
   33.1209   55.3298   55.5594   64.0213
  40  1  -14.4625  -13.7510  -11.9399  -11.8860  -11.8305  -11.6258  -10.4336  -10.3364  -10.1238   -9.8907
          -7.2750   -6.3771   -5.9001   -4.7424   -3.9138   -0.6726   -0.1792    0.0566    1.3794    3.4048
    3.5365    3.6921    5.4592    6.9962    9.0161    9.6032   10.4884   10.6171   11.1630   11.6779
   17.5440   17.7411   18.4478   19.7399   19.9337   20.0476   20.0556   20.5984   20.8806   33.0680
   33.1209   55.3298   55.5594   64.0213
  41  1  -14.4625  -13.7510  -11.9399  -11.8860  -11.8305  -11.6258  -10.4336  -10.3364  -10.1238   -9.8907
          -7.2750   -6.3771   -5.9001   -4.7424   -3.9138   -0.6726   -0.1792    0.0566    1.3794    3.4048
    3.5365    3.6921    5.4592    6.9962    9.0161    9.6032   10.4884   10.6171   11.1630   11.6779
   17.5440   17.7411   18.4478   19.7399   19.9337   20.0476   20.0556   20.5984   20.8806   33.0680
   33.1209   55.3298   55.5594   64.0213
  42  1  -14.4329  -13.4526  -13.3912  -11.6666  -11.5357  -11.4326  -10.7520   -8.1983   -7.2219   -6.5946
          -6.1083   -5.7367   -4.9496   -4.9158   -4.5315   -4.2286   -4.1267   -3.8833   -3.0105   -2.6435
    2.9966    4.4661    7.6949    8.1557    8.8933   11.6671   11.6948   12.3815   13.7307   15.3927
   16.8039   17.0997   18.9354   19.1984   19.2734   19.6446   26.7877   31.8149   52.2005   54.1823
   54.4575   54.4850   55.6663   57.0909
  43  1  -14.4625  -13.7510  -11.9399  -11.8860  -11.8305  -11.6258  -10.4336  -10.3364  -10.1238   -9.8907
          -7.2750   -6.3771   -5.9001   -4.7424   -3.9138   -0.6726   -0.1792    0.0566    1.3794    3.4048
    3.5365    3.6921    5.4592    6.9962    9.0161    9.6032   10.4884   10.6171   11.1630   11.6779
   17.5440   17.7411   18.4478   19.7399   19.9337   20.0476   20.0556   20.5984   20.8806   33.0680
   33.1209   55.3298   55.5594   64.0213
  44  1  -14.4329  -13.4526  -13.3912  -11.6666  -11.5357  -11.4326  -10.7520   -8.1983   -7.2219   -6.5946
          -6.1084   -5.7367   -4.9496   -4.9158   -4.5315   -4.2286   -4.1267   -3.8833   -3.0106   -2.6435
    2.9967    4.4661    7.6949    8.1556    8.8933   11.6671   11.6948   12.3815   13.7307   15.3927
   16.8039   17.0997   18.9354   19.1984   19.2734   19.6446   26.7877   31.8148   52.2005   54.1823
   54.4575   54.4850   55.6663   57.0909
siesta: Fermi energy =      -5.945237 eV

siesta: Program's energy decomposition (eV):
siesta: Ebs     =      -230.493422
siesta: Eions   =       439.895300
siesta: Ena     =       155.578369
siesta: Ekin    =       177.869661
siesta: Enl     =        77.950631
siesta: Eso     =         0.000000
siesta: Edftu   =         0.000000
siesta: DEna    =        15.724767
siesta: DUscf   =         1.091338
siesta: DUext   =         0.000000
siesta: Exc     =      -196.884199
siesta: eta*DQ  =         0.000000
siesta: Emadel  =         0.000000
siesta: Emeta   =         0.000000
siesta: Emolmec =        -7.271238
siesta: Ekinion =         0.000000
siesta: Eharris =      -215.835970
siesta: Etot    =      -215.835971
siesta: FreeEng =      -215.869016

siesta: Final energy (eV):
siesta:  Band Struct. =    -230.493422
siesta:       Kinetic =     177.869661
siesta:       Hartree =     130.302835
siesta:       Edftu   =       0.000000
siesta:       Eso     =       0.000000
siesta:    Ext. field =       0.000000
siesta:   Exch.-corr. =    -196.884199
siesta:  Ion-electron =    -473.708368
siesta:       Ion-ion =     153.855338
siesta:       Ekinion =       0.000000
siesta:         Total =    -215.835971
siesta:         Fermi =      -5.945237

siesta: Atomic forces (eV/Ang):
siesta:      1    0.000000   -0.000000   -0.000002
siesta:      2   -0.218353    0.378176   -0.512473
siesta:      3    0.218353   -0.378177    0.512473
siesta:      4   -0.218371   -0.378230   -0.512495
siesta:      5    0.218372    0.378231    0.512495
siesta:      6    0.436687   -0.000011   -0.512473
siesta:      7   -0.436687    0.000011    0.512473
siesta:      8    0.218353   -0.378176   -0.512473
siesta:      9   -0.218353    0.378177    0.512473
siesta:     10    0.218371    0.378230   -0.512495
siesta:     11   -0.218372   -0.378231    0.512495
siesta:     12   -0.436687    0.000011   -0.512473
siesta:     13    0.436687   -0.000011    0.512473
siesta:     14   -0.382282    0.662084    0.000000
siesta:     15    0.382282   -0.662084    0.000000
siesta:     16   -0.382293   -0.662150    0.000000
siesta:     17    0.382293    0.662150    0.000000
siesta:     18    0.764523   -0.000023    0.000000
siesta:     19   -0.764523    0.000023    0.000000
siesta: ----------------------------------------
siesta:    Tot   -0.000000   -0.000000    0.000000

siesta: Stress tensor (static) (eV/Ang**3):
siesta:    -0.719914   -0.000002   -0.000000
siesta:    -0.000002   -0.719917    0.000000
siesta:    -0.000000    0.000000    0.309283

siesta: Cell volume =        254.281401 Ang**3

siesta: Pressure (static):
siesta:                Solid            Molecule  Units
siesta:           0.00410437          0.00374863  Ry/Bohr**3
siesta:           0.37684913          0.34418686  eV/Ang**3
siesta:         603.78539742        551.45410567  kBar
(Free)E+ p_basis*V_orbitals  =        -183.263206
(Free)Eharris+ p_basis*V_orbitals  =        -183.263205

cite: Please see "LiC18_scf.bib" for an exhaustive BiBTeX file.
cite: Please clearly indicate Siesta version in published work: 4.1.5
cite: This calculation has made use of the following articles
cite: which are encouraged to be cited in a published work.
        Primary SIESTA paper
          DOI: www.doi.org/10.1088/0953-8984/14/11/302

>> End of run:   9-NOV-2022   8:52:12
Job completed
