Siesta Version  : 4.1.5
Architecture    : x86_64-unknown-linux-gnu--unknown
Compiler version: GNU Fortran (GCC) 11.3.0
Compiler flags  : mpif90 -g -O2 -fallow-argument-mismatch
PP flags        : -DMPI -DFC_HAVE_FLUSH -DFC_HAVE_ABORT
Libraries       :  -I/global/software/sl-7.x86_64/modules/intel/2020.4.304/mkl/include  /globall/software/sl-7.x86_64/modules/intel/2020.4.304/mkl/lib/intel64/libmkl_scalapack_lp64.a -Wl,--start-group /global/software/sl-7.x86_64/modules/intel/2020.4.304/mkl/lib/intel64/libmkl_intel_lp64.a /global/software/sl-7.x86_64/modules/intel/2020.4.304/mkl/lib/intel64/libmkl_sequential.a /global/software/sl-7.x86_64/modules/intel/2020.4.304/mkl/lib/intel64/libmkl_core.a /global/software/sl-7.x86_64/modules/intel/2020.4.304/mkl/lib/intel64/libmkl_blacs_openmpi_lp64.a -Wl,--end-group -lpthread -lm -ldl
PARALLEL version

* Running on 16 nodes in parallel
>> Start of run:   9-NOV-2022   8:52:35

                           ***********************       
                           *  WELCOME TO SIESTA  *       
                           ***********************       

reinit: Reading from standard input
reinit: Dumped input in INPUT_TMP.30072
************************** Dump of input data file ****************************
SystemName LiC18_scf
SystemLabel LiC18_scf
NumberOfAtoms   19
NumberOfSpecies 2
%block ChemicalSpeciesLabel
1  3   Li-gga
2  6   C-gga
%endblock ChemicalSpeciesLabel
PAO.BasisSize  DZ
PAO.EnergyShift  10 meV
%block PS.Lmax
C-gga   2
Li-gga  2
%endblock PS.Lmax
LatticeConstant 1.000000 Ang
%block LatticeVectors
	4.3161300000	0.0000000000	0.0000000000
	-2.1580650000	3.7378782260	0.0000000000
	0.0000000000	0.0000000000	16.2053882600
%endblock LatticeVectors
AtomicCoordinatesFormat Ang
%block AtomicCoordinatesAndAtomicSpecies
	0.00000000	0.00000000	0.00000000	2
	-0.70288177	1.21742694	2.70090345	1
	-1.45518323	2.52045129	13.50448481	1
	1.45518323	2.52045129	2.70090345	1
	0.70288177	1.21742694	13.50448481	1
	1.40576354	0.00000000	2.70090345	1
	2.91036646	0.00000000	13.50448481	1
	-1.45518323	2.52045129	2.70090345	1
	-0.70288177	1.21742694	13.50448481	1
	0.70288177	1.21742694	2.70090345	1
	1.45518323	2.52045129	13.50448481	1
	2.91036646	0.00000000	2.70090345	1
	1.40576354	0.00000000	13.50448481	1
	-0.70288177	1.21742694	8.10269413	1
	-1.45518323	2.52045129	8.10269413	1
	1.45518323	2.52045129	8.10269413	1
	0.70288177	1.21742694	8.10269413	1
	1.40576354	0.00000000	8.10269413	1
	2.91036646	0.00000000	8.10269413	1
%endblock AtomicCoordinatesAndAtomicSpecies
Kgrid_NoTRS  T
%block kgrid_MonkhorstPack
4       0       0       0.0
0       4       0       0.0
0       0       4       0.0
%endblock kgrid_MonkhorstPack
AtomCoorFormatOut Ang
BlockSize 1
#ProcessorY 12
Diag.ParallelOverK   T
Diag.DivideAndConquer F
MeshCutoff   300 Ry
SCF.FreeE.Tolerance 1E-3 eV
SCF.EDM.Tolerance   5E-3 eV
DM.Tolerance  1E-3
DM.Require.Energy.Convergence T
DM.NumberPulay 4
XC.Functional GGA
XC.Authors    PBE
UseSaveData        F
MD.TypeOfRun       CG
MD.VariableCell    F
MD.NumCGsteps      00
MD.MaxCGDispl      0.200000 Bohr
MD.MaxStressTol    1.000000 GPa
MD.MaxForceTol     0.010000 eV/Ang
WriteMDHistory T
WriteCoorStep T
WriteForces T
WriteCoorStep    T
WriteEigenValues T
WriteDM    F
MM.UnitsDistance Ang  # what this program prints out DO NOT CHANGE
MM.UnitsEnergy    eV  # what this program prints out DO NOT CHANGE
MM.Grimme.S6     0.75 # Grimme-paper for PBE (correct for your functional)
MM.Grimme.D     20.   # Grimme-paper (correct for your functional)
%block MM.Potentials
  1   1 Grimme     16.69      1.650 # Li, 10.1002/jcc.20495
  1   2 Grimme     17.40      2.277 # Li / C
  2   2 Grimme     18.14      2.904 # C, 10.1002/jcc.20495
%endblock MM.Potentials
#%block ProjectedDensityOfStates
# -200.0  120.0  0.4  12800  eV
#%endblock ProjectedDensityOfStates
************************** End of input data file *****************************

reinit: -----------------------------------------------------------------------
reinit: System Name: LiC18_scf
reinit: -----------------------------------------------------------------------
reinit: System Label: LiC18_scf
reinit: -----------------------------------------------------------------------
Reading two-body potentials
Grimme - two-body potential between 1 and 1
Grimme - two-body potential between 1 and 2
Grimme - two-body potential between 2 and 2

initatom: Reading input for the pseudopotentials and atomic orbitals ----------
Species number:   1 Atomic number:    3 Label: Li-gga
Species number:   2 Atomic number:    6 Label: C-gga

Ground state valence configuration:   2s01
Reading pseudopotential information in formatted form from Li-gga.psf

Valence configuration for pseudopotential generation:
2s( 1.00) rc: 2.28
2p( 0.00) rc: 2.28
3d( 0.00) rc: 2.59
4f( 0.00) rc: 2.59
Ground state valence configuration:   2s02  2p02
Reading pseudopotential information in formatted form from C-gga.psf

Valence configuration for pseudopotential generation:
2s( 2.00) rc: 1.56
2p( 2.00) rc: 1.56
3d( 0.00) rc: 1.56
4f( 0.00) rc: 1.56
relmxkb: Read Max KB Ang. Momentum=    2 for species C-gga
relmxkb: Read Max KB Ang. Momentum=    2 for species Li-gga

<basis_specs>
===============================================================================
Li-gga               Z=   3    Mass=  6.9400        Charge= 0.17977+309
Lmxo=0 Lmxkb= 2    BasisType=split      Semic=F
L=0  Nsemic=0  Cnfigmx=2
          i=1  nzeta=2  polorb=0  (2s)
            splnorm:   0.15000    
               vcte:    0.0000    
               rinn:    0.0000    
               qcoe:    0.0000    
               qyuk:    0.0000    
               qwid:   0.10000E-01
                rcs:    0.0000      0.0000    
            lambdas:    1.0000      1.0000    
-------------------------------------------------------------------------------
L=0  Nkbl=1  erefs: 0.17977+309
L=1  Nkbl=1  erefs: 0.17977+309
L=2  Nkbl=1  erefs: 0.17977+309
===============================================================================
</basis_specs>

atom: Called for Li-gga                (Z =   3)

read_vps: Pseudopotential generation method:
read_vps: ATM 3.2.2 Troullier-Martins                       
Valence charge for ps generation:    1.00000

read_vps: Pseudopotential includes a core correction:
read_vps: Pseudo-core for xc-correction

xc_check: Exchange-correlation functional:
xc_check: GGA Perdew, Burke & Ernzerhof 1996
V l=0 = -2*Zval/r beyond r=  2.2278
V l=1 = -2*Zval/r beyond r=  2.2278
V l=2 = -2*Zval/r beyond r=  2.5245
All V_l potentials equal beyond r=  2.4622
This should be close to max(r_c) in ps generation
All pots = -2*Zval/r beyond r=  2.5245

VLOCAL1: 99.0% of the norm of Vloc inside      7.160 Ry
VLOCAL1: 99.9% of the norm of Vloc inside     16.318 Ry
atom: Maximum radius for 4*pi*r*r*local-pseudopot. charge    2.86079
atom: Maximum radius for r*vlocal+2*Zval:    2.43160
GHOST: No ghost state for L =  0
GHOST: No ghost state for L =  1
GHOST: No ghost state for L =  2

KBgen: Kleinman-Bylander projectors: 
   l= 0   rc=  2.654023   el= -0.211234   Ekb=  1.742119   kbcos=  0.228463
   l= 1   rc=  2.721230   el= -0.080095   Ekb= -1.122375   kbcos= -0.147941
   l= 2   rc=  2.825246   el=  0.002001   Ekb= -0.207076   kbcos= -0.031965

KBgen: Total number of Kleinman-Bylander projectors:    9
atom: -------------------------------------------------------------------------

atom: SANKEY-TYPE ORBITALS:
atom: Selected multiple-zeta basis: split     

SPLIT: Orbitals with angular momentum L= 0

SPLIT: Basis orbitals for state 2s

SPLIT: PAO cut-off radius determined from an
SPLIT: energy shift=  0.000735 Ry

   izeta = 1
                 lambda =    1.000000
                     rc =   11.897381
                 energy =   -0.210580
                kinetic =    0.143382
    potential(screened) =   -0.353962
       potential(ionic) =   -0.533453

   izeta = 2
                 rmatch =    8.489163
              splitnorm =    0.150000
                 energy =   -0.186081
                kinetic =    0.225882
    potential(screened) =   -0.411964
       potential(ionic) =   -0.593024
atom: Total number of Sankey-type orbitals:  2

atm_pop: Valence configuration (for local Pseudopot. screening):
 2s( 1.00)                                                            
Vna: chval, zval:    1.00000   1.00000

Vna:  Cut-off radius for the neutral-atom potential:  11.897381
comcore: Pseudo-core radius Rcore=  3.450946

atom: _________________________________________________________________________

<basis_specs>
===============================================================================
C-gga                Z=   6    Mass=  12.010        Charge= 0.17977+309
Lmxo=1 Lmxkb= 2    BasisType=split      Semic=F
L=0  Nsemic=0  Cnfigmx=2
          i=1  nzeta=2  polorb=0  (2s)
            splnorm:   0.15000    
               vcte:    0.0000    
               rinn:    0.0000    
               qcoe:    0.0000    
               qyuk:    0.0000    
               qwid:   0.10000E-01
                rcs:    0.0000      0.0000    
            lambdas:    1.0000      1.0000    
L=1  Nsemic=0  Cnfigmx=2
          i=1  nzeta=2  polorb=0  (2p)
            splnorm:   0.15000    
               vcte:    0.0000    
               rinn:    0.0000    
               qcoe:    0.0000    
               qyuk:    0.0000    
               qwid:   0.10000E-01
                rcs:    0.0000      0.0000    
            lambdas:    1.0000      1.0000    
-------------------------------------------------------------------------------
L=0  Nkbl=1  erefs: 0.17977+309
L=1  Nkbl=1  erefs: 0.17977+309
L=2  Nkbl=1  erefs: 0.17977+309
===============================================================================
</basis_specs>

atom: Called for C-gga                 (Z =   6)

read_vps: Pseudopotential generation method:
read_vps: ATM 3.2.2 Troullier-Martins                       
Valence charge for ps generation:    4.00000

xc_check: Exchange-correlation functional:
xc_check: GGA Perdew, Burke & Ernzerhof 1996
V l=0 = -2*Zval/r beyond r=  1.5227
V l=1 = -2*Zval/r beyond r=  1.5227
V l=2 = -2*Zval/r beyond r=  1.5227
All V_l potentials equal beyond r=  1.4851
This should be close to max(r_c) in ps generation
All pots = -2*Zval/r beyond r=  1.5227

VLOCAL1: 99.0% of the norm of Vloc inside     19.682 Ry
VLOCAL1: 99.9% of the norm of Vloc inside     44.856 Ry
atom: Maximum radius for 4*pi*r*r*local-pseudopot. charge    1.79142
atom: Maximum radius for r*vlocal+2*Zval:    1.54183
GHOST: No ghost state for L =  0
GHOST: No ghost state for L =  1
GHOST: No ghost state for L =  2

KBgen: Kleinman-Bylander projectors: 
   l= 0   rc=  1.661951   el= -1.010689   Ekb=  5.289847   kbcos=  0.316429
   l= 1   rc=  1.661951   el= -0.388490   Ekb= -4.102504   kbcos= -0.351025
   l= 2   rc=  1.747182   el=  0.001971   Ekb= -1.006005   kbcos= -0.008530

KBgen: Total number of Kleinman-Bylander projectors:    9
atom: -------------------------------------------------------------------------

atom: SANKEY-TYPE ORBITALS:
atom: Selected multiple-zeta basis: split     

SPLIT: Orbitals with angular momentum L= 0

SPLIT: Basis orbitals for state 2s

SPLIT: PAO cut-off radius determined from an
SPLIT: energy shift=  0.000735 Ry

   izeta = 1
                 lambda =    1.000000
                     rc =    5.948690
                 energy =   -1.010099
                kinetic =    0.827121
    potential(screened) =   -1.837220
       potential(ionic) =   -5.392783

   izeta = 2
                 rmatch =    3.518811
              splitnorm =    0.150000
                 energy =   -0.877891
                kinetic =    1.289227
    potential(screened) =   -2.167118
       potential(ionic) =   -5.982073

SPLIT: Orbitals with angular momentum L= 1

SPLIT: Basis orbitals for state 2p

SPLIT: PAO cut-off radius determined from an
SPLIT: energy shift=  0.000735 Ry

   izeta = 1
                 lambda =    1.000000
                     rc =    7.638387
                 energy =   -0.387843
                kinetic =    2.314739
    potential(screened) =   -2.702582
       potential(ionic) =   -6.092371

   izeta = 2
                 rmatch =    3.840617
              splitnorm =    0.150000
                 energy =   -0.270479
                kinetic =    3.438347
    potential(screened) =   -3.708826
       potential(ionic) =   -7.497707
atom: Total number of Sankey-type orbitals:  8

atm_pop: Valence configuration (for local Pseudopot. screening):
 2s( 2.00)                                                            
 2p( 2.00)                                                            
Vna: chval, zval:    4.00000   4.00000

Vna:  Cut-off radius for the neutral-atom potential:   7.638387

atom: _________________________________________________________________________

prinput: Basis input ----------------------------------------------------------

PAO.BasisType split     

%block ChemicalSpeciesLabel
    1    3 Li-gga                  # Species index, atomic number, species label
    2    6 C-gga                   # Species index, atomic number, species label
%endblock ChemicalSpeciesLabel

%block PAO.Basis                 # Define Basis set
Li-gga                1                    # Species label, number of l-shells
 n=2   0   2                         # n, l, Nzeta 
  11.897      8.489   
   1.000      1.000   
C-gga                 2                    # Species label, number of l-shells
 n=2   0   2                         # n, l, Nzeta 
   5.949      3.519   
   1.000      1.000   
 n=2   1   2                         # n, l, Nzeta 
   7.638      3.841   
   1.000      1.000   
%endblock PAO.Basis

prinput: ----------------------------------------------------------------------

coor:   Atomic-coordinates input format  =     Cartesian coordinates
coor:                                          (in Angstroms)

siesta: Atomic coordinates (Bohr) and species
siesta:      0.00000   0.00000   0.00000  2        1
siesta:     -1.32825   2.30060   5.10397  1        2
siesta:     -2.74990   4.76296  25.51979  1        3
siesta:      2.74990   4.76296   5.10397  1        4
siesta:      1.32825   2.30060  25.51979  1        5
siesta:      2.65651   0.00000   5.10397  1        6
siesta:      5.49980   0.00000  25.51979  1        7
siesta:     -2.74990   4.76296   5.10397  1        8
siesta:     -1.32825   2.30060  25.51979  1        9
siesta:      1.32825   2.30060   5.10397  1       10
siesta:      2.74990   4.76296  25.51979  1       11
siesta:      5.49980   0.00000   5.10397  1       12
siesta:      2.65651   0.00000  25.51979  1       13
siesta:     -1.32825   2.30060  15.31188  1       14
siesta:     -2.74990   4.76296  15.31188  1       15
siesta:      2.74990   4.76296  15.31188  1       16
siesta:      1.32825   2.30060  15.31188  1       17
siesta:      2.65651   0.00000  15.31188  1       18
siesta:      5.49980   0.00000  15.31188  1       19

siesta: System type = bulk      

initatomlists: Number of atoms, orbitals, and projectors:     19    44   171

siesta: ******************** Simulation parameters ****************************
siesta:
siesta: The following are some of the parameters of the simulation.
siesta: A complete list of the parameters used, including default values,
siesta: can be found in file out.fdf
siesta:
redata: Spin configuration                          = none
redata: Number of spin components                   = 1
redata: Time-Reversal Symmetry                      = T
redata: Spin spiral                                 = F
redata: Long output                                 =   F
redata: Number of Atomic Species                    =        2
redata: Charge density info will appear in .RHO file
redata: Write Mulliken Pop.                         = NO
redata: Matel table size (NRTAB)                    =     1024
redata: Mesh Cutoff                                 =   300.0000 Ry
redata: Net charge of the system                    =     0.0000 |e|
redata: Min. number of SCF Iter                     =        0
redata: Max. number of SCF Iter                     =     1000
redata: SCF convergence failure will abort job
redata: SCF mix quantity                            = Hamiltonian
redata: Mix DM or H after convergence               =   F
redata: Recompute H after scf cycle                 =   F
redata: Mix DM in first SCF step                    =   T
redata: Write Pulay info on disk                    =   F
redata: New DM Occupancy tolerance                  = 0.000000000001
redata: No kicks to SCF
redata: DM Mixing Weight for Kicks                  =     0.5000
redata: Require Harris convergence for SCF          =   F
redata: Harris energy tolerance for SCF             =     0.000100 eV
redata: Require DM convergence for SCF              =   T
redata: DM tolerance for SCF                        =     0.001000
redata: Require EDM convergence for SCF             =   F
redata: EDM tolerance for SCF                       =     0.005000 eV
redata: Require H convergence for SCF               =   T
redata: Hamiltonian tolerance for SCF               =     0.001000 eV
redata: Require (free) Energy convergence for SCF   =   T
redata: (free) Energy tolerance for SCF             =     0.001000 eV
redata: Using Saved Data (generic)                  =   F
redata: Use continuation files for DM               =   F
redata: Neglect nonoverlap interactions             =   F
redata: Method of Calculation                       = Diagonalization
redata: Electronic Temperature                      =   299.9869 K
redata: Fix the spin of the system                  =   F
redata: Dynamics option                             = Single-point calculation
mix.SCF: Pulay mixing                            = Pulay
mix.SCF:    Variant                              = stable
mix.SCF:    History steps                        = 4
mix.SCF:    Linear mixing weight                 =     0.250000
mix.SCF:    Mixing weight                        =     0.250000
mix.SCF:    SVD condition                        = 0.1000E-07
redata: ***********************************************************************

%block SCF.Mixers
  Pulay
%endblock SCF.Mixers

%block SCF.Mixer.Pulay
  # Mixing method
  method pulay
  variant stable

  # Mixing options
  weight 0.2500
  weight.linear 0.2500
  history 4
%endblock SCF.Mixer.Pulay

DM_history_depth set to one: no extrapolation allowed by default for geometry relaxation
Size of DM history Fstack: 1
Total number of electrons:    22.000000
Total ionic charge:    22.000000

* ProcessorY, Blocksize:    4   1


* Orbital distribution balance (max,min):     3     2

k-point displ. along   1 input, could be:     0.00    0.50
k-point displ. along   2 input, could be:     0.00    0.50
k-point displ. along   3 input, could be:     0.00    0.50
 Kpoints in:           48 . Kpoints trimmed:           44

siesta: k-grid: Number of k-points =    44
siesta: k-grid: Cutoff (effective) =     8.632 Ang
siesta: k-grid: Supercell and displacements
siesta: k-grid:    4   0   0      0.000
siesta: k-grid:    0   4   0      0.000
siesta: k-grid:    0   0   4      0.000

diag: Algorithm                                     = Expert
diag: Parallel over k                               =   T
diag: Use parallel 2D distribution                  =   T
diag: Parallel block-size                           = 1
diag: Parallel distribution                         =     4 x     4
diag: Used triangular part                          = Lower
diag: Absolute tolerance                            =  0.100E-15
diag: Orthogonalization factor                      =  0.100E-05
diag: Memory factor                                 =  1.0000

superc: Internal auxiliary supercell:     9 x     9 x     3  =     243
superc: Number of atoms, orbitals, and projectors:   4617  10692  41553


ts: **************************************************************
ts: Save H and S matrices                           =    F
ts: Save DM and EDM matrices                        =    F
ts: Only save the overlap matrix S                  =    F
ts: **************************************************************

************************ Begin: TS CHECKS AND WARNINGS ************************
************************ End: TS CHECKS AND WARNINGS **************************


                     ====================================
                        Single-point calculation
                     ====================================

outcoor: Atomic coordinates (Ang):                          
    0.00000000    0.00000000    0.00000000   2       1  C-gga
   -0.70288177    1.21742694    2.70090345   1       2  Li-gga
   -1.45518323    2.52045129   13.50448481   1       3  Li-gga
    1.45518323    2.52045129    2.70090345   1       4  Li-gga
    0.70288177    1.21742694   13.50448481   1       5  Li-gga
    1.40576354    0.00000000    2.70090345   1       6  Li-gga
    2.91036646    0.00000000   13.50448481   1       7  Li-gga
   -1.45518323    2.52045129    2.70090345   1       8  Li-gga
   -0.70288177    1.21742694   13.50448481   1       9  Li-gga
    0.70288177    1.21742694    2.70090345   1      10  Li-gga
    1.45518323    2.52045129   13.50448481   1      11  Li-gga
    2.91036646    0.00000000    2.70090345   1      12  Li-gga
    1.40576354    0.00000000   13.50448481   1      13  Li-gga
   -0.70288177    1.21742694    8.10269413   1      14  Li-gga
   -1.45518323    2.52045129    8.10269413   1      15  Li-gga
    1.45518323    2.52045129    8.10269413   1      16  Li-gga
    0.70288177    1.21742694    8.10269413   1      17  Li-gga
    1.40576354    0.00000000    8.10269413   1      18  Li-gga
    2.91036646    0.00000000    8.10269413   1      19  Li-gga

superc: Internal auxiliary supercell:     9 x     9 x     3  =     243
superc: Number of atoms, orbitals, and projectors:   4617  10692  41553

outcell: Unit cell vectors (Ang):
        4.316130    0.000000    0.000000
       -2.158065    3.737878    0.000000
        0.000000    0.000000   16.205388

outcell: Cell vector modules (Ang)   :    4.316130    4.316130   16.205388
outcell: Cell angles (23,13,12) (deg):     90.0000     90.0000    120.0000
outcell: Cell volume (Ang**3)        :    261.4443
<dSpData1D:S at geom step 0
  <sparsity:sparsity for geom step 0
    nrows_g=44 nrows=3 sparsity=2.0930 nnzs=4052, refcount: 7>
  <dData1D:(new from dSpData1D) n=4052, refcount: 1>
refcount: 1>
new_DM -- step:     1
Initializing Density Matrix...
DM filled with atomic data:
<dSpData2D:DM initialized from atoms
  <sparsity:sparsity for geom step 0
    nrows_g=44 nrows=3 sparsity=2.0930 nnzs=4052, refcount: 8>
  <dData2D:DM n=4052 m=1, refcount: 1>
refcount: 1>
No. of atoms with KB's overlaping orbs in proc 0. Max # of overlaps:     229     225
New grid distribution:   1
           1       1:   20    1:    5    1:   23
           2       1:   20    1:    5   24:   46
           3       1:   20    1:    5   47:   68
           4       1:   20    1:    5   69:   90
           5       1:   20    6:   10    1:   23
           6       1:   20    6:   10   24:   46
           7       1:   20    6:   10   47:   68
           8       1:   20    6:   10   69:   90
           9       1:   20   11:   15    1:   23
          10       1:   20   11:   15   24:   46
          11       1:   20   11:   15   47:   68
          12       1:   20   11:   15   69:   90
          13       1:   20   16:   20    1:   23
          14       1:   20   16:   20   24:   46
          15       1:   20   16:   20   47:   68
          16       1:   20   16:   20   69:   90

InitMesh: MESH =    40 x    40 x   180 =      288000
InitMesh: (bp) =    20 x    20 x    90 =       36000
InitMesh: Mesh cutoff (required, used) =   300.000   316.498 Ry
ExtMesh (bp) on 0 =   156 x   141 x   163 =     3585348
New grid distribution:   2
           1       1:   20    1:   10   10:   21
           2       1:   20    1:   10   33:   45
           3       1:   20    1:   10   59:   69
           4       1:   20    1:   10   82:   90
           5       1:   20    1:   10    1:    9
           6       1:   20    1:   10   22:   32
           7       1:   20    1:   10   46:   58
           8       1:   20    1:   10   70:   81
           9       1:   20   11:   20   10:   21
          10       1:   20   11:   20   33:   45
          11       1:   20   11:   20   59:   69
          12       1:   20   11:   20   82:   90
          13       1:   20   11:   20    1:    9
          14       1:   20   11:   20   22:   32
          15       1:   20   11:   20   46:   58
          16       1:   20   11:   20   70:   81
New grid distribution:   3
           1       1:   20    1:   10   13:   23
           2       1:   20    1:   10   24:   34
           3       1:   20    1:   10   46:   57
           4       1:   20    1:   10   80:   90
           5       1:   20    1:   10    1:   12
           6       1:   20    1:   10   35:   45
           7       1:   20    1:   10   58:   68
           8       1:   20    1:   10   69:   79
           9       1:   20   11:   20   13:   23
          10       1:   20   11:   20   35:   45
          11       1:   20   11:   20   46:   57
          12       1:   20   11:   20   80:   90
          13       1:   20   11:   20    1:   12
          14       1:   20   11:   20   24:   34
          15       1:   20   11:   20   58:   68
          16       1:   20   11:   20   69:   79
Setting up quadratic distribution...
ExtMesh (bp) on 0 =   156 x   146 x   152 =     3461952
PhiOnMesh: Number of (b)points on node 0 =                 2400
PhiOnMesh: nlist on node 0 =               247492

stepf: Fermi-Dirac step function

siesta: Program's energy decomposition (eV):
siesta: Ebs     =        37.584465
siesta: Eions   =       439.895300
siesta: Ena     =       156.201636
siesta: Ekin    =       231.104696
siesta: Enl     =        63.909941
siesta: Eso     =         0.000000
siesta: Edftu   =         0.000000
siesta: DEna    =       -13.357729
siesta: DUscf   =        59.993821
siesta: DUext   =         0.000000
siesta: Exc     =      -211.576092
siesta: eta*DQ  =         0.000000
siesta: Emadel  =         0.000000
siesta: Emeta   =         0.000000
siesta: Emolmec =        -7.218846
siesta: Ekinion =         0.000000
siesta: Eharris =       -17.088426
siesta: Etot    =      -160.837873
siesta: FreeEng =      -160.840267

        iscf     Eharris(eV)        E_KS(eV)     FreeEng(eV)     dDmax    Ef(eV) dHmax(eV)
   scf:    1      -17.088426     -160.837873     -160.840267 35.776847 -6.369474 44.997480
timer: Routine,Calls,Time,% = IterSCF        1       0.874  20.22
   scf:    2      838.966083       67.972347       67.965685 59.400510 -5.084056 96.947909
   scf:    3     -314.513754     -184.675589     -184.689693 41.389505 -4.718466 32.175083
   scf:    4     -188.264982     -210.685680     -210.705840  7.875661 -5.454362  9.065451
   scf:    5      147.208581     -103.392271     -103.394765 14.444225 -4.814514 59.735375
   scf:    6       34.001692     -172.173204     -172.178142 17.792062 -6.324425 38.770750
   scf:    7     -226.880400     -210.494407     -210.514245  7.059414 -5.282431  8.724208
   scf:    8     -191.655614     -208.813917     -208.823694  6.624570 -5.233920 13.202738
   scf:    9     -213.627003     -211.478652     -211.502703  1.320395 -5.289072  8.839695
   scf:   10     -199.149327     -210.560892     -210.582383  6.270042 -5.420155  9.713967
   scf:   11     -213.129496     -213.666800     -213.704327  4.146072 -5.414182  0.813459
   scf:   12     -210.124223     -212.388852     -212.419037  1.740517 -5.403718  6.420220
   scf:   13     -213.421840     -213.678592     -213.717451  2.215056 -5.438497  0.589705
   scf:   14     -213.685273     -213.689605     -213.728412  0.219624 -5.435987  0.122687
   scf:   15     -213.612788     -213.665914     -213.704823  0.344500 -5.444609  0.764899
   scf:   16     -213.688731     -213.678485     -213.717453  0.088495 -5.441455  0.513963
   scf:   17     -213.686178     -213.689668     -213.728608  0.305359 -5.453698  0.092093
   scf:   18     -213.689989     -213.689856     -213.728793  0.013812 -5.454188  0.050031
   scf:   19     -213.689996     -213.689955     -213.728870  0.019369 -5.453169  0.005557
   scf:   20     -213.689957     -213.689957     -213.728871  0.003735 -5.453536  0.003672
   scf:   21     -213.689963     -213.689960     -213.728871  0.001610 -5.453740  0.001523
   scf:   22     -213.689963     -213.689961     -213.728871  0.000930 -5.453863  0.000630

SCF Convergence by FreeE+DM+H criterion
|FreeE_i-FreeE_(i-1)| (eV) <     0.00100000
max |DM_out - DM_in|         :     0.0009298637
max |H_out - H_in|      (eV) :     0.0006298465
SCF cycle converged after 22 iterations

Using DM_out to compute the final energy and forces
No. of atoms with KB's overlaping orbs in proc 0. Max # of overlaps:     229     225

MM-Stress (kbar):      -11.98      -11.98       10.90        0.00       -0.00        0.00

siesta: E_KS(eV) =             -213.6900

siesta: E_KS - E_eggbox =      -213.6900

siesta: Atomic forces (eV/Ang):
     1   -0.000000   -0.000000    0.000000
     2   -0.239847    0.415405   -0.626530
     3    0.239847   -0.415405    0.626529
     4   -0.239868   -0.415463   -0.626549
     5    0.239868    0.415463    0.626549
     6    0.479675   -0.000011   -0.626530
     7   -0.479675    0.000011    0.626530
     8    0.239847   -0.415405   -0.626529
     9   -0.239847    0.415405    0.626529
    10    0.239868    0.415463   -0.626549
    11   -0.239868   -0.415463    0.626549
    12   -0.479675    0.000011   -0.626530
    13    0.479675   -0.000011    0.626530
    14   -0.379777    0.657741   -0.000000
    15    0.379777   -0.657741   -0.000000
    16   -0.379787   -0.657811   -0.000000
    17    0.379787    0.657811   -0.000000
    18    0.759509   -0.000026   -0.000000
    19   -0.759509    0.000026   -0.000000
----------------------------------------
   Tot   -0.000000    0.000000   -0.000000
----------------------------------------
   Max    0.759509
   Res    0.437961    sqrt( Sum f_i^2 / 3N )
----------------------------------------
   Max    0.759509    constrained

Stress tensor Voigt[x,y,z,yz,xz,xy] (kbar):    -1171.14    -1171.14      454.71        0.00        0.00       -0.00
(Free)E + p*V (eV/cell)     -111.0583
Target enthalpy (eV/cell)     -213.7289

siesta: Eigenvalues (eV):
  ik is       eps
   1  1  -13.9973  -13.4331  -11.9198  -11.7859  -11.6735  -11.6431  -10.4890  -10.4521  -10.2252  -10.1047
          -6.9659   -6.3169   -5.4663   -5.4612   -3.9129   -0.0943    0.0425    0.0843    1.3251    1.5918
    4.3060    5.6753    6.2376    7.3255    7.4103    7.6303    8.1786   13.6350   13.7855   16.3704
   17.9928   18.1453   18.8531   19.7224   19.8749   20.0442   20.2352   20.5589   20.9875   42.8002
   43.2045   54.0823   60.8905   61.0350
   2  1  -14.2630  -14.1085  -12.6249  -12.0488  -10.3119   -9.1668   -8.9333   -7.6811   -5.8224   -5.7512
          -5.2887   -4.5923   -3.8830   -2.3738   -2.3023   -1.6882   -1.1390   -0.8017    0.2307    3.4706
    4.9664    6.0066    6.6963    7.1166    8.7057    9.0060   12.0616   12.5158   14.0504   17.3866
   19.5057   19.8632   21.1554   21.2311   21.3857   21.5533   22.6173   23.0756   23.1422   28.7223
   35.3566   61.5936   61.8528   65.2158
   3  1  -14.2630  -14.1085  -12.6249  -12.0488  -10.3119   -9.1668   -8.9333   -7.6811   -5.8224   -5.7512
          -5.2888   -4.5923   -3.8830   -2.3738   -2.3023   -1.6882   -1.1389   -0.8017    0.2307    3.4706
    4.9665    6.0066    6.6963    7.1166    8.7056    9.0061   12.0616   12.5157   14.0505   17.3866
   19.5057   19.8632   21.1554   21.2311   21.3857   21.5533   22.6173   23.0756   23.1422   28.7223
   35.3566   61.5936   61.8528   65.2157
   4  1  -13.9973  -13.4331  -11.9198  -11.7859  -11.6735  -11.6431  -10.4890  -10.4521  -10.2252  -10.1047
          -6.9659   -6.3169   -5.4664   -5.4612   -3.9129   -0.0943    0.0425    0.0843    1.3250    1.5919
    4.3060    5.6753    6.2376    7.3255    7.4102    7.6303    8.1787   13.6350   13.7855   16.3704
   17.9929   18.1453   18.8531   19.7225   19.8749   20.0442   20.2351   20.5589   20.9875   42.8002
   43.2045   54.0823   60.8905   61.0350
   5  1  -14.2630  -14.1085  -12.6249  -12.0488  -10.3119   -9.1668   -8.9333   -7.6811   -5.8224   -5.7512
          -5.2887   -4.5923   -3.8830   -2.3738   -2.3023   -1.6882   -1.1390   -0.8017    0.2307    3.4706
    4.9664    6.0066    6.6963    7.1166    8.7057    9.0060   12.0616   12.5158   14.0504   17.3866
   19.5057   19.8632   21.1554   21.2311   21.3857   21.5533   22.6173   23.0756   23.1422   28.7223
   35.3566   61.5936   61.8528   65.2158
   6  1  -14.5238  -14.3933  -12.9605  -12.1378   -8.2327   -5.9777   -5.4112   -4.9330   -4.9329   -1.6942
           0.4962    0.4962    0.8981    0.8981    1.3155    1.3156    1.8849    1.8849    2.8610    3.5424
    3.5424    4.3853    4.3853   11.2759   11.2760   13.6990   13.6990   15.2204   15.2205   15.4687
   17.0984   17.0984   17.6156   17.6157   18.2474   18.2475   22.7856   24.3444   24.5318   24.5318
   24.7875   52.8895   73.8625   74.3615
   7  1  -13.9808  -13.1617  -13.0220  -11.7757  -11.5460  -11.4294  -10.9345   -7.2741   -6.7460   -6.6136
          -5.9165   -5.7354   -5.6526   -5.4530   -4.4279   -4.4196   -3.9332   -3.7944   -3.4482   -3.1617
   -0.3890    0.5671    4.5122    7.2045   10.6282   11.6272   12.6108   13.7659   14.7577   17.2116
   17.5074   18.7952   18.9972   19.0905   19.3707   20.0687   24.1683   34.5376   51.8930   51.9737
   55.5214   57.8722   57.9169   58.4068
   8  1  -13.9973  -13.4331  -11.9198  -11.7859  -11.6735  -11.6431  -10.4890  -10.4521  -10.2252  -10.1047
          -6.9659   -6.3169   -5.4664   -5.4612   -3.9129   -0.0943    0.0425    0.0843    1.3250    1.5919
    4.3060    5.6753    6.2376    7.3255    7.4102    7.6303    8.1787   13.6350   13.7855   16.3704
   17.9929   18.1453   18.8531   19.7225   19.8749   20.0442   20.2351   20.5589   20.9875   42.8002
   43.2045   54.0823   60.8905   61.0350
   9  1  -13.9973  -13.4331  -11.9198  -11.7859  -11.6735  -11.6431  -10.4890  -10.4521  -10.2252  -10.1047
          -6.9659   -6.3169   -5.4664   -5.4612   -3.9129   -0.0943    0.0425    0.0843    1.3250    1.5919
    4.3060    5.6753    6.2376    7.3255    7.4102    7.6303    8.1787   13.6350   13.7855   16.3704
   17.9929   18.1453   18.8531   19.7225   19.8749   20.0442   20.2351   20.5589   20.9875   42.8002
   43.2045   54.0823   60.8905   61.0350
  10  1  -13.9808  -13.1617  -13.0220  -11.7757  -11.5460  -11.4294  -10.9345   -7.2741   -6.7460   -6.6136
          -5.9165   -5.7354   -5.6526   -5.4530   -4.4279   -4.4196   -3.9332   -3.7944   -3.4482   -3.1617
   -0.3890    0.5671    4.5122    7.2045   10.6282   11.6272   12.6108   13.7659   14.7577   17.2116
   17.5074   18.7952   18.9972   19.0905   19.3707   20.0687   24.1683   34.5376   51.8930   51.9737
   55.5214   57.8722   57.9169   58.4068
  11  1  -13.9973  -13.4331  -11.9198  -11.7859  -11.6735  -11.6431  -10.4890  -10.4521  -10.2252  -10.1047
          -6.9659   -6.3169   -5.4664   -5.4612   -3.9129   -0.0943    0.0425    0.0843    1.3250    1.5919
    4.3060    5.6753    6.2376    7.3255    7.4102    7.6303    8.1787   13.6350   13.7855   16.3704
   17.9929   18.1453   18.8531   19.7225   19.8749   20.0442   20.2351   20.5589   20.9875   42.8002
   43.2045   54.0823   60.8905   61.0350
  12  1  -13.9808  -13.1617  -13.0220  -11.7757  -11.5459  -11.4294  -10.9345   -7.2741   -6.7460   -6.6136
          -5.9165   -5.7354   -5.6526   -5.4530   -4.4279   -4.4196   -3.9332   -3.7944   -3.4482   -3.1618
   -0.3890    0.5672    4.5122    7.2045   10.6281   11.6272   12.6109   13.7658   14.7577   17.2116
   17.5074   18.7952   18.9972   19.0906   19.3707   20.0687   24.1683   34.5375   51.8931   51.9737
   55.5214   57.8722   57.9169   58.4068
  13  1  -13.9785  -13.4371  -11.9290  -11.7662  -11.6725  -11.6346  -10.4778  -10.4550  -10.2315  -10.0817
          -6.8721   -6.2578   -5.4464   -5.4083   -3.6953   -1.1273   -1.0963   -0.0482    2.7152    2.9472
    4.1529    4.4934    5.8939    6.7834    7.3731    8.1284    8.4984   14.1128   14.2560   15.8745
   17.3690   18.3032   18.4221   18.7675   18.9191   19.7040   20.0135   20.3298   20.6459   20.8935
   22.3311   54.5939   58.4637   62.8935
  14  1  -14.2509  -14.1402  -12.6822  -12.0267  -10.3050   -9.1331   -8.9710   -7.5638   -6.0778   -5.4782
          -5.2741   -4.4043   -3.9126   -2.5344   -2.3930   -1.6632   -1.1159   -0.8041    0.3091    3.5996
    4.8996    6.0355    6.7304    7.4906    9.0270    9.3983   11.3401   12.4183   14.2863   15.4904
   18.5003   18.8860   19.6597   21.4090   21.5467   22.9616   23.0797   23.3367   24.0563   33.8340
   37.2498   61.4002   62.8894   64.3366
  15  1  -14.2509  -14.1402  -12.6822  -12.0267  -10.3050   -9.1331   -8.9710   -7.5638   -6.0778   -5.4782
          -5.2742   -4.4043   -3.9126   -2.5344   -2.3930   -1.6632   -1.1159   -0.8040    0.3091    3.5996
    4.8996    6.0355    6.7304    7.4907    9.0270    9.3983   11.3400   12.4182   14.2863   15.4905
   18.5003   18.8860   19.6596   21.4090   21.5467   22.9616   23.0797   23.3367   24.0563   33.8340
   37.2497   61.4002   62.8894   64.3366
  16  1  -13.9785  -13.4371  -11.9290  -11.7662  -11.6725  -11.6346  -10.4778  -10.4550  -10.2315  -10.0817
          -6.8721   -6.2578   -5.4465   -5.4083   -3.6953   -1.1273   -1.0963   -0.0481    2.7152    2.9472
    4.1528    4.4934    5.8939    6.7833    7.3732    8.1284    8.4984   14.1129   14.2560   15.8745
   17.3690   18.3032   18.4221   18.7675   18.9191   19.7040   20.0135   20.3298   20.6459   20.8935
   22.3311   54.5939   58.4637   62.8935
  17  1  -14.2509  -14.1402  -12.6822  -12.0267  -10.3050   -9.1331   -8.9710   -7.5638   -6.0778   -5.4782
          -5.2741   -4.4043   -3.9126   -2.5344   -2.3930   -1.6632   -1.1159   -0.8041    0.3091    3.5996
    4.8996    6.0355    6.7304    7.4906    9.0270    9.3983   11.3401   12.4183   14.2863   15.4904
   18.5003   18.8860   19.6597   21.4090   21.5467   22.9616   23.0797   23.3367   24.0563   33.8340
   37.2498   61.4002   62.8894   64.3366
  18  1  -14.5218  -14.4145  -13.0051  -12.1257   -8.1067   -6.2387   -4.9309   -4.9308   -4.9005   -1.6507
           0.5209    0.5209    0.8988    0.8988    1.5485    1.5486    2.1922    2.1922    2.9811    3.1626
    3.1627    4.0148    4.0148   11.4825   11.4826   13.1518   13.1519   14.2636   14.2637   14.5228
   14.5229   15.4545   17.2187   17.2188   22.7732   22.7732   22.8286   24.3625   24.5834   24.5834
   24.7624   54.5950   66.2293   81.2906
  19  1  -14.2509  -14.1402  -12.6822  -12.0267  -10.3050   -9.1331   -8.9710   -7.5638   -6.0778   -5.4782
          -5.2741   -4.4043   -3.9126   -2.5344   -2.3930   -1.6632   -1.1159   -0.8041    0.3091    3.5996
    4.8996    6.0355    6.7304    7.4906    9.0270    9.3983   11.3401   12.4183   14.2863   15.4904
   18.5003   18.8860   19.6597   21.4090   21.5467   22.9616   23.0797   23.3367   24.0563   33.8340
   37.2498   61.4002   62.8894   64.3366
  20  1  -13.9628  -13.1460  -13.0351  -11.7772  -11.5564  -11.4601  -10.9233   -7.4949   -6.6419   -6.5331
          -5.7009   -5.5146   -5.4578   -5.3968   -4.5834   -4.0474   -3.8927   -3.4085   -3.3218   -3.1114
   -0.7237    0.2692    4.9418    7.5747   10.2737   11.9638   12.1865   13.2626   13.6832   17.2079
   17.5011   17.6975   18.7867   19.0231   19.0593   19.3906   25.7267   33.2369   52.5015   53.2538
   54.9779   56.9369   57.4824   58.3015
  21  1  -14.2509  -14.1402  -12.6822  -12.0267  -10.3050   -9.1331   -8.9710   -7.5638   -6.0778   -5.4782
          -5.2742   -4.4043   -3.9126   -2.5344   -2.3930   -1.6632   -1.1159   -0.8040    0.3091    3.5996
    4.8996    6.0355    6.7304    7.4907    9.0270    9.3983   11.3400   12.4182   14.2863   15.4905
   18.5003   18.8860   19.6596   21.4090   21.5467   22.9616   23.0797   23.3367   24.0563   33.8340
   37.2497   61.4002   62.8894   64.3366
  22  1  -14.2509  -14.1402  -12.6822  -12.0267  -10.3050   -9.1331   -8.9710   -7.5638   -6.0778   -5.4782
          -5.2741   -4.4043   -3.9126   -2.5344   -2.3930   -1.6632   -1.1159   -0.8041    0.3091    3.5996
    4.8996    6.0355    6.7304    7.4906    9.0270    9.3983   11.3401   12.4183   14.2863   15.4904
   18.5003   18.8860   19.6597   21.4090   21.5467   22.9616   23.0797   23.3367   24.0563   33.8340
   37.2498   61.4002   62.8894   64.3366
  23  1  -13.9785  -13.4371  -11.9290  -11.7662  -11.6725  -11.6346  -10.4778  -10.4550  -10.2315  -10.0817
          -6.8721   -6.2578   -5.4464   -5.4083   -3.6953   -1.1273   -1.0963   -0.0482    2.7152    2.9472
    4.1529    4.4934    5.8939    6.7834    7.3731    8.1284    8.4984   14.1128   14.2560   15.8745
   17.3690   18.3032   18.4221   18.7675   18.9191   19.7040   20.0135   20.3298   20.6459   20.8935
   22.3311   54.5939   58.4637   62.8935
  24  1  -13.9785  -13.4371  -11.9290  -11.7662  -11.6725  -11.6346  -10.4778  -10.4550  -10.2315  -10.0817
          -6.8721   -6.2578   -5.4465   -5.4083   -3.6953   -1.1273   -1.0963   -0.0481    2.7152    2.9472
    4.1528    4.4934    5.8939    6.7833    7.3732    8.1284    8.4984   14.1129   14.2560   15.8745
   17.3690   18.3032   18.4221   18.7675   18.9191   19.7040   20.0135   20.3298   20.6459   20.8935
   22.3311   54.5939   58.4637   62.8935
  25  1  -13.9785  -13.4371  -11.9290  -11.7662  -11.6725  -11.6346  -10.4778  -10.4550  -10.2315  -10.0817
          -6.8721   -6.2578   -5.4465   -5.4083   -3.6953   -1.1273   -1.0963   -0.0481    2.7152    2.9472
    4.1528    4.4934    5.8939    6.7833    7.3732    8.1284    8.4984   14.1129   14.2560   15.8745
   17.3690   18.3032   18.4221   18.7675   18.9191   19.7040   20.0135   20.3298   20.6459   20.8935
   22.3311   54.5939   58.4637   62.8935
  26  1  -13.9628  -13.1460  -13.0351  -11.7772  -11.5564  -11.4601  -10.9233   -7.4949   -6.6419   -6.5331
          -5.7009   -5.5146   -5.4578   -5.3968   -4.5834   -4.0474   -3.8927   -3.4085   -3.3218   -3.1114
   -0.7237    0.2692    4.9418    7.5747   10.2737   11.9638   12.1865   13.2626   13.6832   17.2079
   17.5011   17.6975   18.7867   19.0231   19.0593   19.3906   25.7267   33.2369   52.5015   53.2538
   54.9779   56.9369   57.4824   58.3015
  27  1  -13.9785  -13.4371  -11.9290  -11.7662  -11.6725  -11.6346  -10.4778  -10.4550  -10.2315  -10.0817
          -6.8721   -6.2578   -5.4465   -5.4083   -3.6953   -1.1273   -1.0963   -0.0481    2.7152    2.9472
    4.1528    4.4934    5.8939    6.7833    7.3732    8.1284    8.4984   14.1129   14.2560   15.8745
   17.3690   18.3032   18.4221   18.7675   18.9191   19.7040   20.0135   20.3298   20.6459   20.8935
   22.3311   54.5939   58.4637   62.8935
  28  1  -13.9628  -13.1460  -13.0351  -11.7772  -11.5564  -11.4601  -10.9233   -7.4949   -6.6419   -6.5330
          -5.7009   -5.5146   -5.4578   -5.3968   -4.5833   -4.0474   -3.8927   -3.4084   -3.3218   -3.1115
   -0.7236    0.2693    4.9418    7.5746   10.2736   11.9639   12.1865   13.2626   13.6832   17.2078
   17.5011   17.6975   18.7867   19.0231   19.0593   19.3906   25.7267   33.2368   52.5016   53.2538
   54.9779   56.9369   57.4824   58.3015
  29  1  -13.9528  -13.4436  -11.9503  -11.7224  -11.6834  -11.6293  -10.5018  -10.4261  -10.2383  -10.0462
          -6.8673   -5.8897   -5.4240   -4.1133   -3.7221   -1.1033   -0.9278   -0.4566    0.4921    3.9643
    3.9766    4.1494    5.5935    7.4925    9.3131    9.4860   10.2655   10.2918   10.9656   12.6569
   17.8698   18.0699   18.8336   19.5505   19.6811   19.7657   19.8462   20.4029   20.6671   31.0773
   31.4393   55.9897   56.2732   64.1183
  30  1  -14.3580  -14.2249  -13.0217  -11.9423  -10.2996   -9.0429   -9.0366   -7.4938   -5.4375   -5.2584
          -4.4205   -4.2819   -3.9497   -2.6863   -2.5042   -1.6483   -0.8165   -0.6061    3.7229    3.9058
    4.8368    6.0618    6.7623    7.9269    9.7528   10.2846   10.4188   12.2898   13.2595   14.8387
   18.1889   19.7503   21.4180   21.6332   22.7622   23.0058   23.0809   23.6470   25.0483   39.5459
   39.8317   62.5020   62.5635   63.5273
  31  1  -14.3580  -14.2249  -13.0217  -11.9423  -10.2996   -9.0429   -9.0366   -7.4938   -5.4374   -5.2584
          -4.4205   -4.2819   -3.9497   -2.6863   -2.5042   -1.6483   -0.8164   -0.6060    3.7229    3.9059
    4.8368    6.0618    6.7623    7.9270    9.7528   10.2845   10.4188   12.2898   13.2595   14.8387
   18.1889   19.7502   21.4180   21.6332   22.7622   23.0058   23.0809   23.6470   25.0483   39.5459
   39.8317   62.5020   62.5635   63.5273
  32  1  -13.9528  -13.4436  -11.9503  -11.7224  -11.6834  -11.6293  -10.5018  -10.4261  -10.2383  -10.0462
          -6.8673   -5.8897   -5.4241   -4.1133   -3.7221   -1.1033   -0.9278   -0.4566    0.4920    3.9644
    3.9766    4.1494    5.5935    7.4924    9.3131    9.4860   10.2655   10.2917   10.9655   12.6569
   17.8698   18.0699   18.8336   19.5505   19.6812   19.7657   19.8462   20.4029   20.6671   31.0773
   31.4393   55.9896   56.2732   64.1183
  33  1  -14.3580  -14.2249  -13.0217  -11.9423  -10.2996   -9.0429   -9.0366   -7.4938   -5.4375   -5.2584
          -4.4205   -4.2819   -3.9497   -2.6863   -2.5042   -1.6483   -0.8165   -0.6061    3.7229    3.9058
    4.8368    6.0618    6.7623    7.9269    9.7528   10.2846   10.4188   12.2898   13.2595   14.8387
   18.1889   19.7503   21.4180   21.6332   22.7622   23.0058   23.0809   23.6470   25.0483   39.5459
   39.8317   62.5020   62.5635   63.5273
  34  1  -14.7462  -14.4416  -13.3651  -12.0335   -7.9920   -4.9288   -4.9287   -4.6023   -4.3294    0.5437
           0.5437    0.9014    0.9014    2.0538    2.0538    2.5055    2.5056    2.8453    2.8453    3.0001
    3.2753    3.2753    6.4607   11.9209   11.9209   12.8060   12.8060   13.1303   13.1305   13.2103
   13.2104   14.7534   17.3319   17.3319   22.8706   24.3847   24.6798   24.6798   24.7333   25.5420
   25.5420   59.2390   59.4576   84.4681
  35  1  -14.3580  -14.2249  -13.0217  -11.9423  -10.2996   -9.0429   -9.0366   -7.4938   -5.4375   -5.2584
          -4.4205   -4.2819   -3.9497   -2.6863   -2.5042   -1.6483   -0.8165   -0.6061    3.7229    3.9058
    4.8368    6.0618    6.7623    7.9269    9.7528   10.2846   10.4188   12.2898   13.2595   14.8387
   18.1889   19.7503   21.4180   21.6332   22.7622   23.0058   23.0809   23.6470   25.0483   39.5459
   39.8317   62.5020   62.5635   63.5273
  36  1  -13.9218  -13.1427  -13.0784  -11.7713  -11.5955  -11.5464  -10.8938   -7.7303   -6.7993   -6.0871
          -5.6611   -5.4664   -4.4528   -4.4322   -4.3203   -4.1498   -3.8566   -3.7269   -3.0734   -2.5501
    3.5317    4.6342    8.1429    8.6063    9.0160   10.0828   10.8596   12.1658   13.5412   15.5349
   17.2041   17.4935   18.7807   19.0418   19.0466   19.4091   26.8276   32.3590   53.5575   55.3104
   55.9097   55.9457   56.2753   56.4876
  37  1  -14.3580  -14.2249  -13.0217  -11.9423  -10.2996   -9.0429   -9.0366   -7.4938   -5.4374   -5.2584
          -4.4205   -4.2819   -3.9497   -2.6863   -2.5042   -1.6483   -0.8164   -0.6060    3.7229    3.9059
    4.8368    6.0618    6.7623    7.9270    9.7528   10.2845   10.4188   12.2898   13.2595   14.8387
   18.1889   19.7502   21.4180   21.6332   22.7622   23.0058   23.0809   23.6470   25.0483   39.5459
   39.8317   62.5020   62.5635   63.5273
  38  1  -14.3580  -14.2249  -13.0217  -11.9423  -10.2996   -9.0429   -9.0366   -7.4938   -5.4375   -5.2584
          -4.4205   -4.2819   -3.9497   -2.6863   -2.5042   -1.6483   -0.8165   -0.6061    3.7229    3.9058
    4.8368    6.0618    6.7623    7.9269    9.7528   10.2846   10.4188   12.2898   13.2595   14.8387
   18.1889   19.7503   21.4180   21.6332   22.7622   23.0058   23.0809   23.6470   25.0483   39.5459
   39.8317   62.5020   62.5635   63.5273
  39  1  -13.9528  -13.4436  -11.9503  -11.7224  -11.6834  -11.6293  -10.5018  -10.4261  -10.2383  -10.0462
          -6.8673   -5.8897   -5.4240   -4.1133   -3.7221   -1.1033   -0.9278   -0.4566    0.4921    3.9643
    3.9766    4.1494    5.5935    7.4925    9.3131    9.4860   10.2655   10.2918   10.9656   12.6569
   17.8698   18.0699   18.8336   19.5505   19.6811   19.7657   19.8462   20.4029   20.6671   31.0773
   31.4393   55.9897   56.2732   64.1183
  40  1  -13.9528  -13.4436  -11.9503  -11.7224  -11.6834  -11.6293  -10.5018  -10.4261  -10.2383  -10.0462
          -6.8673   -5.8897   -5.4241   -4.1133   -3.7221   -1.1033   -0.9278   -0.4566    0.4920    3.9644
    3.9766    4.1494    5.5935    7.4924    9.3131    9.4860   10.2655   10.2917   10.9655   12.6569
   17.8698   18.0699   18.8336   19.5505   19.6812   19.7657   19.8462   20.4029   20.6671   31.0773
   31.4393   55.9896   56.2732   64.1183
  41  1  -13.9528  -13.4436  -11.9503  -11.7224  -11.6834  -11.6293  -10.5018  -10.4261  -10.2383  -10.0462
          -6.8673   -5.8897   -5.4241   -4.1133   -3.7221   -1.1033   -0.9278   -0.4566    0.4920    3.9644
    3.9766    4.1494    5.5935    7.4924    9.3131    9.4859   10.2655   10.2917   10.9655   12.6569
   17.8698   18.0699   18.8336   19.5505   19.6812   19.7657   19.8462   20.4029   20.6671   31.0773
   31.4393   55.9896   56.2732   64.1183
  42  1  -13.9218  -13.1427  -13.0784  -11.7713  -11.5955  -11.5464  -10.8938   -7.7303   -6.7993   -6.0871
          -5.6611   -5.4664   -4.4528   -4.4322   -4.3203   -4.1498   -3.8566   -3.7269   -3.0734   -2.5501
    3.5317    4.6342    8.1429    8.6063    9.0160   10.0828   10.8596   12.1658   13.5412   15.5349
   17.2041   17.4935   18.7807   19.0418   19.0466   19.4091   26.8276   32.3590   53.5575   55.3104
   55.9097   55.9457   56.2753   56.4876
  43  1  -13.9528  -13.4436  -11.9503  -11.7224  -11.6834  -11.6293  -10.5018  -10.4261  -10.2383  -10.0462
          -6.8673   -5.8897   -5.4241   -4.1133   -3.7221   -1.1033   -0.9278   -0.4566    0.4920    3.9644
    3.9766    4.1494    5.5935    7.4924    9.3131    9.4859   10.2655   10.2917   10.9655   12.6569
   17.8698   18.0699   18.8336   19.5505   19.6812   19.7657   19.8462   20.4029   20.6671   31.0773
   31.4393   55.9896   56.2732   64.1183
  44  1  -13.9218  -13.1427  -13.0784  -11.7713  -11.5955  -11.5465  -10.8938   -7.7303   -6.7993   -6.0870
          -5.6612   -5.4664   -4.4528   -4.4322   -4.3203   -4.1498   -3.8566   -3.7269   -3.0735   -2.5501
    3.5319    4.6342    8.1429    8.6062    9.0159   10.0828   10.8596   12.1657   13.5412   15.5349
   17.2041   17.4935   18.7807   19.0418   19.0465   19.4091   26.8276   32.3589   53.5576   55.3104
   55.9097   55.9457   56.2753   56.4876
siesta: Fermi energy =      -5.453863 eV

siesta: Program's energy decomposition (eV):
siesta: Ebs     =      -226.073721
siesta: Eions   =       439.895300
siesta: Ena     =       156.201636
siesta: Ekin    =       178.480175
siesta: Enl     =        78.690498
siesta: Eso     =         0.000000
siesta: Edftu   =         0.000000
siesta: DEna    =        15.392894
siesta: DUscf   =         1.035088
siesta: DUext   =         0.000000
siesta: Exc     =      -196.376105
siesta: eta*DQ  =         0.000000
siesta: Emadel  =         0.000000
siesta: Emeta   =         0.000000
siesta: Emolmec =        -7.218846
siesta: Ekinion =         0.000000
siesta: Eharris =      -213.689963
siesta: Etot    =      -213.689961
siesta: FreeEng =      -213.728871

siesta: Final energy (eV):
siesta:  Band Struct. =    -226.073721
siesta:       Kinetic =     178.480175
siesta:       Hartree =     134.964579
siesta:       Edftu   =       0.000000
siesta:       Eso     =       0.000000
siesta:    Ext. field =       0.000000
siesta:   Exch.-corr. =    -196.376105
siesta:  Ion-electron =    -479.910795
siesta:       Ion-ion =     156.371031
siesta:       Ekinion =       0.000000
siesta:         Total =    -213.689961
siesta:         Fermi =      -5.453863

siesta: Atomic forces (eV/Ang):
siesta:      1   -0.000000   -0.000000    0.000000
siesta:      2   -0.239847    0.415405   -0.626530
siesta:      3    0.239847   -0.415405    0.626529
siesta:      4   -0.239868   -0.415463   -0.626549
siesta:      5    0.239868    0.415463    0.626549
siesta:      6    0.479675   -0.000011   -0.626530
siesta:      7   -0.479675    0.000011    0.626530
siesta:      8    0.239847   -0.415405   -0.626529
siesta:      9   -0.239847    0.415405    0.626529
siesta:     10    0.239868    0.415463   -0.626549
siesta:     11   -0.239868   -0.415463    0.626549
siesta:     12   -0.479675    0.000011   -0.626530
siesta:     13    0.479675   -0.000011    0.626530
siesta:     14   -0.379777    0.657741   -0.000000
siesta:     15    0.379777   -0.657741   -0.000000
siesta:     16   -0.379787   -0.657811   -0.000000
siesta:     17    0.379787    0.657811   -0.000000
siesta:     18    0.759509   -0.000026   -0.000000
siesta:     19   -0.759509    0.000026   -0.000000
siesta: ----------------------------------------
siesta:    Tot   -0.000000    0.000000   -0.000000

siesta: Stress tensor (static) (eV/Ang**3):
siesta:    -0.730958   -0.000002    0.000000
siesta:    -0.000002   -0.730961    0.000000
siesta:     0.000000    0.000000    0.283804

siesta: Cell volume =        261.444257 Ang**3

siesta: Pressure (static):
siesta:                Solid            Molecule  Units
siesta:           0.00427706          0.00382085  Ry/Bohr**3
siesta:           0.39270527          0.35081730  eV/Ang**3
siesta:         629.19000948        562.07735452  kBar
(Free)E+ p_basis*V_orbitals  =        -181.123061
(Free)Eharris+ p_basis*V_orbitals  =        -181.123063

cite: Please see "LiC18_scf.bib" for an exhaustive BiBTeX file.
cite: Please clearly indicate Siesta version in published work: 4.1.5
cite: This calculation has made use of the following articles
cite: which are encouraged to be cited in a published work.
        Primary SIESTA paper
          DOI: www.doi.org/10.1088/0953-8984/14/11/302

>> End of run:   9-NOV-2022   8:52:52
Job completed
