Siesta Version  : 4.1.5
Architecture    : x86_64-unknown-linux-gnu--unknown
Compiler version: GNU Fortran (GCC) 11.3.0
Compiler flags  : mpif90 -g -O2 -fallow-argument-mismatch
PP flags        : -DMPI -DFC_HAVE_FLUSH -DFC_HAVE_ABORT
Libraries       :  -I/global/software/sl-7.x86_64/modules/intel/2020.4.304/mkl/include  /globall/software/sl-7.x86_64/modules/intel/2020.4.304/mkl/lib/intel64/libmkl_scalapack_lp64.a -Wl,--start-group /global/software/sl-7.x86_64/modules/intel/2020.4.304/mkl/lib/intel64/libmkl_intel_lp64.a /global/software/sl-7.x86_64/modules/intel/2020.4.304/mkl/lib/intel64/libmkl_sequential.a /global/software/sl-7.x86_64/modules/intel/2020.4.304/mkl/lib/intel64/libmkl_core.a /global/software/sl-7.x86_64/modules/intel/2020.4.304/mkl/lib/intel64/libmkl_blacs_openmpi_lp64.a -Wl,--end-group -lpthread -lm -ldl
PARALLEL version

* Running on 16 nodes in parallel
>> Start of run:   9-NOV-2022   8:47:03

                           ***********************       
                           *  WELCOME TO SIESTA  *       
                           ***********************       

reinit: Reading from standard input
reinit: Dumped input in INPUT_TMP.98017
************************** Dump of input data file ****************************
SystemName LiC18_scf
SystemLabel LiC18_scf
NumberOfAtoms   19
NumberOfSpecies 2
%block ChemicalSpeciesLabel
1  3   Li-gga
2  6   C-gga
%endblock ChemicalSpeciesLabel
PAO.BasisSize  DZ
PAO.EnergyShift  10 meV
%block PS.Lmax
C-gga   2
Li-gga  2
%endblock PS.Lmax
LatticeConstant 1.000000 Ang
%block LatticeVectors
	4.3161300000	0.0000000000	0.0000000000
	-2.1580650000	3.7378782260	0.0000000000
	0.0000000000	0.0000000000	11.0995810000
%endblock LatticeVectors
AtomicCoordinatesFormat Ang
%block AtomicCoordinatesAndAtomicSpecies
	0.00000000	0.00000000	0.00000000	2
	-0.70288177	1.21742694	1.84993387	1
	-1.45518323	2.52045129	9.24964713	1
	1.45518323	2.52045129	1.84993387	1
	0.70288177	1.21742694	9.24964713	1
	1.40576354	0.00000000	1.84993387	1
	2.91036646	0.00000000	9.24964713	1
	-1.45518323	2.52045129	1.84993387	1
	-0.70288177	1.21742694	9.24964713	1
	0.70288177	1.21742694	1.84993387	1
	1.45518323	2.52045129	9.24964713	1
	2.91036646	0.00000000	1.84993387	1
	1.40576354	0.00000000	9.24964713	1
	-0.70288177	1.21742694	5.54979050	1
	-1.45518323	2.52045129	5.54979050	1
	1.45518323	2.52045129	5.54979050	1
	0.70288177	1.21742694	5.54979050	1
	1.40576354	0.00000000	5.54979050	1
	2.91036646	0.00000000	5.54979050	1
%endblock AtomicCoordinatesAndAtomicSpecies
Kgrid_NoTRS  T
%block kgrid_MonkhorstPack
4       0       0       0.0
0       4       0       0.0
0       0       4       0.0
%endblock kgrid_MonkhorstPack
AtomCoorFormatOut Ang
BlockSize 1
#ProcessorY 12
Diag.ParallelOverK   T
Diag.DivideAndConquer F
MeshCutoff   300 Ry
SCF.FreeE.Tolerance 1E-3 eV
SCF.EDM.Tolerance   5E-3 eV
DM.Tolerance  1E-3
DM.Require.Energy.Convergence T
DM.NumberPulay 4
XC.Functional GGA
XC.Authors    PBE
UseSaveData        F
MD.TypeOfRun       CG
MD.VariableCell    F
MD.NumCGsteps      00
MD.MaxCGDispl      0.200000 Bohr
MD.MaxStressTol    1.000000 GPa
MD.MaxForceTol     0.010000 eV/Ang
WriteMDHistory T
WriteCoorStep T
WriteForces T
WriteCoorStep    T
WriteEigenValues T
WriteDM    F
MM.UnitsDistance Ang  # what this program prints out DO NOT CHANGE
MM.UnitsEnergy    eV  # what this program prints out DO NOT CHANGE
MM.Grimme.S6     0.75 # Grimme-paper for PBE (correct for your functional)
MM.Grimme.D     20.   # Grimme-paper (correct for your functional)
%block MM.Potentials
  1   1 Grimme     16.69      1.650 # Li, 10.1002/jcc.20495
  1   2 Grimme     17.40      2.277 # Li / C
  2   2 Grimme     18.14      2.904 # C, 10.1002/jcc.20495
%endblock MM.Potentials
#%block ProjectedDensityOfStates
# -200.0  120.0  0.4  12800  eV
#%endblock ProjectedDensityOfStates
************************** End of input data file *****************************

reinit: -----------------------------------------------------------------------
reinit: System Name: LiC18_scf
reinit: -----------------------------------------------------------------------
reinit: System Label: LiC18_scf
reinit: -----------------------------------------------------------------------
Reading two-body potentials
Grimme - two-body potential between 1 and 1
Grimme - two-body potential between 1 and 2
Grimme - two-body potential between 2 and 2

initatom: Reading input for the pseudopotentials and atomic orbitals ----------
Species number:   1 Atomic number:    3 Label: Li-gga
Species number:   2 Atomic number:    6 Label: C-gga

Ground state valence configuration:   2s01
Reading pseudopotential information in formatted form from Li-gga.psf

Valence configuration for pseudopotential generation:
2s( 1.00) rc: 2.28
2p( 0.00) rc: 2.28
3d( 0.00) rc: 2.59
4f( 0.00) rc: 2.59
Ground state valence configuration:   2s02  2p02
Reading pseudopotential information in formatted form from C-gga.psf

Valence configuration for pseudopotential generation:
2s( 2.00) rc: 1.56
2p( 2.00) rc: 1.56
3d( 0.00) rc: 1.56
4f( 0.00) rc: 1.56
relmxkb: Read Max KB Ang. Momentum=    2 for species C-gga
relmxkb: Read Max KB Ang. Momentum=    2 for species Li-gga

<basis_specs>
===============================================================================
Li-gga               Z=   3    Mass=  6.9400        Charge= 0.17977+309
Lmxo=0 Lmxkb= 2    BasisType=split      Semic=F
L=0  Nsemic=0  Cnfigmx=2
          i=1  nzeta=2  polorb=0  (2s)
            splnorm:   0.15000    
               vcte:    0.0000    
               rinn:    0.0000    
               qcoe:    0.0000    
               qyuk:    0.0000    
               qwid:   0.10000E-01
                rcs:    0.0000      0.0000    
            lambdas:    1.0000      1.0000    
-------------------------------------------------------------------------------
L=0  Nkbl=1  erefs: 0.17977+309
L=1  Nkbl=1  erefs: 0.17977+309
L=2  Nkbl=1  erefs: 0.17977+309
===============================================================================
</basis_specs>

atom: Called for Li-gga                (Z =   3)

read_vps: Pseudopotential generation method:
read_vps: ATM 3.2.2 Troullier-Martins                       
Valence charge for ps generation:    1.00000

read_vps: Pseudopotential includes a core correction:
read_vps: Pseudo-core for xc-correction

xc_check: Exchange-correlation functional:
xc_check: GGA Perdew, Burke & Ernzerhof 1996
V l=0 = -2*Zval/r beyond r=  2.2278
V l=1 = -2*Zval/r beyond r=  2.2278
V l=2 = -2*Zval/r beyond r=  2.5245
All V_l potentials equal beyond r=  2.4622
This should be close to max(r_c) in ps generation
All pots = -2*Zval/r beyond r=  2.5245

VLOCAL1: 99.0% of the norm of Vloc inside      7.160 Ry
VLOCAL1: 99.9% of the norm of Vloc inside     16.318 Ry
atom: Maximum radius for 4*pi*r*r*local-pseudopot. charge    2.86079
atom: Maximum radius for r*vlocal+2*Zval:    2.43160
GHOST: No ghost state for L =  0
GHOST: No ghost state for L =  1
GHOST: No ghost state for L =  2

KBgen: Kleinman-Bylander projectors: 
   l= 0   rc=  2.654023   el= -0.211234   Ekb=  1.742119   kbcos=  0.228463
   l= 1   rc=  2.721230   el= -0.080095   Ekb= -1.122375   kbcos= -0.147941
   l= 2   rc=  2.825246   el=  0.002001   Ekb= -0.207076   kbcos= -0.031965

KBgen: Total number of Kleinman-Bylander projectors:    9
atom: -------------------------------------------------------------------------

atom: SANKEY-TYPE ORBITALS:
atom: Selected multiple-zeta basis: split     

SPLIT: Orbitals with angular momentum L= 0

SPLIT: Basis orbitals for state 2s

SPLIT: PAO cut-off radius determined from an
SPLIT: energy shift=  0.000735 Ry

   izeta = 1
                 lambda =    1.000000
                     rc =   11.897381
                 energy =   -0.210580
                kinetic =    0.143382
    potential(screened) =   -0.353962
       potential(ionic) =   -0.533453

   izeta = 2
                 rmatch =    8.489163
              splitnorm =    0.150000
                 energy =   -0.186081
                kinetic =    0.225882
    potential(screened) =   -0.411964
       potential(ionic) =   -0.593024
atom: Total number of Sankey-type orbitals:  2

atm_pop: Valence configuration (for local Pseudopot. screening):
 2s( 1.00)                                                            
Vna: chval, zval:    1.00000   1.00000

Vna:  Cut-off radius for the neutral-atom potential:  11.897381
comcore: Pseudo-core radius Rcore=  3.450946

atom: _________________________________________________________________________

<basis_specs>
===============================================================================
C-gga                Z=   6    Mass=  12.010        Charge= 0.17977+309
Lmxo=1 Lmxkb= 2    BasisType=split      Semic=F
L=0  Nsemic=0  Cnfigmx=2
          i=1  nzeta=2  polorb=0  (2s)
            splnorm:   0.15000    
               vcte:    0.0000    
               rinn:    0.0000    
               qcoe:    0.0000    
               qyuk:    0.0000    
               qwid:   0.10000E-01
                rcs:    0.0000      0.0000    
            lambdas:    1.0000      1.0000    
L=1  Nsemic=0  Cnfigmx=2
          i=1  nzeta=2  polorb=0  (2p)
            splnorm:   0.15000    
               vcte:    0.0000    
               rinn:    0.0000    
               qcoe:    0.0000    
               qyuk:    0.0000    
               qwid:   0.10000E-01
                rcs:    0.0000      0.0000    
            lambdas:    1.0000      1.0000    
-------------------------------------------------------------------------------
L=0  Nkbl=1  erefs: 0.17977+309
L=1  Nkbl=1  erefs: 0.17977+309
L=2  Nkbl=1  erefs: 0.17977+309
===============================================================================
</basis_specs>

atom: Called for C-gga                 (Z =   6)

read_vps: Pseudopotential generation method:
read_vps: ATM 3.2.2 Troullier-Martins                       
Valence charge for ps generation:    4.00000

xc_check: Exchange-correlation functional:
xc_check: GGA Perdew, Burke & Ernzerhof 1996
V l=0 = -2*Zval/r beyond r=  1.5227
V l=1 = -2*Zval/r beyond r=  1.5227
V l=2 = -2*Zval/r beyond r=  1.5227
All V_l potentials equal beyond r=  1.4851
This should be close to max(r_c) in ps generation
All pots = -2*Zval/r beyond r=  1.5227

VLOCAL1: 99.0% of the norm of Vloc inside     19.682 Ry
VLOCAL1: 99.9% of the norm of Vloc inside     44.856 Ry
atom: Maximum radius for 4*pi*r*r*local-pseudopot. charge    1.79142
atom: Maximum radius for r*vlocal+2*Zval:    1.54183
GHOST: No ghost state for L =  0
GHOST: No ghost state for L =  1
GHOST: No ghost state for L =  2

KBgen: Kleinman-Bylander projectors: 
   l= 0   rc=  1.661951   el= -1.010689   Ekb=  5.289847   kbcos=  0.316429
   l= 1   rc=  1.661951   el= -0.388490   Ekb= -4.102504   kbcos= -0.351025
   l= 2   rc=  1.747182   el=  0.001971   Ekb= -1.006005   kbcos= -0.008530

KBgen: Total number of Kleinman-Bylander projectors:    9
atom: -------------------------------------------------------------------------

atom: SANKEY-TYPE ORBITALS:
atom: Selected multiple-zeta basis: split     

SPLIT: Orbitals with angular momentum L= 0

SPLIT: Basis orbitals for state 2s

SPLIT: PAO cut-off radius determined from an
SPLIT: energy shift=  0.000735 Ry

   izeta = 1
                 lambda =    1.000000
                     rc =    5.948690
                 energy =   -1.010099
                kinetic =    0.827121
    potential(screened) =   -1.837220
       potential(ionic) =   -5.392783

   izeta = 2
                 rmatch =    3.518811
              splitnorm =    0.150000
                 energy =   -0.877891
                kinetic =    1.289227
    potential(screened) =   -2.167118
       potential(ionic) =   -5.982073

SPLIT: Orbitals with angular momentum L= 1

SPLIT: Basis orbitals for state 2p

SPLIT: PAO cut-off radius determined from an
SPLIT: energy shift=  0.000735 Ry

   izeta = 1
                 lambda =    1.000000
                     rc =    7.638387
                 energy =   -0.387843
                kinetic =    2.314739
    potential(screened) =   -2.702582
       potential(ionic) =   -6.092371

   izeta = 2
                 rmatch =    3.840617
              splitnorm =    0.150000
                 energy =   -0.270479
                kinetic =    3.438347
    potential(screened) =   -3.708826
       potential(ionic) =   -7.497707
atom: Total number of Sankey-type orbitals:  8

atm_pop: Valence configuration (for local Pseudopot. screening):
 2s( 2.00)                                                            
 2p( 2.00)                                                            
Vna: chval, zval:    4.00000   4.00000

Vna:  Cut-off radius for the neutral-atom potential:   7.638387

atom: _________________________________________________________________________

prinput: Basis input ----------------------------------------------------------

PAO.BasisType split     

%block ChemicalSpeciesLabel
    1    3 Li-gga                  # Species index, atomic number, species label
    2    6 C-gga                   # Species index, atomic number, species label
%endblock ChemicalSpeciesLabel

%block PAO.Basis                 # Define Basis set
Li-gga                1                    # Species label, number of l-shells
 n=2   0   2                         # n, l, Nzeta 
  11.897      8.489   
   1.000      1.000   
C-gga                 2                    # Species label, number of l-shells
 n=2   0   2                         # n, l, Nzeta 
   5.949      3.519   
   1.000      1.000   
 n=2   1   2                         # n, l, Nzeta 
   7.638      3.841   
   1.000      1.000   
%endblock PAO.Basis

prinput: ----------------------------------------------------------------------

coor:   Atomic-coordinates input format  =     Cartesian coordinates
coor:                                          (in Angstroms)

siesta: Atomic coordinates (Bohr) and species
siesta:      0.00000   0.00000   0.00000  2        1
siesta:     -1.32825   2.30060   3.49587  1        2
siesta:     -2.74990   4.76296  17.47931  1        3
siesta:      2.74990   4.76296   3.49587  1        4
siesta:      1.32825   2.30060  17.47931  1        5
siesta:      2.65651   0.00000   3.49587  1        6
siesta:      5.49980   0.00000  17.47931  1        7
siesta:     -2.74990   4.76296   3.49587  1        8
siesta:     -1.32825   2.30060  17.47931  1        9
siesta:      1.32825   2.30060   3.49587  1       10
siesta:      2.74990   4.76296  17.47931  1       11
siesta:      5.49980   0.00000   3.49587  1       12
siesta:      2.65651   0.00000  17.47931  1       13
siesta:     -1.32825   2.30060  10.48759  1       14
siesta:     -2.74990   4.76296  10.48759  1       15
siesta:      2.74990   4.76296  10.48759  1       16
siesta:      1.32825   2.30060  10.48759  1       17
siesta:      2.65651   0.00000  10.48759  1       18
siesta:      5.49980   0.00000  10.48759  1       19

siesta: System type = bulk      

initatomlists: Number of atoms, orbitals, and projectors:     19    44   171

siesta: ******************** Simulation parameters ****************************
siesta:
siesta: The following are some of the parameters of the simulation.
siesta: A complete list of the parameters used, including default values,
siesta: can be found in file out.fdf
siesta:
redata: Spin configuration                          = none
redata: Number of spin components                   = 1
redata: Time-Reversal Symmetry                      = T
redata: Spin spiral                                 = F
redata: Long output                                 =   F
redata: Number of Atomic Species                    =        2
redata: Charge density info will appear in .RHO file
redata: Write Mulliken Pop.                         = NO
redata: Matel table size (NRTAB)                    =     1024
redata: Mesh Cutoff                                 =   300.0000 Ry
redata: Net charge of the system                    =     0.0000 |e|
redata: Min. number of SCF Iter                     =        0
redata: Max. number of SCF Iter                     =     1000
redata: SCF convergence failure will abort job
redata: SCF mix quantity                            = Hamiltonian
redata: Mix DM or H after convergence               =   F
redata: Recompute H after scf cycle                 =   F
redata: Mix DM in first SCF step                    =   T
redata: Write Pulay info on disk                    =   F
redata: New DM Occupancy tolerance                  = 0.000000000001
redata: No kicks to SCF
redata: DM Mixing Weight for Kicks                  =     0.5000
redata: Require Harris convergence for SCF          =   F
redata: Harris energy tolerance for SCF             =     0.000100 eV
redata: Require DM convergence for SCF              =   T
redata: DM tolerance for SCF                        =     0.001000
redata: Require EDM convergence for SCF             =   F
redata: EDM tolerance for SCF                       =     0.005000 eV
redata: Require H convergence for SCF               =   T
redata: Hamiltonian tolerance for SCF               =     0.001000 eV
redata: Require (free) Energy convergence for SCF   =   T
redata: (free) Energy tolerance for SCF             =     0.001000 eV
redata: Using Saved Data (generic)                  =   F
redata: Use continuation files for DM               =   F
redata: Neglect nonoverlap interactions             =   F
redata: Method of Calculation                       = Diagonalization
redata: Electronic Temperature                      =   299.9869 K
redata: Fix the spin of the system                  =   F
redata: Dynamics option                             = Single-point calculation
mix.SCF: Pulay mixing                            = Pulay
mix.SCF:    Variant                              = stable
mix.SCF:    History steps                        = 4
mix.SCF:    Linear mixing weight                 =     0.250000
mix.SCF:    Mixing weight                        =     0.250000
mix.SCF:    SVD condition                        = 0.1000E-07
redata: ***********************************************************************

%block SCF.Mixers
  Pulay
%endblock SCF.Mixers

%block SCF.Mixer.Pulay
  # Mixing method
  method pulay
  variant stable

  # Mixing options
  weight 0.2500
  weight.linear 0.2500
  history 4
%endblock SCF.Mixer.Pulay

DM_history_depth set to one: no extrapolation allowed by default for geometry relaxation
Size of DM history Fstack: 1
Total number of electrons:    22.000000
Total ionic charge:    22.000000

* ProcessorY, Blocksize:    4   1


* Orbital distribution balance (max,min):     3     2

k-point displ. along   1 input, could be:     0.00    0.50
k-point displ. along   2 input, could be:     0.00    0.50
k-point displ. along   3 input, could be:     0.00    0.50
 Kpoints in:           48 . Kpoints trimmed:           44

siesta: k-grid: Number of k-points =    44
siesta: k-grid: Cutoff (effective) =     8.632 Ang
siesta: k-grid: Supercell and displacements
siesta: k-grid:    4   0   0      0.000
siesta: k-grid:    0   4   0      0.000
siesta: k-grid:    0   0   4      0.000

diag: Algorithm                                     = Expert
diag: Parallel over k                               =   T
diag: Use parallel 2D distribution                  =   T
diag: Parallel block-size                           = 1
diag: Parallel distribution                         =     4 x     4
diag: Used triangular part                          = Lower
diag: Absolute tolerance                            =  0.100E-15
diag: Orthogonalization factor                      =  0.100E-05
diag: Memory factor                                 =  1.0000

superc: Internal auxiliary supercell:     9 x     9 x     5  =     405
superc: Number of atoms, orbitals, and projectors:   7695  17820  69255


ts: **************************************************************
ts: Save H and S matrices                           =    F
ts: Save DM and EDM matrices                        =    F
ts: Only save the overlap matrix S                  =    F
ts: **************************************************************

************************ Begin: TS CHECKS AND WARNINGS ************************
************************ End: TS CHECKS AND WARNINGS **************************


                     ====================================
                        Single-point calculation
                     ====================================

outcoor: Atomic coordinates (Ang):                          
    0.00000000    0.00000000    0.00000000   2       1  C-gga
   -0.70288177    1.21742694    1.84993387   1       2  Li-gga
   -1.45518323    2.52045129    9.24964713   1       3  Li-gga
    1.45518323    2.52045129    1.84993387   1       4  Li-gga
    0.70288177    1.21742694    9.24964713   1       5  Li-gga
    1.40576354    0.00000000    1.84993387   1       6  Li-gga
    2.91036646    0.00000000    9.24964713   1       7  Li-gga
   -1.45518323    2.52045129    1.84993387   1       8  Li-gga
   -0.70288177    1.21742694    9.24964713   1       9  Li-gga
    0.70288177    1.21742694    1.84993387   1      10  Li-gga
    1.45518323    2.52045129    9.24964713   1      11  Li-gga
    2.91036646    0.00000000    1.84993387   1      12  Li-gga
    1.40576354    0.00000000    9.24964713   1      13  Li-gga
   -0.70288177    1.21742694    5.54979050   1      14  Li-gga
   -1.45518323    2.52045129    5.54979050   1      15  Li-gga
    1.45518323    2.52045129    5.54979050   1      16  Li-gga
    0.70288177    1.21742694    5.54979050   1      17  Li-gga
    1.40576354    0.00000000    5.54979050   1      18  Li-gga
    2.91036646    0.00000000    5.54979050   1      19  Li-gga

superc: Internal auxiliary supercell:     9 x     9 x     5  =     405
superc: Number of atoms, orbitals, and projectors:   7695  17820  69255

outcell: Unit cell vectors (Ang):
        4.316130    0.000000    0.000000
       -2.158065    3.737878    0.000000
        0.000000    0.000000   11.099581

outcell: Cell vector modules (Ang)   :    4.316130    4.316130   11.099581
outcell: Cell angles (23,13,12) (deg):     90.0000     90.0000    120.0000
outcell: Cell volume (Ang**3)        :    179.0714
<dSpData1D:S at geom step 0
  <sparsity:sparsity for geom step 0
    nrows_g=44 nrows=3 sparsity=3.2934 nnzs=6376, refcount: 7>
  <dData1D:(new from dSpData1D) n=6376, refcount: 1>
refcount: 1>
new_DM -- step:     1
Initializing Density Matrix...
DM filled with atomic data:
<dSpData2D:DM initialized from atoms
  <sparsity:sparsity for geom step 0
    nrows_g=44 nrows=3 sparsity=3.2934 nnzs=6376, refcount: 8>
  <dData2D:DM n=6376 m=1, refcount: 1>
refcount: 1>
No. of atoms with KB's overlaping orbs in proc 0. Max # of overlaps:     301     320
New grid distribution:   1
           1       1:   20    1:    5    1:   15
           2       1:   20    1:    5   16:   30
           3       1:   20    1:    5   31:   45
           4       1:   20    1:    5   46:   60
           5       1:   20    6:   10    1:   15
           6       1:   20    6:   10   16:   30
           7       1:   20    6:   10   31:   45
           8       1:   20    6:   10   46:   60
           9       1:   20   11:   15    1:   15
          10       1:   20   11:   15   16:   30
          11       1:   20   11:   15   31:   45
          12       1:   20   11:   15   46:   60
          13       1:   20   16:   20    1:   15
          14       1:   20   16:   20   16:   30
          15       1:   20   16:   20   31:   45
          16       1:   20   16:   20   46:   60

InitMesh: MESH =    40 x    40 x   120 =      192000
InitMesh: (bp) =    20 x    20 x    60 =       24000
InitMesh: Mesh cutoff (required, used) =   300.000   316.498 Ry
ExtMesh (bp) on 0 =   156 x   141 x   155 =     3409380
New grid distribution:   2
           1      11:   20    1:   10    1:   14
           2      11:   20    1:   10   15:   30
           3       1:   10    1:   10   31:   46
           4       1:   10    1:   10   47:   60
           5       1:   10    1:   10    1:   14
           6       1:   10    1:   10   15:   30
           7      11:   20    1:   10   31:   46
           8      11:   20    1:   10   47:   60
           9      11:   20   11:   20    1:   14
          10      11:   20   11:   20   15:   30
          11       1:   10   11:   20   31:   46
          12       1:   10   11:   20   47:   60
          13       1:   10   11:   20    1:   14
          14       1:   10   11:   20   15:   30
          15      11:   20   11:   20   31:   46
          16      11:   20   11:   20   47:   60
New grid distribution:   3
           1       1:   10    1:   10    1:   15
           2       1:   10    1:   10   16:   30
           3       1:   10    1:   10   31:   45
           4       1:   10    1:   10   46:   60
           5      11:   20    1:   10    1:   15
           6      11:   20    1:   10   16:   30
           7      11:   20    1:   10   31:   45
           8      11:   20    1:   10   46:   60
           9       1:   10   11:   20    1:   15
          10       1:   10   11:   20   16:   30
          11       1:   10   11:   20   31:   45
          12       1:   10   11:   20   46:   60
          13      11:   20   11:   20    1:   15
          14      11:   20   11:   20   16:   30
          15      11:   20   11:   20   31:   45
          16      11:   20   11:   20   46:   60
Setting up quadratic distribution...
ExtMesh (bp) on 0 =   146 x   146 x   154 =     3282664
PhiOnMesh: Number of (b)points on node 0 =                 1400
PhiOnMesh: nlist on node 0 =               226537

stepf: Fermi-Dirac step function

siesta: Program's energy decomposition (eV):
siesta: Ebs     =      -211.066183
siesta: Eions   =       439.895300
siesta: Ena     =       138.950720
siesta: Ekin    =       235.087144
siesta: Enl     =        55.558753
siesta: Eso     =         0.000000
siesta: Edftu   =         0.000000
siesta: DEna    =        -8.133173
siesta: DUscf   =        14.261111
siesta: DUext   =         0.000000
siesta: Exc     =      -217.135192
siesta: eta*DQ  =         0.000000
siesta: Emadel  =         0.000000
siesta: Emeta   =         0.000000
siesta: Emolmec =        -8.308246
siesta: Ekinion =         0.000000
siesta: Eharris =      -176.984500
siesta: Etot    =      -229.614183
siesta: FreeEng =      -229.626373

        iscf     Eharris(eV)        E_KS(eV)     FreeEng(eV)     dDmax    Ef(eV) dHmax(eV)
   scf:    1     -176.984500     -229.614183     -229.626373 40.050709-10.110482 18.769889
timer: Routine,Calls,Time,% = IterSCF        1       1.197  20.46
   scf:    2     -218.270598     -235.070536     -235.083128 15.284010 -9.468102 10.394119
   scf:    3     -238.032795     -239.254940     -239.265090 11.127404 -9.881215  2.771517
   scf:    4     -239.412490     -239.461394     -239.469991  2.309323 -9.802435  0.671793
   scf:    5     -239.414159     -239.461893     -239.468902  0.803388 -9.838707  0.795513
   scf:    6     -239.488687     -239.480086     -239.487218  0.744156 -9.819928  0.123014
   scf:    7     -239.480316     -239.480416     -239.487773  0.111839 -9.817571  0.004764
   scf:    8     -239.480395     -239.480406     -239.487775  0.005932 -9.817735  0.003711
   scf:    9     -239.480419     -239.480413     -239.487777  0.013014 -9.818256  0.001798
   scf:   10     -239.480405     -239.480409     -239.487778  0.006667 -9.818616  0.000945
   scf:   11     -239.480404     -239.480406     -239.487778  0.001786 -9.818719  0.000578
   scf:   12     -239.480400     -239.480403     -239.487778  0.002435 -9.818717  0.000042
   scf:   13     -239.480403     -239.480403     -239.487778  0.000041 -9.818717  0.000027

SCF Convergence by FreeE+DM+H criterion
|FreeE_i-FreeE_(i-1)| (eV) <     0.00100000
max |DM_out - DM_in|         :     0.0000414940
max |H_out - H_in|      (eV) :     0.0000272412
SCF cycle converged after 13 iterations

Using DM_out to compute the final energy and forces
No. of atoms with KB's overlaping orbs in proc 0. Max # of overlaps:     301     320

MM-Stress (kbar):      -13.34      -13.34       22.55        0.00        0.00       -0.00

siesta: E_KS(eV) =             -239.4804

siesta: E_KS - E_eggbox =      -239.4804

siesta: Atomic forces (eV/Ang):
     1   -0.000000    0.000000    0.000004
     2    0.194665   -0.337171   -1.362418
     3   -0.194665    0.337171    1.362418
     4    0.194659    0.337159   -1.362465
     5   -0.194659   -0.337159    1.362465
     6   -0.389331   -0.000001   -1.362418
     7    0.389331    0.000001    1.362418
     8   -0.194665    0.337171   -1.362418
     9    0.194665   -0.337171    1.362418
    10   -0.194659   -0.337159   -1.362465
    11    0.194659    0.337159    1.362465
    12    0.389331    0.000001   -1.362418
    13   -0.389331   -0.000001    1.362418
    14   -0.344201    0.596131   -0.000000
    15    0.344201   -0.596131   -0.000000
    16   -0.344206   -0.596182   -0.000000
    17    0.344206    0.596182   -0.000000
    18    0.688365   -0.000021   -0.000000
    19   -0.688365    0.000021   -0.000000
----------------------------------------
   Tot   -0.000000   -0.000000    0.000000
----------------------------------------
   Max    1.362465
   Res    0.687442    sqrt( Sum f_i^2 / 3N )
----------------------------------------
   Max    1.362465    constrained

Stress tensor Voigt[x,y,z,yz,xz,xy] (kbar):    -1311.64    -1311.65      512.81        0.00        0.00       -0.01
(Free)E + p*V (eV/cell)     -160.8607
Target enthalpy (eV/cell)     -239.4878

siesta: Eigenvalues (eV):
  ik is       eps
   1  1  -19.1630  -14.8021  -14.1393  -13.4035  -13.1203  -13.0554  -13.0345  -12.3829  -11.5154  -11.2487
         -11.2039   -9.8898   -9.7943   -9.4311   -6.2192    0.3901    0.9820    1.0275    3.2326    3.9965
    4.5804    5.0729    5.2278    5.9550    8.6878   12.4845   15.8271   17.8422   18.4878   18.5078
   19.0640   19.4513   19.8422   20.0577   20.2160   20.4240   21.4811   22.2175   24.0815   26.9623
   27.4228   48.9852   60.7185   61.7834
   2  1  -19.4079  -15.5712  -14.2150  -14.1085  -12.8898  -11.9375  -11.7062  -11.4449  -10.4533   -9.9295
          -9.7156   -8.6418   -7.2145   -6.8574   -4.4626   -1.0449   -1.0044    0.5146    1.8079    2.6281
    3.0867    3.2416    3.3164    4.3371    5.0355    5.1897    6.3842    9.7664   13.3316   14.2106
   18.1516   18.5149   20.7220   21.3470   21.9194   22.0494   22.9291   23.1198   23.8440   28.2934
   37.2541   47.1495   55.4381   55.5606
   3  1  -19.4079  -15.5712  -14.2150  -14.1085  -12.8898  -11.9375  -11.7062  -11.4449  -10.4534   -9.9295
          -9.7156   -8.6417   -7.2144   -6.8574   -4.4626   -1.0449   -1.0044    0.5146    1.8079    2.6281
    3.0869    3.2416    3.3164    4.3372    5.0355    5.1894    6.3842    9.7664   13.3316   14.2107
   18.1516   18.5149   20.7220   21.3470   21.9194   22.0493   22.9291   23.1198   23.8440   28.2934
   37.2540   47.1494   55.4382   55.5606
   4  1  -19.1630  -14.8021  -14.1393  -13.4035  -13.1203  -13.0554  -13.0345  -12.3830  -11.5154  -11.2487
         -11.2039   -9.8899   -9.7942   -9.4311   -6.2191    0.3901    0.9817    1.0276    3.2326    3.9966
    4.5804    5.0729    5.2279    5.9549    8.6878   12.4845   15.8271   17.8422   18.4878   18.5078
   19.0640   19.4513   19.8422   20.0577   20.2160   20.4240   21.4811   22.2175   24.0815   26.9623
   27.4228   48.9852   60.7185   61.7835
   5  1  -19.4079  -15.5712  -14.2150  -14.1085  -12.8898  -11.9375  -11.7062  -11.4449  -10.4533   -9.9295
          -9.7156   -8.6418   -7.2145   -6.8574   -4.4626   -1.0449   -1.0044    0.5146    1.8079    2.6281
    3.0867    3.2416    3.3164    4.3371    5.0355    5.1897    6.3842    9.7664   13.3316   14.2106
   18.1516   18.5149   20.7220   21.3470   21.9194   22.0494   22.9291   23.1198   23.8440   28.2934
   37.2541   47.1495   55.4381   55.5606
   6  1  -19.5751  -15.8128  -14.7658  -14.3668  -12.5537  -11.6463  -10.1583  -10.1581   -9.9665   -1.1036
          -1.1036   -0.9544   -0.9544   -0.4793   -0.4341   -0.4341   -0.1942   -0.1942    1.2587    1.2587
    1.4631    3.6593    3.6595    5.9737    5.9739    7.3070   13.9886   13.9886   14.6545   14.6545
   15.1929   15.1929   22.5258   23.8622   24.8620   24.8797   24.8798   42.7232   43.0762   61.3461
   61.3462   64.7167   64.7167  136.5407
   7  1  -19.1323  -14.3765  -14.1468  -14.1149  -13.5752  -12.6696  -12.4377  -11.1090  -10.8033  -10.6902
          -9.9153   -9.5992   -9.1959   -7.6713   -7.4014   -6.4616   -4.6283   -4.0451   -2.0684    0.2145
    1.2382    1.7870    2.9777    7.3274    7.6495   12.7884   13.3572   15.5010   15.8704   17.1511
   17.4404   18.6421   18.8503   19.0709   22.2499   24.9124   29.5083   44.8843   48.4404   49.3400
   49.5136   49.5632   54.1635   61.7980
   8  1  -19.1630  -14.8021  -14.1393  -13.4035  -13.1203  -13.0554  -13.0345  -12.3830  -11.5154  -11.2487
         -11.2039   -9.8899   -9.7942   -9.4311   -6.2191    0.3901    0.9817    1.0276    3.2326    3.9966
    4.5804    5.0729    5.2279    5.9549    8.6878   12.4845   15.8271   17.8422   18.4878   18.5078
   19.0640   19.4513   19.8422   20.0577   20.2160   20.4240   21.4811   22.2175   24.0815   26.9623
   27.4228   48.9852   60.7185   61.7835
   9  1  -19.1630  -14.8021  -14.1393  -13.4035  -13.1203  -13.0554  -13.0345  -12.3830  -11.5154  -11.2487
         -11.2039   -9.8899   -9.7942   -9.4311   -6.2191    0.3901    0.9817    1.0276    3.2326    3.9966
    4.5804    5.0729    5.2279    5.9549    8.6878   12.4845   15.8271   17.8422   18.4878   18.5078
   19.0640   19.4513   19.8422   20.0577   20.2160   20.4240   21.4811   22.2175   24.0815   26.9623
   27.4228   48.9852   60.7185   61.7835
  10  1  -19.1323  -14.3765  -14.1468  -14.1149  -13.5752  -12.6696  -12.4377  -11.1090  -10.8033  -10.6902
          -9.9153   -9.5992   -9.1959   -7.6713   -7.4014   -6.4616   -4.6283   -4.0451   -2.0684    0.2145
    1.2382    1.7870    2.9777    7.3274    7.6495   12.7884   13.3572   15.5010   15.8704   17.1511
   17.4404   18.6421   18.8503   19.0709   22.2499   24.9124   29.5083   44.8843   48.4404   49.3400
   49.5136   49.5632   54.1635   61.7980
  11  1  -19.1630  -14.8021  -14.1393  -13.4035  -13.1203  -13.0554  -13.0345  -12.3830  -11.5154  -11.2487
         -11.2039   -9.8899   -9.7942   -9.4311   -6.2191    0.3901    0.9817    1.0276    3.2326    3.9966
    4.5804    5.0729    5.2279    5.9549    8.6878   12.4845   15.8271   17.8422   18.4878   18.5078
   19.0640   19.4513   19.8422   20.0577   20.2160   20.4240   21.4811   22.2175   24.0815   26.9623
   27.4228   48.9852   60.7185   61.7835
  12  1  -19.1322  -14.3765  -14.1468  -14.1149  -13.5752  -12.6696  -12.4377  -11.1090  -10.8032  -10.6904
          -9.9153   -9.5992   -9.1959   -7.6713   -7.4014   -6.4616   -4.6281   -4.0451   -2.0686    0.2145
    1.2382    1.7870    2.9775    7.3274    7.6497   12.7884   13.3572   15.5011   15.8704   17.1511
   17.4404   18.6420   18.8503   19.0709   22.2499   24.9123   29.5083   44.8843   48.4404   49.3400
   49.5136   49.5632   54.1635   61.7978
  13  1  -19.1526  -14.7628  -14.1337  -13.4607  -13.0539  -13.0394  -12.8056  -12.4297  -11.5346  -11.3410
         -10.7837  -10.1214  -10.0132   -9.1183   -5.8875    0.0848    0.3741    0.8509    2.1477    2.8235
    3.7930    3.8303    5.3065    6.2692    6.7646    8.1839    8.9613   14.5737   16.4547   18.2701
   18.4577   18.8723   19.6466   19.9281   20.1708   20.2164   20.8441   21.1546   27.4290   27.6843
   28.4845   47.4800   57.5201   59.8290
  14  1  -19.3638  -15.4636  -14.1907  -14.0800  -12.7582  -12.2466  -11.7392  -11.0616  -10.4483  -10.0595
          -9.6049   -8.4944   -6.8733   -6.7877   -4.4012   -4.0131   -1.8722   -1.3897    0.0742    2.9171
    2.9689    3.1602    3.4504    5.0677    5.4438    8.9443    9.0379    9.6703   12.5104   13.5974
   19.1673   20.8702   20.9467   21.3194   22.7516   23.0609   23.6453   24.1926   24.6847   26.7756
   35.6919   48.9507   50.0730   58.0122
  15  1  -19.3638  -15.4636  -14.1907  -14.0800  -12.7582  -12.2466  -11.7392  -11.0616  -10.4484  -10.0595
          -9.6049   -8.4943   -6.8733   -6.7877   -4.4013   -4.0131   -1.8722   -1.3897    0.0742    2.9170
    2.9691    3.1602    3.4504    5.0676    5.4436    8.9443    9.0379    9.6703   12.5104   13.5975
   19.1673   20.8702   20.9467   21.3194   22.7516   23.0609   23.6452   24.1926   24.6847   26.7756
   35.6919   48.9506   50.0731   58.0122
  16  1  -19.1526  -14.7628  -14.1337  -13.4607  -13.0539  -13.0394  -12.8056  -12.4298  -11.5346  -11.3410
         -10.7837  -10.1214  -10.0133   -9.1183   -5.8874    0.0848    0.3739    0.8510    2.1477    2.8236
    3.7931    3.8301    5.3065    6.2692    6.7646    8.1839    8.9613   14.5737   16.4547   18.2701
   18.4577   18.8723   19.6466   19.9281   20.1708   20.2164   20.8441   21.1546   27.4289   27.6843
   28.4845   47.4800   57.5201   59.8291
  17  1  -19.3638  -15.4636  -14.1907  -14.0800  -12.7582  -12.2466  -11.7392  -11.0616  -10.4483  -10.0595
          -9.6049   -8.4944   -6.8733   -6.7877   -4.4012   -4.0131   -1.8722   -1.3897    0.0742    2.9171
    2.9689    3.1602    3.4504    5.0677    5.4438    8.9443    9.0379    9.6703   12.5104   13.5974
   19.1673   20.8702   20.9467   21.3194   22.7516   23.0609   23.6453   24.1926   24.6847   26.7756
   35.6919   48.9507   50.0730   58.0122
  18  1  -19.5364  -15.8019  -14.6785  -14.3483  -12.7321  -11.4811  -10.1541  -10.1539   -9.6672   -4.8061
          -1.2983   -1.2983   -1.1962   -1.1962   -0.2388   -0.2388    0.1385    0.1386    0.3916    1.2579
    1.2579    4.4761    4.4765    6.9045    6.9046    7.2785   15.4173   15.4174   15.6293   15.6293
   21.0659   21.0660   22.5646   24.0869   24.8706   25.0197   25.0197   38.9969   57.3914   57.3914
   59.6591   59.6591   60.3410   71.0965
  19  1  -19.3638  -15.4636  -14.1907  -14.0800  -12.7582  -12.2466  -11.7392  -11.0616  -10.4483  -10.0595
          -9.6049   -8.4944   -6.8733   -6.7877   -4.4012   -4.0131   -1.8722   -1.3897    0.0742    2.9171
    2.9689    3.1602    3.4504    5.0677    5.4438    8.9443    9.0379    9.6703   12.5104   13.5974
   19.1673   20.8702   20.9467   21.3194   22.7516   23.0609   23.6453   24.1926   24.6847   26.7756
   35.6919   48.9507   50.0730   58.0122
  20  1  -19.1205  -14.3244  -14.2802  -14.0586  -13.6434  -12.4832  -12.3049  -11.1676  -10.9886  -10.6842
          -9.7523   -9.1262   -8.9855   -7.6953   -7.4582   -6.1904   -3.7903   -3.4115   -2.7757   -0.2276
    2.2331    2.8303    6.4237    7.5496    9.1193   13.0227   13.8313   17.1289   17.2278   17.5348
   17.6755   18.6611   18.8794   19.0969   22.0945   24.4855   35.0605   35.4936   48.8949   48.9031
   53.3942   53.4992   55.8614   59.8309
  21  1  -19.3638  -15.4636  -14.1907  -14.0800  -12.7582  -12.2466  -11.7392  -11.0616  -10.4484  -10.0595
          -9.6049   -8.4943   -6.8733   -6.7877   -4.4013   -4.0131   -1.8722   -1.3897    0.0742    2.9170
    2.9691    3.1602    3.4504    5.0676    5.4436    8.9443    9.0379    9.6703   12.5104   13.5975
   19.1673   20.8702   20.9467   21.3194   22.7516   23.0609   23.6452   24.1926   24.6847   26.7756
   35.6919   48.9506   50.0731   58.0122
  22  1  -19.3638  -15.4636  -14.1907  -14.0800  -12.7582  -12.2466  -11.7392  -11.0616  -10.4483  -10.0595
          -9.6049   -8.4944   -6.8733   -6.7877   -4.4012   -4.0131   -1.8722   -1.3897    0.0742    2.9171
    2.9689    3.1602    3.4504    5.0677    5.4438    8.9443    9.0379    9.6703   12.5104   13.5974
   19.1673   20.8702   20.9467   21.3194   22.7516   23.0609   23.6453   24.1926   24.6847   26.7756
   35.6919   48.9507   50.0730   58.0122
  23  1  -19.1526  -14.7628  -14.1337  -13.4607  -13.0539  -13.0394  -12.8056  -12.4297  -11.5346  -11.3410
         -10.7837  -10.1214  -10.0132   -9.1183   -5.8875    0.0848    0.3741    0.8509    2.1477    2.8235
    3.7930    3.8303    5.3065    6.2692    6.7646    8.1839    8.9613   14.5737   16.4547   18.2701
   18.4577   18.8723   19.6466   19.9281   20.1708   20.2164   20.8441   21.1546   27.4290   27.6843
   28.4845   47.4800   57.5201   59.8290
  24  1  -19.1526  -14.7628  -14.1337  -13.4607  -13.0539  -13.0394  -12.8056  -12.4298  -11.5346  -11.3410
         -10.7837  -10.1214  -10.0133   -9.1183   -5.8874    0.0848    0.3739    0.8510    2.1477    2.8236
    3.7931    3.8301    5.3065    6.2692    6.7646    8.1839    8.9613   14.5737   16.4547   18.2701
   18.4577   18.8723   19.6466   19.9281   20.1708   20.2164   20.8441   21.1546   27.4289   27.6843
   28.4845   47.4800   57.5201   59.8291
  25  1  -19.1526  -14.7628  -14.1337  -13.4607  -13.0539  -13.0394  -12.8056  -12.4298  -11.5346  -11.3410
         -10.7837  -10.1214  -10.0133   -9.1183   -5.8874    0.0848    0.3739    0.8510    2.1477    2.8236
    3.7931    3.8301    5.3065    6.2692    6.7646    8.1839    8.9613   14.5737   16.4547   18.2701
   18.4577   18.8723   19.6466   19.9281   20.1708   20.2164   20.8441   21.1546   27.4289   27.6843
   28.4845   47.4800   57.5201   59.8291
  26  1  -19.1205  -14.3244  -14.2802  -14.0586  -13.6434  -12.4832  -12.3049  -11.1676  -10.9886  -10.6842
          -9.7523   -9.1262   -8.9855   -7.6953   -7.4582   -6.1904   -3.7903   -3.4115   -2.7757   -0.2276
    2.2331    2.8303    6.4237    7.5496    9.1193   13.0227   13.8313   17.1289   17.2278   17.5348
   17.6755   18.6611   18.8794   19.0969   22.0945   24.4855   35.0605   35.4936   48.8949   48.9031
   53.3942   53.4992   55.8614   59.8309
  27  1  -19.1526  -14.7628  -14.1337  -13.4607  -13.0539  -13.0394  -12.8056  -12.4298  -11.5346  -11.3410
         -10.7837  -10.1214  -10.0133   -9.1183   -5.8874    0.0848    0.3739    0.8510    2.1477    2.8236
    3.7931    3.8301    5.3065    6.2692    6.7646    8.1839    8.9613   14.5737   16.4547   18.2701
   18.4577   18.8723   19.6466   19.9281   20.1708   20.2164   20.8441   21.1546   27.4289   27.6843
   28.4845   47.4800   57.5201   59.8291
  28  1  -19.1205  -14.3244  -14.2802  -14.0586  -13.6434  -12.4832  -12.3049  -11.1676  -10.9886  -10.6843
          -9.7523   -9.1262   -8.9855   -7.6953   -7.4582   -6.1904   -3.7900   -3.4115   -2.7758   -0.2276
    2.2327    2.8303    6.4237    7.5496    9.1195   13.0227   13.8313   17.1289   17.2278   17.5348
   17.6755   18.6611   18.8795   19.0969   22.0945   24.4854   35.0604   35.4937   48.8949   48.9031
   53.3941   53.4992   55.8614   59.8308
  29  1  -19.1353  -14.7265  -14.1708  -13.5164  -12.9597  -12.9520  -12.4650  -11.9838  -11.4270  -11.1446
         -10.4414  -10.1711  -10.0561   -7.6014   -4.5729   -1.9569   -0.2621    0.2331    0.8024    0.9676
    2.6212    2.9179    4.3149    6.4168    6.9649    7.2952    7.7611   11.7809   17.8036   18.1433
   18.5986   19.5880   19.9177   20.0551   20.2114   20.2826   20.9665   28.4979   28.7594   34.6015
   42.4439   50.6400   50.7878   58.6307
  30  1  -19.3286  -15.4198  -14.2927  -13.3132  -12.6489  -11.7517  -11.4171  -10.4418  -10.2838  -10.1753
          -9.7428   -7.7971   -6.8864   -6.1234   -5.5101   -4.4022   -1.8343   -1.1266   -0.4939    3.2168
    3.5726    4.4625    4.5733    5.9149    6.4790    6.6993   11.6976   19.1664   20.6767   20.9320
   21.2047   21.5236   22.9561   23.0775   24.4371   24.8320   26.0814   27.5231   29.3143   29.8986
   39.0364   47.6732   53.7908   54.1653
  31  1  -19.3286  -15.4198  -14.2927  -13.3132  -12.6489  -11.7517  -11.4171  -10.4420  -10.2838  -10.1753
          -9.7428   -7.7971   -6.8864   -6.1234   -5.5100   -4.4022   -1.8343   -1.1265   -0.4939    3.2170
    3.5726    4.4622    4.5733    5.9150    6.4789    6.6993   11.6976   19.1664   20.6767   20.9319
   21.2047   21.5236   22.9560   23.0775   24.4371   24.8320   26.0814   27.5232   29.3142   29.8986
   39.0364   47.6732   53.7908   54.1652
  32  1  -19.1353  -14.7265  -14.1708  -13.5164  -12.9597  -12.9520  -12.4651  -11.9838  -11.4270  -11.1446
         -10.4414  -10.1712  -10.0561   -7.6014   -4.5729   -1.9567   -0.2622    0.2332    0.8024    0.9676
    2.6212    2.9177    4.3149    6.4168    6.9649    7.2952    7.7611   11.7809   17.8036   18.1433
   18.5986   19.5881   19.9177   20.0551   20.2114   20.2826   20.9665   28.4979   28.7593   34.6015
   42.4439   50.6400   50.7878   58.6308
  33  1  -19.3286  -15.4198  -14.2927  -13.3132  -12.6489  -11.7517  -11.4171  -10.4418  -10.2838  -10.1753
          -9.7428   -7.7971   -6.8864   -6.1234   -5.5101   -4.4022   -1.8343   -1.1266   -0.4939    3.2168
    3.5726    4.4625    4.5733    5.9149    6.4790    6.6993   11.6976   19.1664   20.6767   20.9320
   21.2047   21.5236   22.9561   23.0775   24.4371   24.8320   26.0814   27.5231   29.3143   29.8986
   39.0364   47.6732   53.7908   54.1653
  34  1  -19.4974  -15.8403  -14.5005  -13.1862  -13.1072  -10.5575  -10.1493  -10.1491   -7.8354   -1.4402
          -1.4402   -1.3686   -1.3686   -0.0696   -0.0696    0.1526    0.3263    0.5777    0.5777    1.1478
    1.1478    4.8820    4.8826    8.8426    8.8426   20.8238   22.5954   24.2866   24.8789   24.9838
   24.9839   25.6418   25.6419   29.4628   29.4628   31.0380   31.0380   31.0383   31.0384   31.4480
   31.4480   44.5329   45.4013   78.5455
  35  1  -19.3286  -15.4198  -14.2927  -13.3132  -12.6489  -11.7517  -11.4171  -10.4418  -10.2838  -10.1753
          -9.7428   -7.7971   -6.8864   -6.1234   -5.5101   -4.4022   -1.8343   -1.1266   -0.4939    3.2168
    3.5726    4.4625    4.5733    5.9149    6.4790    6.6993   11.6976   19.1664   20.6767   20.9320
   21.2047   21.5236   22.9561   23.0775   24.4371   24.8320   26.0814   27.5231   29.3143   29.8986
   39.0364   47.6732   53.7908   54.1653
  36  1  -19.1097  -14.4055  -14.2728  -14.1000  -13.7595  -12.0180  -11.7717  -11.4216  -11.3342  -10.6725
          -9.2833   -8.7137   -7.7187   -5.6297   -3.4239   -3.0324   -2.8066   -2.7827   -2.1262   -1.1725
    0.1164    2.3054    3.3359   13.7680   16.5792   17.0569   17.1077   17.4291   18.6821   19.0471
   19.1174   19.8028   19.9188   22.6015   23.9267   25.5782   50.2122   51.2573   51.3696   56.6026
   58.0852   58.0909   62.1974  134.7581
  37  1  -19.3286  -15.4198  -14.2927  -13.3132  -12.6489  -11.7517  -11.4171  -10.4420  -10.2838  -10.1753
          -9.7428   -7.7971   -6.8864   -6.1234   -5.5100   -4.4022   -1.8343   -1.1265   -0.4939    3.2170
    3.5726    4.4622    4.5733    5.9150    6.4789    6.6993   11.6976   19.1664   20.6767   20.9319
   21.2047   21.5236   22.9560   23.0775   24.4371   24.8320   26.0814   27.5232   29.3142   29.8986
   39.0364   47.6732   53.7908   54.1652
  38  1  -19.3286  -15.4198  -14.2927  -13.3132  -12.6489  -11.7517  -11.4171  -10.4418  -10.2838  -10.1753
          -9.7428   -7.7971   -6.8864   -6.1234   -5.5101   -4.4022   -1.8343   -1.1266   -0.4939    3.2168
    3.5726    4.4625    4.5733    5.9149    6.4790    6.6993   11.6976   19.1664   20.6767   20.9320
   21.2047   21.5236   22.9561   23.0775   24.4371   24.8320   26.0814   27.5231   29.3143   29.8986
   39.0364   47.6732   53.7908   54.1653
  39  1  -19.1353  -14.7265  -14.1708  -13.5164  -12.9597  -12.9520  -12.4650  -11.9838  -11.4270  -11.1446
         -10.4414  -10.1711  -10.0561   -7.6014   -4.5729   -1.9569   -0.2621    0.2331    0.8024    0.9676
    2.6212    2.9179    4.3149    6.4168    6.9649    7.2952    7.7611   11.7809   17.8036   18.1433
   18.5986   19.5880   19.9177   20.0551   20.2114   20.2826   20.9665   28.4979   28.7594   34.6015
   42.4439   50.6400   50.7878   58.6307
  40  1  -19.1353  -14.7265  -14.1708  -13.5164  -12.9597  -12.9520  -12.4651  -11.9838  -11.4270  -11.1446
         -10.4414  -10.1712  -10.0561   -7.6014   -4.5729   -1.9567   -0.2622    0.2332    0.8024    0.9676
    2.6212    2.9177    4.3149    6.4168    6.9649    7.2952    7.7611   11.7809   17.8036   18.1433
   18.5986   19.5881   19.9177   20.0551   20.2114   20.2826   20.9665   28.4979   28.7593   34.6015
   42.4439   50.6400   50.7878   58.6308
  41  1  -19.1353  -14.7265  -14.1708  -13.5164  -12.9597  -12.9520  -12.4651  -11.9838  -11.4270  -11.1446
         -10.4414  -10.1712  -10.0561   -7.6014   -4.5729   -1.9567   -0.2622    0.2332    0.8024    0.9676
    2.6212    2.9177    4.3149    6.4168    6.9649    7.2952    7.7611   11.7809   17.8036   18.1433
   18.5986   19.5881   19.9177   20.0551   20.2114   20.2826   20.9665   28.4979   28.7593   34.6015
   42.4439   50.6400   50.7878   58.6308
  42  1  -19.1097  -14.4055  -14.2728  -14.1000  -13.7595  -12.0180  -11.7717  -11.4216  -11.3342  -10.6725
          -9.2833   -8.7137   -7.7187   -5.6297   -3.4239   -3.0324   -2.8066   -2.7827   -2.1262   -1.1725
    0.1164    2.3054    3.3359   13.7680   16.5792   17.0569   17.1077   17.4291   18.6821   19.0471
   19.1174   19.8028   19.9188   22.6015   23.9267   25.5782   50.2122   51.2573   51.3696   56.6026
   58.0852   58.0909   62.1974  134.7581
  43  1  -19.1353  -14.7265  -14.1708  -13.5164  -12.9597  -12.9520  -12.4651  -11.9838  -11.4270  -11.1446
         -10.4414  -10.1712  -10.0561   -7.6014   -4.5729   -1.9567   -0.2622    0.2332    0.8024    0.9676
    2.6212    2.9177    4.3149    6.4168    6.9649    7.2952    7.7611   11.7809   17.8036   18.1433
   18.5986   19.5881   19.9177   20.0551   20.2114   20.2826   20.9665   28.4979   28.7593   34.6015
   42.4439   50.6400   50.7878   58.6308
  44  1  -19.1097  -14.4055  -14.2728  -14.1000  -13.7595  -12.0180  -11.7717  -11.4216  -11.3342  -10.6726
          -9.2833   -8.7137   -7.7187   -5.6297   -3.4239   -3.0324   -2.8066   -2.7827   -2.1262   -1.1721
    0.1164    2.3054    3.3355   13.7680   16.5791   17.0568   17.1077   17.4291   18.6820   19.0470
   19.1174   19.8028   19.9188   22.6015   23.9267   25.5782   50.2122   51.2572   51.3696   56.6025
   58.0853   58.0908   62.1974  134.7581
siesta: Fermi energy =      -9.818717 eV

siesta: Program's energy decomposition (eV):
siesta: Ebs     =      -286.334250
siesta: Eions   =       439.895300
siesta: Ena     =       138.950720
siesta: Ekin    =       201.255846
siesta: Enl     =        65.430966
siesta: Eso     =         0.000000
siesta: Edftu   =         0.000000
siesta: DEna    =        11.163298
siesta: DUscf   =         1.561054
siesta: DUext   =         0.000000
siesta: Exc     =      -209.638741
siesta: eta*DQ  =         0.000000
siesta: Emadel  =         0.000000
siesta: Emeta   =         0.000000
siesta: Emolmec =        -8.308246
siesta: Ekinion =         0.000000
siesta: Eharris =      -239.480403
siesta: Etot    =      -239.480403
siesta: FreeEng =      -239.487778

siesta: Final energy (eV):
siesta:  Band Struct. =    -286.334250
siesta:       Kinetic =     201.255846
siesta:       Hartree =     106.262626
siesta:       Edftu   =       0.000000
siesta:       Eso     =       0.000000
siesta:    Ext. field =       0.000000
siesta:   Exch.-corr. =    -209.638741
siesta:  Ion-electron =    -487.982832
siesta:       Ion-ion =     158.930944
siesta:       Ekinion =       0.000000
siesta:         Total =    -239.480403
siesta:         Fermi =      -9.818717

siesta: Atomic forces (eV/Ang):
siesta:      1   -0.000000    0.000000    0.000004
siesta:      2    0.194665   -0.337171   -1.362418
siesta:      3   -0.194665    0.337171    1.362418
siesta:      4    0.194659    0.337159   -1.362465
siesta:      5   -0.194659   -0.337159    1.362465
siesta:      6   -0.389331   -0.000001   -1.362418
siesta:      7    0.389331    0.000001    1.362418
siesta:      8   -0.194665    0.337171   -1.362418
siesta:      9    0.194665   -0.337171    1.362418
siesta:     10   -0.194659   -0.337159   -1.362465
siesta:     11    0.194659    0.337159    1.362465
siesta:     12    0.389331    0.000001   -1.362418
siesta:     13   -0.389331   -0.000001    1.362418
siesta:     14   -0.344201    0.596131   -0.000000
siesta:     15    0.344201   -0.596131   -0.000000
siesta:     16   -0.344206   -0.596182   -0.000000
siesta:     17    0.344206    0.596182   -0.000000
siesta:     18    0.688365   -0.000021   -0.000000
siesta:     19   -0.688365    0.000021   -0.000000
siesta: ----------------------------------------
siesta:    Tot   -0.000000   -0.000000    0.000000

siesta: Stress tensor (static) (eV/Ang**3):
siesta:    -0.818653   -0.000005    0.000000
siesta:    -0.000005   -0.818659    0.000000
siesta:     0.000000    0.000000    0.320066

siesta: Cell volume =        179.071409 Ang**3

siesta: Pressure (static):
siesta:                Solid            Molecule  Units
siesta:           0.00478217          0.00354756  Ry/Bohr**3
siesta:           0.43908240          0.32572507  eV/Ang**3
siesta:         703.49516131        521.87473051  kBar
(Free)E+ p_basis*V_orbitals  =        -206.881968
(Free)Eharris+ p_basis*V_orbitals  =        -206.881968

cite: Please see "LiC18_scf.bib" for an exhaustive BiBTeX file.
cite: Please clearly indicate Siesta version in published work: 4.1.5
cite: This calculation has made use of the following articles
cite: which are encouraged to be cited in a published work.
        Primary SIESTA paper
          DOI: www.doi.org/10.1088/0953-8984/14/11/302

>> End of run:   9-NOV-2022   8:47:20
Job completed
