Siesta Version  : 4.1.5
Architecture    : x86_64-unknown-linux-gnu--unknown
Compiler version: GNU Fortran (GCC) 11.3.0
Compiler flags  : mpif90 -g -O2 -fallow-argument-mismatch
PP flags        : -DMPI -DFC_HAVE_FLUSH -DFC_HAVE_ABORT
Libraries       :  -I/global/software/sl-7.x86_64/modules/intel/2020.4.304/mkl/include  /globall/software/sl-7.x86_64/modules/intel/2020.4.304/mkl/lib/intel64/libmkl_scalapack_lp64.a -Wl,--start-group /global/software/sl-7.x86_64/modules/intel/2020.4.304/mkl/lib/intel64/libmkl_intel_lp64.a /global/software/sl-7.x86_64/modules/intel/2020.4.304/mkl/lib/intel64/libmkl_sequential.a /global/software/sl-7.x86_64/modules/intel/2020.4.304/mkl/lib/intel64/libmkl_core.a /global/software/sl-7.x86_64/modules/intel/2020.4.304/mkl/lib/intel64/libmkl_blacs_openmpi_lp64.a -Wl,--end-group -lpthread -lm -ldl
PARALLEL version

* Running on 16 nodes in parallel
>> Start of run:   9-NOV-2022   8:48:11

                           ***********************       
                           *  WELCOME TO SIESTA  *       
                           ***********************       

reinit: Reading from standard input
reinit: Dumped input in INPUT_TMP.66626
************************** Dump of input data file ****************************
SystemName LiC18_scf
SystemLabel LiC18_scf
NumberOfAtoms   19
NumberOfSpecies 2
%block ChemicalSpeciesLabel
1  3   Li-gga
2  6   C-gga
%endblock ChemicalSpeciesLabel
PAO.BasisSize  DZ
PAO.EnergyShift  10 meV
%block PS.Lmax
C-gga   2
Li-gga  2
%endblock PS.Lmax
LatticeConstant 1.000000 Ang
%block LatticeVectors
	4.3161300000	0.0000000000	0.0000000000
	-2.1580650000	3.7378782260	0.0000000000
	0.0000000000	0.0000000000	13.0975055800
%endblock LatticeVectors
AtomicCoordinatesFormat Ang
%block AtomicCoordinatesAndAtomicSpecies
	0.00000000	0.00000000	0.00000000	2
	-0.70288177	1.21742694	2.18292196	1
	-1.45518323	2.52045129	10.91458362	1
	1.45518323	2.52045129	2.18292196	1
	0.70288177	1.21742694	10.91458362	1
	1.40576354	0.00000000	2.18292196	1
	2.91036646	0.00000000	10.91458362	1
	-1.45518323	2.52045129	2.18292196	1
	-0.70288177	1.21742694	10.91458362	1
	0.70288177	1.21742694	2.18292196	1
	1.45518323	2.52045129	10.91458362	1
	2.91036646	0.00000000	2.18292196	1
	1.40576354	0.00000000	10.91458362	1
	-0.70288177	1.21742694	6.54875279	1
	-1.45518323	2.52045129	6.54875279	1
	1.45518323	2.52045129	6.54875279	1
	0.70288177	1.21742694	6.54875279	1
	1.40576354	0.00000000	6.54875279	1
	2.91036646	0.00000000	6.54875279	1
%endblock AtomicCoordinatesAndAtomicSpecies
Kgrid_NoTRS  T
%block kgrid_MonkhorstPack
4       0       0       0.0
0       4       0       0.0
0       0       4       0.0
%endblock kgrid_MonkhorstPack
AtomCoorFormatOut Ang
BlockSize 1
#ProcessorY 12
Diag.ParallelOverK   T
Diag.DivideAndConquer F
MeshCutoff   300 Ry
SCF.FreeE.Tolerance 1E-3 eV
SCF.EDM.Tolerance   5E-3 eV
DM.Tolerance  1E-3
DM.Require.Energy.Convergence T
DM.NumberPulay 4
XC.Functional GGA
XC.Authors    PBE
UseSaveData        F
MD.TypeOfRun       CG
MD.VariableCell    F
MD.NumCGsteps      00
MD.MaxCGDispl      0.200000 Bohr
MD.MaxStressTol    1.000000 GPa
MD.MaxForceTol     0.010000 eV/Ang
WriteMDHistory T
WriteCoorStep T
WriteForces T
WriteCoorStep    T
WriteEigenValues T
WriteDM    F
MM.UnitsDistance Ang  # what this program prints out DO NOT CHANGE
MM.UnitsEnergy    eV  # what this program prints out DO NOT CHANGE
MM.Grimme.S6     0.75 # Grimme-paper for PBE (correct for your functional)
MM.Grimme.D     20.   # Grimme-paper (correct for your functional)
%block MM.Potentials
  1   1 Grimme     16.69      1.650 # Li, 10.1002/jcc.20495
  1   2 Grimme     17.40      2.277 # Li / C
  2   2 Grimme     18.14      2.904 # C, 10.1002/jcc.20495
%endblock MM.Potentials
#%block ProjectedDensityOfStates
# -200.0  120.0  0.4  12800  eV
#%endblock ProjectedDensityOfStates
************************** End of input data file *****************************

reinit: -----------------------------------------------------------------------
reinit: System Name: LiC18_scf
reinit: -----------------------------------------------------------------------
reinit: System Label: LiC18_scf
reinit: -----------------------------------------------------------------------
Reading two-body potentials
Grimme - two-body potential between 1 and 1
Grimme - two-body potential between 1 and 2
Grimme - two-body potential between 2 and 2

initatom: Reading input for the pseudopotentials and atomic orbitals ----------
Species number:   1 Atomic number:    3 Label: Li-gga
Species number:   2 Atomic number:    6 Label: C-gga

Ground state valence configuration:   2s01
Reading pseudopotential information in formatted form from Li-gga.psf

Valence configuration for pseudopotential generation:
2s( 1.00) rc: 2.28
2p( 0.00) rc: 2.28
3d( 0.00) rc: 2.59
4f( 0.00) rc: 2.59
Ground state valence configuration:   2s02  2p02
Reading pseudopotential information in formatted form from C-gga.psf

Valence configuration for pseudopotential generation:
2s( 2.00) rc: 1.56
2p( 2.00) rc: 1.56
3d( 0.00) rc: 1.56
4f( 0.00) rc: 1.56
relmxkb: Read Max KB Ang. Momentum=    2 for species C-gga
relmxkb: Read Max KB Ang. Momentum=    2 for species Li-gga

<basis_specs>
===============================================================================
Li-gga               Z=   3    Mass=  6.9400        Charge= 0.17977+309
Lmxo=0 Lmxkb= 2    BasisType=split      Semic=F
L=0  Nsemic=0  Cnfigmx=2
          i=1  nzeta=2  polorb=0  (2s)
            splnorm:   0.15000    
               vcte:    0.0000    
               rinn:    0.0000    
               qcoe:    0.0000    
               qyuk:    0.0000    
               qwid:   0.10000E-01
                rcs:    0.0000      0.0000    
            lambdas:    1.0000      1.0000    
-------------------------------------------------------------------------------
L=0  Nkbl=1  erefs: 0.17977+309
L=1  Nkbl=1  erefs: 0.17977+309
L=2  Nkbl=1  erefs: 0.17977+309
===============================================================================
</basis_specs>

atom: Called for Li-gga                (Z =   3)

read_vps: Pseudopotential generation method:
read_vps: ATM 3.2.2 Troullier-Martins                       
Valence charge for ps generation:    1.00000

read_vps: Pseudopotential includes a core correction:
read_vps: Pseudo-core for xc-correction

xc_check: Exchange-correlation functional:
xc_check: GGA Perdew, Burke & Ernzerhof 1996
V l=0 = -2*Zval/r beyond r=  2.2278
V l=1 = -2*Zval/r beyond r=  2.2278
V l=2 = -2*Zval/r beyond r=  2.5245
All V_l potentials equal beyond r=  2.4622
This should be close to max(r_c) in ps generation
All pots = -2*Zval/r beyond r=  2.5245

VLOCAL1: 99.0% of the norm of Vloc inside      7.160 Ry
VLOCAL1: 99.9% of the norm of Vloc inside     16.318 Ry
atom: Maximum radius for 4*pi*r*r*local-pseudopot. charge    2.86079
atom: Maximum radius for r*vlocal+2*Zval:    2.43160
GHOST: No ghost state for L =  0
GHOST: No ghost state for L =  1
GHOST: No ghost state for L =  2

KBgen: Kleinman-Bylander projectors: 
   l= 0   rc=  2.654023   el= -0.211234   Ekb=  1.742119   kbcos=  0.228463
   l= 1   rc=  2.721230   el= -0.080095   Ekb= -1.122375   kbcos= -0.147941
   l= 2   rc=  2.825246   el=  0.002001   Ekb= -0.207076   kbcos= -0.031965

KBgen: Total number of Kleinman-Bylander projectors:    9
atom: -------------------------------------------------------------------------

atom: SANKEY-TYPE ORBITALS:
atom: Selected multiple-zeta basis: split     

SPLIT: Orbitals with angular momentum L= 0

SPLIT: Basis orbitals for state 2s

SPLIT: PAO cut-off radius determined from an
SPLIT: energy shift=  0.000735 Ry

   izeta = 1
                 lambda =    1.000000
                     rc =   11.897381
                 energy =   -0.210580
                kinetic =    0.143382
    potential(screened) =   -0.353962
       potential(ionic) =   -0.533453

   izeta = 2
                 rmatch =    8.489163
              splitnorm =    0.150000
                 energy =   -0.186081
                kinetic =    0.225882
    potential(screened) =   -0.411964
       potential(ionic) =   -0.593024
atom: Total number of Sankey-type orbitals:  2

atm_pop: Valence configuration (for local Pseudopot. screening):
 2s( 1.00)                                                            
Vna: chval, zval:    1.00000   1.00000

Vna:  Cut-off radius for the neutral-atom potential:  11.897381
comcore: Pseudo-core radius Rcore=  3.450946

atom: _________________________________________________________________________

<basis_specs>
===============================================================================
C-gga                Z=   6    Mass=  12.010        Charge= 0.17977+309
Lmxo=1 Lmxkb= 2    BasisType=split      Semic=F
L=0  Nsemic=0  Cnfigmx=2
          i=1  nzeta=2  polorb=0  (2s)
            splnorm:   0.15000    
               vcte:    0.0000    
               rinn:    0.0000    
               qcoe:    0.0000    
               qyuk:    0.0000    
               qwid:   0.10000E-01
                rcs:    0.0000      0.0000    
            lambdas:    1.0000      1.0000    
L=1  Nsemic=0  Cnfigmx=2
          i=1  nzeta=2  polorb=0  (2p)
            splnorm:   0.15000    
               vcte:    0.0000    
               rinn:    0.0000    
               qcoe:    0.0000    
               qyuk:    0.0000    
               qwid:   0.10000E-01
                rcs:    0.0000      0.0000    
            lambdas:    1.0000      1.0000    
-------------------------------------------------------------------------------
L=0  Nkbl=1  erefs: 0.17977+309
L=1  Nkbl=1  erefs: 0.17977+309
L=2  Nkbl=1  erefs: 0.17977+309
===============================================================================
</basis_specs>

atom: Called for C-gga                 (Z =   6)

read_vps: Pseudopotential generation method:
read_vps: ATM 3.2.2 Troullier-Martins                       
Valence charge for ps generation:    4.00000

xc_check: Exchange-correlation functional:
xc_check: GGA Perdew, Burke & Ernzerhof 1996
V l=0 = -2*Zval/r beyond r=  1.5227
V l=1 = -2*Zval/r beyond r=  1.5227
V l=2 = -2*Zval/r beyond r=  1.5227
All V_l potentials equal beyond r=  1.4851
This should be close to max(r_c) in ps generation
All pots = -2*Zval/r beyond r=  1.5227

VLOCAL1: 99.0% of the norm of Vloc inside     19.682 Ry
VLOCAL1: 99.9% of the norm of Vloc inside     44.856 Ry
atom: Maximum radius for 4*pi*r*r*local-pseudopot. charge    1.79142
atom: Maximum radius for r*vlocal+2*Zval:    1.54183
GHOST: No ghost state for L =  0
GHOST: No ghost state for L =  1
GHOST: No ghost state for L =  2

KBgen: Kleinman-Bylander projectors: 
   l= 0   rc=  1.661951   el= -1.010689   Ekb=  5.289847   kbcos=  0.316429
   l= 1   rc=  1.661951   el= -0.388490   Ekb= -4.102504   kbcos= -0.351025
   l= 2   rc=  1.747182   el=  0.001971   Ekb= -1.006005   kbcos= -0.008530

KBgen: Total number of Kleinman-Bylander projectors:    9
atom: -------------------------------------------------------------------------

atom: SANKEY-TYPE ORBITALS:
atom: Selected multiple-zeta basis: split     

SPLIT: Orbitals with angular momentum L= 0

SPLIT: Basis orbitals for state 2s

SPLIT: PAO cut-off radius determined from an
SPLIT: energy shift=  0.000735 Ry

   izeta = 1
                 lambda =    1.000000
                     rc =    5.948690
                 energy =   -1.010099
                kinetic =    0.827121
    potential(screened) =   -1.837220
       potential(ionic) =   -5.392783

   izeta = 2
                 rmatch =    3.518811
              splitnorm =    0.150000
                 energy =   -0.877891
                kinetic =    1.289227
    potential(screened) =   -2.167118
       potential(ionic) =   -5.982073

SPLIT: Orbitals with angular momentum L= 1

SPLIT: Basis orbitals for state 2p

SPLIT: PAO cut-off radius determined from an
SPLIT: energy shift=  0.000735 Ry

   izeta = 1
                 lambda =    1.000000
                     rc =    7.638387
                 energy =   -0.387843
                kinetic =    2.314739
    potential(screened) =   -2.702582
       potential(ionic) =   -6.092371

   izeta = 2
                 rmatch =    3.840617
              splitnorm =    0.150000
                 energy =   -0.270479
                kinetic =    3.438347
    potential(screened) =   -3.708826
       potential(ionic) =   -7.497707
atom: Total number of Sankey-type orbitals:  8

atm_pop: Valence configuration (for local Pseudopot. screening):
 2s( 2.00)                                                            
 2p( 2.00)                                                            
Vna: chval, zval:    4.00000   4.00000

Vna:  Cut-off radius for the neutral-atom potential:   7.638387

atom: _________________________________________________________________________

prinput: Basis input ----------------------------------------------------------

PAO.BasisType split     

%block ChemicalSpeciesLabel
    1    3 Li-gga                  # Species index, atomic number, species label
    2    6 C-gga                   # Species index, atomic number, species label
%endblock ChemicalSpeciesLabel

%block PAO.Basis                 # Define Basis set
Li-gga                1                    # Species label, number of l-shells
 n=2   0   2                         # n, l, Nzeta 
  11.897      8.489   
   1.000      1.000   
C-gga                 2                    # Species label, number of l-shells
 n=2   0   2                         # n, l, Nzeta 
   5.949      3.519   
   1.000      1.000   
 n=2   1   2                         # n, l, Nzeta 
   7.638      3.841   
   1.000      1.000   
%endblock PAO.Basis

prinput: ----------------------------------------------------------------------

coor:   Atomic-coordinates input format  =     Cartesian coordinates
coor:                                          (in Angstroms)

siesta: Atomic coordinates (Bohr) and species
siesta:      0.00000   0.00000   0.00000  2        1
siesta:     -1.32825   2.30060   4.12513  1        2
siesta:     -2.74990   4.76296  20.62558  1        3
siesta:      2.74990   4.76296   4.12513  1        4
siesta:      1.32825   2.30060  20.62558  1        5
siesta:      2.65651   0.00000   4.12513  1        6
siesta:      5.49980   0.00000  20.62558  1        7
siesta:     -2.74990   4.76296   4.12513  1        8
siesta:     -1.32825   2.30060  20.62558  1        9
siesta:      1.32825   2.30060   4.12513  1       10
siesta:      2.74990   4.76296  20.62558  1       11
siesta:      5.49980   0.00000   4.12513  1       12
siesta:      2.65651   0.00000  20.62558  1       13
siesta:     -1.32825   2.30060  12.37535  1       14
siesta:     -2.74990   4.76296  12.37535  1       15
siesta:      2.74990   4.76296  12.37535  1       16
siesta:      1.32825   2.30060  12.37535  1       17
siesta:      2.65651   0.00000  12.37535  1       18
siesta:      5.49980   0.00000  12.37535  1       19

siesta: System type = bulk      

initatomlists: Number of atoms, orbitals, and projectors:     19    44   171

siesta: ******************** Simulation parameters ****************************
siesta:
siesta: The following are some of the parameters of the simulation.
siesta: A complete list of the parameters used, including default values,
siesta: can be found in file out.fdf
siesta:
redata: Spin configuration                          = none
redata: Number of spin components                   = 1
redata: Time-Reversal Symmetry                      = T
redata: Spin spiral                                 = F
redata: Long output                                 =   F
redata: Number of Atomic Species                    =        2
redata: Charge density info will appear in .RHO file
redata: Write Mulliken Pop.                         = NO
redata: Matel table size (NRTAB)                    =     1024
redata: Mesh Cutoff                                 =   300.0000 Ry
redata: Net charge of the system                    =     0.0000 |e|
redata: Min. number of SCF Iter                     =        0
redata: Max. number of SCF Iter                     =     1000
redata: SCF convergence failure will abort job
redata: SCF mix quantity                            = Hamiltonian
redata: Mix DM or H after convergence               =   F
redata: Recompute H after scf cycle                 =   F
redata: Mix DM in first SCF step                    =   T
redata: Write Pulay info on disk                    =   F
redata: New DM Occupancy tolerance                  = 0.000000000001
redata: No kicks to SCF
redata: DM Mixing Weight for Kicks                  =     0.5000
redata: Require Harris convergence for SCF          =   F
redata: Harris energy tolerance for SCF             =     0.000100 eV
redata: Require DM convergence for SCF              =   T
redata: DM tolerance for SCF                        =     0.001000
redata: Require EDM convergence for SCF             =   F
redata: EDM tolerance for SCF                       =     0.005000 eV
redata: Require H convergence for SCF               =   T
redata: Hamiltonian tolerance for SCF               =     0.001000 eV
redata: Require (free) Energy convergence for SCF   =   T
redata: (free) Energy tolerance for SCF             =     0.001000 eV
redata: Using Saved Data (generic)                  =   F
redata: Use continuation files for DM               =   F
redata: Neglect nonoverlap interactions             =   F
redata: Method of Calculation                       = Diagonalization
redata: Electronic Temperature                      =   299.9869 K
redata: Fix the spin of the system                  =   F
redata: Dynamics option                             = Single-point calculation
mix.SCF: Pulay mixing                            = Pulay
mix.SCF:    Variant                              = stable
mix.SCF:    History steps                        = 4
mix.SCF:    Linear mixing weight                 =     0.250000
mix.SCF:    Mixing weight                        =     0.250000
mix.SCF:    SVD condition                        = 0.1000E-07
redata: ***********************************************************************

%block SCF.Mixers
  Pulay
%endblock SCF.Mixers

%block SCF.Mixer.Pulay
  # Mixing method
  method pulay
  variant stable

  # Mixing options
  weight 0.2500
  weight.linear 0.2500
  history 4
%endblock SCF.Mixer.Pulay

DM_history_depth set to one: no extrapolation allowed by default for geometry relaxation
Size of DM history Fstack: 1
Total number of electrons:    22.000000
Total ionic charge:    22.000000

* ProcessorY, Blocksize:    4   1


* Orbital distribution balance (max,min):     3     2

k-point displ. along   1 input, could be:     0.00    0.50
k-point displ. along   2 input, could be:     0.00    0.50
k-point displ. along   3 input, could be:     0.00    0.50
 Kpoints in:           48 . Kpoints trimmed:           44

siesta: k-grid: Number of k-points =    44
siesta: k-grid: Cutoff (effective) =     8.632 Ang
siesta: k-grid: Supercell and displacements
siesta: k-grid:    4   0   0      0.000
siesta: k-grid:    0   4   0      0.000
siesta: k-grid:    0   0   4      0.000

diag: Algorithm                                     = Expert
diag: Parallel over k                               =   T
diag: Use parallel 2D distribution                  =   T
diag: Parallel block-size                           = 1
diag: Parallel distribution                         =     4 x     4
diag: Used triangular part                          = Lower
diag: Absolute tolerance                            =  0.100E-15
diag: Orthogonalization factor                      =  0.100E-05
diag: Memory factor                                 =  1.0000

superc: Internal auxiliary supercell:     9 x     9 x     3  =     243
superc: Number of atoms, orbitals, and projectors:   4617  10692  41553


ts: **************************************************************
ts: Save H and S matrices                           =    F
ts: Save DM and EDM matrices                        =    F
ts: Only save the overlap matrix S                  =    F
ts: **************************************************************

************************ Begin: TS CHECKS AND WARNINGS ************************
************************ End: TS CHECKS AND WARNINGS **************************


                     ====================================
                        Single-point calculation
                     ====================================

outcoor: Atomic coordinates (Ang):                          
    0.00000000    0.00000000    0.00000000   2       1  C-gga
   -0.70288177    1.21742694    2.18292196   1       2  Li-gga
   -1.45518323    2.52045129   10.91458362   1       3  Li-gga
    1.45518323    2.52045129    2.18292196   1       4  Li-gga
    0.70288177    1.21742694   10.91458362   1       5  Li-gga
    1.40576354    0.00000000    2.18292196   1       6  Li-gga
    2.91036646    0.00000000   10.91458362   1       7  Li-gga
   -1.45518323    2.52045129    2.18292196   1       8  Li-gga
   -0.70288177    1.21742694   10.91458362   1       9  Li-gga
    0.70288177    1.21742694    2.18292196   1      10  Li-gga
    1.45518323    2.52045129   10.91458362   1      11  Li-gga
    2.91036646    0.00000000    2.18292196   1      12  Li-gga
    1.40576354    0.00000000   10.91458362   1      13  Li-gga
   -0.70288177    1.21742694    6.54875279   1      14  Li-gga
   -1.45518323    2.52045129    6.54875279   1      15  Li-gga
    1.45518323    2.52045129    6.54875279   1      16  Li-gga
    0.70288177    1.21742694    6.54875279   1      17  Li-gga
    1.40576354    0.00000000    6.54875279   1      18  Li-gga
    2.91036646    0.00000000    6.54875279   1      19  Li-gga

superc: Internal auxiliary supercell:     9 x     9 x     3  =     243
superc: Number of atoms, orbitals, and projectors:   4617  10692  41553

outcell: Unit cell vectors (Ang):
        4.316130    0.000000    0.000000
       -2.158065    3.737878    0.000000
        0.000000    0.000000   13.097506

outcell: Cell vector modules (Ang)   :    4.316130    4.316130   13.097506
outcell: Cell angles (23,13,12) (deg):     90.0000     90.0000    120.0000
outcell: Cell volume (Ang**3)        :    211.3043
<dSpData1D:S at geom step 0
  <sparsity:sparsity for geom step 0
    nrows_g=44 nrows=3 sparsity=2.5878 nnzs=5010, refcount: 7>
  <dData1D:(new from dSpData1D) n=5010, refcount: 1>
refcount: 1>
new_DM -- step:     1
Initializing Density Matrix...
DM filled with atomic data:
<dSpData2D:DM initialized from atoms
  <sparsity:sparsity for geom step 0
    nrows_g=44 nrows=3 sparsity=2.5878 nnzs=5010, refcount: 8>
  <dData2D:DM n=5010 m=1, refcount: 1>
refcount: 1>
No. of atoms with KB's overlaping orbs in proc 0. Max # of overlaps:     255     263
New grid distribution:   1
           1       1:   20    1:    5    1:   18
           2       1:   20    1:    5   19:   36
           3       1:   20    1:    5   37:   54
           4       1:   20    1:    5   55:   72
           5       1:   20    6:   10    1:   18
           6       1:   20    6:   10   19:   36
           7       1:   20    6:   10   37:   54
           8       1:   20    6:   10   55:   72
           9       1:   20   11:   15    1:   18
          10       1:   20   11:   15   19:   36
          11       1:   20   11:   15   37:   54
          12       1:   20   11:   15   55:   72
          13       1:   20   16:   20    1:   18
          14       1:   20   16:   20   19:   36
          15       1:   20   16:   20   37:   54
          16       1:   20   16:   20   55:   72

InitMesh: MESH =    40 x    40 x   144 =      230400
InitMesh: (bp) =    20 x    20 x    72 =       28800
InitMesh: Mesh cutoff (required, used) =   300.000   316.498 Ry
ExtMesh (bp) on 0 =   156 x   141 x   158 =     3475368
New grid distribution:   2
           1      11:   20    1:   10    1:   17
           2      11:   20    1:   10   18:   36
           3       1:   10    1:   10   37:   55
           4       1:   10    1:   10   56:   72
           5       1:   10    1:   10    1:   17
           6       1:   10    1:   10   18:   36
           7      11:   20    1:   10   37:   55
           8      11:   20    1:   10   56:   72
           9      11:   20   11:   20    1:   17
          10      11:   20   11:   20   18:   36
          11       1:   10   11:   20   37:   55
          12       1:   10   11:   20   56:   72
          13       1:   10   11:   20    1:   17
          14       1:   10   11:   20   18:   36
          15      11:   20   11:   20   37:   55
          16      11:   20   11:   20   56:   72
New grid distribution:   3
           1       1:   10    1:   10    1:   18
           2       1:   10    1:   10   19:   36
           3       1:   10    1:   10   37:   54
           4       1:   10    1:   10   55:   72
           5      11:   20    1:   10    1:   18
           6      11:   20    1:   10   19:   36
           7      11:   20    1:   10   37:   54
           8      11:   20    1:   10   55:   72
           9       1:   10   11:   20    1:   18
          10       1:   10   11:   20   19:   36
          11       1:   10   11:   20   37:   54
          12       1:   10   11:   20   55:   72
          13      11:   20   11:   20    1:   18
          14      11:   20   11:   20   19:   36
          15      11:   20   11:   20   37:   54
          16      11:   20   11:   20   55:   72
Setting up quadratic distribution...
ExtMesh (bp) on 0 =   146 x   146 x   157 =     3346612
PhiOnMesh: Number of (b)points on node 0 =                 1700
PhiOnMesh: nlist on node 0 =               234775

stepf: Fermi-Dirac step function

siesta: Program's energy decomposition (eV):
siesta: Ebs     =      -156.584344
siesta: Eions   =       439.895300
siesta: Ena     =       149.037887
siesta: Ekin    =       217.287645
siesta: Enl     =        65.848760
siesta: Eso     =         0.000000
siesta: Edftu   =         0.000000
siesta: DEna    =        -6.528033
siesta: DUscf   =        17.346448
siesta: DUext   =         0.000000
siesta: Exc     =      -211.034005
siesta: eta*DQ  =         0.000000
siesta: Emadel  =         0.000000
siesta: Emeta   =         0.000000
siesta: Emolmec =        -7.778197
siesta: Ekinion =         0.000000
siesta: Eharris =      -157.318744
siesta: Etot    =      -215.714795
siesta: FreeEng =      -215.725329

        iscf     Eharris(eV)        E_KS(eV)     FreeEng(eV)     dDmax    Ef(eV) dHmax(eV)
   scf:    1     -157.318744     -215.714795     -215.725329 38.592431 -8.929687 22.025159
timer: Routine,Calls,Time,% = IterSCF        1       1.024  21.37
   scf:    2      -31.838367     -178.094985     -178.099645 34.254159 -7.118149 39.134298
   scf:    3     -237.356859     -229.278498     -229.300688 31.627166 -8.335397  2.041127
   scf:    4     -228.508112     -229.205489     -229.228037  2.197010 -8.406163  2.454983
   scf:    5     -210.479463     -223.709831     -223.725683  6.967420 -8.061641 13.114435
   scf:    6     -230.961672     -229.283816     -229.304730  3.222659 -8.339603  1.960425
   scf:    7     -229.445060     -229.377591     -229.401810  0.581855 -8.349906  1.068018
   scf:    8     -229.435844     -229.420277     -229.446459  0.709029 -8.358068  0.208370
   scf:    9     -229.423571     -229.422100     -229.448212  0.178086 -8.358291  0.171113
   scf:   10     -229.421143     -229.422872     -229.449204  0.240292 -8.360995  0.090384
   scf:   11     -229.423345     -229.423219     -229.449481  0.049820 -8.360292  0.011825
   scf:   12     -229.423204     -229.423211     -229.449481  0.007766 -8.360379  0.011667
   scf:   13     -229.423223     -229.423219     -229.449485  0.007640 -8.360302  0.000512
   scf:   14     -229.423221     -229.423220     -229.449485  0.004681 -8.360255  0.002475
   scf:   15     -229.423220     -229.423220     -229.449485  0.000747 -8.360274  0.001657
   scf:   16     -229.423218     -229.423219     -229.449485  0.001657 -8.360311  0.000438
   scf:   17     -229.423219     -229.423219     -229.449485  0.000313 -8.360306  0.000066

SCF Convergence by FreeE+DM+H criterion
|FreeE_i-FreeE_(i-1)| (eV) <     0.00100000
max |DM_out - DM_in|         :     0.0003131398
max |H_out - H_in|      (eV) :     0.0000660627
SCF cycle converged after 17 iterations

Using DM_out to compute the final energy and forces
No. of atoms with KB's overlaping orbs in proc 0. Max # of overlaps:     255     263

MM-Stress (kbar):      -10.65      -10.65       25.89        0.00        0.00       -0.00

siesta: E_KS(eV) =             -229.4232

siesta: E_KS - E_eggbox =      -229.4232

siesta: Atomic forces (eV/Ang):
     1    0.000000    0.000000    0.000000
     2    0.007244   -0.012536   -0.957372
     3   -0.007244    0.012536    0.957372
     4    0.007222    0.012510   -0.957435
     5   -0.007222   -0.012510    0.957435
     6   -0.014479    0.000006   -0.957372
     7    0.014479   -0.000006    0.957372
     8   -0.007244    0.012536   -0.957372
     9    0.007244   -0.012536    0.957372
    10   -0.007222   -0.012510   -0.957435
    11    0.007222    0.012510    0.957435
    12    0.014479   -0.000006   -0.957372
    13   -0.014479    0.000006    0.957372
    14   -0.363085    0.628840   -0.000000
    15    0.363085   -0.628840   -0.000000
    16   -0.363094   -0.628897   -0.000000
    17    0.363094    0.628897   -0.000000
    18    0.726134   -0.000021   -0.000000
    19   -0.726134    0.000021   -0.000000
----------------------------------------
   Tot    0.000000   -0.000000   -0.000000
----------------------------------------
   Max    0.957435
   Res    0.498516    sqrt( Sum f_i^2 / 3N )
----------------------------------------
   Max    0.957435    constrained

Stress tensor Voigt[x,y,z,yz,xz,xy] (kbar):    -1181.77    -1181.77      505.10        0.00       -0.00       -0.01
(Free)E + p*V (eV/cell)     -147.7499
Target enthalpy (eV/cell)     -229.4495

siesta: Eigenvalues (eV):
  ik is       eps
   1  1  -17.3184  -13.6123  -12.7853  -12.2681  -12.0038  -11.9461  -11.5417  -11.2850  -10.6783  -10.5706
          -9.9120   -9.0039   -8.3522   -8.1851   -5.8556   -0.3978    0.6997    1.4022    2.3118    3.6490
    4.2426    4.4102    4.9663    5.3713    7.2044    9.8160   11.0282   16.3010   18.1018   18.3487
   18.4751   19.1588   20.2076   20.3337   20.3425   20.9239   20.9311   20.9658   21.4585   29.3092
   32.1203   49.9658   57.4912   58.1001
   2  1  -17.4959  -14.1116  -13.1954  -12.3043  -11.6616  -10.6572  -10.4786  -10.1368   -8.6815   -8.5336
          -8.4279   -6.8040   -4.3597   -4.1857   -3.0849   -2.7603   -1.4618   -0.3332    0.2257    0.8784
    4.3409    4.3482    4.4148    5.1007    5.3305    6.2458    9.6047   11.8138   13.4029   13.4429
   14.7274   19.5729   21.0113   21.8149   22.7150   23.2440   23.2878   24.1854   27.6088   34.2337
   39.4146   55.0211   55.4225   59.9684
   3  1  -17.4959  -14.1116  -13.1954  -12.3043  -11.6616  -10.6572  -10.4786  -10.1368   -8.6815   -8.5336
          -8.4278   -6.8039   -4.3597   -4.1857   -3.0849   -2.7603   -1.4619   -0.3332    0.2257    0.8784
    4.3409    4.3482    4.4149    5.1005    5.3305    6.2457    9.6047   11.8138   13.4028   13.4429
   14.7274   19.5729   21.0113   21.8149   22.7150   23.2440   23.2878   24.1854   27.6088   34.2337
   39.4146   55.0211   55.4224   59.9684
   4  1  -17.3184  -13.6123  -12.7853  -12.2681  -12.0038  -11.9461  -11.5417  -11.2850  -10.6783  -10.5706
          -9.9120   -9.0039   -8.3522   -8.1851   -5.8555   -0.3977    0.6997    1.4022    2.3116    3.6490
    4.2426    4.4102    4.9663    5.3713    7.2044    9.8160   11.0282   16.3010   18.1019   18.3487
   18.4751   19.1588   20.2076   20.3336   20.3425   20.9238   20.9311   20.9658   21.4585   29.3092
   32.1203   49.9658   57.4911   58.1001
   5  1  -17.4959  -14.1116  -13.1954  -12.3043  -11.6616  -10.6572  -10.4786  -10.1368   -8.6815   -8.5336
          -8.4279   -6.8040   -4.3597   -4.1857   -3.0849   -2.7603   -1.4618   -0.3332    0.2257    0.8784
    4.3409    4.3482    4.4148    5.1007    5.3305    6.2458    9.6047   11.8138   13.4029   13.4429
   14.7274   19.5729   21.0113   21.8149   22.7150   23.2440   23.2878   24.1854   27.6088   34.2337
   39.4146   55.0211   55.4225   59.9684
   6  1  -17.6633  -14.4211  -13.4939  -12.3531  -12.0900   -9.8642   -8.3861   -8.2367   -8.2366   -3.6691
          -0.1771   -0.1116   -0.1115    0.1100    0.1100    0.3598    0.3598    0.7311    0.7311    4.2297
    4.2297    5.1156    5.1158    8.3889    8.3891   10.8675   15.2625   15.2625   15.8173   15.8173
   16.4160   16.4160   22.8883   24.1590   24.2263   24.2264   24.5096   51.8971   51.8971   52.1712
   52.2467   52.8609   52.8609  129.4486
   7  1  -17.3416  -13.5133  -13.2424  -12.6699  -12.4795  -11.6536  -11.0031  -10.3799   -9.6303   -8.8869
          -8.8105   -8.3617   -7.0192   -6.5595   -5.7511   -5.0542   -4.7800   -4.5745   -4.1441   -3.0793
    1.2132    2.1331    3.0996    3.4055    4.1470    9.7006   13.8076   17.6439   17.9365   18.5965
   18.9280   19.2019   19.2492   19.4097   19.4752   27.8727   27.9074   34.1740   52.4932   52.9978
   53.7090   55.5066   55.8076   56.7919
   8  1  -17.3184  -13.6123  -12.7853  -12.2681  -12.0038  -11.9461  -11.5417  -11.2850  -10.6783  -10.5706
          -9.9120   -9.0039   -8.3522   -8.1851   -5.8555   -0.3977    0.6997    1.4022    2.3116    3.6490
    4.2426    4.4102    4.9663    5.3713    7.2044    9.8160   11.0282   16.3010   18.1019   18.3487
   18.4751   19.1588   20.2076   20.3336   20.3425   20.9238   20.9311   20.9658   21.4585   29.3092
   32.1203   49.9658   57.4911   58.1001
   9  1  -17.3184  -13.6123  -12.7853  -12.2681  -12.0038  -11.9461  -11.5417  -11.2850  -10.6783  -10.5706
          -9.9120   -9.0039   -8.3522   -8.1851   -5.8555   -0.3977    0.6997    1.4022    2.3116    3.6490
    4.2426    4.4102    4.9663    5.3713    7.2044    9.8160   11.0282   16.3010   18.1019   18.3487
   18.4751   19.1588   20.2076   20.3336   20.3425   20.9238   20.9311   20.9658   21.4585   29.3092
   32.1203   49.9658   57.4911   58.1001
  10  1  -17.3416  -13.5133  -13.2424  -12.6699  -12.4795  -11.6536  -11.0031  -10.3799   -9.6303   -8.8869
          -8.8105   -8.3617   -7.0192   -6.5595   -5.7511   -5.0542   -4.7800   -4.5745   -4.1441   -3.0793
    1.2132    2.1331    3.0996    3.4055    4.1470    9.7006   13.8076   17.6439   17.9365   18.5965
   18.9280   19.2019   19.2492   19.4097   19.4752   27.8727   27.9074   34.1740   52.4932   52.9978
   53.7090   55.5066   55.8076   56.7919
  11  1  -17.3184  -13.6123  -12.7853  -12.2681  -12.0038  -11.9461  -11.5417  -11.2850  -10.6783  -10.5706
          -9.9120   -9.0039   -8.3522   -8.1851   -5.8555   -0.3977    0.6997    1.4022    2.3116    3.6490
    4.2426    4.4102    4.9663    5.3713    7.2044    9.8160   11.0282   16.3010   18.1019   18.3487
   18.4751   19.1588   20.2076   20.3336   20.3425   20.9238   20.9311   20.9658   21.4585   29.3092
   32.1203   49.9658   57.4911   58.1001
  12  1  -17.3416  -13.5133  -13.2424  -12.6699  -12.4795  -11.6537  -11.0031  -10.3799   -9.6303   -8.8869
          -8.8106   -8.3617   -7.0191   -6.5595   -5.7511   -5.0541   -4.7800   -4.5745   -4.1441   -3.0793
    1.2132    2.1332    3.0996    3.4055    4.1467    9.7006   13.8076   17.6439   17.9365   18.5965
   18.9279   19.2019   19.2493   19.4097   19.4753   27.8726   27.9074   34.1740   52.4932   52.9978
   53.7091   55.5066   55.8076   56.7919
  13  1  -17.2988  -13.5490  -12.7755  -12.2843  -11.9687  -11.9054  -11.5203  -11.2631  -10.7032  -10.6351
          -9.6909   -9.0366   -8.3568   -8.3375   -5.6860   -2.8848    1.1767    1.9635    2.4920    3.6611
    3.8877    5.0549    5.7511    5.8506    9.0011    9.7516   12.4213   15.6910   18.4596   19.0350
   19.3440   19.5767   19.8356   20.5396   20.7466   20.8186   21.2029   23.1579   23.6260   31.4319
   31.7631   49.6207   52.9725   64.6601
  14  1  -17.4797  -14.1206  -13.1805  -12.3820  -11.4682  -10.6432  -10.5510   -9.9011   -8.9652   -8.5234
          -8.2604   -6.5091   -4.3749   -4.3329   -3.8510   -2.8760   -1.7942   -1.4107    0.5672    2.7206
    4.4543    4.5475    5.2716    5.7349    5.9040    6.6029    9.2280    9.6272   13.4055   14.8689
   19.5050   19.6745   20.9900   21.6885   22.1579   22.5072   23.2131   23.3794   24.4904   30.5458
   43.0638   52.7123   57.7237   60.4499
  15  1  -17.4797  -14.1206  -13.1805  -12.3820  -11.4682  -10.6432  -10.5510   -9.9011   -8.9652   -8.5235
          -8.2604   -6.5091   -4.3749   -4.3329   -3.8510   -2.8760   -1.7943   -1.4107    0.5672    2.7206
    4.4543    4.5476    5.2716    5.7348    5.9040    6.6028    9.2280    9.6272   13.4055   14.8689
   19.5050   19.6745   20.9900   21.6885   22.1579   22.5072   23.2131   23.3794   24.4903   30.5458
   43.0638   52.7123   57.7237   60.4499
  16  1  -17.2988  -13.5490  -12.7755  -12.2843  -11.9687  -11.9054  -11.5203  -11.2631  -10.7032  -10.6351
          -9.6909   -9.0365   -8.3568   -8.3375   -5.6859   -2.8847    1.1767    1.9636    2.4918    3.6610
    3.8877    5.0549    5.7511    5.8506    9.0012    9.7515   12.4213   15.6910   18.4597   19.0350
   19.3440   19.5768   19.8356   20.5396   20.7466   20.8186   21.2029   23.1578   23.6260   31.4319
   31.7631   49.6207   52.9724   64.6601
  17  1  -17.4797  -14.1206  -13.1805  -12.3820  -11.4682  -10.6432  -10.5510   -9.9011   -8.9652   -8.5234
          -8.2604   -6.5091   -4.3749   -4.3329   -3.8510   -2.8760   -1.7942   -1.4107    0.5672    2.7206
    4.4543    4.5475    5.2716    5.7349    5.9040    6.6029    9.2280    9.6272   13.4055   14.8689
   19.5050   19.6745   20.9900   21.6885   22.1579   22.5072   23.2131   23.3794   24.4904   30.5458
   43.0638   52.7123   57.7237   60.4499
  18  1  -17.6516  -14.4410  -13.4736  -12.5497  -11.7568  -10.1057   -8.2345   -8.2343   -7.6400   -4.7143
          -1.2892   -1.2892   -1.2690   -1.2690    0.5775    1.9623    1.9623    2.6906    2.6906    4.2997
    4.2997    5.0852    5.0854    9.1780    9.1781   10.9254   14.0169   14.0169   15.6645   15.6645
   21.0961   21.0961   22.6701   23.7368   23.7368   24.1999   24.7912   31.1390   31.1390   32.7168
   32.7169   46.5272   65.8590  119.1529
  19  1  -17.4797  -14.1206  -13.1805  -12.3820  -11.4682  -10.6432  -10.5510   -9.9011   -8.9652   -8.5234
          -8.2604   -6.5091   -4.3749   -4.3329   -3.8510   -2.8760   -1.7942   -1.4107    0.5672    2.7206
    4.4543    4.5475    5.2716    5.7349    5.9040    6.6029    9.2280    9.6272   13.4055   14.8689
   19.5050   19.6745   20.9900   21.6885   22.1579   22.5072   23.2131   23.3794   24.4904   30.5458
   43.0638   52.7123   57.7237   60.4499
  20  1  -17.3015  -13.2531  -13.1707  -12.6472  -12.4923  -11.6400  -10.9906  -10.2762   -9.6001   -8.7885
          -8.5717   -8.3450   -6.8352   -6.5850   -5.7491   -5.6614   -5.5094   -4.6617   -3.3726   -3.2108
   -2.2908   -1.2758    3.5908    4.3809    4.8762   10.3066   11.9570   14.6067   17.6375   17.8799
   18.2193   18.6491   18.9661   19.2265   19.3953   20.8151   30.0825   35.5377   50.6185   52.0059
   53.9745   54.6425   59.3823   60.6837
  21  1  -17.4797  -14.1206  -13.1805  -12.3820  -11.4682  -10.6432  -10.5510   -9.9011   -8.9652   -8.5235
          -8.2604   -6.5091   -4.3749   -4.3329   -3.8510   -2.8760   -1.7943   -1.4107    0.5672    2.7206
    4.4543    4.5476    5.2716    5.7348    5.9040    6.6028    9.2280    9.6272   13.4055   14.8689
   19.5050   19.6745   20.9900   21.6885   22.1579   22.5072   23.2131   23.3794   24.4903   30.5458
   43.0638   52.7123   57.7237   60.4499
  22  1  -17.4797  -14.1206  -13.1805  -12.3820  -11.4682  -10.6432  -10.5510   -9.9011   -8.9652   -8.5234
          -8.2604   -6.5091   -4.3749   -4.3329   -3.8510   -2.8760   -1.7942   -1.4107    0.5672    2.7206
    4.4543    4.5475    5.2716    5.7349    5.9040    6.6029    9.2280    9.6272   13.4055   14.8689
   19.5050   19.6745   20.9900   21.6885   22.1579   22.5072   23.2131   23.3794   24.4904   30.5458
   43.0638   52.7123   57.7237   60.4499
  23  1  -17.2988  -13.5490  -12.7755  -12.2843  -11.9687  -11.9054  -11.5203  -11.2631  -10.7032  -10.6351
          -9.6909   -9.0366   -8.3568   -8.3375   -5.6860   -2.8848    1.1767    1.9635    2.4920    3.6611
    3.8877    5.0549    5.7511    5.8506    9.0011    9.7516   12.4213   15.6910   18.4596   19.0350
   19.3440   19.5767   19.8356   20.5396   20.7466   20.8186   21.2029   23.1579   23.6260   31.4319
   31.7631   49.6207   52.9725   64.6601
  24  1  -17.2988  -13.5490  -12.7755  -12.2843  -11.9687  -11.9054  -11.5203  -11.2631  -10.7032  -10.6351
          -9.6909   -9.0365   -8.3568   -8.3375   -5.6859   -2.8847    1.1767    1.9636    2.4918    3.6610
    3.8877    5.0549    5.7511    5.8506    9.0012    9.7515   12.4213   15.6910   18.4597   19.0350
   19.3440   19.5768   19.8356   20.5396   20.7466   20.8186   21.2029   23.1578   23.6260   31.4319
   31.7631   49.6207   52.9724   64.6601
  25  1  -17.2988  -13.5490  -12.7755  -12.2843  -11.9687  -11.9054  -11.5203  -11.2631  -10.7032  -10.6351
          -9.6909   -9.0365   -8.3568   -8.3375   -5.6859   -2.8847    1.1767    1.9636    2.4918    3.6610
    3.8877    5.0549    5.7511    5.8506    9.0012    9.7515   12.4213   15.6910   18.4597   19.0350
   19.3440   19.5768   19.8356   20.5396   20.7466   20.8186   21.2029   23.1578   23.6260   31.4319
   31.7631   49.6207   52.9724   64.6601
  26  1  -17.3015  -13.2531  -13.1707  -12.6472  -12.4923  -11.6400  -10.9906  -10.2762   -9.6001   -8.7885
          -8.5717   -8.3450   -6.8352   -6.5850   -5.7491   -5.6614   -5.5094   -4.6617   -3.3726   -3.2108
   -2.2908   -1.2758    3.5908    4.3809    4.8762   10.3066   11.9570   14.6067   17.6375   17.8799
   18.2193   18.6491   18.9661   19.2265   19.3953   20.8151   30.0825   35.5377   50.6185   52.0059
   53.9745   54.6425   59.3823   60.6837
  27  1  -17.2988  -13.5490  -12.7755  -12.2843  -11.9687  -11.9054  -11.5203  -11.2631  -10.7032  -10.6351
          -9.6909   -9.0365   -8.3568   -8.3375   -5.6859   -2.8847    1.1767    1.9636    2.4918    3.6610
    3.8877    5.0549    5.7511    5.8506    9.0012    9.7515   12.4213   15.6910   18.4597   19.0350
   19.3440   19.5768   19.8356   20.5396   20.7466   20.8186   21.2029   23.1578   23.6260   31.4319
   31.7631   49.6207   52.9724   64.6601
  28  1  -17.3015  -13.2532  -13.1707  -12.6472  -12.4923  -11.6401  -10.9906  -10.2762   -9.6001   -8.7886
          -8.5717   -8.3450   -6.8352   -6.5850   -5.7491   -5.6614   -5.5094   -4.6617   -3.3726   -3.2108
   -2.2907   -1.2758    3.5908    4.3807    4.8761   10.3065   11.9571   14.6067   17.6375   17.8799
   18.2193   18.6491   18.9660   19.2265   19.3953   20.8151   30.0825   35.5377   50.6185   52.0059
   53.9745   54.6425   59.3823   60.6837
  29  1  -17.2702  -13.5056  -12.7812  -12.3040  -11.9300  -11.8566  -11.5212  -11.2431  -10.7487  -10.1900
          -9.2976   -8.7791   -8.3213   -7.9807   -5.4879    0.2565    1.4223    2.9503    2.9648    3.1103
    3.2883    5.7147    6.7788    7.3839    9.6665   17.6796   17.9778   19.0076   19.1553   19.5586
   19.6711   19.7391   20.5468   20.6494   21.7254   22.5755   24.3497   24.4456   24.4773   24.9811
   50.1696   50.7045   53.2090   68.7684
  30  1  -17.4506  -14.1720  -13.3775  -12.2143  -11.4948  -10.5612   -9.8308   -9.4077   -8.6556   -8.5117
          -8.1388   -6.0339   -4.3893   -3.7665   -3.1916   -2.3781   -2.3685    0.5529    0.5812    3.7677
    4.5960    4.9490    5.6374    5.6659    7.2057    8.7216   10.0784   10.2941   10.9226   17.9156
   18.0755   19.1903   19.5845   21.1656   21.7999   21.8195   23.2169   23.2639   25.8487   47.7975
   53.7019   54.2963   63.1550   67.9996
  31  1  -17.4506  -14.1720  -13.3775  -12.2143  -11.4948  -10.5612   -9.8308   -9.4077   -8.6556   -8.5118
          -8.1387   -6.0339   -4.3893   -3.7665   -3.1916   -2.3781   -2.3685    0.5530    0.5812    3.7677
    4.5960    4.9491    5.6374    5.6658    7.2057    8.7216   10.0784   10.2941   10.9226   17.9156
   18.0755   19.1903   19.5845   21.1655   21.7999   21.8195   23.2169   23.2639   25.8487   47.7975
   53.7019   54.2963   63.1550   67.9996
  32  1  -17.2702  -13.5056  -12.7812  -12.3041  -11.9300  -11.8566  -11.5212  -11.2431  -10.7487  -10.1900
          -9.2976   -8.7791   -8.3214   -7.9807   -5.4879    0.2567    1.4223    2.9503    2.9646    3.1104
    3.2883    5.7147    6.7788    7.3839    9.6665   17.6796   17.9778   19.0076   19.1553   19.5587
   19.6711   19.7391   20.5468   20.6494   21.7254   22.5755   24.3497   24.4456   24.4773   24.9810
   50.1695   50.7045   53.2090   68.7684
  33  1  -17.4506  -14.1720  -13.3775  -12.2143  -11.4948  -10.5612   -9.8308   -9.4077   -8.6556   -8.5117
          -8.1388   -6.0339   -4.3893   -3.7665   -3.1916   -2.3781   -2.3685    0.5529    0.5812    3.7677
    4.5960    4.9490    5.6374    5.6659    7.2057    8.7216   10.0784   10.2941   10.9226   17.9156
   18.0755   19.1903   19.5845   21.1656   21.7999   21.8195   23.2169   23.2639   25.8487   47.7975
   53.7019   54.2963   63.1550   67.9996
  34  1  -17.6187  -14.5146  -13.7150  -12.1386  -11.7811   -8.6163   -8.2322   -8.2321   -6.0877   -1.8752
          -1.8752   -1.7498   -1.7498    1.0221    2.4287    2.9061    2.9061    3.8167    3.8167    4.3801
    4.3801    5.0245    5.0248   11.1293   11.1293   16.4296   16.4296   17.9079   17.9080   17.9546
   17.9546   18.1268   18.7240   18.7240   22.4903   23.4005   23.4005   24.2229   24.2230   24.2934
   24.9800   45.0205   91.2252   91.6278
  35  1  -17.4506  -14.1720  -13.3775  -12.2143  -11.4948  -10.5612   -9.8308   -9.4077   -8.6556   -8.5117
          -8.1388   -6.0339   -4.3893   -3.7665   -3.1916   -2.3781   -2.3685    0.5529    0.5812    3.7677
    4.5960    4.9490    5.6374    5.6659    7.2057    8.7216   10.0784   10.2941   10.9226   17.9156
   18.0755   19.1903   19.5845   21.1656   21.7999   21.8195   23.2169   23.2639   25.8487   47.7975
   53.7019   54.2963   63.1550   67.9996
  36  1  -17.2296  -13.1350  -13.1160  -12.6740  -12.4370  -11.6784  -10.8753  -10.1679   -9.1559   -8.7606
          -7.6367   -7.5948   -7.0436   -6.7231   -6.3800   -5.8275   -5.7471   -4.4358   -3.7597   -2.1335
    0.2139    4.4722    4.5979    5.1175    9.1546    9.8687   14.9827   17.5512   17.6311   17.9405
   19.0054   19.2985   19.3793   19.8584   37.7390   38.5025   45.4721   49.3467   50.5987   50.7984
   56.4465   57.5970   57.9592   62.0185
  37  1  -17.4506  -14.1720  -13.3775  -12.2143  -11.4948  -10.5612   -9.8308   -9.4077   -8.6556   -8.5118
          -8.1387   -6.0339   -4.3893   -3.7665   -3.1916   -2.3781   -2.3685    0.5530    0.5812    3.7677
    4.5960    4.9491    5.6374    5.6658    7.2057    8.7216   10.0784   10.2941   10.9226   17.9156
   18.0755   19.1903   19.5845   21.1655   21.7999   21.8195   23.2169   23.2639   25.8487   47.7975
   53.7019   54.2963   63.1550   67.9996
  38  1  -17.4506  -14.1720  -13.3775  -12.2143  -11.4948  -10.5612   -9.8308   -9.4077   -8.6556   -8.5117
          -8.1388   -6.0339   -4.3893   -3.7665   -3.1916   -2.3781   -2.3685    0.5529    0.5812    3.7677
    4.5960    4.9490    5.6374    5.6659    7.2057    8.7216   10.0784   10.2941   10.9226   17.9156
   18.0755   19.1903   19.5845   21.1656   21.7999   21.8195   23.2169   23.2639   25.8487   47.7975
   53.7019   54.2963   63.1550   67.9996
  39  1  -17.2702  -13.5056  -12.7812  -12.3040  -11.9300  -11.8566  -11.5212  -11.2431  -10.7487  -10.1900
          -9.2976   -8.7791   -8.3213   -7.9807   -5.4879    0.2565    1.4223    2.9503    2.9648    3.1103
    3.2883    5.7147    6.7788    7.3839    9.6665   17.6796   17.9778   19.0076   19.1553   19.5586
   19.6711   19.7391   20.5468   20.6494   21.7254   22.5755   24.3497   24.4456   24.4773   24.9811
   50.1696   50.7045   53.2090   68.7684
  40  1  -17.2702  -13.5056  -12.7812  -12.3041  -11.9300  -11.8566  -11.5212  -11.2431  -10.7487  -10.1900
          -9.2976   -8.7791   -8.3214   -7.9807   -5.4879    0.2567    1.4223    2.9503    2.9646    3.1104
    3.2883    5.7147    6.7788    7.3839    9.6665   17.6796   17.9778   19.0076   19.1553   19.5587
   19.6711   19.7391   20.5468   20.6494   21.7254   22.5755   24.3497   24.4456   24.4773   24.9810
   50.1695   50.7045   53.2090   68.7684
  41  1  -17.2702  -13.5056  -12.7812  -12.3041  -11.9300  -11.8566  -11.5212  -11.2431  -10.7487  -10.1900
          -9.2976   -8.7791   -8.3214   -7.9807   -5.4879    0.2567    1.4223    2.9503    2.9646    3.1104
    3.2883    5.7147    6.7788    7.3839    9.6665   17.6796   17.9778   19.0076   19.1553   19.5587
   19.6711   19.7391   20.5468   20.6494   21.7254   22.5755   24.3497   24.4456   24.4773   24.9810
   50.1695   50.7045   53.2090   68.7684
  42  1  -17.2296  -13.1350  -13.1160  -12.6740  -12.4370  -11.6784  -10.8753  -10.1679   -9.1559   -8.7606
          -7.6367   -7.5948   -7.0436   -6.7231   -6.3800   -5.8275   -5.7471   -4.4358   -3.7597   -2.1335
    0.2139    4.4722    4.5979    5.1175    9.1546    9.8687   14.9827   17.5512   17.6311   17.9405
   19.0054   19.2985   19.3793   19.8584   37.7390   38.5025   45.4721   49.3467   50.5987   50.7984
   56.4465   57.5970   57.9592   62.0185
  43  1  -17.2702  -13.5056  -12.7812  -12.3041  -11.9300  -11.8566  -11.5212  -11.2431  -10.7487  -10.1900
          -9.2976   -8.7791   -8.3214   -7.9807   -5.4879    0.2567    1.4223    2.9503    2.9646    3.1104
    3.2883    5.7147    6.7788    7.3839    9.6665   17.6796   17.9778   19.0076   19.1553   19.5587
   19.6711   19.7391   20.5468   20.6494   21.7254   22.5755   24.3497   24.4456   24.4773   24.9810
   50.1695   50.7045   53.2090   68.7684
  44  1  -17.2296  -13.1350  -13.1160  -12.6740  -12.4370  -11.6784  -10.8753  -10.1679   -9.1559   -8.7607
          -7.6367   -7.5948   -7.0436   -6.7231   -6.3800   -5.8275   -5.7471   -4.4358   -3.7597   -2.1335
    0.2142    4.4722    4.5979    5.1173    9.1546    9.8686   14.9827   17.5512   17.6310   17.9405
   19.0054   19.2985   19.3793   19.8584   37.7390   38.5026   45.4721   49.3467   50.5986   50.7984
   56.4465   57.5970   57.9592   62.0184
siesta: Fermi energy =      -8.360306 eV

siesta: Program's energy decomposition (eV):
siesta: Ebs     =      -257.857812
siesta: Eions   =       439.895300
siesta: Ena     =       149.037887
siesta: Ekin    =       184.543720
siesta: Enl     =        74.694349
siesta: Eso     =         0.000000
siesta: Edftu   =         0.000000
siesta: DEna    =        11.839203
siesta: DUscf   =         0.910384
siesta: DUext   =         0.000000
siesta: Exc     =      -202.775265
siesta: eta*DQ  =         0.000000
siesta: Emadel  =         0.000000
siesta: Emeta   =         0.000000
siesta: Emolmec =        -7.778197
siesta: Ekinion =         0.000000
siesta: Eharris =      -229.423219
siesta: Etot    =      -229.423219
siesta: FreeEng =      -229.449485

siesta: Final energy (eV):
siesta:  Band Struct. =    -257.857812
siesta:       Kinetic =     184.543720
siesta:       Hartree =     112.123696
siesta:       Edftu   =       0.000000
siesta:       Eso     =       0.000000
siesta:    Ext. field =       0.000000
siesta:   Exch.-corr. =    -202.775265
siesta:  Ion-electron =    -463.631760
siesta:       Ion-ion =     148.094588
siesta:       Ekinion =       0.000000
siesta:         Total =    -229.423219
siesta:         Fermi =      -8.360306

siesta: Atomic forces (eV/Ang):
siesta:      1    0.000000    0.000000    0.000000
siesta:      2    0.007244   -0.012536   -0.957372
siesta:      3   -0.007244    0.012536    0.957372
siesta:      4    0.007222    0.012510   -0.957435
siesta:      5   -0.007222   -0.012510    0.957435
siesta:      6   -0.014479    0.000006   -0.957372
siesta:      7    0.014479   -0.000006    0.957372
siesta:      8   -0.007244    0.012536   -0.957372
siesta:      9    0.007244   -0.012536    0.957372
siesta:     10   -0.007222   -0.012510   -0.957435
siesta:     11    0.007222    0.012510    0.957435
siesta:     12    0.014479   -0.000006   -0.957372
siesta:     13   -0.014479    0.000006    0.957372
siesta:     14   -0.363085    0.628840   -0.000000
siesta:     15    0.363085   -0.628840   -0.000000
siesta:     16   -0.363094   -0.628897   -0.000000
siesta:     17    0.363094    0.628897   -0.000000
siesta:     18    0.726134   -0.000021   -0.000000
siesta:     19   -0.726134    0.000021   -0.000000
siesta: ----------------------------------------
siesta:    Tot    0.000000   -0.000000   -0.000000

siesta: Stress tensor (static) (eV/Ang**3):
siesta:    -0.737593   -0.000004   -0.000000
siesta:    -0.000004   -0.737598    0.000000
siesta:    -0.000000    0.000000    0.315257

siesta: Cell volume =        211.304262 Ang**3

siesta: Pressure (static):
siesta:                Solid            Molecule  Units
siesta:           0.00421105          0.00340336  Ry/Bohr**3
siesta:           0.38664437          0.31248482  eV/Ang**3
siesta:         619.47927046        500.66128718  kBar
(Free)E+ p_basis*V_orbitals  =        -196.843675
(Free)Eharris+ p_basis*V_orbitals  =        -196.843675

cite: Please see "LiC18_scf.bib" for an exhaustive BiBTeX file.
cite: Please clearly indicate Siesta version in published work: 4.1.5
cite: This calculation has made use of the following articles
cite: which are encouraged to be cited in a published work.
        Primary SIESTA paper
          DOI: www.doi.org/10.1088/0953-8984/14/11/302

>> End of run:   9-NOV-2022   8:48:28
Job completed
