Siesta Version  : 4.1.5
Architecture    : x86_64-unknown-linux-gnu--unknown
Compiler version: GNU Fortran (GCC) 11.3.0
Compiler flags  : mpif90 -g -O2 -fallow-argument-mismatch
PP flags        : -DMPI -DFC_HAVE_FLUSH -DFC_HAVE_ABORT
Libraries       :  -I/global/software/sl-7.x86_64/modules/intel/2020.4.304/mkl/include  /globall/software/sl-7.x86_64/modules/intel/2020.4.304/mkl/lib/intel64/libmkl_scalapack_lp64.a -Wl,--start-group /global/software/sl-7.x86_64/modules/intel/2020.4.304/mkl/lib/intel64/libmkl_intel_lp64.a /global/software/sl-7.x86_64/modules/intel/2020.4.304/mkl/lib/intel64/libmkl_sequential.a /global/software/sl-7.x86_64/modules/intel/2020.4.304/mkl/lib/intel64/libmkl_core.a /global/software/sl-7.x86_64/modules/intel/2020.4.304/mkl/lib/intel64/libmkl_blacs_openmpi_lp64.a -Wl,--end-group -lpthread -lm -ldl
PARALLEL version

* Running on 16 nodes in parallel
>> Start of run:   9-NOV-2022   8:43:44

                           ***********************       
                           *  WELCOME TO SIESTA  *       
                           ***********************       

reinit: Reading from standard input
reinit: Dumped input in INPUT_TMP.99611
************************** Dump of input data file ****************************
SystemName LiC18_scf
SystemLabel LiC18_scf
NumberOfAtoms   19
NumberOfSpecies 2
%block ChemicalSpeciesLabel
1  3   Li-gga
2  6   C-gga
%endblock ChemicalSpeciesLabel
PAO.BasisSize  DZ
PAO.EnergyShift  10 meV
%block PS.Lmax
C-gga   2
Li-gga  2
%endblock PS.Lmax
LatticeConstant 1.000000 Ang
%block LatticeVectors
	4.3161300000	0.0000000000	0.0000000000
	-2.1580650000	3.7378782260	0.0000000000
	0.0000000000	0.0000000000	5.7717821200
%endblock LatticeVectors
AtomicCoordinatesFormat Ang
%block AtomicCoordinatesAndAtomicSpecies
	0.00000000	0.00000000	0.00000000	2
	-0.70288177	1.21742694	0.96196561	1
	-1.45518323	2.52045129	4.80981651	1
	1.45518323	2.52045129	0.96196561	1
	0.70288177	1.21742694	4.80981651	1
	1.40576354	0.00000000	0.96196561	1
	2.91036646	0.00000000	4.80981651	1
	-1.45518323	2.52045129	0.96196561	1
	-0.70288177	1.21742694	4.80981651	1
	0.70288177	1.21742694	0.96196561	1
	1.45518323	2.52045129	4.80981651	1
	2.91036646	0.00000000	0.96196561	1
	1.40576354	0.00000000	4.80981651	1
	-0.70288177	1.21742694	2.88589106	1
	-1.45518323	2.52045129	2.88589106	1
	1.45518323	2.52045129	2.88589106	1
	0.70288177	1.21742694	2.88589106	1
	1.40576354	0.00000000	2.88589106	1
	2.91036646	0.00000000	2.88589106	1
%endblock AtomicCoordinatesAndAtomicSpecies
Kgrid_NoTRS  T
%block kgrid_MonkhorstPack
4       0       0       0.0
0       4       0       0.0
0       0       4       0.0
%endblock kgrid_MonkhorstPack
AtomCoorFormatOut Ang
BlockSize 1
#ProcessorY 12
Diag.ParallelOverK   T
Diag.DivideAndConquer F
MeshCutoff   300 Ry
SCF.FreeE.Tolerance 1E-3 eV
SCF.EDM.Tolerance   5E-3 eV
DM.Tolerance  1E-3
DM.Require.Energy.Convergence T
DM.NumberPulay 4
XC.Functional GGA
XC.Authors    PBE
UseSaveData        F
MD.TypeOfRun       CG
MD.VariableCell    F
MD.NumCGsteps      00
MD.MaxCGDispl      0.200000 Bohr
MD.MaxStressTol    1.000000 GPa
MD.MaxForceTol     0.010000 eV/Ang
WriteMDHistory T
WriteCoorStep T
WriteForces T
WriteCoorStep    T
WriteEigenValues T
WriteDM    F
MM.UnitsDistance Ang  # what this program prints out DO NOT CHANGE
MM.UnitsEnergy    eV  # what this program prints out DO NOT CHANGE
MM.Grimme.S6     0.75 # Grimme-paper for PBE (correct for your functional)
MM.Grimme.D     20.   # Grimme-paper (correct for your functional)
%block MM.Potentials
  1   1 Grimme     16.69      1.650 # Li, 10.1002/jcc.20495
  1   2 Grimme     17.40      2.277 # Li / C
  2   2 Grimme     18.14      2.904 # C, 10.1002/jcc.20495
%endblock MM.Potentials
#%block ProjectedDensityOfStates
# -200.0  120.0  0.4  12800  eV
#%endblock ProjectedDensityOfStates
************************** End of input data file *****************************

reinit: -----------------------------------------------------------------------
reinit: System Name: LiC18_scf
reinit: -----------------------------------------------------------------------
reinit: System Label: LiC18_scf
reinit: -----------------------------------------------------------------------
Reading two-body potentials
Grimme - two-body potential between 1 and 1
Grimme - two-body potential between 1 and 2
Grimme - two-body potential between 2 and 2

initatom: Reading input for the pseudopotentials and atomic orbitals ----------
Species number:   1 Atomic number:    3 Label: Li-gga
Species number:   2 Atomic number:    6 Label: C-gga

Ground state valence configuration:   2s01
Reading pseudopotential information in formatted form from Li-gga.psf

Valence configuration for pseudopotential generation:
2s( 1.00) rc: 2.28
2p( 0.00) rc: 2.28
3d( 0.00) rc: 2.59
4f( 0.00) rc: 2.59
Ground state valence configuration:   2s02  2p02
Reading pseudopotential information in formatted form from C-gga.psf

Valence configuration for pseudopotential generation:
2s( 2.00) rc: 1.56
2p( 2.00) rc: 1.56
3d( 0.00) rc: 1.56
4f( 0.00) rc: 1.56
relmxkb: Read Max KB Ang. Momentum=    2 for species C-gga
relmxkb: Read Max KB Ang. Momentum=    2 for species Li-gga

<basis_specs>
===============================================================================
Li-gga               Z=   3    Mass=  6.9400        Charge= 0.17977+309
Lmxo=0 Lmxkb= 2    BasisType=split      Semic=F
L=0  Nsemic=0  Cnfigmx=2
          i=1  nzeta=2  polorb=0  (2s)
            splnorm:   0.15000    
               vcte:    0.0000    
               rinn:    0.0000    
               qcoe:    0.0000    
               qyuk:    0.0000    
               qwid:   0.10000E-01
                rcs:    0.0000      0.0000    
            lambdas:    1.0000      1.0000    
-------------------------------------------------------------------------------
L=0  Nkbl=1  erefs: 0.17977+309
L=1  Nkbl=1  erefs: 0.17977+309
L=2  Nkbl=1  erefs: 0.17977+309
===============================================================================
</basis_specs>

atom: Called for Li-gga                (Z =   3)

read_vps: Pseudopotential generation method:
read_vps: ATM 3.2.2 Troullier-Martins                       
Valence charge for ps generation:    1.00000

read_vps: Pseudopotential includes a core correction:
read_vps: Pseudo-core for xc-correction

xc_check: Exchange-correlation functional:
xc_check: GGA Perdew, Burke & Ernzerhof 1996
V l=0 = -2*Zval/r beyond r=  2.2278
V l=1 = -2*Zval/r beyond r=  2.2278
V l=2 = -2*Zval/r beyond r=  2.5245
All V_l potentials equal beyond r=  2.4622
This should be close to max(r_c) in ps generation
All pots = -2*Zval/r beyond r=  2.5245

VLOCAL1: 99.0% of the norm of Vloc inside      7.160 Ry
VLOCAL1: 99.9% of the norm of Vloc inside     16.318 Ry
atom: Maximum radius for 4*pi*r*r*local-pseudopot. charge    2.86079
atom: Maximum radius for r*vlocal+2*Zval:    2.43160
GHOST: No ghost state for L =  0
GHOST: No ghost state for L =  1
GHOST: No ghost state for L =  2

KBgen: Kleinman-Bylander projectors: 
   l= 0   rc=  2.654023   el= -0.211234   Ekb=  1.742119   kbcos=  0.228463
   l= 1   rc=  2.721230   el= -0.080095   Ekb= -1.122375   kbcos= -0.147941
   l= 2   rc=  2.825246   el=  0.002001   Ekb= -0.207076   kbcos= -0.031965

KBgen: Total number of Kleinman-Bylander projectors:    9
atom: -------------------------------------------------------------------------

atom: SANKEY-TYPE ORBITALS:
atom: Selected multiple-zeta basis: split     

SPLIT: Orbitals with angular momentum L= 0

SPLIT: Basis orbitals for state 2s

SPLIT: PAO cut-off radius determined from an
SPLIT: energy shift=  0.000735 Ry

   izeta = 1
                 lambda =    1.000000
                     rc =   11.897381
                 energy =   -0.210580
                kinetic =    0.143382
    potential(screened) =   -0.353962
       potential(ionic) =   -0.533453

   izeta = 2
                 rmatch =    8.489163
              splitnorm =    0.150000
                 energy =   -0.186081
                kinetic =    0.225882
    potential(screened) =   -0.411964
       potential(ionic) =   -0.593024
atom: Total number of Sankey-type orbitals:  2

atm_pop: Valence configuration (for local Pseudopot. screening):
 2s( 1.00)                                                            
Vna: chval, zval:    1.00000   1.00000

Vna:  Cut-off radius for the neutral-atom potential:  11.897381
comcore: Pseudo-core radius Rcore=  3.450946

atom: _________________________________________________________________________

<basis_specs>
===============================================================================
C-gga                Z=   6    Mass=  12.010        Charge= 0.17977+309
Lmxo=1 Lmxkb= 2    BasisType=split      Semic=F
L=0  Nsemic=0  Cnfigmx=2
          i=1  nzeta=2  polorb=0  (2s)
            splnorm:   0.15000    
               vcte:    0.0000    
               rinn:    0.0000    
               qcoe:    0.0000    
               qyuk:    0.0000    
               qwid:   0.10000E-01
                rcs:    0.0000      0.0000    
            lambdas:    1.0000      1.0000    
L=1  Nsemic=0  Cnfigmx=2
          i=1  nzeta=2  polorb=0  (2p)
            splnorm:   0.15000    
               vcte:    0.0000    
               rinn:    0.0000    
               qcoe:    0.0000    
               qyuk:    0.0000    
               qwid:   0.10000E-01
                rcs:    0.0000      0.0000    
            lambdas:    1.0000      1.0000    
-------------------------------------------------------------------------------
L=0  Nkbl=1  erefs: 0.17977+309
L=1  Nkbl=1  erefs: 0.17977+309
L=2  Nkbl=1  erefs: 0.17977+309
===============================================================================
</basis_specs>

atom: Called for C-gga                 (Z =   6)

read_vps: Pseudopotential generation method:
read_vps: ATM 3.2.2 Troullier-Martins                       
Valence charge for ps generation:    4.00000

xc_check: Exchange-correlation functional:
xc_check: GGA Perdew, Burke & Ernzerhof 1996
V l=0 = -2*Zval/r beyond r=  1.5227
V l=1 = -2*Zval/r beyond r=  1.5227
V l=2 = -2*Zval/r beyond r=  1.5227
All V_l potentials equal beyond r=  1.4851
This should be close to max(r_c) in ps generation
All pots = -2*Zval/r beyond r=  1.5227

VLOCAL1: 99.0% of the norm of Vloc inside     19.682 Ry
VLOCAL1: 99.9% of the norm of Vloc inside     44.856 Ry
atom: Maximum radius for 4*pi*r*r*local-pseudopot. charge    1.79142
atom: Maximum radius for r*vlocal+2*Zval:    1.54183
GHOST: No ghost state for L =  0
GHOST: No ghost state for L =  1
GHOST: No ghost state for L =  2

KBgen: Kleinman-Bylander projectors: 
   l= 0   rc=  1.661951   el= -1.010689   Ekb=  5.289847   kbcos=  0.316429
   l= 1   rc=  1.661951   el= -0.388490   Ekb= -4.102504   kbcos= -0.351025
   l= 2   rc=  1.747182   el=  0.001971   Ekb= -1.006005   kbcos= -0.008530

KBgen: Total number of Kleinman-Bylander projectors:    9
atom: -------------------------------------------------------------------------

atom: SANKEY-TYPE ORBITALS:
atom: Selected multiple-zeta basis: split     

SPLIT: Orbitals with angular momentum L= 0

SPLIT: Basis orbitals for state 2s

SPLIT: PAO cut-off radius determined from an
SPLIT: energy shift=  0.000735 Ry

   izeta = 1
                 lambda =    1.000000
                     rc =    5.948690
                 energy =   -1.010099
                kinetic =    0.827121
    potential(screened) =   -1.837220
       potential(ionic) =   -5.392783

   izeta = 2
                 rmatch =    3.518811
              splitnorm =    0.150000
                 energy =   -0.877891
                kinetic =    1.289227
    potential(screened) =   -2.167118
       potential(ionic) =   -5.982073

SPLIT: Orbitals with angular momentum L= 1

SPLIT: Basis orbitals for state 2p

SPLIT: PAO cut-off radius determined from an
SPLIT: energy shift=  0.000735 Ry

   izeta = 1
                 lambda =    1.000000
                     rc =    7.638387
                 energy =   -0.387843
                kinetic =    2.314739
    potential(screened) =   -2.702582
       potential(ionic) =   -6.092371

   izeta = 2
                 rmatch =    3.840617
              splitnorm =    0.150000
                 energy =   -0.270479
                kinetic =    3.438347
    potential(screened) =   -3.708826
       potential(ionic) =   -7.497707
atom: Total number of Sankey-type orbitals:  8

atm_pop: Valence configuration (for local Pseudopot. screening):
 2s( 2.00)                                                            
 2p( 2.00)                                                            
Vna: chval, zval:    4.00000   4.00000

Vna:  Cut-off radius for the neutral-atom potential:   7.638387

atom: _________________________________________________________________________

prinput: Basis input ----------------------------------------------------------

PAO.BasisType split     

%block ChemicalSpeciesLabel
    1    3 Li-gga                  # Species index, atomic number, species label
    2    6 C-gga                   # Species index, atomic number, species label
%endblock ChemicalSpeciesLabel

%block PAO.Basis                 # Define Basis set
Li-gga                1                    # Species label, number of l-shells
 n=2   0   2                         # n, l, Nzeta 
  11.897      8.489   
   1.000      1.000   
C-gga                 2                    # Species label, number of l-shells
 n=2   0   2                         # n, l, Nzeta 
   5.949      3.519   
   1.000      1.000   
 n=2   1   2                         # n, l, Nzeta 
   7.638      3.841   
   1.000      1.000   
%endblock PAO.Basis

prinput: ----------------------------------------------------------------------

coor:   Atomic-coordinates input format  =     Cartesian coordinates
coor:                                          (in Angstroms)

siesta: Atomic coordinates (Bohr) and species
siesta:      0.00000   0.00000   0.00000  2        1
siesta:     -1.32825   2.30060   1.81785  1        2
siesta:     -2.74990   4.76296   9.08924  1        3
siesta:      2.74990   4.76296   1.81785  1        4
siesta:      1.32825   2.30060   9.08924  1        5
siesta:      2.65651   0.00000   1.81785  1        6
siesta:      5.49980   0.00000   9.08924  1        7
siesta:     -2.74990   4.76296   1.81785  1        8
siesta:     -1.32825   2.30060   9.08924  1        9
siesta:      1.32825   2.30060   1.81785  1       10
siesta:      2.74990   4.76296   9.08924  1       11
siesta:      5.49980   0.00000   1.81785  1       12
siesta:      2.65651   0.00000   9.08924  1       13
siesta:     -1.32825   2.30060   5.45355  1       14
siesta:     -2.74990   4.76296   5.45355  1       15
siesta:      2.74990   4.76296   5.45355  1       16
siesta:      1.32825   2.30060   5.45355  1       17
siesta:      2.65651   0.00000   5.45355  1       18
siesta:      5.49980   0.00000   5.45355  1       19

siesta: System type = bulk      

initatomlists: Number of atoms, orbitals, and projectors:     19    44   171

siesta: ******************** Simulation parameters ****************************
siesta:
siesta: The following are some of the parameters of the simulation.
siesta: A complete list of the parameters used, including default values,
siesta: can be found in file out.fdf
siesta:
redata: Spin configuration                          = none
redata: Number of spin components                   = 1
redata: Time-Reversal Symmetry                      = T
redata: Spin spiral                                 = F
redata: Long output                                 =   F
redata: Number of Atomic Species                    =        2
redata: Charge density info will appear in .RHO file
redata: Write Mulliken Pop.                         = NO
redata: Matel table size (NRTAB)                    =     1024
redata: Mesh Cutoff                                 =   300.0000 Ry
redata: Net charge of the system                    =     0.0000 |e|
redata: Min. number of SCF Iter                     =        0
redata: Max. number of SCF Iter                     =     1000
redata: SCF convergence failure will abort job
redata: SCF mix quantity                            = Hamiltonian
redata: Mix DM or H after convergence               =   F
redata: Recompute H after scf cycle                 =   F
redata: Mix DM in first SCF step                    =   T
redata: Write Pulay info on disk                    =   F
redata: New DM Occupancy tolerance                  = 0.000000000001
redata: No kicks to SCF
redata: DM Mixing Weight for Kicks                  =     0.5000
redata: Require Harris convergence for SCF          =   F
redata: Harris energy tolerance for SCF             =     0.000100 eV
redata: Require DM convergence for SCF              =   T
redata: DM tolerance for SCF                        =     0.001000
redata: Require EDM convergence for SCF             =   F
redata: EDM tolerance for SCF                       =     0.005000 eV
redata: Require H convergence for SCF               =   T
redata: Hamiltonian tolerance for SCF               =     0.001000 eV
redata: Require (free) Energy convergence for SCF   =   T
redata: (free) Energy tolerance for SCF             =     0.001000 eV
redata: Using Saved Data (generic)                  =   F
redata: Use continuation files for DM               =   F
redata: Neglect nonoverlap interactions             =   F
redata: Method of Calculation                       = Diagonalization
redata: Electronic Temperature                      =   299.9869 K
redata: Fix the spin of the system                  =   F
redata: Dynamics option                             = Single-point calculation
mix.SCF: Pulay mixing                            = Pulay
mix.SCF:    Variant                              = stable
mix.SCF:    History steps                        = 4
mix.SCF:    Linear mixing weight                 =     0.250000
mix.SCF:    Mixing weight                        =     0.250000
mix.SCF:    SVD condition                        = 0.1000E-07
redata: ***********************************************************************

%block SCF.Mixers
  Pulay
%endblock SCF.Mixers

%block SCF.Mixer.Pulay
  # Mixing method
  method pulay
  variant stable

  # Mixing options
  weight 0.2500
  weight.linear 0.2500
  history 4
%endblock SCF.Mixer.Pulay

DM_history_depth set to one: no extrapolation allowed by default for geometry relaxation
Size of DM history Fstack: 1
Total number of electrons:    22.000000
Total ionic charge:    22.000000

* ProcessorY, Blocksize:    4   1


* Orbital distribution balance (max,min):     3     2

k-point displ. along   1 input, could be:     0.00    0.50
k-point displ. along   2 input, could be:     0.00    0.50
k-point displ. along   3 input, could be:     0.00    0.50
 Kpoints in:           48 . Kpoints trimmed:           44

siesta: k-grid: Number of k-points =    44
siesta: k-grid: Cutoff (effective) =     8.632 Ang
siesta: k-grid: Supercell and displacements
siesta: k-grid:    4   0   0      0.000
siesta: k-grid:    0   4   0      0.000
siesta: k-grid:    0   0   4      0.000

diag: Algorithm                                     = Expert
diag: Parallel over k                               =   T
diag: Use parallel 2D distribution                  =   T
diag: Parallel block-size                           = 1
diag: Parallel distribution                         =     4 x     4
diag: Used triangular part                          = Lower
diag: Absolute tolerance                            =  0.100E-15
diag: Orthogonalization factor                      =  0.100E-05
diag: Memory factor                                 =  1.0000

superc: Internal auxiliary supercell:     9 x     9 x     7  =     567
superc: Number of atoms, orbitals, and projectors:  10773  24948  96957


ts: **************************************************************
ts: Save H and S matrices                           =    F
ts: Save DM and EDM matrices                        =    F
ts: Only save the overlap matrix S                  =    F
ts: **************************************************************

************************ Begin: TS CHECKS AND WARNINGS ************************
************************ End: TS CHECKS AND WARNINGS **************************


                     ====================================
                        Single-point calculation
                     ====================================

outcoor: Atomic coordinates (Ang):                          
    0.00000000    0.00000000    0.00000000   2       1  C-gga
   -0.70288177    1.21742694    0.96196561   1       2  Li-gga
   -1.45518323    2.52045129    4.80981651   1       3  Li-gga
    1.45518323    2.52045129    0.96196561   1       4  Li-gga
    0.70288177    1.21742694    4.80981651   1       5  Li-gga
    1.40576354    0.00000000    0.96196561   1       6  Li-gga
    2.91036646    0.00000000    4.80981651   1       7  Li-gga
   -1.45518323    2.52045129    0.96196561   1       8  Li-gga
   -0.70288177    1.21742694    4.80981651   1       9  Li-gga
    0.70288177    1.21742694    0.96196561   1      10  Li-gga
    1.45518323    2.52045129    4.80981651   1      11  Li-gga
    2.91036646    0.00000000    0.96196561   1      12  Li-gga
    1.40576354    0.00000000    4.80981651   1      13  Li-gga
   -0.70288177    1.21742694    2.88589106   1      14  Li-gga
   -1.45518323    2.52045129    2.88589106   1      15  Li-gga
    1.45518323    2.52045129    2.88589106   1      16  Li-gga
    0.70288177    1.21742694    2.88589106   1      17  Li-gga
    1.40576354    0.00000000    2.88589106   1      18  Li-gga
    2.91036646    0.00000000    2.88589106   1      19  Li-gga

superc: Internal auxiliary supercell:     9 x     9 x     7  =     567
superc: Number of atoms, orbitals, and projectors:  10773  24948  96957

outcell: Unit cell vectors (Ang):
        4.316130    0.000000    0.000000
       -2.158065    3.737878    0.000000
        0.000000    0.000000    5.771782

outcell: Cell vector modules (Ang)   :    4.316130    4.316130    5.771782
outcell: Cell angles (23,13,12) (deg):     90.0000     90.0000    120.0000
outcell: Cell volume (Ang**3)        :     93.1171
<dSpData1D:S at geom step 0
  <sparsity:sparsity for geom step 0
    nrows_g=44 nrows=3 sparsity=6.6317 nnzs=12839, refcount: 7>
  <dData1D:(new from dSpData1D) n=12839, refcount: 1>
refcount: 1>
new_DM -- step:     1
Initializing Density Matrix...
DM filled with atomic data:
<dSpData2D:DM initialized from atoms
  <sparsity:sparsity for geom step 0
    nrows_g=44 nrows=3 sparsity=6.6317 nnzs=12839, refcount: 8>
  <dData2D:DM n=12839 m=1, refcount: 1>
refcount: 1>
No. of atoms with KB's overlaping orbs in proc 0. Max # of overlaps:     533     603
New grid distribution:   1
           1       1:   20    1:    5    1:    8
           2       1:   20    1:    5    9:   16
           3       1:   20    1:    5   17:   24
           4       1:   20    1:    5   25:   32
           5       1:   20    6:   10    1:    8
           6       1:   20    6:   10    9:   16
           7       1:   20    6:   10   17:   24
           8       1:   20    6:   10   25:   32
           9       1:   20   11:   15    1:    8
          10       1:   20   11:   15    9:   16
          11       1:   20   11:   15   17:   24
          12       1:   20   11:   15   25:   32
          13       1:   20   16:   20    1:    8
          14       1:   20   16:   20    9:   16
          15       1:   20   16:   20   17:   24
          16       1:   20   16:   20   25:   32

InitMesh: MESH =    40 x    40 x    64 =      102400
InitMesh: (bp) =    20 x    20 x    32 =       12800
InitMesh: Mesh cutoff (required, used) =   300.000   316.498 Ry
ExtMesh (bp) on 0 =   156 x   141 x   148 =     3255408
New grid distribution:   2
           1       1:   10   11:   20   17:   24
           2      11:   20    1:   10    1:    8
           3      11:   20    1:   10   17:   24
           4      11:   20   11:   20    1:    8
           5       1:   10   11:   20   25:   32
           6      11:   20    1:   10    9:   16
           7      11:   20   11:   20    9:   16
           8      11:   20    1:   10   25:   32
           9       1:   10    1:   10   17:   24
          10       1:   10    1:   10    1:    8
          11      11:   20   11:   20   17:   24
          12       1:   10   11:   20    1:    8
          13       1:   10    1:   10   25:   32
          14       1:   10    1:   10    9:   16
          15       1:   10   11:   20    9:   16
          16      11:   20   11:   20   25:   32
New grid distribution:   3
           1       1:   10   11:   20   17:   24
           2      11:   20    1:   10    1:    8
           3      11:   20    1:   10   17:   24
           4      11:   20   11:   20    1:    8
           5       1:   10   11:   20   25:   32
           6      11:   20    1:   10    9:   16
           7      11:   20   11:   20    9:   16
           8      11:   20    1:   10   25:   32
           9       1:   10    1:   10   17:   24
          10       1:   10    1:   10    1:    8
          11      11:   20   11:   20   17:   24
          12       1:   10   11:   20    1:    8
          13       1:   10    1:   10   25:   32
          14       1:   10    1:   10    9:   16
          15       1:   10   11:   20    9:   16
          16      11:   20   11:   20   25:   32
Setting up quadratic distribution...
ExtMesh (bp) on 0 =   146 x   146 x   148 =     3154768
PhiOnMesh: Number of (b)points on node 0 =                  800
PhiOnMesh: nlist on node 0 =               238913

stepf: Fermi-Dirac step function

siesta: Program's energy decomposition (eV):
siesta: Ebs     =      -402.808107
siesta: Eions   =       439.895300
siesta: Ena     =        86.055422
siesta: Ekin    =       396.363823
siesta: Enl     =        20.031156
siesta: Eso     =         0.000000
siesta: Edftu   =         0.000000
siesta: DEna    =       -51.487499
siesta: DUscf   =        40.854589
siesta: DUext   =         0.000000
siesta: Exc     =      -263.609810
siesta: eta*DQ  =         0.000000
siesta: Emadel  =         0.000000
siesta: Emeta   =         0.000000
siesta: Emolmec =       -18.294067
siesta: Ekinion =         0.000000
siesta: Eharris =      -156.566179
siesta: Etot    =      -229.981687
siesta: FreeEng =      -229.983229

        iscf     Eharris(eV)        E_KS(eV)     FreeEng(eV)     dDmax    Ef(eV) dHmax(eV)
   scf:    1     -156.566179     -229.981687     -229.983229175.582817-16.314886 24.089735
timer: Routine,Calls,Time,% = IterSCF        1       2.667  22.62
   scf:    2     -255.670856     -244.456806     -244.458358 35.748412-16.726769 10.351364
   scf:    3     -247.057189     -247.939808     -247.943291 46.070308-16.326020  3.154525
   scf:    4     -235.466242     -242.829831     -242.836047 40.354686-16.147436 11.752137
   scf:    5     -246.262559     -247.855783     -247.858624 65.148338-16.761195  3.594706
   scf:    6     -248.520776     -248.318891     -248.321674 10.875654-16.673226  0.319685
   scf:    7     -248.315100     -248.317085     -248.319868  0.256629-16.674357  0.396511
   scf:    8     -248.324415     -248.322313     -248.325106  1.333194-16.657124  0.029093
   scf:    9     -248.322322     -248.322318     -248.325112  0.057303-16.657934  0.023426
   scf:   10     -248.322338     -248.322333     -248.325128  0.063907-16.657517  0.001075
   scf:   11     -248.322334     -248.322334     -248.325129  0.011399-16.657560  0.001240
   scf:   12     -248.322335     -248.322334     -248.325130  0.012601-16.657482  0.002104
   scf:   13     -248.322336     -248.322335     -248.325131  0.015015-16.657176  0.000567
   scf:   14     -248.322336     -248.322335     -248.325131  0.002717-16.657122  0.000178
   scf:   15     -248.322335     -248.322335     -248.325131  0.001035-16.657099  0.000030
   scf:   16     -248.322335     -248.322335     -248.325131  0.000207-16.657093  0.000011

SCF Convergence by FreeE+DM+H criterion
|FreeE_i-FreeE_(i-1)| (eV) <     0.00100000
max |DM_out - DM_in|         :     0.0002071030
max |H_out - H_in|      (eV) :     0.0000106578
SCF cycle converged after 16 iterations

Using DM_out to compute the final energy and forces
No. of atoms with KB's overlaping orbs in proc 0. Max # of overlaps:     533     603

MM-Stress (kbar):      136.27      136.27      763.39        0.00       -0.00       -0.00

siesta: E_KS(eV) =             -248.3223

siesta: E_KS - E_eggbox =      -248.3223

siesta: Atomic forces (eV/Ang):
     1    0.000000    0.000000   -0.000000
     2   -1.302095    2.255335    0.991984
     3    1.302095   -2.255335   -0.991984
     4   -1.302059   -2.255233    0.991877
     5    1.302059    2.255233   -0.991877
     6    2.604225    0.000020    0.991984
     7   -2.604225   -0.000020   -0.991984
     8    1.302095   -2.255335    0.991984
     9   -1.302095    2.255335   -0.991984
    10    1.302059    2.255233    0.991877
    11   -1.302059   -2.255233   -0.991877
    12   -2.604225   -0.000020    0.991984
    13    2.604225    0.000020   -0.991984
    14   -0.510069    0.883463    0.000000
    15    0.510069   -0.883463    0.000000
    16   -0.510082   -0.883488    0.000000
    17    0.510082    0.883488   -0.000000
    18    1.020136   -0.000001    0.000000
    19   -1.020136    0.000001    0.000000
----------------------------------------
   Tot    0.000000    0.000000    0.000000
----------------------------------------
   Max    2.604225
   Res    1.320774    sqrt( Sum f_i^2 / 3N )
----------------------------------------
   Max    2.604225    constrained

Stress tensor Voigt[x,y,z,yz,xz,xy] (kbar):    -2482.72    -2482.75    -1495.15        0.00       -0.00       -0.02
(Free)E + p*V (eV/cell)     -123.1645
Target enthalpy (eV/cell)     -248.3251

siesta: Eigenvalues (eV):
  ik is       eps
   1  1  -29.9528  -24.7346  -24.2815  -24.1184  -24.0267  -23.5386  -23.0090  -22.8777  -21.9021  -18.7788
         -18.7214  -17.2337  -13.6461  -10.8422   -5.2783    0.1889    0.6055    2.1542    4.8612    5.6069
    7.4672    7.9083   10.2350   10.7304   11.6307   12.8471   13.2607   13.7955   13.9492   13.9559
   14.2261   14.3492   15.4656   16.0333   16.4489   27.0010   33.8322   37.7670   43.7163   44.1118
   46.4137   47.0770   58.7906   64.5967
   2  1  -29.8791  -25.1477  -24.0038  -23.8422  -23.3503  -22.7908  -22.7334  -21.7422  -19.1434  -17.6035
         -17.1966  -15.9446  -15.1606  -14.9042   -8.9847   -8.1302   -6.1490   -1.6967    5.4086    6.8610
    7.0090    8.2037    9.7698    9.8935   10.8067   11.2826   12.0734   14.0994   15.5022   16.0261
   18.3884   19.6201   23.4992   23.5710   27.7248   30.7969   36.2148   36.9809   42.5630   49.5537
   59.4051   61.1560   64.7872   67.1964
   3  1  -29.8791  -25.1477  -24.0038  -23.8422  -23.3503  -22.7908  -22.7334  -21.7424  -19.1433  -17.6035
         -17.1966  -15.9446  -15.1605  -14.9043   -8.9847   -8.1300   -6.1495   -1.6967    5.4085    6.8610
    7.0090    8.2037    9.7698    9.8935   10.8067   11.2826   12.0734   14.0994   15.5022   16.0261
   18.3884   19.6201   23.4992   23.5710   27.7248   30.7969   36.2148   36.9809   42.5629   49.5537
   59.4051   61.1560   64.7872   67.1964
   4  1  -29.9528  -24.7346  -24.2815  -24.1184  -24.0267  -23.5385  -23.0091  -22.8777  -21.9021  -18.7789
         -18.7212  -17.2337  -13.6460  -10.8423   -5.2783    0.1890    0.6053    2.1542    4.8613    5.6069
    7.4672    7.9083   10.2350   10.7304   11.6307   12.8471   13.2606   13.7955   13.9492   13.9559
   14.2262   14.3492   15.4656   16.0333   16.4489   27.0011   33.8322   37.7671   43.7163   44.1118
   46.4137   47.0769   58.7906   64.5967
   5  1  -29.8791  -25.1477  -24.0038  -23.8422  -23.3503  -22.7908  -22.7334  -21.7422  -19.1434  -17.6035
         -17.1966  -15.9446  -15.1606  -14.9042   -8.9847   -8.1302   -6.1490   -1.6967    5.4086    6.8610
    7.0090    8.2037    9.7698    9.8935   10.8067   11.2826   12.0734   14.0994   15.5022   16.0261
   18.3884   19.6201   23.4992   23.5710   27.7248   30.7969   36.2148   36.9809   42.5630   49.5537
   59.4051   61.1560   64.7872   67.1964
   6  1  -29.8123  -25.2612  -24.8933  -23.3680  -21.8450  -21.8447  -20.9803  -16.3749  -16.3749  -15.8020
         -15.8020  -14.2990  -14.2990  -13.5903  -13.5903  -13.5478  -13.5478   -3.8808   -2.6451   -1.5647
   -1.5641   10.8518   10.8519   10.8539   10.8539   10.9267   10.9627   11.4375   11.4376   11.7560
   11.7560   12.0017   13.6690   21.2386   24.2154   24.4639   25.4326   27.2876   27.2877   37.5338
   37.5338   53.1272   53.1273  104.7277
   7  1  -29.8380  -24.5241  -24.3236  -24.1786  -24.0904  -24.0424  -23.0343  -21.9537  -21.4187  -19.5880
         -17.9237  -17.9211  -16.9845  -11.7242   -8.8911   -2.6960    3.9937    6.3555    6.6018    6.9719
    7.2931    8.0906    8.2154    8.3512    9.1295    9.6759   10.9944   11.4596   11.8616   12.1431
   12.1763   13.0852   18.3903   18.7719   25.7920   28.1389   31.7939   35.4194   38.6868   39.6959
   41.3332   41.3594   48.6572   92.0016
   8  1  -29.9528  -24.7346  -24.2815  -24.1184  -24.0267  -23.5385  -23.0091  -22.8777  -21.9021  -18.7789
         -18.7212  -17.2337  -13.6460  -10.8423   -5.2783    0.1890    0.6053    2.1542    4.8613    5.6069
    7.4672    7.9083   10.2350   10.7304   11.6307   12.8471   13.2606   13.7955   13.9492   13.9559
   14.2262   14.3492   15.4656   16.0333   16.4489   27.0011   33.8322   37.7671   43.7163   44.1118
   46.4137   47.0769   58.7906   64.5967
   9  1  -29.9528  -24.7346  -24.2815  -24.1184  -24.0267  -23.5385  -23.0091  -22.8777  -21.9021  -18.7789
         -18.7212  -17.2337  -13.6460  -10.8423   -5.2783    0.1890    0.6053    2.1542    4.8613    5.6069
    7.4672    7.9083   10.2350   10.7304   11.6307   12.8471   13.2606   13.7955   13.9492   13.9559
   14.2262   14.3492   15.4656   16.0333   16.4489   27.0011   33.8322   37.7671   43.7163   44.1118
   46.4137   47.0769   58.7906   64.5967
  10  1  -29.8380  -24.5241  -24.3236  -24.1786  -24.0904  -24.0424  -23.0343  -21.9537  -21.4187  -19.5880
         -17.9237  -17.9211  -16.9845  -11.7242   -8.8911   -2.6960    3.9937    6.3555    6.6018    6.9719
    7.2931    8.0906    8.2154    8.3512    9.1295    9.6759   10.9944   11.4596   11.8616   12.1431
   12.1763   13.0852   18.3903   18.7719   25.7920   28.1389   31.7939   35.4194   38.6868   39.6959
   41.3332   41.3594   48.6572   92.0016
  11  1  -29.9528  -24.7346  -24.2815  -24.1184  -24.0267  -23.5385  -23.0091  -22.8777  -21.9021  -18.7789
         -18.7212  -17.2337  -13.6460  -10.8423   -5.2783    0.1890    0.6053    2.1542    4.8613    5.6069
    7.4672    7.9083   10.2350   10.7304   11.6307   12.8471   13.2606   13.7955   13.9492   13.9559
   14.2262   14.3492   15.4656   16.0333   16.4489   27.0011   33.8322   37.7671   43.7163   44.1118
   46.4137   47.0769   58.7906   64.5967
  12  1  -29.8380  -24.5241  -24.3236  -24.1786  -24.0903  -24.0424  -23.0343  -21.9539  -21.4187  -19.5880
         -17.9234  -17.9211  -16.9845  -11.7242   -8.8915   -2.6960    3.9940    6.3554    6.6018    6.9719
    7.2931    8.0906    8.2154    8.3512    9.1295    9.6760   10.9944   11.4596   11.8616   12.1431
   12.1763   13.0852   18.3903   18.7719   25.7919   28.1388   31.7940   35.4194   38.6868   39.6960
   41.3332   41.3594   48.6572   92.0011
  13  1  -29.7381  -24.5326  -24.1111  -23.7832  -23.5784  -23.3243  -22.7588  -22.3394  -21.3813  -18.4278
         -17.7606  -16.7191  -12.7514  -11.9359   -7.4005   -4.5043   -2.5301   -1.5344    2.8094    5.4323
    5.4548    8.6607    9.6495   11.0181   11.0238   11.3540   11.3772   11.7597   12.7130   14.0335
   15.5082   16.2769   18.8382   23.8587   25.3503   31.9610   36.3385   36.3470   40.3001   42.7337
   46.7361   51.9349   53.6171   55.1040
  14  1  -30.0713  -25.2267  -24.7015  -24.4075  -23.1928  -22.8278  -21.7148  -21.2965  -20.0765  -18.8149
         -17.6923  -15.3301  -13.8602  -13.2299   -9.6149   -7.6980   -6.3694   -5.2822   -2.2649   -0.3725
    5.4742    6.3359    7.5936    7.7854    9.4169   10.2256   11.9728   13.8488   14.3257   14.8384
   15.3099   16.8203   17.1169   19.5506   20.3639   22.7775   24.0348   27.8878   30.7163   35.3920
   36.8721   44.1720   49.5606   72.6779
  15  1  -30.0713  -25.2267  -24.7015  -24.4075  -23.1928  -22.8278  -21.7149  -21.2964  -20.0765  -18.8149
         -17.6924  -15.3301  -13.8602  -13.2299   -9.6150   -7.6979   -6.3693   -5.2821   -2.2652   -0.3725
    5.4742    6.3359    7.5937    7.7854    9.4169   10.2257   11.9728   13.8488   14.3257   14.8384
   15.3099   16.8203   17.1169   19.5505   20.3639   22.7775   24.0348   27.8878   30.7162   35.3921
   36.8721   44.1720   49.5606   72.6780
  16  1  -29.7381  -24.5326  -24.1111  -23.7832  -23.5784  -23.3243  -22.7589  -22.3394  -21.3815  -18.4276
         -17.7606  -16.7192  -12.7513  -11.9359   -7.4004   -4.5047   -2.5301   -1.5344    2.8094    5.4323
    5.4548    8.6607    9.6495   11.0181   11.0238   11.3540   11.3772   11.7597   12.7130   14.0335
   15.5082   16.2769   18.8382   23.8587   25.3503   31.9610   36.3385   36.3470   40.3001   42.7337
   46.7361   51.9349   53.6171   55.1039
  17  1  -30.0713  -25.2267  -24.7015  -24.4075  -23.1928  -22.8278  -21.7148  -21.2965  -20.0765  -18.8149
         -17.6923  -15.3301  -13.8602  -13.2299   -9.6149   -7.6980   -6.3694   -5.2822   -2.2649   -0.3725
    5.4742    6.3359    7.5936    7.7854    9.4169   10.2256   11.9728   13.8488   14.3257   14.8384
   15.3099   16.8203   17.1169   19.5506   20.3639   22.7775   24.0348   27.8878   30.7163   35.3920
   36.8721   44.1720   49.5606   72.6779
  18  1  -30.3030  -25.6925  -25.3947  -24.1962  -21.6036  -21.6034  -20.4899  -15.7084  -15.7084  -15.6954
         -15.6953  -14.9539  -14.9539   -7.4764   -7.4760   -6.7647   -4.1578   -3.2502    3.7129    3.7130
    3.8810    3.8811    6.3061    6.3062   10.0233   12.6116   12.9612   13.5692   13.5692   13.7050
   15.1922   15.1922   15.3918   15.3918   18.0562   23.5936   31.1269   31.1269   38.5723   49.8429
   49.8429   59.9132  116.7628  116.7628
  19  1  -30.0713  -25.2267  -24.7015  -24.4075  -23.1928  -22.8278  -21.7148  -21.2965  -20.0765  -18.8149
         -17.6923  -15.3301  -13.8602  -13.2299   -9.6149   -7.6980   -6.3694   -5.2822   -2.2649   -0.3725
    5.4742    6.3359    7.5936    7.7854    9.4169   10.2256   11.9728   13.8488   14.3257   14.8384
   15.3099   16.8203   17.1169   19.5506   20.3639   22.7775   24.0348   27.8878   30.7163   35.3920
   36.8721   44.1720   49.5606   72.6779
  20  1  -29.6711  -24.3817  -24.2994  -24.0772  -23.7897  -23.3298  -22.9584  -21.6646  -21.6523  -18.0161
         -17.7202  -16.8559  -16.1047   -9.4439   -7.9986   -2.0266    2.2674    3.5413    4.2114    6.9466
    7.5432    8.7896    9.7052    9.8667   10.3320   11.7643   13.1552   13.3872   14.1520   15.6366
   17.0550   19.5712   20.5600   25.7197   26.4949   26.6965   28.5962   29.8386   45.5352   45.8587
   52.2053   56.1209   66.0057  105.3951
  21  1  -30.0713  -25.2267  -24.7015  -24.4075  -23.1928  -22.8278  -21.7149  -21.2964  -20.0765  -18.8149
         -17.6924  -15.3301  -13.8602  -13.2299   -9.6150   -7.6979   -6.3693   -5.2821   -2.2652   -0.3725
    5.4742    6.3359    7.5937    7.7854    9.4169   10.2257   11.9728   13.8488   14.3257   14.8384
   15.3099   16.8203   17.1169   19.5505   20.3639   22.7775   24.0348   27.8878   30.7162   35.3921
   36.8721   44.1720   49.5606   72.6780
  22  1  -30.0713  -25.2267  -24.7015  -24.4075  -23.1928  -22.8278  -21.7148  -21.2965  -20.0765  -18.8149
         -17.6923  -15.3301  -13.8602  -13.2299   -9.6149   -7.6980   -6.3694   -5.2822   -2.2649   -0.3725
    5.4742    6.3359    7.5936    7.7854    9.4169   10.2256   11.9728   13.8488   14.3257   14.8384
   15.3099   16.8203   17.1169   19.5506   20.3639   22.7775   24.0348   27.8878   30.7163   35.3920
   36.8721   44.1720   49.5606   72.6779
  23  1  -29.7381  -24.5326  -24.1111  -23.7832  -23.5784  -23.3243  -22.7588  -22.3394  -21.3813  -18.4278
         -17.7606  -16.7191  -12.7514  -11.9359   -7.4005   -4.5043   -2.5301   -1.5344    2.8094    5.4323
    5.4548    8.6607    9.6495   11.0181   11.0238   11.3540   11.3772   11.7597   12.7130   14.0335
   15.5082   16.2769   18.8382   23.8587   25.3503   31.9610   36.3385   36.3470   40.3001   42.7337
   46.7361   51.9349   53.6171   55.1040
  24  1  -29.7381  -24.5326  -24.1111  -23.7832  -23.5784  -23.3243  -22.7589  -22.3394  -21.3815  -18.4276
         -17.7606  -16.7192  -12.7513  -11.9359   -7.4004   -4.5047   -2.5301   -1.5344    2.8094    5.4323
    5.4548    8.6607    9.6495   11.0181   11.0238   11.3540   11.3772   11.7597   12.7130   14.0335
   15.5082   16.2769   18.8382   23.8587   25.3503   31.9610   36.3385   36.3470   40.3001   42.7337
   46.7361   51.9349   53.6171   55.1039
  25  1  -29.7381  -24.5326  -24.1111  -23.7832  -23.5784  -23.3243  -22.7589  -22.3394  -21.3815  -18.4276
         -17.7606  -16.7192  -12.7513  -11.9359   -7.4004   -4.5047   -2.5301   -1.5344    2.8094    5.4323
    5.4548    8.6607    9.6495   11.0181   11.0238   11.3540   11.3772   11.7597   12.7130   14.0335
   15.5082   16.2769   18.8382   23.8587   25.3503   31.9610   36.3385   36.3470   40.3001   42.7337
   46.7361   51.9349   53.6171   55.1039
  26  1  -29.6711  -24.3817  -24.2994  -24.0772  -23.7897  -23.3298  -22.9584  -21.6646  -21.6523  -18.0161
         -17.7202  -16.8559  -16.1047   -9.4439   -7.9986   -2.0266    2.2674    3.5413    4.2114    6.9466
    7.5432    8.7896    9.7052    9.8667   10.3320   11.7643   13.1552   13.3872   14.1520   15.6366
   17.0550   19.5712   20.5600   25.7197   26.4949   26.6965   28.5962   29.8386   45.5352   45.8587
   52.2053   56.1209   66.0057  105.3951
  27  1  -29.7381  -24.5326  -24.1111  -23.7832  -23.5784  -23.3243  -22.7589  -22.3394  -21.3815  -18.4276
         -17.7606  -16.7192  -12.7513  -11.9359   -7.4004   -4.5047   -2.5301   -1.5344    2.8094    5.4323
    5.4548    8.6607    9.6495   11.0181   11.0238   11.3540   11.3772   11.7597   12.7130   14.0335
   15.5082   16.2769   18.8382   23.8587   25.3503   31.9610   36.3385   36.3470   40.3001   42.7337
   46.7361   51.9349   53.6171   55.1039
  28  1  -29.6711  -24.3817  -24.2994  -24.0772  -23.7897  -23.3298  -22.9583  -21.6646  -21.6525  -18.0161
         -17.7202  -16.8556  -16.1047   -9.4439   -7.9989   -2.0266    2.2674    3.5413    4.2115    6.9466
    7.5433    8.7896    9.7052    9.8667   10.3319   11.7643   13.1551   13.3872   14.1520   15.6366
   17.0550   19.5712   20.5600   25.7197   26.4949   26.6965   28.5962   29.8385   45.5352   45.8586
   52.2053   56.1208   66.0056  105.3950
  29  1  -29.8871  -24.5930  -24.2046  -23.6902  -23.4151  -22.9463  -21.5275  -21.0230  -20.1535  -19.6217
         -13.1048  -12.1834  -12.0938  -11.1192   -8.8206   -6.1788   -5.8074   -2.2066   -1.0307    5.3323
    5.4253    6.0269    9.6361    9.9868   10.0234   10.9671   11.0464   12.6968   12.8824   13.2399
   13.7608   15.1484   17.9669   19.0932   23.2144   23.3582   25.3586   26.7774   41.5399   51.0962
   52.9676   55.1728   62.3215   65.8835
  30  1  -30.1866  -25.3114  -24.6938  -23.3243  -22.6479  -21.7291  -21.6909  -21.3469  -17.8804  -17.7969
         -15.2328  -14.3048  -11.7798  -11.4698   -4.9073   -4.6113   -2.8928   -0.8695    2.2061    3.7851
    7.6731    8.0386    8.5035    9.7311   11.3690   11.4868   12.6432   13.2231   13.3382   13.9277
   14.6980   18.2526   19.4225   23.5520   23.7772   24.2781   25.7286   26.7856   36.1677   43.2569
   44.5274   52.6926   89.2640  146.7844
  31  1  -30.1866  -25.3114  -24.6938  -23.3243  -22.6479  -21.7291  -21.6907  -21.3470  -17.8804  -17.7969
         -15.2329  -14.3046  -11.7798  -11.4698   -4.9073   -4.6116   -2.8928   -0.8693    2.2061    3.7851
    7.6731    8.0386    8.5035    9.7310   11.3690   11.4867   12.6432   13.2231   13.3382   13.9277
   14.6981   18.2525   19.4224   23.5520   23.7772   24.2781   25.7286   26.7856   36.1676   43.2569
   44.5274   52.6927   89.2642  146.7845
  32  1  -29.8871  -24.5930  -24.2046  -23.6902  -23.4151  -22.9463  -21.5274  -21.0232  -20.1535  -19.6217
         -13.1048  -12.1834  -12.0938  -11.1192   -8.8206   -6.1791   -5.8070   -2.2066   -1.0306    5.3323
    5.4253    6.0269    9.6361    9.9868   10.0234   10.9671   11.0464   12.6968   12.8824   13.2399
   13.7608   15.1484   17.9668   19.0932   23.2144   23.3582   25.3586   26.7774   41.5400   51.0962
   52.9677   55.1728   62.3215   65.8834
  33  1  -30.1866  -25.3114  -24.6938  -23.3243  -22.6479  -21.7291  -21.6909  -21.3469  -17.8804  -17.7969
         -15.2328  -14.3048  -11.7798  -11.4698   -4.9073   -4.6113   -2.8928   -0.8695    2.2061    3.7851
    7.6731    8.0386    8.5035    9.7311   11.3690   11.4868   12.6432   13.2231   13.3382   13.9277
   14.6980   18.2526   19.4225   23.5520   23.7772   24.2781   25.7286   26.7856   36.1677   43.2569
   44.5274   52.6926   89.2640  146.7844
  34  1  -30.3636  -25.5978  -24.9347  -21.6936  -21.6455  -21.6453  -14.8014  -14.8014  -14.5755  -14.5755
         -14.3937  -14.3937  -14.0292   -5.8511   -5.8496   -5.8490   -4.6107    0.8724    0.8725    1.5789
    1.5789   12.1774   12.2646   14.3572   14.5688   14.5688   14.7663   20.4062   20.5939   20.5940
   20.7673   20.7673   20.7998   20.7998   41.0904   41.0905   44.5902   44.5903   51.4405   51.4408
   64.3201   97.4423   97.6909  302.2612
  35  1  -30.1866  -25.3114  -24.6938  -23.3243  -22.6479  -21.7291  -21.6909  -21.3469  -17.8804  -17.7969
         -15.2328  -14.3048  -11.7798  -11.4698   -4.9073   -4.6113   -2.8928   -0.8695    2.2061    3.7851
    7.6731    8.0386    8.5035    9.7311   11.3690   11.4868   12.6432   13.2231   13.3382   13.9277
   14.6980   18.2526   19.4225   23.5520   23.7772   24.2781   25.7286   26.7856   36.1677   43.2569
   44.5274   52.6926   89.2640  146.7844
  36  1  -29.3906  -24.3241  -23.9973  -23.3450  -23.3039  -23.2622  -21.2859  -20.9107  -18.9844  -17.9732
         -17.0048  -14.5183  -12.8031   -8.3954   -4.4621   -1.9996   -1.4824    1.2216    2.3718    9.2499
    9.4024    9.6665   12.2086   12.5855   13.8456   13.8860   14.1488   14.1763   15.9131   16.3720
   18.1567   20.2925   30.0307   32.7099   32.7660   35.5246   35.7412   38.2685   40.5585   41.3951
   41.4392   54.4172   79.3669   79.6164
  37  1  -30.1866  -25.3114  -24.6938  -23.3243  -22.6479  -21.7291  -21.6907  -21.3470  -17.8804  -17.7969
         -15.2329  -14.3046  -11.7798  -11.4698   -4.9073   -4.6116   -2.8928   -0.8693    2.2061    3.7851
    7.6731    8.0386    8.5035    9.7310   11.3690   11.4867   12.6432   13.2231   13.3382   13.9277
   14.6981   18.2525   19.4224   23.5520   23.7772   24.2781   25.7286   26.7856   36.1676   43.2569
   44.5274   52.6927   89.2642  146.7845
  38  1  -30.1866  -25.3114  -24.6938  -23.3243  -22.6479  -21.7291  -21.6909  -21.3469  -17.8804  -17.7969
         -15.2328  -14.3048  -11.7798  -11.4698   -4.9073   -4.6113   -2.8928   -0.8695    2.2061    3.7851
    7.6731    8.0386    8.5035    9.7311   11.3690   11.4868   12.6432   13.2231   13.3382   13.9277
   14.6980   18.2526   19.4225   23.5520   23.7772   24.2781   25.7286   26.7856   36.1677   43.2569
   44.5274   52.6926   89.2640  146.7844
  39  1  -29.8871  -24.5930  -24.2046  -23.6902  -23.4151  -22.9463  -21.5275  -21.0230  -20.1535  -19.6217
         -13.1048  -12.1834  -12.0938  -11.1192   -8.8206   -6.1788   -5.8074   -2.2066   -1.0307    5.3323
    5.4253    6.0269    9.6361    9.9868   10.0234   10.9671   11.0464   12.6968   12.8824   13.2399
   13.7608   15.1484   17.9669   19.0932   23.2144   23.3582   25.3586   26.7774   41.5399   51.0962
   52.9676   55.1728   62.3215   65.8835
  40  1  -29.8871  -24.5930  -24.2046  -23.6902  -23.4151  -22.9463  -21.5274  -21.0232  -20.1535  -19.6217
         -13.1048  -12.1834  -12.0938  -11.1192   -8.8206   -6.1791   -5.8070   -2.2066   -1.0306    5.3323
    5.4253    6.0269    9.6361    9.9868   10.0234   10.9671   11.0464   12.6968   12.8824   13.2399
   13.7608   15.1484   17.9668   19.0932   23.2144   23.3582   25.3586   26.7774   41.5400   51.0962
   52.9677   55.1728   62.3215   65.8834
  41  1  -29.8871  -24.5930  -24.2046  -23.6902  -23.4151  -22.9463  -21.5274  -21.0232  -20.1535  -19.6217
         -13.1048  -12.1834  -12.0938  -11.1192   -8.8206   -6.1791   -5.8070   -2.2066   -1.0306    5.3323
    5.4253    6.0269    9.6361    9.9868   10.0234   10.9671   11.0464   12.6968   12.8824   13.2399
   13.7608   15.1484   17.9668   19.0932   23.2144   23.3582   25.3586   26.7774   41.5400   51.0962
   52.9677   55.1728   62.3215   65.8834
  42  1  -29.3906  -24.3241  -23.9973  -23.3450  -23.3039  -23.2622  -21.2859  -20.9107  -18.9844  -17.9732
         -17.0048  -14.5183  -12.8031   -8.3954   -4.4621   -1.9996   -1.4824    1.2216    2.3718    9.2499
    9.4024    9.6665   12.2086   12.5855   13.8456   13.8860   14.1488   14.1763   15.9131   16.3720
   18.1567   20.2925   30.0307   32.7099   32.7660   35.5246   35.7412   38.2685   40.5585   41.3951
   41.4392   54.4172   79.3669   79.6164
  43  1  -29.8871  -24.5930  -24.2046  -23.6902  -23.4151  -22.9463  -21.5274  -21.0232  -20.1535  -19.6217
         -13.1048  -12.1834  -12.0938  -11.1192   -8.8206   -6.1791   -5.8070   -2.2066   -1.0306    5.3323
    5.4253    6.0269    9.6361    9.9868   10.0234   10.9671   11.0464   12.6968   12.8824   13.2399
   13.7608   15.1484   17.9668   19.0932   23.2144   23.3582   25.3586   26.7774   41.5400   51.0962
   52.9677   55.1728   62.3215   65.8834
  44  1  -29.3906  -24.3241  -23.9973  -23.3450  -23.3039  -23.2622  -21.2860  -20.9105  -18.9844  -17.9732
         -17.0048  -14.5185  -12.8031   -8.3953   -4.4618   -1.9996   -1.4824    1.2216    2.3716    9.2498
    9.4024    9.6665   12.2087   12.5855   13.8456   13.8860   14.1488   14.1763   15.9131   16.3720
   18.1567   20.2924   30.0307   32.7099   32.7660   35.5245   35.7410   38.2685   40.5585   41.3951
   41.4392   54.4173   79.3668   79.6163
siesta: Fermi energy =     -16.657093 eV

siesta: Program's energy decomposition (eV):
siesta: Ebs     =      -498.076291
siesta: Eions   =       439.895300
siesta: Ena     =        86.055422
siesta: Ekin    =       327.628071
siesta: Enl     =        47.561319
siesta: Eso     =         0.000000
siesta: Edftu   =         0.000000
siesta: DEna    =       -10.315968
siesta: DUscf   =         9.195537
siesta: DUext   =         0.000000
siesta: Exc     =      -250.257349
siesta: eta*DQ  =         0.000000
siesta: Emadel  =         0.000000
siesta: Emeta   =         0.000000
siesta: Emolmec =       -18.294067
siesta: Ekinion =         0.000000
siesta: Eharris =      -248.322335
siesta: Etot    =      -248.322335
siesta: FreeEng =      -248.325131

siesta: Final energy (eV):
siesta:  Band Struct. =    -498.076291
siesta:       Kinetic =     327.628071
siesta:       Hartree =     100.697943
siesta:       Edftu   =       0.000000
siesta:       Eso     =       0.000000
siesta:    Ext. field =       0.000000
siesta:   Exch.-corr. =    -250.257349
siesta:  Ion-electron =    -764.221364
siesta:       Ion-ion =     356.124430
siesta:       Ekinion =       0.000000
siesta:         Total =    -248.322335
siesta:         Fermi =     -16.657093

siesta: Atomic forces (eV/Ang):
siesta:      1    0.000000    0.000000   -0.000000
siesta:      2   -1.302095    2.255335    0.991984
siesta:      3    1.302095   -2.255335   -0.991984
siesta:      4   -1.302059   -2.255233    0.991877
siesta:      5    1.302059    2.255233   -0.991877
siesta:      6    2.604225    0.000020    0.991984
siesta:      7   -2.604225   -0.000020   -0.991984
siesta:      8    1.302095   -2.255335    0.991984
siesta:      9   -1.302095    2.255335   -0.991984
siesta:     10    1.302059    2.255233    0.991877
siesta:     11   -1.302059   -2.255233   -0.991877
siesta:     12   -2.604225   -0.000020    0.991984
siesta:     13    2.604225    0.000020   -0.991984
siesta:     14   -0.510069    0.883463    0.000000
siesta:     15    0.510069   -0.883463    0.000000
siesta:     16   -0.510082   -0.883488    0.000000
siesta:     17    0.510082    0.883488   -0.000000
siesta:     18    1.020136   -0.000001    0.000000
siesta:     19   -1.020136    0.000001    0.000000
siesta: ----------------------------------------
siesta:    Tot    0.000000    0.000000    0.000000

siesta: Stress tensor (static) (eV/Ang**3):
siesta:    -1.549577   -0.000013   -0.000000
siesta:    -0.000013   -1.549593    0.000000
siesta:    -0.000000    0.000000   -0.933190

siesta: Cell volume =         93.117133 Ang**3

siesta: Pressure (static):
siesta:                Solid            Molecule  Units
siesta:           0.01463918          0.01662817  Ry/Bohr**3
siesta:           1.34412011          1.52674168  eV/Ang**3
siesta:        2153.54111783       2446.13628914  kBar
(Free)E+ p_basis*V_orbitals  =        -215.719320
(Free)Eharris+ p_basis*V_orbitals  =        -215.719320

cite: Please see "LiC18_scf.bib" for an exhaustive BiBTeX file.
cite: Please clearly indicate Siesta version in published work: 4.1.5
cite: This calculation has made use of the following articles
cite: which are encouraged to be cited in a published work.
        Primary SIESTA paper
          DOI: www.doi.org/10.1088/0953-8984/14/11/302

>> End of run:   9-NOV-2022   8:44:28
Job completed
