Siesta Version  : 4.1.5
Architecture    : x86_64-unknown-linux-gnu--unknown
Compiler version: GNU Fortran (GCC) 11.3.0
Compiler flags  : mpif90 -g -O2 -fallow-argument-mismatch
PP flags        : -DMPI -DFC_HAVE_FLUSH -DFC_HAVE_ABORT
Libraries       :  -I/global/software/sl-7.x86_64/modules/intel/2020.4.304/mkl/include  /globall/software/sl-7.x86_64/modules/intel/2020.4.304/mkl/lib/intel64/libmkl_scalapack_lp64.a -Wl,--start-group /global/software/sl-7.x86_64/modules/intel/2020.4.304/mkl/lib/intel64/libmkl_intel_lp64.a /global/software/sl-7.x86_64/modules/intel/2020.4.304/mkl/lib/intel64/libmkl_sequential.a /global/software/sl-7.x86_64/modules/intel/2020.4.304/mkl/lib/intel64/libmkl_core.a /global/software/sl-7.x86_64/modules/intel/2020.4.304/mkl/lib/intel64/libmkl_blacs_openmpi_lp64.a -Wl,--end-group -lpthread -lm -ldl
PARALLEL version

* Running on 16 nodes in parallel
>> Start of run:   9-NOV-2022   8:40:13

                           ***********************       
                           *  WELCOME TO SIESTA  *       
                           ***********************       

reinit: Reading from standard input
reinit: Dumped input in INPUT_TMP.88225
************************** Dump of input data file ****************************
SystemName LiC18_scf
SystemLabel LiC18_scf
NumberOfAtoms   19
NumberOfSpecies 2
%block ChemicalSpeciesLabel
1  3   Li-gga
2  6   C-gga
%endblock ChemicalSpeciesLabel
PAO.BasisSize  DZ
PAO.EnergyShift  10 meV
%block PS.Lmax
C-gga   2
Li-gga  2
%endblock PS.Lmax
LatticeConstant 1.000000 Ang
%block LatticeVectors
	4.3161300000	0.0000000000	0.0000000000
	-2.1580650000	3.7378782260	0.0000000000
	0.0000000000	0.0000000000	7.3257234600
%endblock LatticeVectors
AtomicCoordinatesFormat Ang
%block AtomicCoordinatesAndAtomicSpecies
	0.00000000	0.00000000	0.00000000	2
	-0.70288177	1.21742694	1.22095635	1
	-1.45518323	2.52045129	6.10476711	1
	1.45518323	2.52045129	1.22095635	1
	0.70288177	1.21742694	6.10476711	1
	1.40576354	0.00000000	1.22095635	1
	2.91036646	0.00000000	6.10476711	1
	-1.45518323	2.52045129	1.22095635	1
	-0.70288177	1.21742694	6.10476711	1
	0.70288177	1.21742694	1.22095635	1
	1.45518323	2.52045129	6.10476711	1
	2.91036646	0.00000000	1.22095635	1
	1.40576354	0.00000000	6.10476711	1
	-0.70288177	1.21742694	3.66286173	1
	-1.45518323	2.52045129	3.66286173	1
	1.45518323	2.52045129	3.66286173	1
	0.70288177	1.21742694	3.66286173	1
	1.40576354	0.00000000	3.66286173	1
	2.91036646	0.00000000	3.66286173	1
%endblock AtomicCoordinatesAndAtomicSpecies
Kgrid_NoTRS  T
%block kgrid_MonkhorstPack
4       0       0       0.0
0       4       0       0.0
0       0       4       0.0
%endblock kgrid_MonkhorstPack
AtomCoorFormatOut Ang
BlockSize 1
#ProcessorY 12
Diag.ParallelOverK   T
Diag.DivideAndConquer F
MeshCutoff   300 Ry
SCF.FreeE.Tolerance 1E-3 eV
SCF.EDM.Tolerance   5E-3 eV
DM.Tolerance  1E-3
DM.Require.Energy.Convergence T
DM.NumberPulay 4
XC.Functional GGA
XC.Authors    PBE
UseSaveData        F
MD.TypeOfRun       CG
MD.VariableCell    F
MD.NumCGsteps      00
MD.MaxCGDispl      0.200000 Bohr
MD.MaxStressTol    1.000000 GPa
MD.MaxForceTol     0.010000 eV/Ang
WriteMDHistory T
WriteCoorStep T
WriteForces T
WriteCoorStep    T
WriteEigenValues T
WriteDM    F
MM.UnitsDistance Ang  # what this program prints out DO NOT CHANGE
MM.UnitsEnergy    eV  # what this program prints out DO NOT CHANGE
MM.Grimme.S6     0.75 # Grimme-paper for PBE (correct for your functional)
MM.Grimme.D     20.   # Grimme-paper (correct for your functional)
%block MM.Potentials
  1   1 Grimme     16.69      1.650 # Li, 10.1002/jcc.20495
  1   2 Grimme     17.40      2.277 # Li / C
  2   2 Grimme     18.14      2.904 # C, 10.1002/jcc.20495
%endblock MM.Potentials
#%block ProjectedDensityOfStates
# -200.0  120.0  0.4  12800  eV
#%endblock ProjectedDensityOfStates
************************** End of input data file *****************************

reinit: -----------------------------------------------------------------------
reinit: System Name: LiC18_scf
reinit: -----------------------------------------------------------------------
reinit: System Label: LiC18_scf
reinit: -----------------------------------------------------------------------
Reading two-body potentials
Grimme - two-body potential between 1 and 1
Grimme - two-body potential between 1 and 2
Grimme - two-body potential between 2 and 2

initatom: Reading input for the pseudopotentials and atomic orbitals ----------
Species number:   1 Atomic number:    3 Label: Li-gga
Species number:   2 Atomic number:    6 Label: C-gga

Ground state valence configuration:   2s01
Reading pseudopotential information in formatted form from Li-gga.psf

Valence configuration for pseudopotential generation:
2s( 1.00) rc: 2.28
2p( 0.00) rc: 2.28
3d( 0.00) rc: 2.59
4f( 0.00) rc: 2.59
Ground state valence configuration:   2s02  2p02
Reading pseudopotential information in formatted form from C-gga.psf

Valence configuration for pseudopotential generation:
2s( 2.00) rc: 1.56
2p( 2.00) rc: 1.56
3d( 0.00) rc: 1.56
4f( 0.00) rc: 1.56
relmxkb: Read Max KB Ang. Momentum=    2 for species C-gga
relmxkb: Read Max KB Ang. Momentum=    2 for species Li-gga

<basis_specs>
===============================================================================
Li-gga               Z=   3    Mass=  6.9400        Charge= 0.17977+309
Lmxo=0 Lmxkb= 2    BasisType=split      Semic=F
L=0  Nsemic=0  Cnfigmx=2
          i=1  nzeta=2  polorb=0  (2s)
            splnorm:   0.15000    
               vcte:    0.0000    
               rinn:    0.0000    
               qcoe:    0.0000    
               qyuk:    0.0000    
               qwid:   0.10000E-01
                rcs:    0.0000      0.0000    
            lambdas:    1.0000      1.0000    
-------------------------------------------------------------------------------
L=0  Nkbl=1  erefs: 0.17977+309
L=1  Nkbl=1  erefs: 0.17977+309
L=2  Nkbl=1  erefs: 0.17977+309
===============================================================================
</basis_specs>

atom: Called for Li-gga                (Z =   3)

read_vps: Pseudopotential generation method:
read_vps: ATM 3.2.2 Troullier-Martins                       
Valence charge for ps generation:    1.00000

read_vps: Pseudopotential includes a core correction:
read_vps: Pseudo-core for xc-correction

xc_check: Exchange-correlation functional:
xc_check: GGA Perdew, Burke & Ernzerhof 1996
V l=0 = -2*Zval/r beyond r=  2.2278
V l=1 = -2*Zval/r beyond r=  2.2278
V l=2 = -2*Zval/r beyond r=  2.5245
All V_l potentials equal beyond r=  2.4622
This should be close to max(r_c) in ps generation
All pots = -2*Zval/r beyond r=  2.5245

VLOCAL1: 99.0% of the norm of Vloc inside      7.160 Ry
VLOCAL1: 99.9% of the norm of Vloc inside     16.318 Ry
atom: Maximum radius for 4*pi*r*r*local-pseudopot. charge    2.86079
atom: Maximum radius for r*vlocal+2*Zval:    2.43160
GHOST: No ghost state for L =  0
GHOST: No ghost state for L =  1
GHOST: No ghost state for L =  2

KBgen: Kleinman-Bylander projectors: 
   l= 0   rc=  2.654023   el= -0.211234   Ekb=  1.742119   kbcos=  0.228463
   l= 1   rc=  2.721230   el= -0.080095   Ekb= -1.122375   kbcos= -0.147941
   l= 2   rc=  2.825246   el=  0.002001   Ekb= -0.207076   kbcos= -0.031965

KBgen: Total number of Kleinman-Bylander projectors:    9
atom: -------------------------------------------------------------------------

atom: SANKEY-TYPE ORBITALS:
atom: Selected multiple-zeta basis: split     

SPLIT: Orbitals with angular momentum L= 0

SPLIT: Basis orbitals for state 2s

SPLIT: PAO cut-off radius determined from an
SPLIT: energy shift=  0.000735 Ry

   izeta = 1
                 lambda =    1.000000
                     rc =   11.897381
                 energy =   -0.210580
                kinetic =    0.143382
    potential(screened) =   -0.353962
       potential(ionic) =   -0.533453

   izeta = 2
                 rmatch =    8.489163
              splitnorm =    0.150000
                 energy =   -0.186081
                kinetic =    0.225882
    potential(screened) =   -0.411964
       potential(ionic) =   -0.593024
atom: Total number of Sankey-type orbitals:  2

atm_pop: Valence configuration (for local Pseudopot. screening):
 2s( 1.00)                                                            
Vna: chval, zval:    1.00000   1.00000

Vna:  Cut-off radius for the neutral-atom potential:  11.897381
comcore: Pseudo-core radius Rcore=  3.450946

atom: _________________________________________________________________________

<basis_specs>
===============================================================================
C-gga                Z=   6    Mass=  12.010        Charge= 0.17977+309
Lmxo=1 Lmxkb= 2    BasisType=split      Semic=F
L=0  Nsemic=0  Cnfigmx=2
          i=1  nzeta=2  polorb=0  (2s)
            splnorm:   0.15000    
               vcte:    0.0000    
               rinn:    0.0000    
               qcoe:    0.0000    
               qyuk:    0.0000    
               qwid:   0.10000E-01
                rcs:    0.0000      0.0000    
            lambdas:    1.0000      1.0000    
L=1  Nsemic=0  Cnfigmx=2
          i=1  nzeta=2  polorb=0  (2p)
            splnorm:   0.15000    
               vcte:    0.0000    
               rinn:    0.0000    
               qcoe:    0.0000    
               qyuk:    0.0000    
               qwid:   0.10000E-01
                rcs:    0.0000      0.0000    
            lambdas:    1.0000      1.0000    
-------------------------------------------------------------------------------
L=0  Nkbl=1  erefs: 0.17977+309
L=1  Nkbl=1  erefs: 0.17977+309
L=2  Nkbl=1  erefs: 0.17977+309
===============================================================================
</basis_specs>

atom: Called for C-gga                 (Z =   6)

read_vps: Pseudopotential generation method:
read_vps: ATM 3.2.2 Troullier-Martins                       
Valence charge for ps generation:    4.00000

xc_check: Exchange-correlation functional:
xc_check: GGA Perdew, Burke & Ernzerhof 1996
V l=0 = -2*Zval/r beyond r=  1.5227
V l=1 = -2*Zval/r beyond r=  1.5227
V l=2 = -2*Zval/r beyond r=  1.5227
All V_l potentials equal beyond r=  1.4851
This should be close to max(r_c) in ps generation
All pots = -2*Zval/r beyond r=  1.5227

VLOCAL1: 99.0% of the norm of Vloc inside     19.682 Ry
VLOCAL1: 99.9% of the norm of Vloc inside     44.856 Ry
atom: Maximum radius for 4*pi*r*r*local-pseudopot. charge    1.79142
atom: Maximum radius for r*vlocal+2*Zval:    1.54183
GHOST: No ghost state for L =  0
GHOST: No ghost state for L =  1
GHOST: No ghost state for L =  2

KBgen: Kleinman-Bylander projectors: 
   l= 0   rc=  1.661951   el= -1.010689   Ekb=  5.289847   kbcos=  0.316429
   l= 1   rc=  1.661951   el= -0.388490   Ekb= -4.102504   kbcos= -0.351025
   l= 2   rc=  1.747182   el=  0.001971   Ekb= -1.006005   kbcos= -0.008530

KBgen: Total number of Kleinman-Bylander projectors:    9
atom: -------------------------------------------------------------------------

atom: SANKEY-TYPE ORBITALS:
atom: Selected multiple-zeta basis: split     

SPLIT: Orbitals with angular momentum L= 0

SPLIT: Basis orbitals for state 2s

SPLIT: PAO cut-off radius determined from an
SPLIT: energy shift=  0.000735 Ry

   izeta = 1
                 lambda =    1.000000
                     rc =    5.948690
                 energy =   -1.010099
                kinetic =    0.827121
    potential(screened) =   -1.837220
       potential(ionic) =   -5.392783

   izeta = 2
                 rmatch =    3.518811
              splitnorm =    0.150000
                 energy =   -0.877891
                kinetic =    1.289227
    potential(screened) =   -2.167118
       potential(ionic) =   -5.982073

SPLIT: Orbitals with angular momentum L= 1

SPLIT: Basis orbitals for state 2p

SPLIT: PAO cut-off radius determined from an
SPLIT: energy shift=  0.000735 Ry

   izeta = 1
                 lambda =    1.000000
                     rc =    7.638387
                 energy =   -0.387843
                kinetic =    2.314739
    potential(screened) =   -2.702582
       potential(ionic) =   -6.092371

   izeta = 2
                 rmatch =    3.840617
              splitnorm =    0.150000
                 energy =   -0.270479
                kinetic =    3.438347
    potential(screened) =   -3.708826
       potential(ionic) =   -7.497707
atom: Total number of Sankey-type orbitals:  8

atm_pop: Valence configuration (for local Pseudopot. screening):
 2s( 2.00)                                                            
 2p( 2.00)                                                            
Vna: chval, zval:    4.00000   4.00000

Vna:  Cut-off radius for the neutral-atom potential:   7.638387

atom: _________________________________________________________________________

prinput: Basis input ----------------------------------------------------------

PAO.BasisType split     

%block ChemicalSpeciesLabel
    1    3 Li-gga                  # Species index, atomic number, species label
    2    6 C-gga                   # Species index, atomic number, species label
%endblock ChemicalSpeciesLabel

%block PAO.Basis                 # Define Basis set
Li-gga                1                    # Species label, number of l-shells
 n=2   0   2                         # n, l, Nzeta 
  11.897      8.489   
   1.000      1.000   
C-gga                 2                    # Species label, number of l-shells
 n=2   0   2                         # n, l, Nzeta 
   5.949      3.519   
   1.000      1.000   
 n=2   1   2                         # n, l, Nzeta 
   7.638      3.841   
   1.000      1.000   
%endblock PAO.Basis

prinput: ----------------------------------------------------------------------

coor:   Atomic-coordinates input format  =     Cartesian coordinates
coor:                                          (in Angstroms)

siesta: Atomic coordinates (Bohr) and species
siesta:      0.00000   0.00000   0.00000  2        1
siesta:     -1.32825   2.30060   2.30727  1        2
siesta:     -2.74990   4.76296  11.53634  1        3
siesta:      2.74990   4.76296   2.30727  1        4
siesta:      1.32825   2.30060  11.53634  1        5
siesta:      2.65651   0.00000   2.30727  1        6
siesta:      5.49980   0.00000  11.53634  1        7
siesta:     -2.74990   4.76296   2.30727  1        8
siesta:     -1.32825   2.30060  11.53634  1        9
siesta:      1.32825   2.30060   2.30727  1       10
siesta:      2.74990   4.76296  11.53634  1       11
siesta:      5.49980   0.00000   2.30727  1       12
siesta:      2.65651   0.00000  11.53634  1       13
siesta:     -1.32825   2.30060   6.92181  1       14
siesta:     -2.74990   4.76296   6.92181  1       15
siesta:      2.74990   4.76296   6.92181  1       16
siesta:      1.32825   2.30060   6.92181  1       17
siesta:      2.65651   0.00000   6.92181  1       18
siesta:      5.49980   0.00000   6.92181  1       19

siesta: System type = bulk      

initatomlists: Number of atoms, orbitals, and projectors:     19    44   171

siesta: ******************** Simulation parameters ****************************
siesta:
siesta: The following are some of the parameters of the simulation.
siesta: A complete list of the parameters used, including default values,
siesta: can be found in file out.fdf
siesta:
redata: Spin configuration                          = none
redata: Number of spin components                   = 1
redata: Time-Reversal Symmetry                      = T
redata: Spin spiral                                 = F
redata: Long output                                 =   F
redata: Number of Atomic Species                    =        2
redata: Charge density info will appear in .RHO file
redata: Write Mulliken Pop.                         = NO
redata: Matel table size (NRTAB)                    =     1024
redata: Mesh Cutoff                                 =   300.0000 Ry
redata: Net charge of the system                    =     0.0000 |e|
redata: Min. number of SCF Iter                     =        0
redata: Max. number of SCF Iter                     =     1000
redata: SCF convergence failure will abort job
redata: SCF mix quantity                            = Hamiltonian
redata: Mix DM or H after convergence               =   F
redata: Recompute H after scf cycle                 =   F
redata: Mix DM in first SCF step                    =   T
redata: Write Pulay info on disk                    =   F
redata: New DM Occupancy tolerance                  = 0.000000000001
redata: No kicks to SCF
redata: DM Mixing Weight for Kicks                  =     0.5000
redata: Require Harris convergence for SCF          =   F
redata: Harris energy tolerance for SCF             =     0.000100 eV
redata: Require DM convergence for SCF              =   T
redata: DM tolerance for SCF                        =     0.001000
redata: Require EDM convergence for SCF             =   F
redata: EDM tolerance for SCF                       =     0.005000 eV
redata: Require H convergence for SCF               =   T
redata: Hamiltonian tolerance for SCF               =     0.001000 eV
redata: Require (free) Energy convergence for SCF   =   T
redata: (free) Energy tolerance for SCF             =     0.001000 eV
redata: Using Saved Data (generic)                  =   F
redata: Use continuation files for DM               =   F
redata: Neglect nonoverlap interactions             =   F
redata: Method of Calculation                       = Diagonalization
redata: Electronic Temperature                      =   299.9869 K
redata: Fix the spin of the system                  =   F
redata: Dynamics option                             = Single-point calculation
mix.SCF: Pulay mixing                            = Pulay
mix.SCF:    Variant                              = stable
mix.SCF:    History steps                        = 4
mix.SCF:    Linear mixing weight                 =     0.250000
mix.SCF:    Mixing weight                        =     0.250000
mix.SCF:    SVD condition                        = 0.1000E-07
redata: ***********************************************************************

%block SCF.Mixers
  Pulay
%endblock SCF.Mixers

%block SCF.Mixer.Pulay
  # Mixing method
  method pulay
  variant stable

  # Mixing options
  weight 0.2500
  weight.linear 0.2500
  history 4
%endblock SCF.Mixer.Pulay

DM_history_depth set to one: no extrapolation allowed by default for geometry relaxation
Size of DM history Fstack: 1
Total number of electrons:    22.000000
Total ionic charge:    22.000000

* ProcessorY, Blocksize:    4   1


* Orbital distribution balance (max,min):     3     2

k-point displ. along   1 input, could be:     0.00    0.50
k-point displ. along   2 input, could be:     0.00    0.50
k-point displ. along   3 input, could be:     0.00    0.50
 Kpoints in:           48 . Kpoints trimmed:           44

siesta: k-grid: Number of k-points =    44
siesta: k-grid: Cutoff (effective) =     8.632 Ang
siesta: k-grid: Supercell and displacements
siesta: k-grid:    4   0   0      0.000
siesta: k-grid:    0   4   0      0.000
siesta: k-grid:    0   0   4      0.000

diag: Algorithm                                     = Expert
diag: Parallel over k                               =   T
diag: Use parallel 2D distribution                  =   T
diag: Parallel block-size                           = 1
diag: Parallel distribution                         =     4 x     4
diag: Used triangular part                          = Lower
diag: Absolute tolerance                            =  0.100E-15
diag: Orthogonalization factor                      =  0.100E-05
diag: Memory factor                                 =  1.0000

superc: Internal auxiliary supercell:     9 x     9 x     5  =     405
superc: Number of atoms, orbitals, and projectors:   7695  17820  69255


ts: **************************************************************
ts: Save H and S matrices                           =    F
ts: Save DM and EDM matrices                        =    F
ts: Only save the overlap matrix S                  =    F
ts: **************************************************************

************************ Begin: TS CHECKS AND WARNINGS ************************
************************ End: TS CHECKS AND WARNINGS **************************


                     ====================================
                        Single-point calculation
                     ====================================

outcoor: Atomic coordinates (Ang):                          
    0.00000000    0.00000000    0.00000000   2       1  C-gga
   -0.70288177    1.21742694    1.22095635   1       2  Li-gga
   -1.45518323    2.52045129    6.10476711   1       3  Li-gga
    1.45518323    2.52045129    1.22095635   1       4  Li-gga
    0.70288177    1.21742694    6.10476711   1       5  Li-gga
    1.40576354    0.00000000    1.22095635   1       6  Li-gga
    2.91036646    0.00000000    6.10476711   1       7  Li-gga
   -1.45518323    2.52045129    1.22095635   1       8  Li-gga
   -0.70288177    1.21742694    6.10476711   1       9  Li-gga
    0.70288177    1.21742694    1.22095635   1      10  Li-gga
    1.45518323    2.52045129    6.10476711   1      11  Li-gga
    2.91036646    0.00000000    1.22095635   1      12  Li-gga
    1.40576354    0.00000000    6.10476711   1      13  Li-gga
   -0.70288177    1.21742694    3.66286173   1      14  Li-gga
   -1.45518323    2.52045129    3.66286173   1      15  Li-gga
    1.45518323    2.52045129    3.66286173   1      16  Li-gga
    0.70288177    1.21742694    3.66286173   1      17  Li-gga
    1.40576354    0.00000000    3.66286173   1      18  Li-gga
    2.91036646    0.00000000    3.66286173   1      19  Li-gga

superc: Internal auxiliary supercell:     9 x     9 x     5  =     405
superc: Number of atoms, orbitals, and projectors:   7695  17820  69255

outcell: Unit cell vectors (Ang):
        4.316130    0.000000    0.000000
       -2.158065    3.737878    0.000000
        0.000000    0.000000    7.325723

outcell: Cell vector modules (Ang)   :    4.316130    4.316130    7.325723
outcell: Cell angles (23,13,12) (deg):     90.0000     90.0000    120.0000
outcell: Cell volume (Ang**3)        :    118.1871
<dSpData1D:S at geom step 0
  <sparsity:sparsity for geom step 0
    nrows_g=44 nrows=3 sparsity=4.8998 nnzs=9486, refcount: 7>
  <dData1D:(new from dSpData1D) n=9486, refcount: 1>
refcount: 1>
new_DM -- step:     1
Initializing Density Matrix...
DM filled with atomic data:
<dSpData2D:DM initialized from atoms
  <sparsity:sparsity for geom step 0
    nrows_g=44 nrows=3 sparsity=4.8998 nnzs=9486, refcount: 8>
  <dData2D:DM n=9486 m=1, refcount: 1>
refcount: 1>
No. of atoms with KB's overlaping orbs in proc 0. Max # of overlaps:     406     465
New grid distribution:   1
           1       1:   20    1:    5    1:   10
           2       1:   20    1:    5   11:   20
           3       1:   20    1:    5   21:   30
           4       1:   20    1:    5   31:   40
           5       1:   20    6:   10    1:   10
           6       1:   20    6:   10   11:   20
           7       1:   20    6:   10   21:   30
           8       1:   20    6:   10   31:   40
           9       1:   20   11:   15    1:   10
          10       1:   20   11:   15   11:   20
          11       1:   20   11:   15   21:   30
          12       1:   20   11:   15   31:   40
          13       1:   20   16:   20    1:   10
          14       1:   20   16:   20   11:   20
          15       1:   20   16:   20   21:   30
          16       1:   20   16:   20   31:   40

InitMesh: MESH =    40 x    40 x    80 =      128000
InitMesh: (bp) =    20 x    20 x    40 =       16000
InitMesh: Mesh cutoff (required, used) =   300.000   316.498 Ry
ExtMesh (bp) on 0 =   156 x   141 x   150 =     3299400
New grid distribution:   2
           1       1:   10    1:   10    1:   10
           2       1:   10    1:   10   11:   20
           3       1:   10    1:   10   21:   30
           4       1:   10    1:   10   31:   40
           5      11:   20    1:   10    1:   10
           6      11:   20    1:   10   11:   20
           7      11:   20    1:   10   21:   30
           8      11:   20    1:   10   31:   40
           9       1:   10   11:   20    1:   10
          10       1:   10   11:   20   11:   20
          11       1:   10   11:   20   21:   30
          12       1:   10   11:   20   31:   40
          13      11:   20   11:   20    1:   10
          14      11:   20   11:   20   11:   20
          15      11:   20   11:   20   21:   30
          16      11:   20   11:   20   31:   40
New grid distribution:   3
           1       1:   10    1:   10    1:   10
           2       1:   10    1:   10   11:   20
           3       1:   10    1:   10   21:   30
           4       1:   10    1:   10   31:   40
           5      11:   20    1:   10    1:   10
           6      11:   20    1:   10   11:   20
           7      11:   20    1:   10   21:   30
           8      11:   20    1:   10   31:   40
           9       1:   10   11:   20    1:   10
          10       1:   10   11:   20   11:   20
          11       1:   10   11:   20   21:   30
          12       1:   10   11:   20   31:   40
          13      11:   20   11:   20    1:   10
          14      11:   20   11:   20   11:   20
          15      11:   20   11:   20   21:   30
          16      11:   20   11:   20   31:   40
Setting up quadratic distribution...
ExtMesh (bp) on 0 =   146 x   146 x   150 =     3197400
PhiOnMesh: Number of (b)points on node 0 =                 1000
PhiOnMesh: nlist on node 0 =               239053

stepf: Fermi-Dirac step function

siesta: Program's energy decomposition (eV):
siesta: Ebs     =      -315.733279
siesta: Eions   =       439.895300
siesta: Ena     =       102.369763
siesta: Ekin    =       336.996039
siesta: Enl     =        21.634509
siesta: Eso     =         0.000000
siesta: Edftu   =         0.000000
siesta: DEna    =       -34.276208
siesta: DUscf   =        30.601611
siesta: DUext   =         0.000000
siesta: Exc     =      -245.654949
siesta: eta*DQ  =         0.000000
siesta: Emadel  =         0.000000
siesta: Emeta   =         0.000000
siesta: Emolmec =       -11.292929
siesta: Ekinion =         0.000000
siesta: Eharris =      -168.383480
siesta: Etot    =      -239.517464
siesta: FreeEng =      -239.526518

        iscf     Eharris(eV)        E_KS(eV)     FreeEng(eV)     dDmax    Ef(eV) dHmax(eV)
   scf:    1     -168.383480     -239.517464     -239.526518138.129430-12.670430 22.787573
timer: Routine,Calls,Time,% = IterSCF        1       1.946  22.56
   scf:    2     -263.236768     -254.446893     -254.449077 27.244218-12.913560  5.561173
   scf:    3     -256.269040     -255.691846     -255.694077  5.899960-12.909538  0.333043
   scf:    4     -255.766129     -255.735725     -255.737984  2.015611-12.956352  0.159058
   scf:    5     -255.714471     -255.731299     -255.734336  1.411803-12.984846  0.289492
   scf:    6     -255.744823     -255.740750     -255.743245  0.987888-12.975355  0.006777
   scf:    7     -255.740743     -255.740749     -255.743255  0.051491-12.975639  0.001571
   scf:    8     -255.740755     -255.740752     -255.743257  0.006511-12.975311  0.000901
   scf:    9     -255.740760     -255.740756     -255.743258  0.020536-12.974530  0.000204
   scf:   10     -255.740757     -255.740757     -255.743258  0.000827-12.974540  0.000159

SCF Convergence by FreeE+DM+H criterion
|FreeE_i-FreeE_(i-1)| (eV) <     0.00100000
max |DM_out - DM_in|         :     0.0008273626
max |H_out - H_in|      (eV) :     0.0001589439
SCF cycle converged after 10 iterations

Using DM_out to compute the final energy and forces
No. of atoms with KB's overlaping orbs in proc 0. Max # of overlaps:     406     465

MM-Stress (kbar):       26.27       26.27      229.33        0.00        0.00        0.00

siesta: E_KS(eV) =             -255.7408

siesta: E_KS - E_eggbox =      -255.7408

siesta: Atomic forces (eV/Ang):
     1    0.000000    0.000000    0.000000
     2   -0.495782    0.858705    0.439426
     3    0.495782   -0.858705   -0.439426
     4   -0.495753   -0.858669    0.439359
     5    0.495753    0.858669   -0.439359
     6    0.991551   -0.000007    0.439426
     7   -0.991551    0.000007   -0.439426
     8    0.495782   -0.858705    0.439426
     9   -0.495782    0.858705   -0.439426
    10    0.495753    0.858669    0.439359
    11   -0.495753   -0.858669   -0.439359
    12   -0.991551    0.000007    0.439426
    13    0.991551   -0.000007   -0.439426
    14   -0.212092    0.367321   -0.000000
    15    0.212092   -0.367321   -0.000000
    16   -0.212102   -0.367372   -0.000000
    17    0.212102    0.367372   -0.000000
    18    0.424156   -0.000016   -0.000000
    19   -0.424156    0.000016   -0.000000
----------------------------------------
   Tot    0.000000    0.000000    0.000000
----------------------------------------
   Max    0.991551
   Res    0.516299    sqrt( Sum f_i^2 / 3N )
----------------------------------------
   Max    0.991551    constrained

Stress tensor Voigt[x,y,z,yz,xz,xy] (kbar):    -1965.51    -1965.53       70.44        0.00        0.00       -0.01
(Free)E + p*V (eV/cell)     -160.8166
Target enthalpy (eV/cell)     -255.7433

siesta: Eigenvalues (eV):
  ik is       eps
   1  1  -25.9766  -20.3993  -19.5154  -19.2432  -19.0265  -18.6249  -18.4857  -18.3221  -17.0900  -15.6541
         -14.7954  -14.2503   -8.5268   -7.8364   -5.6750   -5.2261   -4.3504   -0.0642    0.4096    1.5872
    2.4411    4.1715    4.9834   11.5639   14.8571   15.2134   15.3803   15.7526   16.2130   16.4667
   16.5085   17.6201   17.6716   18.5425   20.5193   25.3794   29.4325   35.7534   36.6539   43.3828
   47.6157   47.8522   52.6370   56.5660
   2  1  -26.1976  -21.1088  -19.9303  -19.2852  -18.8334  -18.2421  -17.7427  -17.6523  -15.4881  -14.5306
         -13.2844  -12.9310  -11.7066   -8.6221   -4.4549   -2.4797   -1.5662   -0.5476    4.5972    5.1640
    6.8447    8.2703   10.4790   14.4382   16.7899   18.5622   19.3579   19.4873   19.7825   20.8470
   21.4341   21.8029   21.8261   22.1016   22.9358   24.7302   29.0970   31.1213   36.1781   37.5944
   40.7043   42.1836   45.3546   59.3730
   3  1  -26.1976  -21.1088  -19.9303  -19.2852  -18.8334  -18.2421  -17.7427  -17.6524  -15.4881  -14.5305
         -13.2844  -12.9310  -11.7066   -8.6221   -4.4549   -2.4799   -1.5659   -0.5475    4.5972    5.1638
    6.8447    8.2703   10.4790   14.4382   16.7899   18.5622   19.3579   19.4873   19.7825   20.8470
   21.4341   21.8029   21.8261   22.1016   22.9359   24.7301   29.0970   31.1213   36.1781   37.5943
   40.7043   42.1836   45.3545   59.3730
   4  1  -25.9766  -20.3993  -19.5153  -19.2432  -19.0265  -18.6249  -18.4857  -18.3221  -17.0900  -15.6541
         -14.7956  -14.2502   -8.5267   -7.8364   -5.6750   -5.2261   -4.3504   -0.0642    0.4096    1.5868
    2.4412    4.1715    4.9835   11.5640   14.8571   15.2134   15.3803   15.7526   16.2129   16.4667
   16.5085   17.6201   17.6716   18.5425   20.5193   25.3794   29.4325   35.7534   36.6539   43.3827
   47.6158   47.8522   52.6370   56.5660
   5  1  -26.1976  -21.1088  -19.9303  -19.2852  -18.8334  -18.2421  -17.7427  -17.6523  -15.4881  -14.5306
         -13.2844  -12.9310  -11.7066   -8.6221   -4.4549   -2.4797   -1.5662   -0.5476    4.5972    5.1640
    6.8447    8.2703   10.4790   14.4382   16.7899   18.5622   19.3579   19.4873   19.7825   20.8470
   21.4341   21.8029   21.8261   22.1016   22.9358   24.7302   29.0970   31.1213   36.1781   37.5944
   40.7043   42.1836   45.3546   59.3730
   6  1  -26.2910  -21.3923  -21.2122  -17.9018  -17.5194  -17.5192  -16.3340  -10.6609  -10.6608  -10.5243
         -10.5243  -10.0542  -10.0542  -10.0477  -10.0477   -9.0782   -9.0782   -3.1666   -1.1470    1.2119
    1.2125    4.4913    7.9140   13.8503   15.3816   15.3816   15.4337   15.4338   15.8556   15.8556
   16.2606   16.2607   19.0316   21.2773   21.6733   26.2964   26.2965   66.9725   66.9725   69.3710
   69.4738   84.8083   91.6580   91.6582
   7  1  -25.8499  -20.3752  -19.6023  -19.1499  -18.9621  -18.7089  -17.8679  -17.8334  -17.7818  -13.9392
         -13.9360  -13.7552  -12.0012   -7.0424   -6.1477   -5.0351   -4.1622   -4.1371   -0.3793   -0.0606
   10.2434   10.6148   12.6141   13.9827   14.5265   14.9995   15.0675   15.2030   15.3023   15.5640
   16.7584   17.4520   19.9363   22.4231   39.6426   41.9096   43.1465   51.1330   51.8754   52.4627
   52.8402   55.4510   55.6061   73.5577
   8  1  -25.9766  -20.3993  -19.5153  -19.2432  -19.0265  -18.6249  -18.4857  -18.3221  -17.0900  -15.6541
         -14.7956  -14.2502   -8.5267   -7.8364   -5.6750   -5.2261   -4.3504   -0.0642    0.4096    1.5868
    2.4412    4.1715    4.9835   11.5640   14.8571   15.2134   15.3803   15.7526   16.2129   16.4667
   16.5085   17.6201   17.6716   18.5425   20.5193   25.3794   29.4325   35.7534   36.6539   43.3827
   47.6158   47.8522   52.6370   56.5660
   9  1  -25.9766  -20.3993  -19.5153  -19.2432  -19.0265  -18.6249  -18.4857  -18.3221  -17.0900  -15.6541
         -14.7956  -14.2502   -8.5267   -7.8364   -5.6750   -5.2261   -4.3504   -0.0642    0.4096    1.5868
    2.4412    4.1715    4.9835   11.5640   14.8571   15.2134   15.3803   15.7526   16.2129   16.4667
   16.5085   17.6201   17.6716   18.5425   20.5193   25.3794   29.4325   35.7534   36.6539   43.3827
   47.6158   47.8522   52.6370   56.5660
  10  1  -25.8499  -20.3752  -19.6023  -19.1499  -18.9621  -18.7089  -17.8679  -17.8334  -17.7818  -13.9392
         -13.9360  -13.7552  -12.0012   -7.0424   -6.1477   -5.0351   -4.1622   -4.1371   -0.3793   -0.0606
   10.2434   10.6148   12.6141   13.9827   14.5265   14.9995   15.0675   15.2030   15.3023   15.5640
   16.7584   17.4520   19.9363   22.4231   39.6426   41.9096   43.1465   51.1330   51.8754   52.4627
   52.8402   55.4510   55.6061   73.5577
  11  1  -25.9766  -20.3993  -19.5153  -19.2432  -19.0265  -18.6249  -18.4857  -18.3221  -17.0900  -15.6541
         -14.7956  -14.2502   -8.5267   -7.8364   -5.6750   -5.2261   -4.3504   -0.0642    0.4096    1.5868
    2.4412    4.1715    4.9835   11.5640   14.8571   15.2134   15.3803   15.7526   16.2129   16.4667
   16.5085   17.6201   17.6716   18.5425   20.5193   25.3794   29.4325   35.7534   36.6539   43.3827
   47.6158   47.8522   52.6370   56.5660
  12  1  -25.8499  -20.3751  -19.6023  -19.1499  -18.9621  -18.7089  -17.8679  -17.8334  -17.7819  -13.9392
         -13.9358  -13.7552  -12.0012   -7.0424   -6.1477   -5.0351   -4.1627   -4.1369   -0.3793   -0.0606
   10.2435   10.6148   12.6141   13.9827   14.5265   14.9995   15.0675   15.2030   15.3023   15.5640
   16.7583   17.4520   19.9364   22.4231   39.6426   41.9096   43.1465   51.1330   51.8754   52.4626
   52.8402   55.4510   55.6061   73.5575
  13  1  -26.0304  -20.3937  -19.9930  -19.1825  -18.9793  -18.4902  -18.4394  -18.0103  -17.2536  -16.3082
         -14.5106  -13.8584   -8.7218   -8.4578   -7.1686   -5.9613   -5.6936   -3.7913   -1.3892   -0.4335
    3.4251    7.2732    8.1467   10.2965   13.3708   14.0748   14.4613   16.0276   16.0598   16.4096
   17.2991   17.4202   17.8592   19.8524   23.6576   24.2469   28.2647   32.0960   32.7471   41.0646
   44.0256   45.9830   50.6138   56.5944
  14  1  -26.3012  -21.1872  -20.3516  -19.2424  -18.8050  -17.7730  -17.5129  -17.2727  -16.1644  -13.9747
         -13.2111  -10.4999  -10.3760   -7.6044   -6.7570   -4.6078   -4.4117   -1.9770    0.1276    0.9537
    4.5670    6.1738    7.3083    9.2989   10.5368   12.0229   12.8137   14.4567   18.4779   18.7202
   18.9314   19.5832   21.2556   21.7713   22.5249   22.9920   25.7450   26.9691   37.9113   39.5116
   42.0773   44.9134   46.4793   49.5018
  15  1  -26.3012  -21.1872  -20.3515  -19.2423  -18.8050  -17.7730  -17.5131  -17.2727  -16.1644  -13.9747
         -13.2111  -10.4999  -10.3761   -7.6044   -6.7569   -4.6076   -4.4117   -1.9769    0.1276    0.9534
    4.5670    6.1738    7.3084    9.2990   10.5368   12.0229   12.8137   14.4567   18.4779   18.7202
   18.9314   19.5832   21.2556   21.7713   22.5248   22.9920   25.7450   26.9691   37.9113   39.5116
   42.0774   44.9134   46.4793   49.5016
  16  1  -26.0304  -20.3937  -19.9930  -19.1824  -18.9793  -18.4902  -18.4394  -18.0103  -17.2536  -16.3082
         -14.5107  -13.8583   -8.7218   -8.4577   -7.1686   -5.9613   -5.6935   -3.7912   -1.3896   -0.4335
    3.4252    7.2733    8.1467   10.2965   13.3708   14.0748   14.4613   16.0276   16.0598   16.4096
   17.2991   17.4202   17.8592   19.8524   23.6575   24.2469   28.2647   32.0960   32.7471   41.0646
   44.0256   45.9830   50.6138   56.5944
  17  1  -26.3012  -21.1872  -20.3516  -19.2424  -18.8050  -17.7730  -17.5129  -17.2727  -16.1644  -13.9747
         -13.2111  -10.4999  -10.3760   -7.6044   -6.7570   -4.6078   -4.4117   -1.9770    0.1276    0.9537
    4.5670    6.1738    7.3083    9.2989   10.5368   12.0229   12.8137   14.4567   18.4779   18.7202
   18.9314   19.5832   21.2556   21.7713   22.5249   22.9920   25.7450   26.9691   37.9113   39.5116
   42.0773   44.9134   46.4793   49.5018
  18  1  -26.4915  -21.6956  -21.2461  -19.2928  -18.0625  -17.4188  -17.4186  -11.5903  -10.5228  -10.5228
         -10.4910  -10.4910   -7.7040   -7.7040   -7.0905   -7.0904   -4.7852   -4.7852   -1.8267   -0.0225
    1.7710    1.7716   11.0434   11.0434   11.9552   11.9552   13.1934   14.8468   19.0918   20.8842
   20.8843   21.0806   21.4375   21.4375   21.6166   29.6033   29.6034   37.1102   37.8740  100.9987
  102.3042  102.3043  124.0393  124.0394
  19  1  -26.3012  -21.1872  -20.3516  -19.2424  -18.8050  -17.7730  -17.5129  -17.2727  -16.1644  -13.9747
         -13.2111  -10.4999  -10.3760   -7.6044   -6.7570   -4.6078   -4.4117   -1.9770    0.1276    0.9537
    4.5670    6.1738    7.3083    9.2989   10.5368   12.0229   12.8137   14.4567   18.4779   18.7202
   18.9314   19.5832   21.2556   21.7713   22.5249   22.9920   25.7450   26.9691   37.9113   39.5116
   42.0773   44.9134   46.4793   49.5018
  20  1  -25.8643  -20.2830  -19.7119  -19.2491  -18.9888  -18.5858  -18.2495  -17.7920  -17.7423  -14.9498
         -13.6983  -13.3194  -11.5726  -11.3032   -7.4604   -4.4186   -3.6322   -2.0948    0.9341    5.1535
    5.1795    9.0249   12.5958   13.6607   14.6064   15.0047   15.1684   15.2590   15.5199   15.7342
   16.5832   18.5940   18.7792   20.6818   21.3628   27.0627   30.3586   33.2762   35.5931   39.2856
   43.3198   47.2553   68.3608   71.0571
  21  1  -26.3012  -21.1872  -20.3515  -19.2423  -18.8050  -17.7730  -17.5131  -17.2727  -16.1644  -13.9747
         -13.2111  -10.4999  -10.3761   -7.6044   -6.7569   -4.6076   -4.4117   -1.9769    0.1276    0.9534
    4.5670    6.1738    7.3084    9.2990   10.5368   12.0229   12.8137   14.4567   18.4779   18.7202
   18.9314   19.5832   21.2556   21.7713   22.5248   22.9920   25.7450   26.9691   37.9113   39.5116
   42.0774   44.9134   46.4793   49.5016
  22  1  -26.3012  -21.1872  -20.3516  -19.2424  -18.8050  -17.7730  -17.5129  -17.2727  -16.1644  -13.9747
         -13.2111  -10.4999  -10.3760   -7.6044   -6.7570   -4.6078   -4.4117   -1.9770    0.1276    0.9537
    4.5670    6.1738    7.3083    9.2989   10.5368   12.0229   12.8137   14.4567   18.4779   18.7202
   18.9314   19.5832   21.2556   21.7713   22.5249   22.9920   25.7450   26.9691   37.9113   39.5116
   42.0773   44.9134   46.4793   49.5018
  23  1  -26.0304  -20.3937  -19.9930  -19.1825  -18.9793  -18.4902  -18.4394  -18.0103  -17.2536  -16.3082
         -14.5106  -13.8584   -8.7218   -8.4578   -7.1686   -5.9613   -5.6936   -3.7913   -1.3892   -0.4335
    3.4251    7.2732    8.1467   10.2965   13.3708   14.0748   14.4613   16.0276   16.0598   16.4096
   17.2991   17.4202   17.8592   19.8524   23.6576   24.2469   28.2647   32.0960   32.7471   41.0646
   44.0256   45.9830   50.6138   56.5944
  24  1  -26.0304  -20.3937  -19.9930  -19.1824  -18.9793  -18.4902  -18.4394  -18.0103  -17.2536  -16.3082
         -14.5107  -13.8583   -8.7218   -8.4577   -7.1686   -5.9613   -5.6935   -3.7912   -1.3896   -0.4335
    3.4252    7.2733    8.1467   10.2965   13.3708   14.0748   14.4613   16.0276   16.0598   16.4096
   17.2991   17.4202   17.8592   19.8524   23.6575   24.2469   28.2647   32.0960   32.7471   41.0646
   44.0256   45.9830   50.6138   56.5944
  25  1  -26.0304  -20.3937  -19.9930  -19.1824  -18.9793  -18.4902  -18.4394  -18.0103  -17.2536  -16.3082
         -14.5107  -13.8583   -8.7218   -8.4577   -7.1686   -5.9613   -5.6935   -3.7912   -1.3896   -0.4335
    3.4252    7.2733    8.1467   10.2965   13.3708   14.0748   14.4613   16.0276   16.0598   16.4096
   17.2991   17.4202   17.8592   19.8524   23.6575   24.2469   28.2647   32.0960   32.7471   41.0646
   44.0256   45.9830   50.6138   56.5944
  26  1  -25.8643  -20.2830  -19.7119  -19.2491  -18.9888  -18.5858  -18.2495  -17.7920  -17.7423  -14.9498
         -13.6983  -13.3194  -11.5726  -11.3032   -7.4604   -4.4186   -3.6322   -2.0948    0.9341    5.1535
    5.1795    9.0249   12.5958   13.6607   14.6064   15.0047   15.1684   15.2590   15.5199   15.7342
   16.5832   18.5940   18.7792   20.6818   21.3628   27.0627   30.3586   33.2762   35.5931   39.2856
   43.3198   47.2553   68.3608   71.0571
  27  1  -26.0304  -20.3937  -19.9930  -19.1824  -18.9793  -18.4902  -18.4394  -18.0103  -17.2536  -16.3082
         -14.5107  -13.8583   -8.7218   -8.4577   -7.1686   -5.9613   -5.6935   -3.7912   -1.3896   -0.4335
    3.4252    7.2733    8.1467   10.2965   13.3708   14.0748   14.4613   16.0276   16.0598   16.4096
   17.2991   17.4202   17.8592   19.8524   23.6575   24.2469   28.2647   32.0960   32.7471   41.0646
   44.0256   45.9830   50.6138   56.5944
  28  1  -25.8643  -20.2830  -19.7119  -19.2490  -18.9888  -18.5858  -18.2494  -17.7920  -17.7424  -14.9498
         -13.6983  -13.3193  -11.5726  -11.3032   -7.4601   -4.4186   -3.6325   -2.0948    0.9339    5.1536
    5.1795    9.0249   12.5958   13.6608   14.6064   15.0047   15.1684   15.2589   15.5199   15.7342
   16.5832   18.5940   18.7791   20.6818   21.3628   27.0627   30.3585   33.2762   35.5931   39.2856
   43.3199   47.2552   68.3608   71.0570
  29  1  -26.0351  -20.3871  -20.1008  -19.2170  -18.8670  -18.4607  -18.4325  -17.2488  -17.0632  -16.7023
         -12.8609  -12.0714   -8.9578   -8.6117   -8.2622   -4.4922   -4.0231   -3.5441   -1.5397   -0.5446
   10.6870   12.2632   12.3390   12.6267   13.1757   15.4036   16.2486   16.3291   16.7534   17.2211
   18.4509   18.7099   19.3350   24.3929   25.3579   25.4924   25.7688   38.6114   43.3991   46.4878
   54.7336   58.6358   66.2785   66.7318
  30  1  -26.2933  -21.1897  -20.3733  -19.3971  -18.1276  -17.3719  -17.2236  -17.1983  -15.0350  -13.1365
         -12.6350  -11.8315  -10.5974   -8.7343   -6.7558   -3.7705   -2.8971   -1.4793   -0.3417    0.1545
    3.3777    6.2179   10.6326   10.7630   10.9036   12.7086   12.7371   13.6371   18.3823   19.0948
   19.4458   19.4475   20.1085   20.9524   21.1898   23.9430   27.8306   29.6809   30.0756   38.9818
   44.7719   52.5692   55.6451   62.3814
  31  1  -26.2933  -21.1897  -20.3732  -19.3971  -18.1275  -17.3721  -17.2236  -17.1983  -15.0350  -13.1365
         -12.6350  -11.8314  -10.5975   -8.7344   -6.7558   -3.7704   -2.8971   -1.4795   -0.3417    0.1548
    3.3775    6.2179   10.6326   10.7630   10.9036   12.7086   12.7371   13.6371   18.3823   19.0948
   19.4458   19.4475   20.1084   20.9525   21.1897   23.9431   27.8306   29.6808   30.0756   38.9818
   44.7719   52.5693   55.6451   62.3814
  32  1  -26.0351  -20.3871  -20.1008  -19.2170  -18.8671  -18.4607  -18.4324  -17.2488  -17.0633  -16.7023
         -12.8609  -12.0715   -8.9578   -8.6116   -8.2622   -4.4918   -4.0231   -3.5441   -1.5401   -0.5445
   10.6870   12.2632   12.3391   12.6267   13.1757   15.4037   16.2486   16.3291   16.7534   17.2211
   18.4509   18.7099   19.3350   24.3928   25.3579   25.4924   25.7687   38.6113   43.3990   46.4878
   54.7337   58.6358   66.2785   66.7318
  33  1  -26.2933  -21.1897  -20.3733  -19.3971  -18.1276  -17.3719  -17.2236  -17.1983  -15.0350  -13.1365
         -12.6350  -11.8315  -10.5974   -8.7343   -6.7558   -3.7705   -2.8971   -1.4793   -0.3417    0.1545
    3.3777    6.2179   10.6326   10.7630   10.9036   12.7086   12.7371   13.6371   18.3823   19.0948
   19.4458   19.4475   20.1085   20.9524   21.1898   23.9430   27.8306   29.6809   30.0756   38.9818
   44.7719   52.5692   55.6451   62.3814
  34  1  -26.4726  -21.5833  -20.5269  -19.6641  -17.3255  -17.3253  -13.4798  -10.0159  -10.0159   -9.6847
          -9.6847   -9.6059   -9.6059   -3.2170   -3.0874   -1.5252   -1.5247    8.0981    8.0982    8.8608
    8.8608   10.0673   10.0674   11.9735   12.8559   19.9740   20.4123   21.5708   22.3818   27.7179
   27.7179   28.1241   28.1241   28.3542   28.4431   28.4431   28.5002   46.5194   46.5196   57.6272
   57.6272   58.2012   58.2012   97.3503
  35  1  -26.2933  -21.1897  -20.3733  -19.3971  -18.1276  -17.3719  -17.2236  -17.1983  -15.0350  -13.1365
         -12.6350  -11.8315  -10.5974   -8.7343   -6.7558   -3.7705   -2.8971   -1.4793   -0.3417    0.1545
    3.3777    6.2179   10.6326   10.7630   10.9036   12.7086   12.7371   13.6371   18.3823   19.0948
   19.4458   19.4475   20.1085   20.9524   21.1898   23.9430   27.8306   29.6809   30.0756   38.9818
   44.7719   52.5692   55.6451   62.3814
  36  1  -25.9100  -20.0992  -19.9469  -19.5815  -18.8272  -18.6048  -18.5887  -17.6552  -16.9428  -16.2906
         -13.6025  -12.7198  -12.0574  -11.3723   -6.5667   -3.9993   -3.3463   -1.2077    0.5412   12.4601
   14.8322   15.0296   15.4386   15.4700   15.5328   15.6753   16.7139   18.7857   19.1630   20.1665
   20.3446   20.6641   21.3058   21.9954   24.7369   25.2283   31.3592   32.4769   33.9636   34.2584
   37.3789   39.1160  107.3213  113.6117
  37  1  -26.2933  -21.1897  -20.3732  -19.3971  -18.1275  -17.3721  -17.2236  -17.1983  -15.0350  -13.1365
         -12.6350  -11.8314  -10.5975   -8.7344   -6.7558   -3.7704   -2.8971   -1.4795   -0.3417    0.1548
    3.3775    6.2179   10.6326   10.7630   10.9036   12.7086   12.7371   13.6371   18.3823   19.0948
   19.4458   19.4475   20.1084   20.9525   21.1897   23.9431   27.8306   29.6808   30.0756   38.9818
   44.7719   52.5693   55.6451   62.3814
  38  1  -26.2933  -21.1897  -20.3733  -19.3971  -18.1276  -17.3719  -17.2236  -17.1983  -15.0350  -13.1365
         -12.6350  -11.8315  -10.5974   -8.7343   -6.7558   -3.7705   -2.8971   -1.4793   -0.3417    0.1545
    3.3777    6.2179   10.6326   10.7630   10.9036   12.7086   12.7371   13.6371   18.3823   19.0948
   19.4458   19.4475   20.1085   20.9524   21.1898   23.9430   27.8306   29.6809   30.0756   38.9818
   44.7719   52.5692   55.6451   62.3814
  39  1  -26.0351  -20.3871  -20.1008  -19.2170  -18.8670  -18.4607  -18.4325  -17.2488  -17.0632  -16.7023
         -12.8609  -12.0714   -8.9578   -8.6117   -8.2622   -4.4922   -4.0231   -3.5441   -1.5397   -0.5446
   10.6870   12.2632   12.3390   12.6267   13.1757   15.4036   16.2486   16.3291   16.7534   17.2211
   18.4509   18.7099   19.3350   24.3929   25.3579   25.4924   25.7688   38.6114   43.3991   46.4878
   54.7336   58.6358   66.2785   66.7318
  40  1  -26.0351  -20.3871  -20.1008  -19.2170  -18.8671  -18.4607  -18.4324  -17.2488  -17.0633  -16.7023
         -12.8609  -12.0715   -8.9578   -8.6116   -8.2622   -4.4918   -4.0231   -3.5441   -1.5401   -0.5445
   10.6870   12.2632   12.3391   12.6267   13.1757   15.4037   16.2486   16.3291   16.7534   17.2211
   18.4509   18.7099   19.3350   24.3928   25.3579   25.4924   25.7687   38.6113   43.3990   46.4878
   54.7337   58.6358   66.2785   66.7318
  41  1  -26.0351  -20.3871  -20.1008  -19.2170  -18.8671  -18.4607  -18.4324  -17.2488  -17.0633  -16.7023
         -12.8609  -12.0715   -8.9578   -8.6116   -8.2622   -4.4918   -4.0231   -3.5441   -1.5401   -0.5445
   10.6870   12.2632   12.3391   12.6267   13.1757   15.4037   16.2486   16.3291   16.7534   17.2211
   18.4509   18.7099   19.3350   24.3928   25.3579   25.4924   25.7687   38.6113   43.3990   46.4878
   54.7337   58.6358   66.2785   66.7318
  42  1  -25.9100  -20.0992  -19.9469  -19.5815  -18.8272  -18.6048  -18.5887  -17.6552  -16.9428  -16.2906
         -13.6025  -12.7198  -12.0574  -11.3723   -6.5667   -3.9993   -3.3463   -1.2077    0.5412   12.4601
   14.8322   15.0296   15.4386   15.4700   15.5328   15.6753   16.7139   18.7857   19.1630   20.1665
   20.3446   20.6641   21.3058   21.9954   24.7369   25.2283   31.3592   32.4769   33.9636   34.2584
   37.3789   39.1160  107.3213  113.6117
  43  1  -26.0351  -20.3871  -20.1008  -19.2170  -18.8671  -18.4607  -18.4324  -17.2488  -17.0633  -16.7023
         -12.8609  -12.0715   -8.9578   -8.6116   -8.2622   -4.4918   -4.0231   -3.5441   -1.5401   -0.5445
   10.6870   12.2632   12.3391   12.6267   13.1757   15.4037   16.2486   16.3291   16.7534   17.2211
   18.4509   18.7099   19.3350   24.3928   25.3579   25.4924   25.7687   38.6113   43.3990   46.4878
   54.7337   58.6358   66.2785   66.7318
  44  1  -25.9100  -20.0991  -19.9469  -19.5815  -18.8272  -18.6048  -18.5886  -17.6554  -16.9428  -16.2906
         -13.6025  -12.7198  -12.0574  -11.3724   -6.5663   -3.9993   -3.3462   -1.2077    0.5407   12.4601
   14.8321   15.0296   15.4386   15.4701   15.5328   15.6753   16.7139   18.7857   19.1629   20.1665
   20.3445   20.6641   21.3057   21.9954   24.7369   25.2283   31.3592   32.4769   33.9637   34.2585
   37.3789   39.1159  107.3213  113.6118
siesta: Fermi energy =     -12.974540 eV

siesta: Program's energy decomposition (eV):
siesta: Ebs     =      -407.530113
siesta: Eions   =       439.895300
siesta: Ena     =       102.369763
siesta: Ekin    =       274.939057
siesta: Enl     =        44.918010
siesta: Eso     =         0.000000
siesta: Edftu   =         0.000000
siesta: DEna    =         1.359941
siesta: DUscf   =         5.416252
siesta: DUext   =         0.000000
siesta: Exc     =      -233.555551
siesta: eta*DQ  =         0.000000
siesta: Emadel  =         0.000000
siesta: Emeta   =         0.000000
siesta: Emolmec =       -11.292929
siesta: Ekinion =         0.000000
siesta: Eharris =      -255.740757
siesta: Etot    =      -255.740757
siesta: FreeEng =      -255.743258

siesta: Final energy (eV):
siesta:  Band Struct. =    -407.530113
siesta:       Kinetic =     274.939057
siesta:       Hartree =      99.934940
siesta:       Edftu   =       0.000000
siesta:       Eso     =       0.000000
siesta:    Ext. field =       0.000000
siesta:   Exch.-corr. =    -233.555551
siesta:  Ion-electron =    -639.437974
siesta:       Ion-ion =     253.671699
siesta:       Ekinion =       0.000000
siesta:         Total =    -255.740757
siesta:         Fermi =     -12.974540

siesta: Atomic forces (eV/Ang):
siesta:      1    0.000000    0.000000    0.000000
siesta:      2   -0.495782    0.858705    0.439426
siesta:      3    0.495782   -0.858705   -0.439426
siesta:      4   -0.495753   -0.858669    0.439359
siesta:      5    0.495753    0.858669   -0.439359
siesta:      6    0.991551   -0.000007    0.439426
siesta:      7   -0.991551    0.000007   -0.439426
siesta:      8    0.495782   -0.858705    0.439426
siesta:      9   -0.495782    0.858705   -0.439426
siesta:     10    0.495753    0.858669    0.439359
siesta:     11   -0.495753   -0.858669   -0.439359
siesta:     12   -0.991551    0.000007    0.439426
siesta:     13    0.991551   -0.000007   -0.439426
siesta:     14   -0.212092    0.367321   -0.000000
siesta:     15    0.212092   -0.367321   -0.000000
siesta:     16   -0.212102   -0.367372   -0.000000
siesta:     17    0.212102    0.367372   -0.000000
siesta:     18    0.424156   -0.000016   -0.000000
siesta:     19   -0.424156    0.000016   -0.000000
siesta: ----------------------------------------
siesta:    Tot    0.000000    0.000000    0.000000

siesta: Stress tensor (static) (eV/Ang**3):
siesta:    -1.226763   -0.000009    0.000000
siesta:    -0.000009   -1.226773    0.000000
siesta:     0.000000    0.000000    0.043967

siesta: Cell volume =        118.187130 Ang**3

siesta: Pressure (static):
siesta:                Solid            Molecule  Units
siesta:           0.00874776          0.00947705  Ry/Bohr**3
siesta:           0.80318967          0.87015022  eV/Ang**3
siesta:        1286.86562872       1394.14941877  kBar
(Free)E+ p_basis*V_orbitals  =        -223.137448
(Free)Eharris+ p_basis*V_orbitals  =        -223.137449

cite: Please see "LiC18_scf.bib" for an exhaustive BiBTeX file.
cite: Please clearly indicate Siesta version in published work: 4.1.5
cite: This calculation has made use of the following articles
cite: which are encouraged to be cited in a published work.
        Primary SIESTA paper
          DOI: www.doi.org/10.1088/0953-8984/14/11/302

>> End of run:   9-NOV-2022   8:40:37
Job completed
