BEGIN_CFG
Size
108
Supercell
        7.392000    0.000000    0.000000
       -3.696000    6.401660    0.000000
        0.000000    0.000000   20.400000
AtomData: id type cartes_x cartes_y cartes_z     fx     fy     fz
           1    0   1.2280   0.7090   3.3480  0.1827  0.1054 -0.0150 
           2    0   1.2280   0.7090  10.1480  0.1827  0.1054 -0.0150 
           3    0   1.2280   0.7090  16.9480  0.1827  0.1054 -0.0150 
           4    0  -0.0040   2.8429   3.3480  0.1827  0.1054 -0.0150 
           5    0  -0.0040   2.8429  10.1480  0.1827  0.1054 -0.0150 
           6    0  -0.0040   2.8429  16.9480  0.1827  0.1054 -0.0150 
           7    0  -1.2360   4.9768   3.3480  0.1827  0.1054 -0.0150 
           8    0  -1.2360   4.9768  10.1480  0.1827  0.1054 -0.0150 
           9    0  -1.2360   4.9768  16.9480  0.1827  0.1054 -0.0150 
          10    0   3.6920   0.7090   3.3480  0.1827  0.1054 -0.0150 
          11    0   3.6920   0.7090  10.1480  0.1827  0.1054 -0.0150 
          12    0   3.6920   0.7090  16.9480  0.1827  0.1054 -0.0150 
          13    0   2.4600   2.8429   3.3480  0.1827  0.1054 -0.0150 
          14    0   2.4600   2.8429  10.1480  0.1827  0.1054 -0.0150 
          15    0   2.4600   2.8429  16.9480  0.1827  0.1054 -0.0150 
          16    0   1.2280   4.9768   3.3480  0.1827  0.1054 -0.0150 
          17    0   1.2280   4.9768  10.1480  0.1827  0.1054 -0.0150 
          18    0   1.2280   4.9768  16.9480  0.1827  0.1054 -0.0150 
          19    0   6.1560   0.7090   3.3480  0.1827  0.1054 -0.0150 
          20    0   6.1560   0.7090  10.1480  0.1827  0.1054 -0.0150 
          21    0   6.1560   0.7090  16.9480  0.1827  0.1054 -0.0150 
          22    0   4.9240   2.8429   3.3480  0.1827  0.1054 -0.0150 
          23    0   4.9240   2.8429  10.1480  0.1827  0.1054 -0.0150 
          24    0   4.9240   2.8429  16.9480  0.1827  0.1054 -0.0150 
          25    0   3.6920   4.9768   3.3480  0.1827  0.1054 -0.0150 
          26    0   3.6920   4.9768  10.1480  0.1827  0.1054 -0.0150 
          27    0   3.6920   4.9768  16.9480  0.1827  0.1054 -0.0150 
          28    0   0.0000   0.0000   3.3480 -0.1822 -0.1061 -0.0412 
          29    0   0.0000   0.0000  10.1480 -0.1822 -0.1061 -0.0412 
          30    0   0.0000   0.0000  16.9480 -0.1822 -0.1061 -0.0412 
          31    0  -1.2320   2.1339   3.3480 -0.1822 -0.1061 -0.0412 
          32    0  -1.2320   2.1339  10.1480 -0.1822 -0.1061 -0.0412 
          33    0  -1.2320   2.1339  16.9480 -0.1822 -0.1061 -0.0412 
          34    0  -2.4640   4.2678   3.3480 -0.1822 -0.1061 -0.0412 
          35    0  -2.4640   4.2678  10.1480 -0.1822 -0.1061 -0.0412 
          36    0  -2.4640   4.2678  16.9480 -0.1822 -0.1061 -0.0412 
          37    0   2.4640   0.0000   3.3480 -0.1822 -0.1061 -0.0412 
          38    0   2.4640   0.0000  10.1480 -0.1822 -0.1061 -0.0412 
          39    0   2.4640   0.0000  16.9480 -0.1822 -0.1061 -0.0412 
          40    0   1.2320   2.1339   3.3480 -0.1822 -0.1061 -0.0412 
          41    0   1.2320   2.1339  10.1480 -0.1822 -0.1061 -0.0412 
          42    0   1.2320   2.1339  16.9480 -0.1822 -0.1061 -0.0412 
          43    0   0.0000   4.2678   3.3480 -0.1822 -0.1061 -0.0412 
          44    0   0.0000   4.2678  10.1480 -0.1822 -0.1061 -0.0412 
          45    0   0.0000   4.2678  16.9480 -0.1822 -0.1061 -0.0412 
          46    0   4.9280   0.0000   3.3480 -0.1822 -0.1061 -0.0412 
          47    0   4.9280   0.0000  10.1480 -0.1822 -0.1061 -0.0412 
          48    0   4.9280   0.0000  16.9480 -0.1822 -0.1061 -0.0412 
          49    0   3.6960   2.1339   3.3480 -0.1822 -0.1061 -0.0412 
          50    0   3.6960   2.1339  10.1480 -0.1822 -0.1061 -0.0412 
          51    0   3.6960   2.1339  16.9480 -0.1822 -0.1061 -0.0412 
          52    0   2.4640   4.2678   3.3480 -0.1822 -0.1061 -0.0412 
          53    0   2.4640   4.2678  10.1480 -0.1822 -0.1061 -0.0412 
          54    0   2.4640   4.2678  16.9480 -0.1822 -0.1061 -0.0412 
          55    0  -0.0000   1.4180   0.0000 -0.0000  0.2126  0.0158 
          56    0  -0.0000   1.4180   6.8000 -0.0000  0.2126  0.0158 
          57    0  -0.0000   1.4180  13.6000 -0.0000  0.2126  0.0158 
          58    0  -1.2320   3.5519   0.0000 -0.0000  0.2126  0.0158 
          59    0  -1.2320   3.5519   6.8000 -0.0000  0.2126  0.0158 
          60    0  -1.2320   3.5519  13.6000 -0.0000  0.2126  0.0158 
          61    0  -2.4640   5.6858   0.0000 -0.0000  0.2126  0.0158 
          62    0  -2.4640   5.6858   6.8000 -0.0000  0.2126  0.0158 
          63    0  -2.4640   5.6858  13.6000 -0.0000  0.2126  0.0158 
          64    0   2.4640   1.4180   0.0000 -0.0000  0.2126  0.0158 
          65    0   2.4640   1.4180   6.8000 -0.0000  0.2126  0.0158 
          66    0   2.4640   1.4180  13.6000 -0.0000  0.2126  0.0158 
          67    0   1.2320   3.5519   0.0000 -0.0000  0.2126  0.0158 
          68    0   1.2320   3.5519   6.8000 -0.0000  0.2126  0.0158 
          69    0   1.2320   3.5519  13.6000 -0.0000  0.2126  0.0158 
          70    0  -0.0000   5.6858   0.0000 -0.0000  0.2126  0.0158 
          71    0  -0.0000   5.6858   6.8000 -0.0000  0.2126  0.0158 
          72    0  -0.0000   5.6858  13.6000 -0.0000  0.2126  0.0158 
          73    0   4.9280   1.4180   0.0000 -0.0000  0.2126  0.0158 
          74    0   4.9280   1.4180   6.8000 -0.0000  0.2126  0.0158 
          75    0   4.9280   1.4180  13.6000 -0.0000  0.2126  0.0158 
          76    0   3.6960   3.5519   0.0000 -0.0000  0.2126  0.0158 
          77    0   3.6960   3.5519   6.8000 -0.0000  0.2126  0.0158 
          78    0   3.6960   3.5519  13.6000 -0.0000  0.2126  0.0158 
          79    0   2.4640   5.6858   0.0000 -0.0000  0.2126  0.0158 
          80    0   2.4640   5.6858   6.8000 -0.0000  0.2126  0.0158 
          81    0   2.4640   5.6858  13.6000 -0.0000  0.2126  0.0158 
          82    0   0.0000   0.0000   0.0000 -0.0008 -0.2107  0.0424 
          83    0   0.0000   0.0000   6.8000 -0.0008 -0.2107  0.0424 
          84    0   0.0000   0.0000  13.6000 -0.0008 -0.2107  0.0424 
          85    0  -1.2320   2.1339   0.0000 -0.0008 -0.2107  0.0424 
          86    0  -1.2320   2.1339   6.8000 -0.0008 -0.2107  0.0424 
          87    0  -1.2320   2.1339  13.6000 -0.0008 -0.2107  0.0424 
          88    0  -2.4640   4.2678   0.0000 -0.0008 -0.2107  0.0424 
          89    0  -2.4640   4.2678   6.8000 -0.0008 -0.2107  0.0424 
          90    0  -2.4640   4.2678  13.6000 -0.0008 -0.2107  0.0424 
          91    0   2.4640   0.0000   0.0000 -0.0008 -0.2107  0.0424 
          92    0   2.4640   0.0000   6.8000 -0.0008 -0.2107  0.0424 
          93    0   2.4640   0.0000  13.6000 -0.0008 -0.2107  0.0424 
          94    0   1.2320   2.1339   0.0000 -0.0008 -0.2107  0.0424 
          95    0   1.2320   2.1339   6.8000 -0.0008 -0.2107  0.0424 
          96    0   1.2320   2.1339  13.6000 -0.0008 -0.2107  0.0424 
          97    0   0.0000   4.2678   0.0000 -0.0008 -0.2107  0.0424 
          98    0   0.0000   4.2678   6.8000 -0.0008 -0.2107  0.0424 
          99    0   0.0000   4.2678  13.6000 -0.0008 -0.2107  0.0424 
         100    0   4.9280   0.0000   0.0000 -0.0008 -0.2107  0.0424 
         101    0   4.9280   0.0000   6.8000 -0.0008 -0.2107  0.0424 
         102    0   4.9280   0.0000  13.6000 -0.0008 -0.2107  0.0424 
         103    0   3.6960   2.1339   0.0000 -0.0008 -0.2107  0.0424 
         104    0   3.6960   2.1339   6.8000 -0.0008 -0.2107  0.0424 
         105    0   3.6960   2.1339  13.6000 -0.0008 -0.2107  0.0424 
         106    0   2.4640   4.2678   0.0000 -0.0008 -0.2107  0.0424 
         107    0   2.4640   4.2678   6.8000 -0.0008 -0.2107  0.0424 
         108    0   2.4640   4.2678  13.6000 -0.0008 -0.2107  0.0424 
Energy
-16601.4212
PlusStress: xx yy zz yz xz xy
     -225.802 -226.657 114.341 0.036 -0.060 -0.729
Feature    EFS_by   siesta
END_CFG

BEGIN_CFG
Size
108
Supercell
        7.392000    0.000000    0.000000
       -3.696000    6.401660    0.000000
        0.000000    0.000000   20.400000
AtomData: id type cartes_x cartes_y cartes_z     fx     fy     fz
           1    0   1.2281   0.7090   3.3480  0.1759  0.1015 -0.0151 
           2    0   1.2281   0.7090  10.1480  0.1759  0.1015 -0.0151 
           3    0   1.2281   0.7090  16.9480  0.1759  0.1015 -0.0151 
           4    0  -0.0039   2.8429   3.3480  0.1759  0.1015 -0.0151 
           5    0  -0.0039   2.8429  10.1480  0.1759  0.1015 -0.0151 
           6    0  -0.0039   2.8429  16.9480  0.1759  0.1015 -0.0151 
           7    0  -1.2359   4.9768   3.3480  0.1759  0.1015 -0.0151 
           8    0  -1.2359   4.9768  10.1480  0.1759  0.1015 -0.0151 
           9    0  -1.2359   4.9768  16.9480  0.1759  0.1015 -0.0151 
          10    0   3.6921   0.7090   3.3480  0.1759  0.1015 -0.0151 
          11    0   3.6921   0.7090  10.1480  0.1759  0.1015 -0.0151 
          12    0   3.6921   0.7090  16.9480  0.1759  0.1015 -0.0151 
          13    0   2.4601   2.8429   3.3480  0.1759  0.1015 -0.0151 
          14    0   2.4601   2.8429  10.1480  0.1759  0.1015 -0.0151 
          15    0   2.4601   2.8429  16.9480  0.1759  0.1015 -0.0151 
          16    0   1.2281   4.9768   3.3480  0.1759  0.1015 -0.0151 
          17    0   1.2281   4.9768  10.1480  0.1759  0.1015 -0.0151 
          18    0   1.2281   4.9768  16.9480  0.1759  0.1015 -0.0151 
          19    0   6.1561   0.7090   3.3480  0.1759  0.1015 -0.0151 
          20    0   6.1561   0.7090  10.1480  0.1759  0.1015 -0.0151 
          21    0   6.1561   0.7090  16.9480  0.1759  0.1015 -0.0151 
          22    0   4.9241   2.8429   3.3480  0.1759  0.1015 -0.0151 
          23    0   4.9241   2.8429  10.1480  0.1759  0.1015 -0.0151 
          24    0   4.9241   2.8429  16.9480  0.1759  0.1015 -0.0151 
          25    0   3.6921   4.9768   3.3480  0.1759  0.1015 -0.0151 
          26    0   3.6921   4.9768  10.1480  0.1759  0.1015 -0.0151 
          27    0   3.6921   4.9768  16.9480  0.1759  0.1015 -0.0151 
          28    0  -0.0001  -0.0000   3.3480 -0.1754 -0.1021 -0.0414 
          29    0  -0.0001  -0.0000  10.1480 -0.1754 -0.1021 -0.0414 
          30    0  -0.0001  -0.0000  16.9480 -0.1754 -0.1021 -0.0414 
          31    0  -1.2321   2.1338   3.3480 -0.1754 -0.1021 -0.0414 
          32    0  -1.2321   2.1338  10.1480 -0.1754 -0.1021 -0.0414 
          33    0  -1.2321   2.1338  16.9480 -0.1754 -0.1021 -0.0414 
          34    0  -2.4641   4.2677   3.3480 -0.1754 -0.1021 -0.0414 
          35    0  -2.4641   4.2677  10.1480 -0.1754 -0.1021 -0.0414 
          36    0  -2.4641   4.2677  16.9480 -0.1754 -0.1021 -0.0414 
          37    0   2.4639  -0.0000   3.3480 -0.1754 -0.1021 -0.0414 
          38    0   2.4639  -0.0000  10.1480 -0.1754 -0.1021 -0.0414 
          39    0   2.4639  -0.0000  16.9480 -0.1754 -0.1021 -0.0414 
          40    0   1.2319   2.1338   3.3480 -0.1754 -0.1021 -0.0414 
          41    0   1.2319   2.1338  10.1480 -0.1754 -0.1021 -0.0414 
          42    0   1.2319   2.1338  16.9480 -0.1754 -0.1021 -0.0414 
          43    0  -0.0001   4.2677   3.3480 -0.1754 -0.1021 -0.0414 
          44    0  -0.0001   4.2677  10.1480 -0.1754 -0.1021 -0.0414 
          45    0  -0.0001   4.2677  16.9480 -0.1754 -0.1021 -0.0414 
          46    0   4.9279  -0.0000   3.3480 -0.1754 -0.1021 -0.0414 
          47    0   4.9279  -0.0000  10.1480 -0.1754 -0.1021 -0.0414 
          48    0   4.9279  -0.0000  16.9480 -0.1754 -0.1021 -0.0414 
          49    0   3.6959   2.1338   3.3480 -0.1754 -0.1021 -0.0414 
          50    0   3.6959   2.1338  10.1480 -0.1754 -0.1021 -0.0414 
          51    0   3.6959   2.1338  16.9480 -0.1754 -0.1021 -0.0414 
          52    0   2.4639   4.2677   3.3480 -0.1754 -0.1021 -0.0414 
          53    0   2.4639   4.2677  10.1480 -0.1754 -0.1021 -0.0414 
          54    0   2.4639   4.2677  16.9480 -0.1754 -0.1021 -0.0414 
          55    0  -0.0000   1.4181   0.0000  0.0000  0.2046  0.0159 
          56    0  -0.0000   1.4181   6.8000  0.0000  0.2046  0.0159 
          57    0  -0.0000   1.4181  13.6000  0.0000  0.2046  0.0159 
          58    0  -1.2320   3.5520   0.0000  0.0000  0.2046  0.0159 
          59    0  -1.2320   3.5520   6.8000  0.0000  0.2046  0.0159 
          60    0  -1.2320   3.5520  13.6000  0.0000  0.2046  0.0159 
          61    0  -2.4640   5.6858   0.0000  0.0000  0.2046  0.0159 
          62    0  -2.4640   5.6858   6.8000  0.0000  0.2046  0.0159 
          63    0  -2.4640   5.6858  13.6000  0.0000  0.2046  0.0159 
          64    0   2.4640   1.4181   0.0000  0.0000  0.2046  0.0159 
          65    0   2.4640   1.4181   6.8000  0.0000  0.2046  0.0159 
          66    0   2.4640   1.4181  13.6000  0.0000  0.2046  0.0159 
          67    0   1.2320   3.5520   0.0000  0.0000  0.2046  0.0159 
          68    0   1.2320   3.5520   6.8000  0.0000  0.2046  0.0159 
          69    0   1.2320   3.5520  13.6000  0.0000  0.2046  0.0159 
          70    0  -0.0000   5.6858   0.0000  0.0000  0.2046  0.0159 
          71    0  -0.0000   5.6858   6.8000  0.0000  0.2046  0.0159 
          72    0  -0.0000   5.6858  13.6000  0.0000  0.2046  0.0159 
          73    0   4.9280   1.4181   0.0000  0.0000  0.2046  0.0159 
          74    0   4.9280   1.4181   6.8000  0.0000  0.2046  0.0159 
          75    0   4.9280   1.4181  13.6000  0.0000  0.2046  0.0159 
          76    0   3.6960   3.5520   0.0000  0.0000  0.2046  0.0159 
          77    0   3.6960   3.5520   6.8000  0.0000  0.2046  0.0159 
          78    0   3.6960   3.5520  13.6000  0.0000  0.2046  0.0159 
          79    0   2.4640   5.6858   0.0000  0.0000  0.2046  0.0159 
          80    0   2.4640   5.6858   6.8000  0.0000  0.2046  0.0159 
          81    0   2.4640   5.6858  13.6000  0.0000  0.2046  0.0159 
          82    0  -0.0000  -0.0001   0.0000 -0.0008 -0.2028  0.0426 
          83    0  -0.0000  -0.0001   6.8000 -0.0008 -0.2028  0.0426 
          84    0  -0.0000  -0.0001  13.6000 -0.0008 -0.2028  0.0426 
          85    0  -1.2320   2.1338   0.0000 -0.0008 -0.2028  0.0426 
          86    0  -1.2320   2.1338   6.8000 -0.0008 -0.2028  0.0426 
          87    0  -1.2320   2.1338  13.6000 -0.0008 -0.2028  0.0426 
          88    0  -2.4640   4.2677   0.0000 -0.0008 -0.2028  0.0426 
          89    0  -2.4640   4.2677   6.8000 -0.0008 -0.2028  0.0426 
          90    0  -2.4640   4.2677  13.6000 -0.0008 -0.2028  0.0426 
          91    0   2.4640  -0.0001   0.0000 -0.0008 -0.2028  0.0426 
          92    0   2.4640  -0.0001   6.8000 -0.0008 -0.2028  0.0426 
          93    0   2.4640  -0.0001  13.6000 -0.0008 -0.2028  0.0426 
          94    0   1.2320   2.1338   0.0000 -0.0008 -0.2028  0.0426 
          95    0   1.2320   2.1338   6.8000 -0.0008 -0.2028  0.0426 
          96    0   1.2320   2.1338  13.6000 -0.0008 -0.2028  0.0426 
          97    0  -0.0000   4.2677   0.0000 -0.0008 -0.2028  0.0426 
          98    0  -0.0000   4.2677   6.8000 -0.0008 -0.2028  0.0426 
          99    0  -0.0000   4.2677  13.6000 -0.0008 -0.2028  0.0426 
         100    0   4.9280  -0.0001   0.0000 -0.0008 -0.2028  0.0426 
         101    0   4.9280  -0.0001   6.8000 -0.0008 -0.2028  0.0426 
         102    0   4.9280  -0.0001  13.6000 -0.0008 -0.2028  0.0426 
         103    0   3.6960   2.1338   0.0000 -0.0008 -0.2028  0.0426 
         104    0   3.6960   2.1338   6.8000 -0.0008 -0.2028  0.0426 
         105    0   3.6960   2.1338  13.6000 -0.0008 -0.2028  0.0426 
         106    0   2.4640   4.2677   0.0000 -0.0008 -0.2028  0.0426 
         107    0   2.4640   4.2677   6.8000 -0.0008 -0.2028  0.0426 
         108    0   2.4640   4.2677  13.6000 -0.0008 -0.2028  0.0426 
Energy
-16601.4228
PlusStress: xx yy zz yz xz xy
     -225.802 -226.621 114.353 0.036 -0.054 -0.705
Feature    EFS_by   siesta
END_CFG

BEGIN_CFG
Size
108
Supercell
        7.392000    0.000000    0.000000
       -3.696000    6.401660    0.000000
        0.000000    0.000000   20.400000
AtomData: id type cartes_x cartes_y cartes_z     fx     fy     fz
           1    0   1.2283   0.7091   3.3480  0.1559  0.0902 -0.0154 
           2    0   1.2283   0.7091  10.1480  0.1559  0.0902 -0.0154 
           3    0   1.2283   0.7091  16.9480  0.1559  0.0902 -0.0154 
           4    0  -0.0037   2.8430   3.3480  0.1559  0.0902 -0.0154 
           5    0  -0.0037   2.8430  10.1480  0.1559  0.0902 -0.0154 
           6    0  -0.0037   2.8430  16.9480  0.1559  0.0902 -0.0154 
           7    0  -1.2357   4.9769   3.3480  0.1559  0.0902 -0.0154 
           8    0  -1.2357   4.9769  10.1480  0.1559  0.0902 -0.0154 
           9    0  -1.2357   4.9769  16.9480  0.1559  0.0902 -0.0154 
          10    0   3.6923   0.7091   3.3480  0.1559  0.0902 -0.0154 
          11    0   3.6923   0.7091  10.1480  0.1559  0.0902 -0.0154 
          12    0   3.6923   0.7091  16.9480  0.1559  0.0902 -0.0154 
          13    0   2.4603   2.8430   3.3480  0.1559  0.0902 -0.0154 
          14    0   2.4603   2.8430  10.1480  0.1559  0.0902 -0.0154 
          15    0   2.4603   2.8430  16.9480  0.1559  0.0902 -0.0154 
          16    0   1.2283   4.9769   3.3480  0.1559  0.0902 -0.0154 
          17    0   1.2283   4.9769  10.1480  0.1559  0.0902 -0.0154 
          18    0   1.2283   4.9769  16.9480  0.1559  0.0902 -0.0154 
          19    0   6.1563   0.7091   3.3480  0.1559  0.0902 -0.0154 
          20    0   6.1563   0.7091  10.1480  0.1559  0.0902 -0.0154 
          21    0   6.1563   0.7091  16.9480  0.1559  0.0902 -0.0154 
          22    0   4.9243   2.8430   3.3480  0.1559  0.0902 -0.0154 
          23    0   4.9243   2.8430  10.1480  0.1559  0.0902 -0.0154 
          24    0   4.9243   2.8430  16.9480  0.1559  0.0902 -0.0154 
          25    0   3.6923   4.9769   3.3480  0.1559  0.0902 -0.0154 
          26    0   3.6923   4.9769  10.1480  0.1559  0.0902 -0.0154 
          27    0   3.6923   4.9769  16.9480  0.1559  0.0902 -0.0154 
          28    0  -0.0003  -0.0002   3.3479 -0.1557 -0.0906 -0.0416 
          29    0  -0.0003  -0.0002  10.1479 -0.1557 -0.0906 -0.0416 
          30    0  -0.0003  -0.0002  16.9479 -0.1557 -0.0906 -0.0416 
          31    0  -1.2323   2.1337   3.3479 -0.1557 -0.0906 -0.0416 
          32    0  -1.2323   2.1337  10.1479 -0.1557 -0.0906 -0.0416 
          33    0  -1.2323   2.1337  16.9479 -0.1557 -0.0906 -0.0416 
          34    0  -2.4643   4.2676   3.3479 -0.1557 -0.0906 -0.0416 
          35    0  -2.4643   4.2676  10.1479 -0.1557 -0.0906 -0.0416 
          36    0  -2.4643   4.2676  16.9479 -0.1557 -0.0906 -0.0416 
          37    0   2.4637  -0.0002   3.3479 -0.1557 -0.0906 -0.0416 
          38    0   2.4637  -0.0002  10.1479 -0.1557 -0.0906 -0.0416 
          39    0   2.4637  -0.0002  16.9479 -0.1557 -0.0906 -0.0416 
          40    0   1.2317   2.1337   3.3479 -0.1557 -0.0906 -0.0416 
          41    0   1.2317   2.1337  10.1479 -0.1557 -0.0906 -0.0416 
          42    0   1.2317   2.1337  16.9479 -0.1557 -0.0906 -0.0416 
          43    0  -0.0003   4.2676   3.3479 -0.1557 -0.0906 -0.0416 
          44    0  -0.0003   4.2676  10.1479 -0.1557 -0.0906 -0.0416 
          45    0  -0.0003   4.2676  16.9479 -0.1557 -0.0906 -0.0416 
          46    0   4.9277  -0.0002   3.3479 -0.1557 -0.0906 -0.0416 
          47    0   4.9277  -0.0002  10.1479 -0.1557 -0.0906 -0.0416 
          48    0   4.9277  -0.0002  16.9479 -0.1557 -0.0906 -0.0416 
          49    0   3.6957   2.1337   3.3479 -0.1557 -0.0906 -0.0416 
          50    0   3.6957   2.1337  10.1479 -0.1557 -0.0906 -0.0416 
          51    0   3.6957   2.1337  16.9479 -0.1557 -0.0906 -0.0416 
          52    0   2.4637   4.2676   3.3479 -0.1557 -0.0906 -0.0416 
          53    0   2.4637   4.2676  10.1479 -0.1557 -0.0906 -0.0416 
          54    0   2.4637   4.2676  16.9479 -0.1557 -0.0906 -0.0416 
          55    0  -0.0000   1.4183   0.0000  0.0002  0.1815  0.0162 
          56    0  -0.0000   1.4183   6.8000  0.0002  0.1815  0.0162 
          57    0  -0.0000   1.4183  13.6000  0.0002  0.1815  0.0162 
          58    0  -1.2320   3.5522   0.0000  0.0002  0.1815  0.0162 
          59    0  -1.2320   3.5522   6.8000  0.0002  0.1815  0.0162 
          60    0  -1.2320   3.5522  13.6000  0.0002  0.1815  0.0162 
          61    0  -2.4640   5.6861   0.0000  0.0002  0.1815  0.0162 
          62    0  -2.4640   5.6861   6.8000  0.0002  0.1815  0.0162 
          63    0  -2.4640   5.6861  13.6000  0.0002  0.1815  0.0162 
          64    0   2.4640   1.4183   0.0000  0.0002  0.1815  0.0162 
          65    0   2.4640   1.4183   6.8000  0.0002  0.1815  0.0162 
          66    0   2.4640   1.4183  13.6000  0.0002  0.1815  0.0162 
          67    0   1.2320   3.5522   0.0000  0.0002  0.1815  0.0162 
          68    0   1.2320   3.5522   6.8000  0.0002  0.1815  0.0162 
          69    0   1.2320   3.5522  13.6000  0.0002  0.1815  0.0162 
          70    0  -0.0000   5.6861   0.0000  0.0002  0.1815  0.0162 
          71    0  -0.0000   5.6861   6.8000  0.0002  0.1815  0.0162 
          72    0  -0.0000   5.6861  13.6000  0.0002  0.1815  0.0162 
          73    0   4.9280   1.4183   0.0000  0.0002  0.1815  0.0162 
          74    0   4.9280   1.4183   6.8000  0.0002  0.1815  0.0162 
          75    0   4.9280   1.4183  13.6000  0.0002  0.1815  0.0162 
          76    0   3.6960   3.5522   0.0000  0.0002  0.1815  0.0162 
          77    0   3.6960   3.5522   6.8000  0.0002  0.1815  0.0162 
          78    0   3.6960   3.5522  13.6000  0.0002  0.1815  0.0162 
          79    0   2.4640   5.6861   0.0000  0.0002  0.1815  0.0162 
          80    0   2.4640   5.6861   6.8000  0.0002  0.1815  0.0162 
          81    0   2.4640   5.6861  13.6000  0.0002  0.1815  0.0162 
          82    0  -0.0000  -0.0003   0.0001 -0.0007 -0.1798  0.0429 
          83    0  -0.0000  -0.0003   6.8001 -0.0007 -0.1798  0.0429 
          84    0  -0.0000  -0.0003  13.6001 -0.0007 -0.1798  0.0429 
          85    0  -1.2320   2.1336   0.0001 -0.0007 -0.1798  0.0429 
          86    0  -1.2320   2.1336   6.8001 -0.0007 -0.1798  0.0429 
          87    0  -1.2320   2.1336  13.6001 -0.0007 -0.1798  0.0429 
          88    0  -2.4640   4.2674   0.0001 -0.0007 -0.1798  0.0429 
          89    0  -2.4640   4.2674   6.8001 -0.0007 -0.1798  0.0429 
          90    0  -2.4640   4.2674  13.6001 -0.0007 -0.1798  0.0429 
          91    0   2.4640  -0.0003   0.0001 -0.0007 -0.1798  0.0429 
          92    0   2.4640  -0.0003   6.8001 -0.0007 -0.1798  0.0429 
          93    0   2.4640  -0.0003  13.6001 -0.0007 -0.1798  0.0429 
          94    0   1.2320   2.1336   0.0001 -0.0007 -0.1798  0.0429 
          95    0   1.2320   2.1336   6.8001 -0.0007 -0.1798  0.0429 
          96    0   1.2320   2.1336  13.6001 -0.0007 -0.1798  0.0429 
          97    0  -0.0000   4.2674   0.0001 -0.0007 -0.1798  0.0429 
          98    0  -0.0000   4.2674   6.8001 -0.0007 -0.1798  0.0429 
          99    0  -0.0000   4.2674  13.6001 -0.0007 -0.1798  0.0429 
         100    0   4.9280  -0.0003   0.0001 -0.0007 -0.1798  0.0429 
         101    0   4.9280  -0.0003   6.8001 -0.0007 -0.1798  0.0429 
         102    0   4.9280  -0.0003  13.6001 -0.0007 -0.1798  0.0429 
         103    0   3.6960   2.1336   0.0001 -0.0007 -0.1798  0.0429 
         104    0   3.6960   2.1336   6.8001 -0.0007 -0.1798  0.0429 
         105    0   3.6960   2.1336  13.6001 -0.0007 -0.1798  0.0429 
         106    0   2.4640   4.2674   0.0001 -0.0007 -0.1798  0.0429 
         107    0   2.4640   4.2674   6.8001 -0.0007 -0.1798  0.0429 
         108    0   2.4640   4.2674  13.6001 -0.0007 -0.1798  0.0429 
Energy
-16601.4271
PlusStress: xx yy zz yz xz xy
     -225.838 -226.579 114.359 0.030 -0.036 -0.639
Feature    EFS_by   siesta
END_CFG

BEGIN_CFG
Size
108
Supercell
        7.392000    0.000000    0.000000
       -3.696000    6.401660    0.000000
        0.000000    0.000000   20.400000
AtomData: id type cartes_x cartes_y cartes_z     fx     fy     fz
           1    0   1.2286   0.7093   3.3479  0.1242  0.0721 -0.0158 
           2    0   1.2286   0.7093  10.1479  0.1242  0.0721 -0.0158 
           3    0   1.2286   0.7093  16.9479  0.1242  0.0721 -0.0158 
           4    0  -0.0034   2.8432   3.3479  0.1242  0.0721 -0.0158 
           5    0  -0.0034   2.8432  10.1479  0.1242  0.0721 -0.0158 
           6    0  -0.0034   2.8432  16.9479  0.1242  0.0721 -0.0158 
           7    0  -1.2354   4.9771   3.3479  0.1242  0.0721 -0.0158 
           8    0  -1.2354   4.9771  10.1479  0.1242  0.0721 -0.0158 
           9    0  -1.2354   4.9771  16.9479  0.1242  0.0721 -0.0158 
          10    0   3.6926   0.7093   3.3479  0.1242  0.0721 -0.0158 
          11    0   3.6926   0.7093  10.1479  0.1242  0.0721 -0.0158 
          12    0   3.6926   0.7093  16.9479  0.1242  0.0721 -0.0158 
          13    0   2.4606   2.8432   3.3479  0.1242  0.0721 -0.0158 
          14    0   2.4606   2.8432  10.1479  0.1242  0.0721 -0.0158 
          15    0   2.4606   2.8432  16.9479  0.1242  0.0721 -0.0158 
          16    0   1.2286   4.9771   3.3479  0.1242  0.0721 -0.0158 
          17    0   1.2286   4.9771  10.1479  0.1242  0.0721 -0.0158 
          18    0   1.2286   4.9771  16.9479  0.1242  0.0721 -0.0158 
          19    0   6.1566   0.7093   3.3479  0.1242  0.0721 -0.0158 
          20    0   6.1566   0.7093  10.1479  0.1242  0.0721 -0.0158 
          21    0   6.1566   0.7093  16.9479  0.1242  0.0721 -0.0158 
          22    0   4.9246   2.8432   3.3479  0.1242  0.0721 -0.0158 
          23    0   4.9246   2.8432  10.1479  0.1242  0.0721 -0.0158 
          24    0   4.9246   2.8432  16.9479  0.1242  0.0721 -0.0158 
          25    0   3.6926   4.9771   3.3479  0.1242  0.0721 -0.0158 
          26    0   3.6926   4.9771  10.1479  0.1242  0.0721 -0.0158 
          27    0   3.6926   4.9771  16.9479  0.1242  0.0721 -0.0158 
          28    0  -0.0006  -0.0004   3.3479 -0.1242 -0.0724 -0.0419 
          29    0  -0.0006  -0.0004  10.1479 -0.1242 -0.0724 -0.0419 
          30    0  -0.0006  -0.0004  16.9479 -0.1242 -0.0724 -0.0419 
          31    0  -1.2326   2.1335   3.3479 -0.1242 -0.0724 -0.0419 
          32    0  -1.2326   2.1335  10.1479 -0.1242 -0.0724 -0.0419 
          33    0  -1.2326   2.1335  16.9479 -0.1242 -0.0724 -0.0419 
          34    0  -2.4646   4.2674   3.3479 -0.1242 -0.0724 -0.0419 
          35    0  -2.4646   4.2674  10.1479 -0.1242 -0.0724 -0.0419 
          36    0  -2.4646   4.2674  16.9479 -0.1242 -0.0724 -0.0419 
          37    0   2.4634  -0.0004   3.3479 -0.1242 -0.0724 -0.0419 
          38    0   2.4634  -0.0004  10.1479 -0.1242 -0.0724 -0.0419 
          39    0   2.4634  -0.0004  16.9479 -0.1242 -0.0724 -0.0419 
          40    0   1.2314   2.1335   3.3479 -0.1242 -0.0724 -0.0419 
          41    0   1.2314   2.1335  10.1479 -0.1242 -0.0724 -0.0419 
          42    0   1.2314   2.1335  16.9479 -0.1242 -0.0724 -0.0419 
          43    0  -0.0006   4.2674   3.3479 -0.1242 -0.0724 -0.0419 
          44    0  -0.0006   4.2674  10.1479 -0.1242 -0.0724 -0.0419 
          45    0  -0.0006   4.2674  16.9479 -0.1242 -0.0724 -0.0419 
          46    0   4.9274  -0.0004   3.3479 -0.1242 -0.0724 -0.0419 
          47    0   4.9274  -0.0004  10.1479 -0.1242 -0.0724 -0.0419 
          48    0   4.9274  -0.0004  16.9479 -0.1242 -0.0724 -0.0419 
          49    0   3.6954   2.1335   3.3479 -0.1242 -0.0724 -0.0419 
          50    0   3.6954   2.1335  10.1479 -0.1242 -0.0724 -0.0419 
          51    0   3.6954   2.1335  16.9479 -0.1242 -0.0724 -0.0419 
          52    0   2.4634   4.2674   3.3479 -0.1242 -0.0724 -0.0419 
          53    0   2.4634   4.2674  10.1479 -0.1242 -0.0724 -0.0419 
          54    0   2.4634   4.2674  16.9479 -0.1242 -0.0724 -0.0419 
          55    0  -0.0000   1.4187   0.0001  0.0004  0.1449  0.0166 
          56    0  -0.0000   1.4187   6.8001  0.0004  0.1449  0.0166 
          57    0  -0.0000   1.4187  13.6001  0.0004  0.1449  0.0166 
          58    0  -1.2320   3.5526   0.0001  0.0004  0.1449  0.0166 
          59    0  -1.2320   3.5526   6.8001  0.0004  0.1449  0.0166 
          60    0  -1.2320   3.5526  13.6001  0.0004  0.1449  0.0166 
          61    0  -2.4640   5.6865   0.0001  0.0004  0.1449  0.0166 
          62    0  -2.4640   5.6865   6.8001  0.0004  0.1449  0.0166 
          63    0  -2.4640   5.6865  13.6001  0.0004  0.1449  0.0166 
          64    0   2.4640   1.4187   0.0001  0.0004  0.1449  0.0166 
          65    0   2.4640   1.4187   6.8001  0.0004  0.1449  0.0166 
          66    0   2.4640   1.4187  13.6001  0.0004  0.1449  0.0166 
          67    0   1.2320   3.5526   0.0001  0.0004  0.1449  0.0166 
          68    0   1.2320   3.5526   6.8001  0.0004  0.1449  0.0166 
          69    0   1.2320   3.5526  13.6001  0.0004  0.1449  0.0166 
          70    0  -0.0000   5.6865   0.0001  0.0004  0.1449  0.0166 
          71    0  -0.0000   5.6865   6.8001  0.0004  0.1449  0.0166 
          72    0  -0.0000   5.6865  13.6001  0.0004  0.1449  0.0166 
          73    0   4.9280   1.4187   0.0001  0.0004  0.1449  0.0166 
          74    0   4.9280   1.4187   6.8001  0.0004  0.1449  0.0166 
          75    0   4.9280   1.4187  13.6001  0.0004  0.1449  0.0166 
          76    0   3.6960   3.5526   0.0001  0.0004  0.1449  0.0166 
          77    0   3.6960   3.5526   6.8001  0.0004  0.1449  0.0166 
          78    0   3.6960   3.5526  13.6001  0.0004  0.1449  0.0166 
          79    0   2.4640   5.6865   0.0001  0.0004  0.1449  0.0166 
          80    0   2.4640   5.6865   6.8001  0.0004  0.1449  0.0166 
          81    0   2.4640   5.6865  13.6001  0.0004  0.1449  0.0166 
          82    0  -0.0000  -0.0007   0.0002 -0.0006 -0.1435  0.0431 
          83    0  -0.0000  -0.0007   6.8002 -0.0006 -0.1435  0.0431 
          84    0  -0.0000  -0.0007  13.6002 -0.0006 -0.1435  0.0431 
          85    0  -1.2320   2.1332   0.0002 -0.0006 -0.1435  0.0431 
          86    0  -1.2320   2.1332   6.8002 -0.0006 -0.1435  0.0431 