BEGIN_CFG
Size
171
Supercell
       12.948390    0.000000    0.000000
       -6.474196   11.213634    0.000000
        0.000000    0.000000   11.099581
AtomData: id type cartes_x cartes_y cartes_z     fx     fy     fz
           1    0  -5.2192  10.3642  11.0696  0.3003  0.1237  0.9639 
           2    0  -0.8030   2.8729  11.0658 -0.1300  0.1967  0.6871 
           3    0  -3.0918   6.6427   0.0692  0.3141 -0.0046 -1.0368 
           4    0  -0.8285  10.3009   0.0037  0.3112  0.2838 -0.1865 
           5    0   3.3521   2.9507  11.0857  0.1990 -0.1017 -0.2492 
           6    0   1.3927   6.6647   0.0779 -0.3276  0.0026 -1.1998 
           7    0   3.4862  10.2823   0.0201 -0.0951  0.4199 -0.3791 
           8    0   7.7657   2.9660  11.0862  0.1010 -0.2564  0.6461 
           9    0   5.4953   6.4473   0.0680  0.5202  0.5224 -0.8718 
          10    1   0.5580   0.3644   1.8934 -1.0223  2.2472  0.3282 
          11    1  -1.5519   4.0950   1.9150 -0.9036  4.4302  0.4069 
          12    1  -3.7379   7.8832   1.8427 -1.3326  2.4443  0.8073 
          13    1   4.8875   0.4444   1.8123 -1.4015  0.0164  0.0487 
          14    1   2.7327   4.1867   1.8445 -1.3760 -0.8978  0.4987 
          15    1   0.5836   7.9780   1.9043 -0.6079 -2.5876  0.2566 
          16    1   9.1850   0.3916   1.8905 -2.6611  1.7178  0.5881 
          17    1   7.0679   4.1725   1.9333 -2.8890 -1.0998 -0.0958 
          18    1   4.8641   7.9006   1.8264  0.2956  0.7995  0.6248 
          19    1  -0.1597   1.6609   9.2656  3.3634 -2.8797 -0.7540 
          20    1  -2.2405   5.3825   9.2235 -0.5001  2.2213  0.0829 
          21    1  -4.3895   9.1212   9.2394 -0.6747 -0.6405  0.1199 
          22    1   4.2735   1.6737   9.1455 -1.3980  0.1641  0.4987 
          23    1   2.0639   5.3764   9.1325 -0.0381  0.2306  0.1195 
          24    1  -0.0692   9.1029   9.1188 -1.1306  1.2741  0.2852 
          25    1   8.5104   1.6228   9.2833  0.2799  0.3888 -0.5809 
          26    1   6.3754   5.4037   9.1898 -1.3166 -3.0825  0.0465 
          27    1   4.2202   9.1127   9.2520 -1.0430  1.9571 -0.7512 
          28    1   2.7239   1.6560   1.8432 -0.7180  0.6533  0.4097 
          29    1   0.5207   5.4160   1.8926  0.2602  0.2620  0.3469 
          30    1  -1.5867   9.1781   1.8742 -0.4758 -2.0819  0.4683 
          31    1   7.0171   1.7119   1.8613 -0.3222 -0.9609  0.4173 
          32    1   4.8999   5.4125   1.8784  0.0723  0.9813  0.5757 
          33    1   2.6975   9.1557   1.8527 -2.8442  0.6044  1.0331 
          34    1  11.3238   1.6433   1.8822  0.4063  1.1379 -0.0218 
          35    1   9.2362   5.4020   1.8778  0.2173 -0.7385  1.0427 
          36    1   7.0451   9.1034   1.8968 -0.7385  2.3173  0.0541 
          37    1   2.0713   0.3941   9.2677  2.1387  0.3106 -0.1313 
          38    1  -0.0730   4.1409   9.2530 -0.9577 -1.6947 -0.5371 
          39    1  -2.2499   7.8837   9.2096 -0.5576 -0.0684 -0.0679 
          40    1   6.4021   0.3904   9.1682 -1.9272 -0.2292 -0.0887 
          41    1   4.2100   4.1433   9.2192  0.1542 -0.0959 -0.3947 
          42    1   2.0777   7.8822   9.2089 -2.1505 -1.4850 -0.3764 
          43    1  10.6316   0.3952   9.2094  0.8920 -1.1368 -0.3249 
          44    1   8.5435   4.1548   9.2457  1.0266 -2.1853  0.2241 
          45    1   6.3827   7.8961   9.2644 -0.9408 -1.4323  0.0128 
          46    1  -3.7719  10.4248   1.8691  2.0210 -2.6185  0.2517 
          47    1   0.5717   2.9246   1.9014  0.2796 -3.1763  0.4218 
          48    1  -1.5935   6.6787   1.8589  1.0155  0.1576  0.6117 
          49    1   0.5198  10.4347   1.9779  0.0079 -0.2143  0.4143 
          50    1   4.8628   2.9445   1.8342 -0.5138 -1.0786 -0.3336 
          51    1   2.6688   6.6643   1.9146  3.1890 -0.7214  0.3591 
          52    1   4.8718  10.3270   1.9415 -2.4276  2.8840 -0.3766 
          53    1   9.1805   2.9050   1.9058  0.8197  0.9969  0.4596 
          54    1   7.0916   6.6764   1.8993 -2.5225 -1.7524  0.2029 
          55    1  -2.2313  10.3810   9.2292  1.1208  0.0949  0.1433 
          56    1   2.0695   2.8805   9.1636 -0.9544 -0.3250 -0.2409 
          57    1  -0.0988   6.6231   9.2270  1.8974 -0.8048 -0.2496 
          58    1   2.0300  10.3234   9.2063  1.5110  1.7985 -0.5041 
          59    1   6.4170   2.9069   9.2572 -1.5795 -0.6937 -0.5695 
          60    1   4.1611   6.6344   9.2775  3.6579 -0.5386 -0.7202 
          61    1   6.3724  10.3910   9.2935  0.6497 -1.1428 -0.6439 
          62    1  10.6295   2.8865   9.2934  5.2860  0.4119 -0.3643 
          63    1   8.5157   6.6110   9.1539  0.5639 -0.6981  0.5679 
          64    1  -0.1901   1.6682   1.8714  1.8490 -1.7764  0.4875 
          65    1  -2.2537   5.4175   1.9422 -0.8074 -2.1686 -0.2023 
          66    1  -4.4985   9.1758   1.8725  2.5119 -2.0515  0.2394 
          67    1   4.1350   1.6891   1.7197  1.5788 -0.6444  0.8612 
          68    1   1.9629   5.4244   1.8829  0.4333 -1.4197  0.5315 
          69    1  -0.1604   9.1769   1.9524 -0.4542  0.6306  0.1441 
          70    1   8.4375   1.6686   1.9377  1.7703 -0.2798 -0.1458 
          71    1   6.3537   5.3977   1.8928 -0.3949  2.1068  0.6002 
          72    1   4.0772   9.1385   1.8893  4.0269 -0.7163  0.3146 
          73    1   0.6509   0.3839   9.2438 -1.6118  2.6662 -0.1858 
          74    1  -1.5153   4.1822   9.2540 -0.9281 -3.5648 -0.0478 
          75    1  -3.7094   7.8499   9.1999  0.8811  0.3989 -0.3222 
          76    1   4.9543   0.4351   9.2532  0.9143 -1.8960 -0.7395 
          77    1   2.7778   4.1253   9.1662 -0.1848  0.6892 -0.4760 
          78    1   0.6181   7.8628   9.1719  1.4198 -0.1383 -0.1850 
          79    1   9.1905   0.3809   9.1929  1.6199 -0.6534  0.1109 
          80    1   7.1443   4.1511   9.2581 -2.3903  0.4639 -0.7371 
          81    1   4.9087   7.8831   9.2697  1.6020 -1.1345 -0.0428 
          82    1   2.0136   0.4189   1.9546 -2.1959  0.8205 -0.3131 
          83    1  -0.1380   4.1153   1.9401 -0.2128  3.1570 -0.0199 
          84    1  -2.3191   7.9169   1.8760  0.5634  0.5776  0.0952 
          85    1   6.3091   0.4658   1.8951 -0.6412  0.1518  0.0664 
          86    1   4.1770   4.1886   1.8101 -1.2146  0.1742  0.5809 
          87    1   2.0171   7.9036   1.9219 -1.4239  1.5875  0.2027 
          88    1  10.5865   0.4268   1.8344  2.4542 -2.6199  0.7496 
          89    1   8.4580   4.1847   1.9474  3.1801 -1.3113 -0.0194 
          90    1   6.3339   7.9080   1.8647 -1.5292 -1.9405  0.1023 
          91    1   2.8351   1.6666   9.2315 -1.3520 -1.7434 -0.5679 
          92    1   0.6365   5.3492   9.2348  0.1916  2.5203 -0.3939 
          93    1  -1.5167   9.1195   9.2669  0.2020  0.3988 -1.0255 
          94    1   7.0887   1.6118   9.1878  0.4120  2.7816  0.2227 
          95    1   4.9240   5.3776   9.1852 -0.0633  1.3458  0.0902 
          96    1   2.7458   9.1059   9.2084  2.9469  0.6496 -0.1034 
          97    1  11.3939   1.5996   9.2764 -2.5833  2.6287 -0.2866 
          98    1   9.2567   5.3615   9.3263  0.9849  2.0194 -1.2667 
          99    1   7.1108   9.1327   9.3226 -0.3328 -0.1272 -0.7989 
         100    1  -2.3097  10.3820   1.8325 -1.0778  2.3783  0.3236 
         101    1   1.9982   2.8910   1.9135  1.2085  1.9072 -0.0921 
         102    1  -0.1551   6.7142   1.8604  0.3682 -0.6867  0.4589 
         103    1   1.9214  10.4071   1.9947  3.0161 -1.0530 -0.4731 
         104    1   6.2745   2.9281   1.8285  2.0148  1.3319  0.6040 
         105    1   4.1543   6.6741   1.9012 -1.0698 -1.5206  0.2745 
         106    1   6.2758  10.3357   1.8561  1.9621  0.6326  0.6755 
         107    1  10.6489   2.9337   1.8999 -2.8081 -2.9743  0.1309 
         108    1   8.5024   6.6301   1.9220  0.8395  1.1354  0.0380 
         109    1  -3.6417  10.3330   9.3177 -1.8081  1.9763 -0.5859 
         110    1   0.6089   2.8571   9.1881  0.7319  1.5062 -0.0357 
         111    1  -1.4992   6.6607   9.1874 -2.5648 -1.6441  0.0375 
         112    1   0.6444  10.3817   9.1403 -2.2370 -2.1587 -0.2077 
         113    1   4.9514   2.9223   9.2287  1.9648 -0.0796 -0.3775 
         114    1   2.7747   6.6380   9.1778 -1.7712 -0.7549 -0.0939 
         115    1   4.9578  10.3879   9.1592 -2.4139 -0.9847  0.3912 
         116    1   9.2607   2.8644   9.3144 -3.1105  0.9480 -0.4760 
         117    1   7.0738   6.5932   9.2359  1.0297  3.8013 -0.3824 
         118    1   9.4932   2.9860   5.5846 -2.7263  1.6410 -0.1049 
         119    1   7.3591   6.6940   5.5300 -1.6871  2.8330  0.5323 
         120    1   5.1710  10.4363   5.5794  0.1026  3.8647  0.0756 
         121    1   0.8421   2.9875   5.5656 -0.6554  2.6499  0.3462 
         122    1  -1.2639   6.7085   5.4783 -1.6936  2.4454  0.0602 
         123    1  -3.4913  10.4500   5.4587  1.5242  0.7441 -0.0720 
         124    1   5.1596   2.9736   5.4542  0.8056  3.1380  0.0940 
         125    1   3.0161   6.7281   5.5781 -0.4003  2.9712 -0.1998 
         126    1   0.8784  10.4675   5.5586 -0.7900  0.7518  0.1075 
         127    1   8.7431   4.2977   5.5390  1.7392 -4.7784  0.2267 
         128    1   6.5950   7.9940   5.5724  1.2137 -2.6531 -0.4183 
         129    1  10.8966   0.5133   5.6259  1.9218 -0.8424 -0.1610 
         130    1   0.1302   4.2984   5.6242  0.7279 -2.5031 -0.3954 
         131    1  -2.0406   7.9883   5.4866  1.8205 -2.6553 -0.1086 
         132    1   2.2723   0.4962   5.4474 -0.1357  0.1441  0.0364 
         133    1   4.4264   4.2790   5.4768  0.0488 -2.9918 -0.5286 
         134    1   2.2744   8.0399   5.5167  1.0034 -4.0912  0.2159 
         135    1   6.5798   0.5263   5.5943  2.7891 -1.8678  0.0427 
         136    1  -1.2994   4.2565   5.5599 -0.0827 -0.7222  0.1296 
         137    1  -3.4524   7.9541   5.4711 -0.2246 -0.8948  0.1068 
         138    1   0.8417   0.5386   5.4961 -0.9631 -1.7139 -0.0730 
         139    1   2.9863   4.2580   5.4460  0.9492 -1.6710  0.4930 
         140    1   0.8557   8.0270   5.4368  0.0902 -3.2808  0.2385 
         141    1   5.1847   0.4943   5.4896 -2.2790 -1.0550 -0.0050 
         142    1   7.3470   4.2541   5.5165 -3.5307  0.7165  0.5240 
         143    1   5.1645   7.9874   5.6279  0.3051 -0.6773 -0.1050 
         144    1   9.4847   0.5263   5.6197  0.3345 -3.9084  0.0212 
         145    1  10.8906   2.9919   5.5915  1.4608  2.2914 -0.0755 
         146    1   8.7862   6.6811   5.5257 -0.1978  1.7864 -0.1997 
         147    1   6.5933  10.4548   5.4991  1.6539  0.6892 -0.2280 
         148    1   2.2631   2.9764   5.5263  1.0423  1.1027 -0.3833 
         149    1   0.1496   6.7179   5.5039  0.9660  2.5963 -0.3534 
         150    1  -2.0479  10.4222   5.5132  0.1706  3.2440 -0.2239 
         151    1   6.6078   2.9754   5.5298  0.2298  1.6746 -0.0170 
         152    1   4.4458   6.7206   5.5919 -0.8292  2.2209  0.0265 
         153    1   2.3189  10.4310   5.5611 -1.3741  3.5728  0.3084 
         154    1  11.5837   1.7779   5.5923  2.7093 -2.0808  0.1838 
         155    1   9.4929   5.4632   5.5618  2.2203  1.8156 -0.2737 
         156    1   7.3229   9.1936   5.4239  1.5930  1.9150  0.4419 
         157    1   2.9776   1.7405   5.4700  2.6318  0.0577 -0.3135 
         158    1   0.8759   5.5145   5.5549  0.6453 -0.7223  0.2042 
         159    1  -1.3389   9.2147   5.5218  2.8688 -0.2900 -0.0045 
         160    1   7.3201   1.7527   5.6430  1.3066 -0.4224 -0.3527 
         161    1   5.1270   5.5044   5.4859  2.0993 -0.4314  0.6922 
         162    1   3.0048   9.2228   5.6083  2.9897  0.2499 -0.1578 
         163    1   0.1211   1.7816   5.5646 -1.9048 -1.2575 -0.0131 
         164    1  -1.9888   5.4995   5.5107 -1.7271 -1.0583  0.1755 
         165    1  -4.1262   9.1987   5.4719 -4.0549 -0.3444 -0.4593 
         166    1   4.4881   1.7516   5.4209 -3.6240 -1.5727  0.1883 
         167    1   2.3350   5.5028   5.5600 -2.4363 -0.2077 -0.2539 
         168    1   0.1613   9.2227   5.5215 -3.1126  2.0998 -0.1596 
         169    1   8.8032   1.7221   5.6194 -3.1626  3.0276  0.1677 
         170    1   6.5779   5.5249   5.6354  0.8255 -3.0650 -1.0337 
         171    1   4.4862   9.2405   5.6009 -3.0981 -2.4266  0.3269 
Energy
-24920.9205
PlusStress: xx yy zz yz xz xy
     -255.913 -246.890 133.363 0.372 -3.098 -9.013
Feature    EFS_by   siesta
END_CFG

BEGIN_CFG
Size
171
Supercell
       12.948390    0.000000    0.000000
       -6.474196   11.213634    0.000000
        0.000000    0.000000   11.099581
AtomData: id type cartes_x cartes_y cartes_z     fx     fy     fz
           1    0  -5.2190  10.3643  11.0703  0.2993  0.1235  0.9534 
           2    0  -0.8031   2.8730  11.0663 -0.1269  0.1950  0.6878 
           3    0  -3.0916   6.6427   0.0685  0.3139 -0.0027 -1.0197 
           4    0  -0.8283  10.3011   0.0035  0.3095  0.2811 -0.1805 
           5    0   3.3522   2.9507  11.0855  0.1994 -0.1014 -0.2490 
           6    0   1.3925   6.6647   0.0771 -0.3243  0.0022 -1.1834 
           7    0   3.4862  10.2826   0.0198 -0.0969  0.4166 -0.3711 
           8    0   7.7657   2.9658  11.0866  0.0994 -0.2545  0.6414 
           9    0   5.4957   6.4476   0.0674  0.5186  0.5214 -0.8619 
          10    1   0.5576   0.3653   1.8936 -1.0056  2.1873  0.3298 
          11    1  -1.5522   4.0967   1.9152 -0.9359  4.2427  0.4041 
          12    1  -3.7385   7.8842   1.8430 -1.2806  2.3635  0.7999 
          13    1   4.8870   0.4444   1.8123 -1.3710  0.0127  0.0512 
          14    1   2.7321   4.1864   1.8447 -1.3421 -0.8666  0.4949 
          15    1   0.5834   7.9769   1.9044 -0.6214 -2.5131  0.2584 
          16    1   9.1839   0.3923   1.8907 -2.5235  1.6791  0.5801 
          17    1   7.0668   4.1720   1.9332 -2.7433 -1.0366 -0.0893 
          18    1   4.8642   7.9009   1.8267  0.2790  0.7416  0.6229 
          19    1  -0.1583   1.6598   9.2653  3.2420 -2.7776 -0.7503 
          20    1  -2.2407   5.3834   9.2235 -0.4622  2.1021  0.0821 
          21    1  -4.3897   9.1210   9.2395 -0.6574 -0.6190  0.1181 
          22    1   4.2729   1.6737   9.1457 -1.3476  0.1327  0.4995 
          23    1   2.0639   5.3765   9.1326 -0.0353  0.2193  0.1172 
          24    1  -0.0696   9.1034   9.1189 -1.1001  1.1993  0.2812 
          25    1   8.5105   1.6229   9.2831  0.2933  0.3778 -0.5822 
          26    1   6.3749   5.4025   9.1898 -1.2357 -2.9126  0.0463 
          27    1   4.2198   9.1135   9.2517 -0.9810  1.8465 -0.7457 
          28    1   2.7236   1.6562   1.8434 -0.6895  0.6395  0.4080 
          29    1   0.5208   5.4161   1.8928  0.2870  0.2747  0.3437 
          30    1  -1.5869   9.1773   1.8744 -0.4855 -1.9785  0.4638 
          31    1   7.0170   1.7115   1.8615 -0.2922 -0.9277  0.4184 
          32    1   4.9000   5.4129   1.8786  0.0481  0.9483  0.5735 
          33    1   2.6964   9.1559   1.8531 -2.6649  0.5884  1.0279 
          34    1  11.3239   1.6437   1.8822  0.3991  1.0746 -0.0214 
          35    1   9.2363   5.4017   1.8782  0.2033 -0.7002  1.0356 
          36    1   7.0448   9.1043   1.8968 -0.7124  2.2154  0.0566 
          37    1   2.0722   0.3943   9.2676  2.0442  0.3051 -0.1315 
          38    1  -0.0733   4.1402   9.2528 -0.9205 -1.5973 -0.5356 
          39    1  -2.2501   7.8837   9.2095 -0.5297 -0.0652 -0.0687 
          40    1   6.4013   0.3903   9.1681 -1.8296 -0.1964 -0.0911 
          41    1   4.2101   4.1433   9.2191  0.1615 -0.0890 -0.3957 
          42    1   2.0768   7.8816   9.2087 -2.0537 -1.4052 -0.3749 
          43    1  10.6320   0.3947   9.2092  0.8944 -1.0818 -0.3235 
          44    1   8.5439   4.1540   9.2457  0.9802 -2.0843  0.2216 
          45    1   6.3823   7.8955   9.2644 -0.9077 -1.3731  0.0115 
          46    1  -3.7711  10.4238   1.8692  1.9227 -2.5017  0.2576 
          47    1   0.5718   2.9233   1.9015  0.2448 -3.0361  0.4258 
          48    1  -1.5931   6.6788   1.8592  0.9682  0.1336  0.6106 
          49    1   0.5198  10.4346   1.9781  0.0307 -0.2035  0.4131 
          50    1   4.8626   2.9441   1.8341 -0.4861 -1.0318 -0.3297 
          51    1   2.6701   6.6641   1.9147  3.0760 -0.6876  0.3556 
          52    1   4.8708  10.3282   1.9414 -2.3105  2.8160 -0.3739 
          53    1   9.1809   2.9054   1.9060  0.7848  0.9467  0.4590 
          54    1   7.0906   6.6757   1.8994 -2.4207 -1.6973  0.2047 
          55    1  -2.2309  10.3811   9.2292  1.0526  0.0727  0.1419 
          56    1   2.0691   2.8804   9.1635 -0.9108 -0.3105 -0.2397 
          57    1  -0.0980   6.6228   9.2269  1.7969 -0.7614 -0.2536 
          58    1   2.0306  10.3241   9.2061  1.4491  1.7324 -0.5070 
          59    1   6.4164   2.9066   9.2570 -1.5206 -0.6587 -0.5673 
          60    1   4.1625   6.6342   9.2772  3.5023 -0.5105 -0.7249 
          61    1   6.3727  10.3906   9.2932  0.6139 -1.0987 -0.6474 
          62    1  10.6316   2.8867   9.2932  5.0380  0.4076 -0.3617 
          63    1   8.5159   6.6107   9.1541  0.5538 -0.6506  0.5596 
          64    1  -0.1894   1.6675   1.8716  1.7954 -1.7269  0.4855 
          65    1  -2.2540   5.4167   1.9421 -0.7898 -2.0671 -0.2022 
          66    1  -4.4975   9.1750   1.8726  2.4214 -1.9994  0.2415 
          67    1   4.1356   1.6889   1.7201  1.5177 -0.6301  0.8580 
          68    1   1.9630   5.4238   1.8831  0.4369 -1.3647  0.5306 
          69    1  -0.1606   9.1772   1.9524 -0.4348  0.5814  0.1454 
          70    1   8.4382   1.6685   1.9377  1.7056 -0.2529 -0.1438 
          71    1   6.3536   5.3986   1.8930 -0.3996  2.0172  0.5975 
          72    1   4.0788   9.1382   1.8894  3.8500 -0.6868  0.3111 
          73    1   0.6503   0.3849   9.2437 -1.5472  2.5639 -0.1830 
          74    1  -1.5156   4.1808   9.2540 -0.9309 -3.4398 -0.0541 
          75    1  -3.7090   7.8501   9.1998  0.8540  0.3972 -0.3225 
          76    1   4.9547   0.4344   9.2529  0.8513 -1.8134 -0.7419 
          77    1   2.7777   4.1256   9.1661 -0.1811  0.6550 -0.4749 
          78    1   0.6186   7.8627   9.1718  1.3434 -0.1146 -0.1876 
          79    1   9.1912   0.3807   9.1930  1.5808 -0.6096  0.1097 
          80    1   7.1433   4.1513   9.2578 -2.3201  0.4288 -0.7304 
          81    1   4.9093   7.8827   9.2697  1.5442 -1.0614 -0.0457 
          82    1   2.0127   0.4193   1.9545 -2.1094  0.7557 -0.3149 
          83    1  -0.1380   4.1166   1.9401 -0.1915  3.0126 -0.0203 
          84    1  -2.3189   7.9172   1.8761  0.5397  0.5392  0.0959 
          85    1   6.3089   0.4658   1.8951 -0.6268  0.1265  0.0685 
          86    1   4.1765   4.1887   1.8104 -1.1758  0.1572  0.5824 
          87    1   2.0165   7.9042   1.9219 -1.3784  1.4912  0.2031 
          88    1  10.5875   0.4257   1.8347  2.3493 -2.5224  0.7496 
          89    1   8.4592   4.1841   1.9474  3.0214 -1.2810 -0.0169 
          90    1   6.3332   7.9072   1.8648 -1.4713 -1.8547  0.1063 
          91    1   2.8345   1.6659   9.2313 -1.3310 -1.6869 -0.5702 
          92    1   0.6365   5.3502   9.2347  0.1520  2.4009 -0.3935 
          93    1  -1.5166   9.1196   9.2665  0.1772  0.3799 -1.0196 
          94    1   7.0889   1.6129   9.1879  0.3734  2.6694  0.2174 
          95    1   4.9240   5.3781   9.1852 -0.0633  1.2834  0.0845 
          96    1   2.7469   9.1061   9.2083  2.8321  0.6141 -0.1082 
          97    1  11.3928   1.6007   9.2763 -2.4492  2.5464 -0.2907 
          98    1   9.2570   5.3623   9.3258  0.9342  1.9250 -1.2620 
          99    1   7.1106   9.1326   9.3223 -0.3375 -0.1422 -0.7955 
         100    1  -2.3101  10.3829   1.8327 -1.0103  2.2821  0.3252 
         101    1   1.9987   2.8918   1.9135  1.1686  1.8483 -0.0891 
         102    1  -0.1550   6.7140   1.8606  0.3544 -0.6926  0.4598 
         103    1   1.9226  10.4067   1.9945  2.9130 -1.0150 -0.4663 
         104    1   6.2753   2.9286   1.8287  1.9456  1.2761  0.6008 
         105    1   4.1538   6.6735   1.9013 -1.0129 -1.4658  0.2714 
         106    1   6.2766  10.3360   1.8564  1.8737  0.6566  0.6758 
         107    1  10.6477   2.9325   1.9000 -2.6632 -2.8240  0.1320 
         108    1   8.5028   6.6305   1.9221  0.7880  1.1106  0.0389 
         109    1  -3.6424  10.3338   9.3175 -1.7437  1.9232 -0.5866 
         110    1   0.6092   2.8577   9.1881  0.6997  1.4354 -0.0362 
         111    1  -1.5002   6.6601   9.1875 -2.4512 -1.5924  0.0374 
         112    1   0.6435  10.3809   9.1402 -2.1549 -2.0815 -0.2043 
         113    1   4.9522   2.9222   9.2285  1.8695 -0.0877 -0.3780 
         114    1   2.7740   6.6377   9.1777 -1.6468 -0.7400 -0.0898 
         115    1   4.9569  10.3875   9.1593 -2.3198 -0.9576  0.3903 
         116    1   9.2595   2.8648   9.3142 -2.9092  0.9172 -0.4756 
         117    1   7.0742   6.5948   9.2358  0.9668  3.6186 -0.3853 
         118    1   9.4922   2.9866   5.5846 -2.5975  1.5860 -0.1028 
         119    1   7.3584   6.6951   5.5303 -1.6449  2.7186  0.5309 
         120    1   5.1711  10.4378   5.5794  0.0848  3.6715  0.0752 
         121    1   0.8419   2.9886   5.5658 -0.6325  2.5243  0.3409 
         122    1  -1.2645   6.7095   5.4783 -1.6310  2.3347  0.0613 
         123    1  -3.4906  10.4503   5.4586  1.4553  0.7071 -0.0733 
         124    1   5.1599   2.9749   5.4542  0.7577  2.9693  0.0900 
         125    1   3.0160   6.7293   5.5780 -0.4119  2.8352 -0.1994 
         126    1   0.8781  10.4678   5.5586 -0.7844  0.7259  0.1062 
         127    1   8.7438   4.2958   5.5391  1.6616 -4.5773  0.2251 
         128    1   6.5955   7.9930   5.5723  1.1938 -2.5303 -0.4197 
         129    1  10.8973   0.5130   5.6258  1.8560 -0.8220 -0.1584 
         130    1   0.1305   4.2974   5.6240  0.7052 -2.4167 -0.3934 
         131    1  -2.0398   7.9873   5.4865  1.7676 -2.5414 -0.1074 
         132    1   2.2723   0.4963   5.4474 -0.1239  0.1481  0.0367 
         133    1   4.4264   4.2778   5.4766  0.0787 -2.8745 -0.5230 
         134    1   2.2748   8.0382   5.5168  0.9967 -3.9282  0.2182 
         135    1   6.5809   0.5256   5.5943  2.6636 -1.8102  0.0360 
         136    1  -1.2994   4.2563   5.5599 -0.0691 -0.6941  0.1285 
         137    1  -3.4525   7.9537   5.4711 -0.2133 -0.8342  0.1049 
         138    1   0.8413   0.5380   5.4961 -0.9252 -1.6569 -0.0732 
         139    1   2.9867   4.2574   5.4462  0.9100 -1.6019  0.4923 
         140    1   0.8557   8.0257   5.4369  0.0697 -3.1130  0.2430 
         141    1   5.1838   0.4939   5.4896 -2.1623 -0.9991  0.0006 
         142    1   7.3456   4.2544   5.5167 -3.3624  0.6771  0.5184 
         143    1   5.1646   7.9871   5.6279  0.3179 -0.6605 -0.1049 
         144    1   9.4848   0.5248   5.6197  0.2947 -3.6799  0.0240 
         145    1  10.8912   2.9928   5.5915  1.4088  2.1726 -0.0737 
         146    1   8.7861   6.6818   5.5256 -0.2201  1.7428 -0.1979 
         147    1   6.5939  10.4551   5.4990  1.5899  0.6720 -0.2238 
         148    1   2.2635   2.9769   5.5261  1.0117  1.0611 -0.3807 
         149    1   0.1500   6.7189   5.5037  0.9099  2.4903 -0.3476 
         150    1  -2.0478  10.4234   5.5131  0.1961  3.1080 -0.2207 
         151    1   6.6079   2.9760   5.5298  0.2130  1.6214 -0.0147 
         152    1   4.4455   6.7215   5.5919 -0.7792  2.1244  0.0228 
         153    1   2.3184  10.4325   5.5612 -1.3150  3.4015  0.3076 
         154    1  11.5848   1.7771   5.5923  2.6073 -1.9707  0.1832 
         155    1   9.4938   5.4639   5.5617  2.0898  1.7016 -0.2735 
         156    1   7.3235   9.1944   5.4241  1.5068  1.8267  0.4440 
         157    1   2.9786   1.7405   5.4699  2.5272  0.0587 -0.3096 
         158    1   0.8762   5.5142   5.5550  0.5794 -0.7011  0.2016 
         159    1  -1.3377   9.2145   5.5218  2.7431 -0.2564 -0.0065 
         160    1   7.3206   1.7525   5.6428  1.2362 -0.3960 -0.3536 
         161    1   5.1279   5.5043   5.4861  2.0071 -0.4237  0.6911 
         162    1   3.0059   9.2229   5.6082  2.8117  0.2455 -0.1657 
         163    1   0.1203   1.7811   5.5646 -1.8056 -1.2090 -0.0141 
         164    1  -1.9895   5.4991   5.5107 -1.6398 -0.9981  0.1720 
         165    1  -4.1279   9.1986   5.4717 -3.9116 -0.3192 -0.4559 
         166    1   4.4866   1.7510   5.4210 -3.4796 -1.4690  0.1891 
         167    1   2.3340   5.5027   5.5599 -2.3282 -0.1961 -0.2549 
         168    1   0.1600   9.2235   5.5214 -2.9713  1.9763 -0.1662 
         169    1   8.8019   1.7233   5.6195 -3.0207  2.8522  0.1668 
         170    1   6.5782   5.5237   5.6350  0.8170 -2.9426 -1.0264 
         171    1   4.4849   9.2396   5.6010 -2.9386 -2.2720  0.3224 
Energy
-24921.3478
PlusStress: xx yy zz yz xz xy
     -254.857 -245.965 133.293 0.392 -3.038 -8.641
Feature    EFS_by   siesta
END_CFG

BEGIN_CFG
Size
171
Supercell
       12.948390    0.000000    0.000000
       -6.474196   11.213634    0.000000
        0.000000    0.000000   11.099581
AtomData: id type cartes_x cartes_y cartes_z     fx     fy     fz
           1    0  -5.2184  10.3645  11.0723  0.2952  0.1231  0.9215 
           2    0  -0.8034   2.8735  11.0677 -0.1188  0.1900  0.6880 
           3    0  -3.0909   6.6427   0.0663  0.3129  0.0014 -0.9704 
           4    0  -0.8276  10.3017   0.0032  0.3054  0.2732 -0.1637 
           5    0   3.3527   2.9504  11.0850  0.2004 -0.0998 -0.2482 
           6    0   1.3918   6.6647   0.0746 -0.3145  0.0005 -1.1358 
           7    0   3.4860  10.2835   0.0190 -0.1021  0.4081 -0.3483 
           8    0   7.7660   2.9653  11.0880  0.0958 -0.2489  0.6267 
           9    0   5.4968   6.4487   0.0656  0.5139  0.5181 -0.8331 
          10    1   0.5564   0.3680   1.8940 -0.9537  2.0061  0.3340 
          11    1  -1.5533   4.1019   1.9157 -1.0162  3.6953  0.3954 
          12    1  -3.7400   7.8871   1.8439 -1.1241  2.1189  0.7783 
          13    1   4.8853   0.4444   1.8124 -1.2784  0.0019  0.0591 
          14    1   2.7305   4.1853   1.8453 -1.2380 -0.7729  0.4827 
          15    1   0.5826   7.9739   1.9047 -0.6570 -2.2932  0.2636 
          16    1   9.1808   0.3943   1.8914 -2.1235  1.5596  0.5564 
          17    1   7.0634   4.1708   1.9331 -2.3231 -0.8470 -0.0700 
          18    1   4.8645   7.9018   1.8274  0.2313  0.5722  0.6164 
          19    1  -0.1544   1.6564   9.2644  2.8855 -2.4676 -0.7385 
          20    1  -2.2413   5.3860   9.2236 -0.3566  1.7497  0.0796 
          21    1  -4.3905   9.1202   9.2396 -0.6060 -0.5558  0.1128 
          22    1   4.2713   1.6739   9.1463 -1.1997  0.0431  0.5011 
          23    1   2.0639   5.3767   9.1327 -0.0274  0.1861  0.1107 
          24    1  -0.0710   9.1048   9.1193 -1.0112  0.9802  0.2690 
          25    1   8.5108   1.6234   9.2824  0.3311  0.3472 -0.5847 
          26    1   6.3734   5.3989   9.1899 -1.0066 -2.4231  0.0452 
          27    1   4.2186   9.1158   9.2508 -0.7986  1.5235 -0.7282 
          28    1   2.7228   1.6570   1.8439 -0.6091  0.5972  0.4034 
          29    1   0.5211   5.4164   1.8932  0.3649  0.3109  0.3340 
          30    1  -1.5875   9.1748   1.8749 -0.5094 -1.6762  0.4507 
          31    1   7.0166   1.7104   1.8620 -0.2045 -0.8289  0.4211 
          32    1   4.9000   5.4141   1.8793 -0.0214  0.8478  0.5671 
          33    1   2.6931   9.1567   1.8543 -2.1479  0.5365  1.0118 
          34    1  11.3244   1.6451   1.8822  0.3798  0.8907 -0.0199 
          35    1   9.2366   5.4008   1.8795  0.1620 -0.5871  1.0132 
          36    1   7.0439   9.1070   1.8969 -0.6335  1.9187  0.0645 
          37    1   2.0747   0.3946   9.2674  1.7671  0.2899 -0.1323 
          38    1  -0.0745   4.1382   9.2522 -0.8139 -1.3152 -0.5303 
          39    1  -2.2508   7.8836   9.2095 -0.4460 -0.0567 -0.0712 
          40    1   6.3991   0.3900   9.1680 -1.5428 -0.1043 -0.0981 
          41    1   4.2102   4.1432   9.2186  0.1823 -0.0681 -0.3992 
          42    1   2.0743   7.8799   9.2083 -1.7679 -1.1739 -0.3699 
          43    1  10.6330   0.3934   9.2089  0.9000 -0.9175 -0.3189 
          44    1   8.5451   4.1514   9.2460  0.8433 -1.7867  0.2130 
          45    1   6.3812   7.8938   9.2644 -0.8100 -1.1971  0.0075 
          46    1  -3.7687  10.4207   1.8695  1.6355 -2.1638  0.2743 
          47    1   0.5721   2.9196   1.9021  0.1499 -2.6273  0.4368 
          48    1  -1.5919   6.6789   1.8599  0.8305  0.0640  0.6071 
          49    1   0.5198  10.4344   1.9786  0.0954 -0.1743  0.4090 
          50    1   4.8620   2.9428   1.8337 -0.4047 -0.8956 -0.3177 
          51    1   2.6738   6.6632   1.9151  2.7419 -0.5909  0.3451 
          52    1   4.8680  10.3316   1.9409 -1.9671  2.6071 -0.3646 
          53    1   9.1818   2.9066   1.9066  0.6788  0.7995  0.4560 
          54    1   7.0877   6.6737   1.8997 -2.1215 -1.5303  0.2099 
          55    1  -2.2296  10.3812   9.2294  0.8531  0.0090  0.1374 
          56    1   2.0680   2.8800   9.1632 -0.7832 -0.2692 -0.2362 
          57    1  -0.0958   6.6219   9.2266  1.5031 -0.6321 -0.2649 
          58    1   2.0323  10.3262   9.2055  1.2691  1.5364 -0.5148 
          59    1   6.4145   2.9058   9.2563 -1.3436 -0.5547 -0.5604 
          60    1   4.1668   6.6336   9.2764  3.0495 -0.4267 -0.7371 
          61    1   6.3735  10.3892   9.2924  0.5093 -0.9697 -0.6568 
          62    1  10.6377   2.8871   9.2928  4.3235  0.3944 -0.3537 
          63    1   8.5166   6.6099   9.1548  0.5214 -0.5102  0.5343 
          64    1  -0.1872   1.6653   1.8721  1.6316 -1.5771  0.4794 
          65    1  -2.2550   5.4141   1.9419 -0.7417 -1.7653 -0.2012 
          66    1  -4.4945   9.1726   1.8729  2.1510 -1.8388  0.2474 
          67    1   4.1374   1.6881   1.7211  1.3390 -0.5863  0.8480 
          68    1   1.9636   5.4221   1.8837  0.4468 -1.2012  0.5276 
          69    1  -0.1611   9.1779   1.9526 -0.3784  0.4396  0.1494 
          70    1   8.4403   1.6682   1.9375  1.5138 -0.1721 -0.1376 
          71    1   6.3531   5.4010   1.8937 -0.4156  1.7489  0.5889 
          72    1   4.0835   9.1374   1.8898  3.3399 -0.5978  0.3014 
          73    1   0.6484   0.3881   9.2435 -1.3557  2.2558 -0.1749 