Siesta Version  : 4.1.5
Architecture    : x86_64-unknown-linux-gnu--unknown
Compiler version: GNU Fortran (GCC) 11.3.0
Compiler flags  : mpif90 -g -O2 -fallow-argument-mismatch
PP flags        : -DMPI -DFC_HAVE_FLUSH -DFC_HAVE_ABORT
Libraries       :  -I/global/software/sl-7.x86_64/modules/intel/2020.4.304/mkl/include  /globall/software/sl-7.x86_64/modules/intel/2020.4.304/mkl/lib/intel64/libmkl_scalapack_lp64.a -Wl,--start-group /global/software/sl-7.x86_64/modules/intel/2020.4.304/mkl/lib/intel64/libmkl_intel_lp64.a /global/software/sl-7.x86_64/modules/intel/2020.4.304/mkl/lib/intel64/libmkl_sequential.a /global/software/sl-7.x86_64/modules/intel/2020.4.304/mkl/lib/intel64/libmkl_core.a /global/software/sl-7.x86_64/modules/intel/2020.4.304/mkl/lib/intel64/libmkl_blacs_openmpi_lp64.a -Wl,--end-group -lpthread -lm -ldl
PARALLEL version

* Running on 16 nodes in parallel
>> Start of run:   9-NOV-2022  10:44:14

                           ***********************       
                           *  WELCOME TO SIESTA  *       
                           ***********************       

reinit: Reading from standard input
reinit: Dumped input in INPUT_TMP.29741
************************** Dump of input data file ****************************
SystemName LiC18_scf
SystemLabel LiC18_scf
NumberOfAtoms   19
NumberOfSpecies 2
%block ChemicalSpeciesLabel
1  3   Li-gga
2  6   C-gga
%endblock ChemicalSpeciesLabel
PAO.BasisSize  SZP
PAO.EnergyShift  10 meV
%block PS.Lmax
C-gga   2
Li-gga  2
%endblock PS.Lmax
LatticeConstant 1.000000 Ang
%block LatticeVectors
	4.3161300000	0.0000000000	0.0000000000
	-2.1580650000	3.7378782260	0.0000000000
	0.0000000000	0.0000000000	15.7614050200
%endblock LatticeVectors
AtomicCoordinatesFormat Ang
%block AtomicCoordinatesAndAtomicSpecies
	0.00000000	0.00000000	0.00000000	2
	-0.70288177	1.21742694	2.62690609	1
	-1.45518323	2.52045129	13.13449893	1
	1.45518323	2.52045129	2.62690609	1
	0.70288177	1.21742694	13.13449893	1
	1.40576354	0.00000000	2.62690609	1
	2.91036646	0.00000000	13.13449893	1
	-1.45518323	2.52045129	2.62690609	1
	-0.70288177	1.21742694	13.13449893	1
	0.70288177	1.21742694	2.62690609	1
	1.45518323	2.52045129	13.13449893	1
	2.91036646	0.00000000	2.62690609	1
	1.40576354	0.00000000	13.13449893	1
	-0.70288177	1.21742694	7.88070251	1
	-1.45518323	2.52045129	7.88070251	1
	1.45518323	2.52045129	7.88070251	1
	0.70288177	1.21742694	7.88070251	1
	1.40576354	0.00000000	7.88070251	1
	2.91036646	0.00000000	7.88070251	1
%endblock AtomicCoordinatesAndAtomicSpecies
Kgrid_NoTRS  T
%block kgrid_MonkhorstPack
2       0       0       0.0
0       2       0       0.0
0       0       2       0.0
%endblock kgrid_MonkhorstPack
AtomCoorFormatOut Ang
BlockSize 1
#ProcessorY 12
Diag.ParallelOverK   T
Diag.DivideAndConquer F
MeshCutoff   300 Ry
SCF.FreeE.Tolerance 1E-3 eV
SCF.EDM.Tolerance   5E-3 eV
DM.Tolerance  1E-3
DM.Require.Energy.Convergence T
DM.NumberPulay 4
XC.Functional GGA
XC.Authors    PBE
UseSaveData        F
MD.TypeOfRun       CG
MD.VariableCell    F
MD.NumCGsteps      00
MD.MaxCGDispl      0.200000 Bohr
MD.MaxStressTol    1.000000 GPa
MD.MaxForceTol     0.010000 eV/Ang
WriteMDHistory T
WriteCoorStep T
WriteForces T
WriteCoorStep    T
WriteEigenValues T
WriteDM    F
MM.UnitsDistance Ang  # what this program prints out DO NOT CHANGE
MM.UnitsEnergy    eV  # what this program prints out DO NOT CHANGE
MM.Grimme.S6     0.75 # Grimme-paper for PBE (correct for your functional)
MM.Grimme.D     20.   # Grimme-paper (correct for your functional)
%block MM.Potentials
  1   1 Grimme     16.69      1.650 # Li, 10.1002/jcc.20495
  1   2 Grimme     17.40      2.277 # Li / C
  2   2 Grimme     18.14      2.904 # C, 10.1002/jcc.20495
%endblock MM.Potentials
#%block ProjectedDensityOfStates
# -200.0  120.0  0.4  12800  eV
#%endblock ProjectedDensityOfStates
************************** End of input data file *****************************

reinit: -----------------------------------------------------------------------
reinit: System Name: LiC18_scf
reinit: -----------------------------------------------------------------------
reinit: System Label: LiC18_scf
reinit: -----------------------------------------------------------------------
Reading two-body potentials
Grimme - two-body potential between 1 and 1
Grimme - two-body potential between 1 and 2
Grimme - two-body potential between 2 and 2

initatom: Reading input for the pseudopotentials and atomic orbitals ----------
Species number:   1 Atomic number:    3 Label: Li-gga
Species number:   2 Atomic number:    6 Label: C-gga

Ground state valence configuration:   2s01
Reading pseudopotential information in formatted form from Li-gga.psf

Valence configuration for pseudopotential generation:
2s( 1.00) rc: 2.28
2p( 0.00) rc: 2.28
3d( 0.00) rc: 2.59
4f( 0.00) rc: 2.59
Ground state valence configuration:   2s02  2p02
Reading pseudopotential information in formatted form from C-gga.psf

Valence configuration for pseudopotential generation:
2s( 2.00) rc: 1.56
2p( 2.00) rc: 1.56
3d( 0.00) rc: 1.56
4f( 0.00) rc: 1.56
relmxkb: Read Max KB Ang. Momentum=    2 for species C-gga
relmxkb: Read Max KB Ang. Momentum=    2 for species Li-gga

<basis_specs>
===============================================================================
Li-gga               Z=   3    Mass=  6.9400        Charge= 0.17977+309
Lmxo=0 Lmxkb= 2    BasisType=split      Semic=F
L=0  Nsemic=0  Cnfigmx=2
          i=1  nzeta=1  polorb=1  (2s)
            splnorm:   0.15000    
               vcte:    0.0000    
               rinn:    0.0000    
               qcoe:    0.0000    
               qyuk:    0.0000    
               qwid:   0.10000E-01
                rcs:    0.0000    
            lambdas:    1.0000    
-------------------------------------------------------------------------------
L=0  Nkbl=1  erefs: 0.17977+309
L=1  Nkbl=1  erefs: 0.17977+309
L=2  Nkbl=1  erefs: 0.17977+309
===============================================================================
</basis_specs>

atom: Called for Li-gga                (Z =   3)

read_vps: Pseudopotential generation method:
read_vps: ATM 3.2.2 Troullier-Martins                       
Valence charge for ps generation:    1.00000

read_vps: Pseudopotential includes a core correction:
read_vps: Pseudo-core for xc-correction

xc_check: Exchange-correlation functional:
xc_check: GGA Perdew, Burke & Ernzerhof 1996
V l=0 = -2*Zval/r beyond r=  2.2278
V l=1 = -2*Zval/r beyond r=  2.2278
V l=2 = -2*Zval/r beyond r=  2.5245
All V_l potentials equal beyond r=  2.4622
This should be close to max(r_c) in ps generation
All pots = -2*Zval/r beyond r=  2.5245

VLOCAL1: 99.0% of the norm of Vloc inside      7.160 Ry
VLOCAL1: 99.9% of the norm of Vloc inside     16.318 Ry
atom: Maximum radius for 4*pi*r*r*local-pseudopot. charge    2.86079
atom: Maximum radius for r*vlocal+2*Zval:    2.43160
GHOST: No ghost state for L =  0
GHOST: No ghost state for L =  1
GHOST: No ghost state for L =  2

KBgen: Kleinman-Bylander projectors: 
   l= 0   rc=  2.654023   el= -0.211234   Ekb=  1.742119   kbcos=  0.228463
   l= 1   rc=  2.721230   el= -0.080095   Ekb= -1.122375   kbcos= -0.147941
   l= 2   rc=  2.825246   el=  0.002001   Ekb= -0.207076   kbcos= -0.031965

KBgen: Total number of Kleinman-Bylander projectors:    9
atom: -------------------------------------------------------------------------

atom: SANKEY-TYPE ORBITALS:

SPLIT: Orbitals with angular momentum L= 0

SPLIT: Basis orbitals for state 2s

SPLIT: PAO cut-off radius determined from an
SPLIT: energy shift=  0.000735 Ry

   izeta = 1
                 lambda =    1.000000
                     rc =   11.897381
                 energy =   -0.210580
                kinetic =    0.143382
    potential(screened) =   -0.353962
       potential(ionic) =   -0.533453

POLgen: Perturbative polarization orbital with L=  1

POLgen: Polarization orbital for state 2s

   izeta = 1
                     rc =   11.897381
                 energy =   -0.027011
                kinetic =    0.282985
    potential(screened) =   -0.309997
       potential(ionic) =   -0.490997
atom: Total number of Sankey-type orbitals:  4

atm_pop: Valence configuration (for local Pseudopot. screening):
 2s( 1.00)                                                            
Vna: chval, zval:    1.00000   1.00000

Vna:  Cut-off radius for the neutral-atom potential:  11.897381
comcore: Pseudo-core radius Rcore=  3.450946

atom: _________________________________________________________________________

<basis_specs>
===============================================================================
C-gga                Z=   6    Mass=  12.010        Charge= 0.17977+309
Lmxo=1 Lmxkb= 2    BasisType=split      Semic=F
L=0  Nsemic=0  Cnfigmx=2
          i=1  nzeta=1  polorb=0  (2s)
            splnorm:   0.15000    
               vcte:    0.0000    
               rinn:    0.0000    
               qcoe:    0.0000    
               qyuk:    0.0000    
               qwid:   0.10000E-01
                rcs:    0.0000    
            lambdas:    1.0000    
L=1  Nsemic=0  Cnfigmx=2
          i=1  nzeta=1  polorb=1  (2p)
            splnorm:   0.15000    
               vcte:    0.0000    
               rinn:    0.0000    
               qcoe:    0.0000    
               qyuk:    0.0000    
               qwid:   0.10000E-01
                rcs:    0.0000    
            lambdas:    1.0000    
-------------------------------------------------------------------------------
L=0  Nkbl=1  erefs: 0.17977+309
L=1  Nkbl=1  erefs: 0.17977+309
L=2  Nkbl=1  erefs: 0.17977+309
===============================================================================
</basis_specs>

atom: Called for C-gga                 (Z =   6)

read_vps: Pseudopotential generation method:
read_vps: ATM 3.2.2 Troullier-Martins                       
Valence charge for ps generation:    4.00000

xc_check: Exchange-correlation functional:
xc_check: GGA Perdew, Burke & Ernzerhof 1996
V l=0 = -2*Zval/r beyond r=  1.5227
V l=1 = -2*Zval/r beyond r=  1.5227
V l=2 = -2*Zval/r beyond r=  1.5227
All V_l potentials equal beyond r=  1.4851
This should be close to max(r_c) in ps generation
All pots = -2*Zval/r beyond r=  1.5227

VLOCAL1: 99.0% of the norm of Vloc inside     19.682 Ry
VLOCAL1: 99.9% of the norm of Vloc inside     44.856 Ry
atom: Maximum radius for 4*pi*r*r*local-pseudopot. charge    1.79142
atom: Maximum radius for r*vlocal+2*Zval:    1.54183
GHOST: No ghost state for L =  0
GHOST: No ghost state for L =  1
GHOST: No ghost state for L =  2

KBgen: Kleinman-Bylander projectors: 
   l= 0   rc=  1.661951   el= -1.010689   Ekb=  5.289847   kbcos=  0.316429
   l= 1   rc=  1.661951   el= -0.388490   Ekb= -4.102504   kbcos= -0.351025
   l= 2   rc=  1.747182   el=  0.001971   Ekb= -1.006005   kbcos= -0.008530

KBgen: Total number of Kleinman-Bylander projectors:    9
atom: -------------------------------------------------------------------------

atom: SANKEY-TYPE ORBITALS:

SPLIT: Orbitals with angular momentum L= 0

SPLIT: Basis orbitals for state 2s

SPLIT: PAO cut-off radius determined from an
SPLIT: energy shift=  0.000735 Ry

   izeta = 1
                 lambda =    1.000000
                     rc =    5.948690
                 energy =   -1.010099
                kinetic =    0.827121
    potential(screened) =   -1.837220
       potential(ionic) =   -5.392783

SPLIT: Orbitals with angular momentum L= 1

SPLIT: Basis orbitals for state 2p

SPLIT: PAO cut-off radius determined from an
SPLIT: energy shift=  0.000735 Ry

   izeta = 1
                 lambda =    1.000000
                     rc =    7.638387
                 energy =   -0.387843
                kinetic =    2.314739
    potential(screened) =   -2.702582
       potential(ionic) =   -6.092371

POLgen: Perturbative polarization orbital with L=  2

POLgen: Polarization orbital for state 2p

   izeta = 1
                     rc =    7.638387
                 energy =    0.921402
                kinetic =    1.955040
    potential(screened) =   -1.033637
       potential(ionic) =   -3.679558
atom: Total number of Sankey-type orbitals:  9

atm_pop: Valence configuration (for local Pseudopot. screening):
 2s( 2.00)                                                            
 2p( 2.00)                                                            
Vna: chval, zval:    4.00000   4.00000

Vna:  Cut-off radius for the neutral-atom potential:   7.638387

atom: _________________________________________________________________________

prinput: Basis input ----------------------------------------------------------

PAO.BasisType split     

%block ChemicalSpeciesLabel
    1    3 Li-gga                  # Species index, atomic number, species label
    2    6 C-gga                   # Species index, atomic number, species label
%endblock ChemicalSpeciesLabel

%block PAO.Basis                 # Define Basis set
Li-gga                1                    # Species label, number of l-shells
 n=2   0   1 P   1                   # n, l, Nzeta, Polarization, NzetaPol
  11.897   
   1.000   
C-gga                 2                    # Species label, number of l-shells
 n=2   0   1                         # n, l, Nzeta 
   5.949   
   1.000   
 n=2   1   1 P   1                   # n, l, Nzeta, Polarization, NzetaPol
   7.638   
   1.000   
%endblock PAO.Basis

prinput: ----------------------------------------------------------------------

coor:   Atomic-coordinates input format  =     Cartesian coordinates
coor:                                          (in Angstroms)

siesta: Atomic coordinates (Bohr) and species
siesta:      0.00000   0.00000   0.00000  2        1
siesta:     -1.32825   2.30060   4.96414  1        2
siesta:     -2.74990   4.76296  24.82062  1        3
siesta:      2.74990   4.76296   4.96414  1        4
siesta:      1.32825   2.30060  24.82062  1        5
siesta:      2.65651   0.00000   4.96414  1        6
siesta:      5.49980   0.00000  24.82062  1        7
siesta:     -2.74990   4.76296   4.96414  1        8
siesta:     -1.32825   2.30060  24.82062  1        9
siesta:      1.32825   2.30060   4.96414  1       10
siesta:      2.74990   4.76296  24.82062  1       11
siesta:      5.49980   0.00000   4.96414  1       12
siesta:      2.65651   0.00000  24.82062  1       13
siesta:     -1.32825   2.30060  14.89238  1       14
siesta:     -2.74990   4.76296  14.89238  1       15
siesta:      2.74990   4.76296  14.89238  1       16
siesta:      1.32825   2.30060  14.89238  1       17
siesta:      2.65651   0.00000  14.89238  1       18
siesta:      5.49980   0.00000  14.89238  1       19

siesta: System type = bulk      

initatomlists: Number of atoms, orbitals, and projectors:     19    81   171

siesta: ******************** Simulation parameters ****************************
siesta:
siesta: The following are some of the parameters of the simulation.
siesta: A complete list of the parameters used, including default values,
siesta: can be found in file out.fdf
siesta:
redata: Spin configuration                          = none
redata: Number of spin components                   = 1
redata: Time-Reversal Symmetry                      = T
redata: Spin spiral                                 = F
redata: Long output                                 =   F
redata: Number of Atomic Species                    =        2
redata: Charge density info will appear in .RHO file
redata: Write Mulliken Pop.                         = NO
redata: Matel table size (NRTAB)                    =     1024
redata: Mesh Cutoff                                 =   300.0000 Ry
redata: Net charge of the system                    =     0.0000 |e|
redata: Min. number of SCF Iter                     =        0
redata: Max. number of SCF Iter                     =     1000
redata: SCF convergence failure will abort job
redata: SCF mix quantity                            = Hamiltonian
redata: Mix DM or H after convergence               =   F
redata: Recompute H after scf cycle                 =   F
redata: Mix DM in first SCF step                    =   T
redata: Write Pulay info on disk                    =   F
redata: New DM Occupancy tolerance                  = 0.000000000001
redata: No kicks to SCF
redata: DM Mixing Weight for Kicks                  =     0.5000
redata: Require Harris convergence for SCF          =   F
redata: Harris energy tolerance for SCF             =     0.000100 eV
redata: Require DM convergence for SCF              =   T
redata: DM tolerance for SCF                        =     0.001000
redata: Require EDM convergence for SCF             =   F
redata: EDM tolerance for SCF                       =     0.005000 eV
redata: Require H convergence for SCF               =   T
redata: Hamiltonian tolerance for SCF               =     0.001000 eV
redata: Require (free) Energy convergence for SCF   =   T
redata: (free) Energy tolerance for SCF             =     0.001000 eV
redata: Using Saved Data (generic)                  =   F
redata: Use continuation files for DM               =   F
redata: Neglect nonoverlap interactions             =   F
redata: Method of Calculation                       = Diagonalization
redata: Electronic Temperature                      =   299.9869 K
redata: Fix the spin of the system                  =   F
redata: Dynamics option                             = Single-point calculation
mix.SCF: Pulay mixing                            = Pulay
mix.SCF:    Variant                              = stable
mix.SCF:    History steps                        = 4
mix.SCF:    Linear mixing weight                 =     0.250000
mix.SCF:    Mixing weight                        =     0.250000
mix.SCF:    SVD condition                        = 0.1000E-07
redata: ***********************************************************************

%block SCF.Mixers
  Pulay
%endblock SCF.Mixers

%block SCF.Mixer.Pulay
  # Mixing method
  method pulay
  variant stable

  # Mixing options
  weight 0.2500
  weight.linear 0.2500
  history 4
%endblock SCF.Mixer.Pulay

DM_history_depth set to one: no extrapolation allowed by default for geometry relaxation
Size of DM history Fstack: 1
Total number of electrons:    22.000000
Total ionic charge:    22.000000

* ProcessorY, Blocksize:    4   1


* Orbital distribution balance (max,min):     6     5

k-point displ. along   1 input, could be:     0.00    0.50
k-point displ. along   2 input, could be:     0.00    0.50
k-point displ. along   3 input, could be:     0.00    0.50
 Kpoints in:            8 . Kpoints trimmed:            8

siesta: k-grid: Number of k-points =     8
siesta: k-grid: Cutoff (effective) =     4.316 Ang
siesta: k-grid: Supercell and displacements
siesta: k-grid:    2   0   0      0.000
siesta: k-grid:    0   2   0      0.000
siesta: k-grid:    0   0   2      0.000

diag: Algorithm                                     = Expert
diag: Parallel over k                               =   T
diag: Use parallel 2D distribution                  =   T
diag: Parallel block-size                           = 1
diag: Parallel distribution                         =     4 x     4
diag: Used triangular part                          = Lower
diag: Absolute tolerance                            =  0.100E-15
diag: Orthogonalization factor                      =  0.100E-05
diag: Memory factor                                 =  1.0000

superc: Internal auxiliary supercell:     9 x     9 x     3  =     243
superc: Number of atoms, orbitals, and projectors:   4617  19683  41553


ts: **************************************************************
ts: Save H and S matrices                           =    F
ts: Save DM and EDM matrices                        =    F
ts: Only save the overlap matrix S                  =    F
ts: **************************************************************

************************ Begin: TS CHECKS AND WARNINGS ************************
************************ End: TS CHECKS AND WARNINGS **************************


                     ====================================
                        Single-point calculation
                     ====================================

outcoor: Atomic coordinates (Ang):                          
    0.00000000    0.00000000    0.00000000   2       1  C-gga
   -0.70288177    1.21742694    2.62690609   1       2  Li-gga
   -1.45518323    2.52045129   13.13449893   1       3  Li-gga
    1.45518323    2.52045129    2.62690609   1       4  Li-gga
    0.70288177    1.21742694   13.13449893   1       5  Li-gga
    1.40576354    0.00000000    2.62690609   1       6  Li-gga
    2.91036646    0.00000000   13.13449893   1       7  Li-gga
   -1.45518323    2.52045129    2.62690609   1       8  Li-gga
   -0.70288177    1.21742694   13.13449893   1       9  Li-gga
    0.70288177    1.21742694    2.62690609   1      10  Li-gga
    1.45518323    2.52045129   13.13449893   1      11  Li-gga
    2.91036646    0.00000000    2.62690609   1      12  Li-gga
    1.40576354    0.00000000   13.13449893   1      13  Li-gga
   -0.70288177    1.21742694    7.88070251   1      14  Li-gga
   -1.45518323    2.52045129    7.88070251   1      15  Li-gga
    1.45518323    2.52045129    7.88070251   1      16  Li-gga
    0.70288177    1.21742694    7.88070251   1      17  Li-gga
    1.40576354    0.00000000    7.88070251   1      18  Li-gga
    2.91036646    0.00000000    7.88070251   1      19  Li-gga

superc: Internal auxiliary supercell:     9 x     9 x     3  =     243
superc: Number of atoms, orbitals, and projectors:   4617  19683  41553

outcell: Unit cell vectors (Ang):
        4.316130    0.000000    0.000000
       -2.158065    3.737878    0.000000
        0.000000    0.000000   15.761405

outcell: Cell vector modules (Ang)   :    4.316130    4.316130   15.761405
outcell: Cell angles (23,13,12) (deg):     90.0000     90.0000    120.0000
outcell: Cell volume (Ang**3)        :    254.2814
<dSpData1D:S at geom step 0
  <sparsity:sparsity for geom step 0
    nrows_g=81 nrows=6 sparsity=3.3781 nnzs=22164, refcount: 7>
  <dData1D:(new from dSpData1D) n=22164, refcount: 1>
refcount: 1>
new_DM -- step:     1
Initializing Density Matrix...
DM filled with atomic data:
<dSpData2D:DM initialized from atoms
  <sparsity:sparsity for geom step 0
    nrows_g=81 nrows=6 sparsity=3.3781 nnzs=22164, refcount: 8>
  <dData2D:DM n=22164 m=1, refcount: 1>
refcount: 1>
No. of atoms with KB's overlaping orbs in proc 0. Max # of overlaps:     373     640
New grid distribution:   1
           1       1:   20    1:    5    1:   23
           2       1:   20    1:    5   24:   46
           3       1:   20    1:    5   47:   68
           4       1:   20    1:    5   69:   90
           5       1:   20    6:   10    1:   23
           6       1:   20    6:   10   24:   46
           7       1:   20    6:   10   47:   68
           8       1:   20    6:   10   69:   90
           9       1:   20   11:   15    1:   23
          10       1:   20   11:   15   24:   46
          11       1:   20   11:   15   47:   68
          12       1:   20   11:   15   69:   90
          13       1:   20   16:   20    1:   23
          14       1:   20   16:   20   24:   46
          15       1:   20   16:   20   47:   68
          16       1:   20   16:   20   69:   90

InitMesh: MESH =    40 x    40 x   180 =      288000
InitMesh: (bp) =    20 x    20 x    90 =       36000
InitMesh: Mesh cutoff (required, used) =   300.000   316.498 Ry
ExtMesh (bp) on 0 =   156 x   141 x   167 =     3673332
New grid distribution:   2
           1       1:   20    1:   10    1:   10
           2       1:   20    1:   10   22:   33
           3       1:   20    1:   10   58:   69
           4       1:   20    1:   10   70:   80
           5       1:   20    1:   10   11:   21
           6       1:   20    1:   10   34:   45
           7       1:   20    1:   10   46:   57
           8       1:   20    1:   10   81:   90
           9       1:   20   11:   20    1:   10
          10       1:   20   11:   20   22:   33
          11       1:   20   11:   20   58:   69
          12       1:   20   11:   20   70:   80
          13       1:   20   11:   20   11:   21
          14       1:   20   11:   20   34:   45
          15       1:   20   11:   20   46:   57
          16       1:   20   11:   20   81:   90
New grid distribution:   3
           1       1:   20    1:   10   13:   23
           2       1:   20    1:   10   24:   34
           3       1:   20    1:   10   46:   57
           4       1:   20    1:   10   80:   90
           5       1:   20    1:   10    1:   12
           6       1:   20    1:   10   35:   45
           7       1:   20    1:   10   58:   68
           8       1:   20    1:   10   69:   79
           9       1:   20   11:   20   13:   23
          10       1:   20   11:   20   35:   45
          11       1:   20   11:   20   46:   57
          12       1:   20   11:   20   80:   90
          13       1:   20   11:   20    1:   12
          14       1:   20   11:   20   24:   34
          15       1:   20   11:   20   58:   68
          16       1:   20   11:   20   69:   79
Setting up quadratic distribution...
ExtMesh (bp) on 0 =   156 x   146 x   154 =     3507504
PhiOnMesh: Number of (b)points on node 0 =                 2000
PhiOnMesh: nlist on node 0 =               667720

stepf: Fermi-Dirac step function

siesta: Program's energy decomposition (eV):
siesta: Ebs     =      -299.993501
siesta: Eions   =       439.895300
siesta: Ena     =       155.578369
siesta: Ekin    =       164.540715
siesta: Enl     =        59.766801
siesta: Eso     =         0.000000
siesta: Edftu   =         0.000000
siesta: DEna    =        11.072809
siesta: DUscf   =        29.869910
siesta: DUext   =         0.000000
siesta: Exc     =      -195.787571
siesta: eta*DQ  =         0.000000
siesta: Emadel  =         0.000000
siesta: Emeta   =         0.000000
siesta: Emolmec =        -7.271238
siesta: Ekinion =         0.000000
siesta: Eharris =      -171.239522
siesta: Etot    =      -222.125505
siesta: FreeEng =      -222.161444

        iscf     Eharris(eV)        E_KS(eV)     FreeEng(eV)     dDmax    Ef(eV) dHmax(eV)
   scf:    1     -171.239522     -222.125505     -222.161444  1.591889 -9.367458 26.163580
timer: Routine,Calls,Time,% = IterSCF        1       6.223  48.81
   scf:    2     1289.892715      218.422321      218.387545  1.918740 -9.233106111.031225
   scf:    3     -329.707996     -231.061413     -231.091346  1.604168-10.329606 17.665338
   scf:    4     -226.013102     -239.498005     -239.521547  0.650424-10.064696  8.824885
   scf:    5      195.409674     -107.616603     -107.644240  1.544920-10.066247 63.945292
   scf:    6     -185.351357     -238.094643     -238.102182  1.483412 -9.936199 10.688180
   scf:    7     -242.578956     -240.614903     -240.633109  0.063506 -9.955335  6.661024
   scf:    8     -240.298318     -240.460904     -240.477653  0.015194 -9.955660  7.117460
   scf:    9     -228.094223     -239.141980     -239.184917  0.376266-10.092180  9.936917
   scf:   10     -238.458943     -241.841356     -241.863695  0.298295 -9.996827  3.614854
   scf:   11     -242.473227     -242.224782     -242.254190  0.032148-10.015268  1.845389
   scf:   12     -242.162855     -242.317334     -242.354868  0.057700-10.028701  0.808454
   scf:   13     -242.055962     -242.273556     -242.305740  0.040113-10.017203  1.372081
   scf:   14     -242.283648     -242.334944     -242.373384  0.032089-10.021815  0.327056
   scf:   15     -242.308588     -242.334214     -242.369743  0.017266-10.018619  0.496989
   scf:   16     -242.342175     -242.341482     -242.378015  0.010222-10.023434  0.057974
   scf:   17     -242.341151     -242.341336     -242.378033  0.001809-10.022656  0.071302
   scf:   18     -242.341338     -242.341355     -242.378158  0.000695-10.022909  0.039959
   scf:   19     -242.340841     -242.341157     -242.378213  0.001256-10.023493  0.018266
   scf:   20     -242.341204     -242.341182     -242.378222  0.000174-10.023593  0.010345
   scf:   21     -242.341080     -242.341131     -242.378217  0.000281-10.024080  0.016348
   scf:   22     -242.341276     -242.341219     -242.378220  0.000644-10.024317  0.014066
   scf:   23     -242.341084     -242.341160     -242.378224  0.000462-10.024269  0.007892
   scf:   24     -242.341185     -242.341173     -242.378226  0.000062-10.024361  0.004789
   scf:   25     -242.341206     -242.341190     -242.378226  0.000121-10.024394  0.001089
   scf:   26     -242.341190     -242.341190     -242.378226  0.000017-10.024370  0.000840

SCF Convergence by FreeE+DM+H criterion
|FreeE_i-FreeE_(i-1)| (eV) <     0.00100000
max |DM_out - DM_in|         :     0.0000165027
max |H_out - H_in|      (eV) :     0.0008396416
SCF cycle converged after 26 iterations

Using DM_out to compute the final energy and forces
No. of atoms with KB's overlaping orbs in proc 0. Max # of overlaps:     373     640

MM-Stress (kbar):      -11.97      -11.97       12.45        0.00        0.00        0.00

siesta: E_KS(eV) =             -242.3412

siesta: E_KS - E_eggbox =      -242.3412

siesta: Atomic forces (eV/Ang):
     1    0.000000   -0.000000    0.000001
     2   -0.227001    0.393152   -0.286763
     3    0.227002   -0.393153    0.286762
     4   -0.227027   -0.393222   -0.286807
     5    0.227028    0.393224    0.286806
     6    0.453980   -0.000013   -0.286763
     7   -0.453982    0.000013    0.286762
     8    0.227001   -0.393152   -0.286763
     9   -0.227002    0.393153    0.286762
    10    0.227027    0.393222   -0.286807
    11   -0.227028   -0.393224    0.286806
    12   -0.453980    0.000013   -0.286763
    13    0.453982   -0.000013    0.286762
    14   -0.083231    0.144119    0.000001
    15    0.083231   -0.144119    0.000001
    16   -0.083239   -0.144174    0.000001
    17    0.083239    0.144174    0.000001
    18    0.166427   -0.000021    0.000001
    19   -0.166427    0.000021    0.000001
----------------------------------------
   Tot   -0.000000   -0.000000    0.000000
----------------------------------------
   Max    0.453982
   Res    0.252238    sqrt( Sum f_i^2 / 3N )
----------------------------------------
   Max    0.453982    constrained

Stress tensor Voigt[x,y,z,yz,xz,xy] (kbar):     -836.63     -836.63      137.19        0.00       -0.00       -0.00
(Free)E + p*V (eV/cell)     -161.1156
Target enthalpy (eV/cell)     -242.3782

siesta: Eigenvalues (eV):
  ik is       eps
   1  1  -18.8734  -13.2276  -12.0131  -11.8045  -11.4875  -11.2715  -10.8569  -10.2754  -10.1969  -10.0764
          -9.9456   -9.8766   -9.7307   -9.7306   -9.2645   -7.1911   -3.6523   -3.6523   -3.2954   -3.2954
   -3.0994   -3.0994   -3.0911   -3.0911   -2.7506   -2.7506   -2.3047   -2.3046   -0.9258   -0.9258
   -0.4515   -0.4515   -0.2262   -0.2261   -0.0085   -0.0085    0.1482    0.1482    0.7491    0.7492
    5.6698   11.7008   11.7010   15.3827   15.3827   17.0807   17.0807   18.6768   18.6769   19.2892
   19.2893   19.6573   19.6573   19.8574   19.8575   20.6331   20.6331   21.0920   21.0920   24.4156
   24.4158   25.4447   25.6596   26.0188   27.4447   27.4447   34.4170   34.4171   35.8831   35.8831
   36.1094   36.1094   39.1156   39.8111   46.1491   47.1943   47.7322   48.2492   49.3341   49.5458
   49.5649
   2  1  -18.6701  -12.9197  -11.9732  -11.5876  -11.3151  -11.2791  -11.0282  -10.6558  -10.6242  -10.1869
         -10.1333   -9.9988   -9.8572   -8.1156   -7.8765   -7.7292   -7.3487   -6.7095   -6.0518   -4.7916
   -4.6584   -4.1753   -3.5579   -2.8837   -2.5892   -2.5012   -2.2572   -1.1435   -0.1214   -0.0764
    0.1065    0.2513    0.6495    0.8161    1.9476    2.3043    2.5082    2.5482    2.6023    2.7656
    2.8463    3.0448    4.6914    9.6321   10.9256   11.0193   12.7365   13.8169   13.8883   13.9932
   14.1578   14.3911   14.9485   14.9625   15.0488   15.4862   16.5641   16.7256   17.2974   17.3703
   18.8851   18.9921   20.0995   21.1783   23.5840   25.2924   25.7628   25.9682   26.1930   26.6979
   27.1908   29.7610   50.5294   50.7179   51.1727   52.4493   52.6526   53.1869   56.3992   56.6654
   58.0208
   3  1  -18.6701  -12.9197  -11.9732  -11.5876  -11.3151  -11.2791  -11.0282  -10.6558  -10.6242  -10.1869
         -10.1333   -9.9988   -9.8572   -8.1156   -7.8765   -7.7292   -7.3487   -6.7095   -6.0518   -4.7916
   -4.6584   -4.1753   -3.5579   -2.8837   -2.5892   -2.5012   -2.2572   -1.1435   -0.1214   -0.0764
    0.1065    0.2513    0.6495    0.8161    1.9476    2.3043    2.5082    2.5482    2.6023    2.7656
    2.8463    3.0448    4.6914    9.6321   10.9256   11.0193   12.7365   13.8169   13.8883   13.9932
   14.1578   14.3911   14.9485   14.9625   15.0488   15.4862   16.5641   16.7256   17.2974   17.3703
   18.8851   18.9921   20.0995   21.1783   23.5840   25.2924   25.7628   25.9682   26.1930   26.6979
   27.1908   29.7610   50.5294   50.7179   51.1727   52.4493   52.6526   53.1869   56.3992   56.6654
   58.0208
   4  1  -18.6701  -12.9197  -11.9732  -11.5876  -11.3151  -11.2791  -11.0282  -10.6557  -10.6242  -10.1869
         -10.1333   -9.9989   -9.8571   -8.1156   -7.8765   -7.7292   -7.3487   -6.7095   -6.0518   -4.7916
   -4.6584   -4.1754   -3.5579   -2.8837   -2.5892   -2.5013   -2.2572   -1.1435   -0.1214   -0.0764
    0.1065    0.2513    0.6495    0.8161    1.9476    2.3043    2.5082    2.5482    2.6023    2.7656
    2.8463    3.0448    4.6914    9.6324   10.9255   11.0193   12.7365   13.8169   13.8883   13.9932
   14.1578   14.3910   14.9485   14.9625   15.0488   15.4862   16.5641   16.7255   17.2974   17.3703
   18.8852   18.9921   20.0996   21.1781   23.5840   25.2924   25.7627   25.9682   26.1929   26.6979
   27.1907   29.7610   50.5293   50.7179   51.1727   52.4492   52.6526   53.1869   56.3993   56.6656
   58.0209
   5  1  -18.8754  -13.2223  -11.9586  -11.9484  -11.3870  -11.2643  -10.7770  -10.2546  -10.1382  -10.0709
         -10.0438   -9.8099   -9.7308   -9.7307   -9.2603   -7.1958   -3.6209   -3.6209   -3.3857   -3.3857
   -3.1251   -3.1251   -3.0289   -3.0289   -2.6382   -2.6382   -2.4083   -2.4083   -0.8941   -0.8940
   -0.4649   -0.4649   -0.2147   -0.2147   -0.0151   -0.0151    0.1466    0.1466    0.7388    0.7388
    5.7477   11.7903   11.7904   14.9833   14.9833   17.5624   17.5625   18.6094   18.6094   18.6530
   18.6530   19.9782   19.9782   20.2203   20.2203   20.5870   20.5870   21.1558   21.1558   24.2214
   24.2217   25.4345   25.6388   26.1761   27.5255   27.5255   34.6325   34.6326   35.1432   35.3096
   35.3097   36.4838   36.4839   46.0671   46.0948   46.7503   46.8698   48.1144   48.4369   48.6124
   50.0734
   6  1  -18.6702  -12.9213  -11.9806  -11.5866  -11.3201  -11.2942  -11.0662  -10.6550  -10.6135  -10.2312
         -10.1352   -9.9990   -9.8057   -8.0163   -7.9376   -7.8410   -7.2311   -6.6085   -6.1140   -4.8375
   -4.4806   -4.3784   -3.4082   -2.9799   -2.7830   -2.4807   -1.7101   -1.5149   -0.1841   -0.0110
   -0.0098    0.3201    0.7441    0.7663    1.9430    2.0462    2.3661    2.4998    2.5674    2.6979
    3.0269    3.9049    4.1898    9.7263   10.7408   10.8658   12.6480   13.0604   13.9784   14.3015
   14.8253   15.1205   15.1328   15.4837   15.6379   15.7248   15.7872   16.3117   16.3242   16.8386
   18.6403   19.2766   20.0545   21.7195   23.8093   25.0842   25.7010   25.9869   26.4120   26.6406
   27.1667   29.7536   50.5511   50.6927   51.1673   52.3935   52.7187   53.1867   56.0805   57.4050
   57.6063
   7  1  -18.6702  -12.9213  -11.9806  -11.5866  -11.3201  -11.2942  -11.0662  -10.6550  -10.6135  -10.2312
         -10.1352   -9.9990   -9.8057   -8.0163   -7.9376   -7.8410   -7.2311   -6.6085   -6.1140   -4.8375
   -4.4806   -4.3784   -3.4082   -2.9799   -2.7830   -2.4807   -1.7101   -1.5149   -0.1841   -0.0110
   -0.0098    0.3201    0.7441    0.7663    1.9430    2.0462    2.3661    2.4998    2.5674    2.6979
    3.0269    3.9049    4.1898    9.7263   10.7408   10.8658   12.6480   13.0604   13.9784   14.3015
   14.8253   15.1205   15.1328   15.4837   15.6379   15.7248   15.7872   16.3117   16.3242   16.8386
   18.6403   19.2766   20.0545   21.7195   23.8093   25.0842   25.7010   25.9869   26.4120   26.6406
   27.1667   29.7536   50.5511   50.6927   51.1673   52.3935   52.7187   53.1867   56.0805   57.4050
   57.6063
   8  1  -18.6702  -12.9213  -11.9806  -11.5866  -11.3201  -11.2942  -11.0662  -10.6550  -10.6135  -10.2311
         -10.1352   -9.9990   -9.8057   -8.0163   -7.9376   -7.8410   -7.2311   -6.6085   -6.1140   -4.8375
   -4.4806   -4.3784   -3.4082   -2.9799   -2.7830   -2.4808   -1.7101   -1.5148   -0.1841   -0.0110
   -0.0098    0.3201    0.7441    0.7663    1.9430    2.0461    2.3661    2.4998    2.5674    2.6979
    3.0269    3.9049    4.1898    9.7265   10.7407   10.8658   12.6480   13.0604   13.9784   14.3016
   14.8253   15.1205   15.1328   15.4836   15.6378   15.7248   15.7872   16.3116   16.3242   16.8386
   18.6403   19.2767   20.0546   21.7193   23.8093   25.0841   25.7010   25.9868   26.4119   26.6406
   27.1665   29.7536   50.5510   50.6927   51.1673   52.3934   52.7186   53.1866   56.0806   57.4052
   57.6064
siesta: Fermi energy =     -10.024370 eV

siesta: Program's energy decomposition (eV):
siesta: Ebs     =      -260.631089
siesta: Eions   =       439.895300
siesta: Ena     =       155.578369
siesta: Ekin    =       192.576439
siesta: Enl     =        49.683733
siesta: Eso     =         0.000000
siesta: Edftu   =         0.000000
siesta: DEna    =         2.935527
siesta: DUscf   =         3.904330
siesta: DUext   =         0.000000
siesta: Exc     =      -199.853050
siesta: eta*DQ  =         0.000000
siesta: Emadel  =         0.000000
siesta: Emeta   =         0.000000
siesta: Emolmec =        -7.271238
siesta: Ekinion =         0.000000
siesta: Eharris =      -242.341190
siesta: Etot    =      -242.341190
siesta: FreeEng =      -242.378226

siesta: Final energy (eV):
siesta:  Band Struct. =    -260.631089
siesta:       Kinetic =     192.576439
siesta:       Hartree =     128.005951
siesta:       Edftu   =       0.000000
siesta:       Eso     =       0.000000
siesta:    Ext. field =       0.000000
siesta:   Exch.-corr. =    -199.853050
siesta:  Ion-electron =    -509.654630
siesta:       Ion-ion =     153.855338
siesta:       Ekinion =       0.000000
siesta:         Total =    -242.341190
siesta:         Fermi =     -10.024370

siesta: Atomic forces (eV/Ang):
siesta:      1    0.000000   -0.000000    0.000001
siesta:      2   -0.227001    0.393152   -0.286763
siesta:      3    0.227002   -0.393153    0.286762
siesta:      4   -0.227027   -0.393222   -0.286807
siesta:      5    0.227028    0.393224    0.286806
siesta:      6    0.453980   -0.000013   -0.286763
siesta:      7   -0.453982    0.000013    0.286762
siesta:      8    0.227001   -0.393152   -0.286763
siesta:      9   -0.227002    0.393153    0.286762
siesta:     10    0.227027    0.393222   -0.286807
siesta:     11   -0.227028   -0.393224    0.286806
siesta:     12   -0.453980    0.000013   -0.286763
siesta:     13    0.453982   -0.000013    0.286762
siesta:     14   -0.083231    0.144119    0.000001
siesta:     15    0.083231   -0.144119    0.000001
siesta:     16   -0.083239   -0.144174    0.000001
siesta:     17    0.083239    0.144174    0.000001
siesta:     18    0.166427   -0.000021    0.000001
siesta:     19   -0.166427    0.000021    0.000001
siesta: ----------------------------------------
siesta:    Tot   -0.000000   -0.000000    0.000000

siesta: Stress tensor (static) (eV/Ang**3):
siesta:    -0.522176   -0.000003   -0.000000
siesta:    -0.000003   -0.522180    0.000000
siesta:    -0.000000    0.000000    0.085624

siesta: Cell volume =        254.281401 Ang**3

siesta: Pressure (static):
siesta:                Solid            Molecule  Units
siesta:           0.00348061          0.00329172  Ry/Bohr**3
siesta:           0.31957750          0.30223432  eV/Ang**3
siesta:         512.02513392        484.23800756  kBar
(Free)E+ p_basis*V_orbitals  =        -194.549910
(Free)Eharris+ p_basis*V_orbitals  =        -194.549910

cite: Please see "LiC18_scf.bib" for an exhaustive BiBTeX file.
cite: Please clearly indicate Siesta version in published work: 4.1.5
cite: This calculation has made use of the following articles
cite: which are encouraged to be cited in a published work.
        Primary SIESTA paper
          DOI: www.doi.org/10.1088/0953-8984/14/11/302

>> End of run:   9-NOV-2022  10:46:10
Job completed
