Siesta Version  : 4.1.5
Architecture    : x86_64-unknown-linux-gnu--unknown
Compiler version: GNU Fortran (GCC) 11.3.0
Compiler flags  : mpif90 -g -O2 -fallow-argument-mismatch
PP flags        : -DMPI -DFC_HAVE_FLUSH -DFC_HAVE_ABORT
Libraries       :  -I/global/software/sl-7.x86_64/modules/intel/2020.4.304/mkl/include  /globall/software/sl-7.x86_64/modules/intel/2020.4.304/mkl/lib/intel64/libmkl_scalapack_lp64.a -Wl,--start-group /global/software/sl-7.x86_64/modules/intel/2020.4.304/mkl/lib/intel64/libmkl_intel_lp64.a /global/software/sl-7.x86_64/modules/intel/2020.4.304/mkl/lib/intel64/libmkl_sequential.a /global/software/sl-7.x86_64/modules/intel/2020.4.304/mkl/lib/intel64/libmkl_core.a /global/software/sl-7.x86_64/modules/intel/2020.4.304/mkl/lib/intel64/libmkl_blacs_openmpi_lp64.a -Wl,--end-group -lpthread -lm -ldl
PARALLEL version

* Running on 16 nodes in parallel
>> Start of run:   9-NOV-2022  10:41:35

                           ***********************       
                           *  WELCOME TO SIESTA  *       
                           ***********************       

reinit: Reading from standard input
reinit: Dumped input in INPUT_TMP.70155
************************** Dump of input data file ****************************
SystemName LiC18_scf
SystemLabel LiC18_scf
NumberOfAtoms   19
NumberOfSpecies 2
%block ChemicalSpeciesLabel
1  3   Li-gga
2  6   C-gga
%endblock ChemicalSpeciesLabel
PAO.BasisSize  SZP
PAO.EnergyShift  10 meV
%block PS.Lmax
C-gga   2
Li-gga  2
%endblock PS.Lmax
LatticeConstant 1.000000 Ang
%block LatticeVectors
	4.3161300000	0.0000000000	0.0000000000
	-2.1580650000	3.7378782260	0.0000000000
	0.0000000000	0.0000000000	14.4294553000
%endblock LatticeVectors
AtomicCoordinatesFormat Ang
%block AtomicCoordinatesAndAtomicSpecies
	0.00000000	0.00000000	0.00000000	2
	-0.70288177	1.21742694	2.40491403	1
	-1.45518323	2.52045129	12.02454127	1
	1.45518323	2.52045129	2.40491403	1
	0.70288177	1.21742694	12.02454127	1
	1.40576354	0.00000000	2.40491403	1
	2.91036646	0.00000000	12.02454127	1
	-1.45518323	2.52045129	2.40491403	1
	-0.70288177	1.21742694	12.02454127	1
	0.70288177	1.21742694	2.40491403	1
	1.45518323	2.52045129	12.02454127	1
	2.91036646	0.00000000	2.40491403	1
	1.40576354	0.00000000	12.02454127	1
	-0.70288177	1.21742694	7.21472765	1
	-1.45518323	2.52045129	7.21472765	1
	1.45518323	2.52045129	7.21472765	1
	0.70288177	1.21742694	7.21472765	1
	1.40576354	0.00000000	7.21472765	1
	2.91036646	0.00000000	7.21472765	1
%endblock AtomicCoordinatesAndAtomicSpecies
Kgrid_NoTRS  T
%block kgrid_MonkhorstPack
2       0       0       0.0
0       2       0       0.0
0       0       2       0.0
%endblock kgrid_MonkhorstPack
AtomCoorFormatOut Ang
BlockSize 1
#ProcessorY 12
Diag.ParallelOverK   T
Diag.DivideAndConquer F
MeshCutoff   300 Ry
SCF.FreeE.Tolerance 1E-3 eV
SCF.EDM.Tolerance   5E-3 eV
DM.Tolerance  1E-3
DM.Require.Energy.Convergence T
DM.NumberPulay 4
XC.Functional GGA
XC.Authors    PBE
UseSaveData        F
MD.TypeOfRun       CG
MD.VariableCell    F
MD.NumCGsteps      00
MD.MaxCGDispl      0.200000 Bohr
MD.MaxStressTol    1.000000 GPa
MD.MaxForceTol     0.010000 eV/Ang
WriteMDHistory T
WriteCoorStep T
WriteForces T
WriteCoorStep    T
WriteEigenValues T
WriteDM    F
MM.UnitsDistance Ang  # what this program prints out DO NOT CHANGE
MM.UnitsEnergy    eV  # what this program prints out DO NOT CHANGE
MM.Grimme.S6     0.75 # Grimme-paper for PBE (correct for your functional)
MM.Grimme.D     20.   # Grimme-paper (correct for your functional)
%block MM.Potentials
  1   1 Grimme     16.69      1.650 # Li, 10.1002/jcc.20495
  1   2 Grimme     17.40      2.277 # Li / C
  2   2 Grimme     18.14      2.904 # C, 10.1002/jcc.20495
%endblock MM.Potentials
#%block ProjectedDensityOfStates
# -200.0  120.0  0.4  12800  eV
#%endblock ProjectedDensityOfStates
************************** End of input data file *****************************

reinit: -----------------------------------------------------------------------
reinit: System Name: LiC18_scf
reinit: -----------------------------------------------------------------------
reinit: System Label: LiC18_scf
reinit: -----------------------------------------------------------------------
Reading two-body potentials
Grimme - two-body potential between 1 and 1
Grimme - two-body potential between 1 and 2
Grimme - two-body potential between 2 and 2

initatom: Reading input for the pseudopotentials and atomic orbitals ----------
Species number:   1 Atomic number:    3 Label: Li-gga
Species number:   2 Atomic number:    6 Label: C-gga

Ground state valence configuration:   2s01
Reading pseudopotential information in formatted form from Li-gga.psf

Valence configuration for pseudopotential generation:
2s( 1.00) rc: 2.28
2p( 0.00) rc: 2.28
3d( 0.00) rc: 2.59
4f( 0.00) rc: 2.59
Ground state valence configuration:   2s02  2p02
Reading pseudopotential information in formatted form from C-gga.psf

Valence configuration for pseudopotential generation:
2s( 2.00) rc: 1.56
2p( 2.00) rc: 1.56
3d( 0.00) rc: 1.56
4f( 0.00) rc: 1.56
relmxkb: Read Max KB Ang. Momentum=    2 for species C-gga
relmxkb: Read Max KB Ang. Momentum=    2 for species Li-gga

<basis_specs>
===============================================================================
Li-gga               Z=   3    Mass=  6.9400        Charge= 0.17977+309
Lmxo=0 Lmxkb= 2    BasisType=split      Semic=F
L=0  Nsemic=0  Cnfigmx=2
          i=1  nzeta=1  polorb=1  (2s)
            splnorm:   0.15000    
               vcte:    0.0000    
               rinn:    0.0000    
               qcoe:    0.0000    
               qyuk:    0.0000    
               qwid:   0.10000E-01
                rcs:    0.0000    
            lambdas:    1.0000    
-------------------------------------------------------------------------------
L=0  Nkbl=1  erefs: 0.17977+309
L=1  Nkbl=1  erefs: 0.17977+309
L=2  Nkbl=1  erefs: 0.17977+309
===============================================================================
</basis_specs>

atom: Called for Li-gga                (Z =   3)

read_vps: Pseudopotential generation method:
read_vps: ATM 3.2.2 Troullier-Martins                       
Valence charge for ps generation:    1.00000

read_vps: Pseudopotential includes a core correction:
read_vps: Pseudo-core for xc-correction

xc_check: Exchange-correlation functional:
xc_check: GGA Perdew, Burke & Ernzerhof 1996
V l=0 = -2*Zval/r beyond r=  2.2278
V l=1 = -2*Zval/r beyond r=  2.2278
V l=2 = -2*Zval/r beyond r=  2.5245
All V_l potentials equal beyond r=  2.4622
This should be close to max(r_c) in ps generation
All pots = -2*Zval/r beyond r=  2.5245

VLOCAL1: 99.0% of the norm of Vloc inside      7.160 Ry
VLOCAL1: 99.9% of the norm of Vloc inside     16.318 Ry
atom: Maximum radius for 4*pi*r*r*local-pseudopot. charge    2.86079
atom: Maximum radius for r*vlocal+2*Zval:    2.43160
GHOST: No ghost state for L =  0
GHOST: No ghost state for L =  1
GHOST: No ghost state for L =  2

KBgen: Kleinman-Bylander projectors: 
   l= 0   rc=  2.654023   el= -0.211234   Ekb=  1.742119   kbcos=  0.228463
   l= 1   rc=  2.721230   el= -0.080095   Ekb= -1.122375   kbcos= -0.147941
   l= 2   rc=  2.825246   el=  0.002001   Ekb= -0.207076   kbcos= -0.031965

KBgen: Total number of Kleinman-Bylander projectors:    9
atom: -------------------------------------------------------------------------

atom: SANKEY-TYPE ORBITALS:

SPLIT: Orbitals with angular momentum L= 0

SPLIT: Basis orbitals for state 2s

SPLIT: PAO cut-off radius determined from an
SPLIT: energy shift=  0.000735 Ry

   izeta = 1
                 lambda =    1.000000
                     rc =   11.897381
                 energy =   -0.210580
                kinetic =    0.143382
    potential(screened) =   -0.353962
       potential(ionic) =   -0.533453

POLgen: Perturbative polarization orbital with L=  1

POLgen: Polarization orbital for state 2s

   izeta = 1
                     rc =   11.897381
                 energy =   -0.027011
                kinetic =    0.282985
    potential(screened) =   -0.309997
       potential(ionic) =   -0.490997
atom: Total number of Sankey-type orbitals:  4

atm_pop: Valence configuration (for local Pseudopot. screening):
 2s( 1.00)                                                            
Vna: chval, zval:    1.00000   1.00000

Vna:  Cut-off radius for the neutral-atom potential:  11.897381
comcore: Pseudo-core radius Rcore=  3.450946

atom: _________________________________________________________________________

<basis_specs>
===============================================================================
C-gga                Z=   6    Mass=  12.010        Charge= 0.17977+309
Lmxo=1 Lmxkb= 2    BasisType=split      Semic=F
L=0  Nsemic=0  Cnfigmx=2
          i=1  nzeta=1  polorb=0  (2s)
            splnorm:   0.15000    
               vcte:    0.0000    
               rinn:    0.0000    
               qcoe:    0.0000    
               qyuk:    0.0000    
               qwid:   0.10000E-01
                rcs:    0.0000    
            lambdas:    1.0000    
L=1  Nsemic=0  Cnfigmx=2
          i=1  nzeta=1  polorb=1  (2p)
            splnorm:   0.15000    
               vcte:    0.0000    
               rinn:    0.0000    
               qcoe:    0.0000    
               qyuk:    0.0000    
               qwid:   0.10000E-01
                rcs:    0.0000    
            lambdas:    1.0000    
-------------------------------------------------------------------------------
L=0  Nkbl=1  erefs: 0.17977+309
L=1  Nkbl=1  erefs: 0.17977+309
L=2  Nkbl=1  erefs: 0.17977+309
===============================================================================
</basis_specs>

atom: Called for C-gga                 (Z =   6)

read_vps: Pseudopotential generation method:
read_vps: ATM 3.2.2 Troullier-Martins                       
Valence charge for ps generation:    4.00000

xc_check: Exchange-correlation functional:
xc_check: GGA Perdew, Burke & Ernzerhof 1996
V l=0 = -2*Zval/r beyond r=  1.5227
V l=1 = -2*Zval/r beyond r=  1.5227
V l=2 = -2*Zval/r beyond r=  1.5227
All V_l potentials equal beyond r=  1.4851
This should be close to max(r_c) in ps generation
All pots = -2*Zval/r beyond r=  1.5227

VLOCAL1: 99.0% of the norm of Vloc inside     19.682 Ry
VLOCAL1: 99.9% of the norm of Vloc inside     44.856 Ry
atom: Maximum radius for 4*pi*r*r*local-pseudopot. charge    1.79142
atom: Maximum radius for r*vlocal+2*Zval:    1.54183
GHOST: No ghost state for L =  0
GHOST: No ghost state for L =  1
GHOST: No ghost state for L =  2

KBgen: Kleinman-Bylander projectors: 
   l= 0   rc=  1.661951   el= -1.010689   Ekb=  5.289847   kbcos=  0.316429
   l= 1   rc=  1.661951   el= -0.388490   Ekb= -4.102504   kbcos= -0.351025
   l= 2   rc=  1.747182   el=  0.001971   Ekb= -1.006005   kbcos= -0.008530

KBgen: Total number of Kleinman-Bylander projectors:    9
atom: -------------------------------------------------------------------------

atom: SANKEY-TYPE ORBITALS:

SPLIT: Orbitals with angular momentum L= 0

SPLIT: Basis orbitals for state 2s

SPLIT: PAO cut-off radius determined from an
SPLIT: energy shift=  0.000735 Ry

   izeta = 1
                 lambda =    1.000000
                     rc =    5.948690
                 energy =   -1.010099
                kinetic =    0.827121
    potential(screened) =   -1.837220
       potential(ionic) =   -5.392783

SPLIT: Orbitals with angular momentum L= 1

SPLIT: Basis orbitals for state 2p

SPLIT: PAO cut-off radius determined from an
SPLIT: energy shift=  0.000735 Ry

   izeta = 1
                 lambda =    1.000000
                     rc =    7.638387
                 energy =   -0.387843
                kinetic =    2.314739
    potential(screened) =   -2.702582
       potential(ionic) =   -6.092371

POLgen: Perturbative polarization orbital with L=  2

POLgen: Polarization orbital for state 2p

   izeta = 1
                     rc =    7.638387
                 energy =    0.921402
                kinetic =    1.955040
    potential(screened) =   -1.033637
       potential(ionic) =   -3.679558
atom: Total number of Sankey-type orbitals:  9

atm_pop: Valence configuration (for local Pseudopot. screening):
 2s( 2.00)                                                            
 2p( 2.00)                                                            
Vna: chval, zval:    4.00000   4.00000

Vna:  Cut-off radius for the neutral-atom potential:   7.638387

atom: _________________________________________________________________________

prinput: Basis input ----------------------------------------------------------

PAO.BasisType split     

%block ChemicalSpeciesLabel
    1    3 Li-gga                  # Species index, atomic number, species label
    2    6 C-gga                   # Species index, atomic number, species label
%endblock ChemicalSpeciesLabel

%block PAO.Basis                 # Define Basis set
Li-gga                1                    # Species label, number of l-shells
 n=2   0   1 P   1                   # n, l, Nzeta, Polarization, NzetaPol
  11.897   
   1.000   
C-gga                 2                    # Species label, number of l-shells
 n=2   0   1                         # n, l, Nzeta 
   5.949   
   1.000   
 n=2   1   1 P   1                   # n, l, Nzeta, Polarization, NzetaPol
   7.638   
   1.000   
%endblock PAO.Basis

prinput: ----------------------------------------------------------------------

coor:   Atomic-coordinates input format  =     Cartesian coordinates
coor:                                          (in Angstroms)

siesta: Atomic coordinates (Bohr) and species
siesta:      0.00000   0.00000   0.00000  2        1
siesta:     -1.32825   2.30060   4.54463  1        2
siesta:     -2.74990   4.76296  22.72310  1        3
siesta:      2.74990   4.76296   4.54463  1        4
siesta:      1.32825   2.30060  22.72310  1        5
siesta:      2.65651   0.00000   4.54463  1        6
siesta:      5.49980   0.00000  22.72310  1        7
siesta:     -2.74990   4.76296   4.54463  1        8
siesta:     -1.32825   2.30060  22.72310  1        9
siesta:      1.32825   2.30060   4.54463  1       10
siesta:      2.74990   4.76296  22.72310  1       11
siesta:      5.49980   0.00000   4.54463  1       12
siesta:      2.65651   0.00000  22.72310  1       13
siesta:     -1.32825   2.30060  13.63386  1       14
siesta:     -2.74990   4.76296  13.63386  1       15
siesta:      2.74990   4.76296  13.63386  1       16
siesta:      1.32825   2.30060  13.63386  1       17
siesta:      2.65651   0.00000  13.63386  1       18
siesta:      5.49980   0.00000  13.63386  1       19

siesta: System type = bulk      

initatomlists: Number of atoms, orbitals, and projectors:     19    81   171

siesta: ******************** Simulation parameters ****************************
siesta:
siesta: The following are some of the parameters of the simulation.
siesta: A complete list of the parameters used, including default values,
siesta: can be found in file out.fdf
siesta:
redata: Spin configuration                          = none
redata: Number of spin components                   = 1
redata: Time-Reversal Symmetry                      = T
redata: Spin spiral                                 = F
redata: Long output                                 =   F
redata: Number of Atomic Species                    =        2
redata: Charge density info will appear in .RHO file
redata: Write Mulliken Pop.                         = NO
redata: Matel table size (NRTAB)                    =     1024
redata: Mesh Cutoff                                 =   300.0000 Ry
redata: Net charge of the system                    =     0.0000 |e|
redata: Min. number of SCF Iter                     =        0
redata: Max. number of SCF Iter                     =     1000
redata: SCF convergence failure will abort job
redata: SCF mix quantity                            = Hamiltonian
redata: Mix DM or H after convergence               =   F
redata: Recompute H after scf cycle                 =   F
redata: Mix DM in first SCF step                    =   T
redata: Write Pulay info on disk                    =   F
redata: New DM Occupancy tolerance                  = 0.000000000001
redata: No kicks to SCF
redata: DM Mixing Weight for Kicks                  =     0.5000
redata: Require Harris convergence for SCF          =   F
redata: Harris energy tolerance for SCF             =     0.000100 eV
redata: Require DM convergence for SCF              =   T
redata: DM tolerance for SCF                        =     0.001000
redata: Require EDM convergence for SCF             =   F
redata: EDM tolerance for SCF                       =     0.005000 eV
redata: Require H convergence for SCF               =   T
redata: Hamiltonian tolerance for SCF               =     0.001000 eV
redata: Require (free) Energy convergence for SCF   =   T
redata: (free) Energy tolerance for SCF             =     0.001000 eV
redata: Using Saved Data (generic)                  =   F
redata: Use continuation files for DM               =   F
redata: Neglect nonoverlap interactions             =   F
redata: Method of Calculation                       = Diagonalization
redata: Electronic Temperature                      =   299.9869 K
redata: Fix the spin of the system                  =   F
redata: Dynamics option                             = Single-point calculation
mix.SCF: Pulay mixing                            = Pulay
mix.SCF:    Variant                              = stable
mix.SCF:    History steps                        = 4
mix.SCF:    Linear mixing weight                 =     0.250000
mix.SCF:    Mixing weight                        =     0.250000
mix.SCF:    SVD condition                        = 0.1000E-07
redata: ***********************************************************************

%block SCF.Mixers
  Pulay
%endblock SCF.Mixers

%block SCF.Mixer.Pulay
  # Mixing method
  method pulay
  variant stable

  # Mixing options
  weight 0.2500
  weight.linear 0.2500
  history 4
%endblock SCF.Mixer.Pulay

DM_history_depth set to one: no extrapolation allowed by default for geometry relaxation
Size of DM history Fstack: 1
Total number of electrons:    22.000000
Total ionic charge:    22.000000

* ProcessorY, Blocksize:    4   1


* Orbital distribution balance (max,min):     6     5

k-point displ. along   1 input, could be:     0.00    0.50
k-point displ. along   2 input, could be:     0.00    0.50
k-point displ. along   3 input, could be:     0.00    0.50
 Kpoints in:            8 . Kpoints trimmed:            8

siesta: k-grid: Number of k-points =     8
siesta: k-grid: Cutoff (effective) =     4.316 Ang
siesta: k-grid: Supercell and displacements
siesta: k-grid:    2   0   0      0.000
siesta: k-grid:    0   2   0      0.000
siesta: k-grid:    0   0   2      0.000

diag: Algorithm                                     = Expert
diag: Parallel over k                               =   T
diag: Use parallel 2D distribution                  =   T
diag: Parallel block-size                           = 1
diag: Parallel distribution                         =     4 x     4
diag: Used triangular part                          = Lower
diag: Absolute tolerance                            =  0.100E-15
diag: Orthogonalization factor                      =  0.100E-05
diag: Memory factor                                 =  1.0000

superc: Internal auxiliary supercell:     9 x     9 x     3  =     243
superc: Number of atoms, orbitals, and projectors:   4617  19683  41553


ts: **************************************************************
ts: Save H and S matrices                           =    F
ts: Save DM and EDM matrices                        =    F
ts: Only save the overlap matrix S                  =    F
ts: **************************************************************

************************ Begin: TS CHECKS AND WARNINGS ************************
************************ End: TS CHECKS AND WARNINGS **************************


                     ====================================
                        Single-point calculation
                     ====================================

outcoor: Atomic coordinates (Ang):                          
    0.00000000    0.00000000    0.00000000   2       1  C-gga
   -0.70288177    1.21742694    2.40491403   1       2  Li-gga
   -1.45518323    2.52045129   12.02454127   1       3  Li-gga
    1.45518323    2.52045129    2.40491403   1       4  Li-gga
    0.70288177    1.21742694   12.02454127   1       5  Li-gga
    1.40576354    0.00000000    2.40491403   1       6  Li-gga
    2.91036646    0.00000000   12.02454127   1       7  Li-gga
   -1.45518323    2.52045129    2.40491403   1       8  Li-gga
   -0.70288177    1.21742694   12.02454127   1       9  Li-gga
    0.70288177    1.21742694    2.40491403   1      10  Li-gga
    1.45518323    2.52045129   12.02454127   1      11  Li-gga
    2.91036646    0.00000000    2.40491403   1      12  Li-gga
    1.40576354    0.00000000   12.02454127   1      13  Li-gga
   -0.70288177    1.21742694    7.21472765   1      14  Li-gga
   -1.45518323    2.52045129    7.21472765   1      15  Li-gga
    1.45518323    2.52045129    7.21472765   1      16  Li-gga
    0.70288177    1.21742694    7.21472765   1      17  Li-gga
    1.40576354    0.00000000    7.21472765   1      18  Li-gga
    2.91036646    0.00000000    7.21472765   1      19  Li-gga

superc: Internal auxiliary supercell:     9 x     9 x     3  =     243
superc: Number of atoms, orbitals, and projectors:   4617  19683  41553

outcell: Unit cell vectors (Ang):
        4.316130    0.000000    0.000000
       -2.158065    3.737878    0.000000
        0.000000    0.000000   14.429455

outcell: Cell vector modules (Ang)   :    4.316130    4.316130   14.429455
outcell: Cell angles (23,13,12) (deg):     90.0000     90.0000    120.0000
outcell: Cell volume (Ang**3)        :    232.7928
<dSpData1D:S at geom step 0
  <sparsity:sparsity for geom step 0
    nrows_g=81 nrows=6 sparsity=3.4574 nnzs=22684, refcount: 7>
  <dData1D:(new from dSpData1D) n=22684, refcount: 1>
refcount: 1>
new_DM -- step:     1
Initializing Density Matrix...
DM filled with atomic data:
<dSpData2D:DM initialized from atoms
  <sparsity:sparsity for geom step 0
    nrows_g=81 nrows=6 sparsity=3.4574 nnzs=22684, refcount: 8>
  <dData2D:DM n=22684 m=1, refcount: 1>
refcount: 1>
No. of atoms with KB's overlaping orbs in proc 0. Max # of overlaps:     373     648
New grid distribution:   1
           1       1:   20    1:    5    1:   20
           2       1:   20    1:    5   21:   40
           3       1:   20    1:    5   41:   60
           4       1:   20    1:    5   61:   80
           5       1:   20    6:   10    1:   20
           6       1:   20    6:   10   21:   40
           7       1:   20    6:   10   41:   60
           8       1:   20    6:   10   61:   80
           9       1:   20   11:   15    1:   20
          10       1:   20   11:   15   21:   40
          11       1:   20   11:   15   41:   60
          12       1:   20   11:   15   61:   80
          13       1:   20   16:   20    1:   20
          14       1:   20   16:   20   21:   40
          15       1:   20   16:   20   41:   60
          16       1:   20   16:   20   61:   80

InitMesh: MESH =    40 x    40 x   160 =      256000
InitMesh: (bp) =    20 x    20 x    80 =       32000
InitMesh: Mesh cutoff (required, used) =   300.000   316.498 Ry
ExtMesh (bp) on 0 =   156 x   141 x   160 =     3519360
New grid distribution:   2
           1       1:   20    1:   10    1:    9
           2       1:   20    1:   10   19:   29
           3       1:   20    1:   10   52:   62
           4       1:   20    1:   10   72:   80
           5       1:   20    1:   10   10:   18
           6       1:   20    1:   10   30:   40
           7       1:   20    1:   10   41:   51
           8       1:   20    1:   10   63:   71
           9       1:   20   11:   20    1:    9
          10       1:   20   11:   20   19:   29
          11       1:   20   11:   20   52:   62
          12       1:   20   11:   20   72:   80
          13       1:   20   11:   20   10:   18
          14       1:   20   11:   20   30:   40
          15       1:   20   11:   20   41:   51
          16       1:   20   11:   20   63:   71
New grid distribution:   3
           1       1:   20    1:   10   11:   20
           2       1:   20    1:   10   31:   40
           3       1:   20    1:   10   51:   60
           4       1:   20    1:   10   71:   80
           5       1:   20    1:   10    1:   10
           6       1:   20    1:   10   21:   30
           7       1:   20    1:   10   41:   50
           8       1:   20    1:   10   61:   70
           9       1:   20   11:   20   11:   20
          10       1:   20   11:   20   31:   40
          11       1:   20   11:   20   51:   60
          12       1:   20   11:   20   71:   80
          13       1:   20   11:   20    1:   10
          14       1:   20   11:   20   21:   30
          15       1:   20   11:   20   41:   50
          16       1:   20   11:   20   61:   70
Setting up quadratic distribution...
ExtMesh (bp) on 0 =   156 x   146 x   149 =     3393624
PhiOnMesh: Number of (b)points on node 0 =                 1800
PhiOnMesh: nlist on node 0 =               638126

stepf: Fermi-Dirac step function

siesta: Program's energy decomposition (eV):
siesta: Ebs     =      -308.014059
siesta: Eions   =       439.895300
siesta: Ena     =       153.024267
siesta: Ekin    =       170.221499
siesta: Enl     =        57.046125
siesta: Eso     =         0.000000
siesta: Edftu   =         0.000000
siesta: DEna    =        12.303523
siesta: DUscf   =        22.488296
siesta: DUext   =         0.000000
siesta: Exc     =      -197.739079
siesta: eta*DQ  =         0.000000
siesta: Emadel  =         0.000000
siesta: Emeta   =         0.000000
siesta: Emolmec =        -7.477822
siesta: Ekinion =         0.000000
siesta: Eharris =      -189.762688
siesta: Etot    =      -230.028491
siesta: FreeEng =      -230.050079

        iscf     Eharris(eV)        E_KS(eV)     FreeEng(eV)     dDmax    Ef(eV) dHmax(eV)
   scf:    1     -189.762688     -230.028491     -230.050079  1.615387-10.059302 21.161254
timer: Routine,Calls,Time,% = IterSCF        1       6.717  51.68
   scf:    2      818.858914       74.862631       74.817704  1.620174 -9.854749 87.484535
   scf:    3     -325.948909     -221.878535     -221.917460  1.255177-10.658603 25.537118
   scf:    4     -210.322599     -239.467259     -239.494736  0.966417-10.466814 11.773705
   scf:    5      -42.197951     -187.582482     -187.597378  1.296436-10.456635 40.397568
   scf:    6     -205.200068     -240.527560     -240.561231  1.108907-10.353596  9.078916
   scf:    7     -242.130765     -244.124770     -244.164501  0.258982-10.442782  2.948618
   scf:    8     -243.650656     -243.902580     -243.941268  0.024348-10.473243  3.923346
   scf:    9     -236.455741     -242.200106     -242.239205  0.219071-10.303605  6.561542
   scf:   10     -236.961180     -239.896767     -239.928792  0.133994-10.342224 10.615548
   scf:   11     -243.266235     -241.711055     -241.752072  0.070175-10.382433  7.854837
   scf:   12     -239.077391     -240.455152     -240.488463  0.052489-10.281346  9.350071
   scf:   13       32.116382     -163.577145     -163.583684  0.931646-10.429494 41.836713
   scf:   14     -202.166964     -241.020638     -241.055808  0.912708-10.271913  8.615527
   scf:   15     -244.695005     -244.491796     -244.534720  0.212781-10.389980  0.463919
   scf:   16     -242.705172     -243.892629     -243.937266  0.103082-10.337196  4.116800
   scf:   17     -244.640451     -244.458659     -244.502792  0.088691-10.367104  0.972429
   scf:   18     -244.253416     -244.373965     -244.419978  0.031069-10.393748  1.769079
   scf:   19     -166.155985     -219.357205     -219.385012  0.590904-10.361859 20.216235
   scf:   20     -242.742084     -244.473055     -244.519739  0.568322-10.424159  0.793104
   scf:   21     -244.506661     -244.493886     -244.542348  0.013070-10.435702  0.550965
   scf:   22     -244.433486     -244.468635     -244.515429  0.011416-10.424707  0.946591
   scf:   23     -244.491933     -244.480807     -244.528204  0.005216-10.429767  0.807341
   scf:   24     -244.101702     -244.407733     -244.465098  0.041669-10.448713  1.341984
   scf:   25     -244.398521     -244.495639     -244.544515  0.033070-10.436377  0.551604
   scf:   26     -244.510383     -244.504085     -244.554056  0.004917-10.439373  0.356979
   scf:   27     -244.507506     -244.505910     -244.556064  0.001936-10.440081  0.277107
   scf:   28     -244.508377     -244.507297     -244.557928  0.001950-10.440830  0.223498
   scf:   29     -244.507386     -244.508602     -244.560250  0.003847-10.442648  0.011738
   scf:   30     -244.508808     -244.508712     -244.560258  0.000406-10.442495  0.013653
   scf:   31     -244.508904     -244.508812     -244.560250  0.000482-10.442298  0.022059
   scf:   32     -244.508810     -244.508823     -244.560267  0.000563-10.442329  0.003541
   scf:   33     -244.508870     -244.508847     -244.560268  0.000103-10.442307  0.001709
   scf:   34     -244.508846     -244.508846     -244.560268  0.000008-10.442310  0.001881
   scf:   35     -244.508847     -244.508847     -244.560268  0.000057-10.442312  0.000344

SCF Convergence by FreeE+DM+H criterion
|FreeE_i-FreeE_(i-1)| (eV) <     0.00100000
max |DM_out - DM_in|         :     0.0000572631
max |H_out - H_in|      (eV) :     0.0003441541
SCF cycle converged after 35 iterations

Using DM_out to compute the final energy and forces
No. of atoms with KB's overlaping orbs in proc 0. Max # of overlaps:     373     648

MM-Stress (kbar):      -11.56      -11.56       18.57        0.00        0.00       -0.00

siesta: E_KS(eV) =             -244.5088

siesta: E_KS - E_eggbox =      -244.5088

siesta: Atomic forces (eV/Ang):
     1    0.000000    0.000000    0.000013
     2   -0.076379    0.132284   -0.379211
     3    0.076394   -0.132310    0.379203
     4   -0.076415   -0.132355   -0.379272
     5    0.076430    0.132380    0.379264
     6    0.152751   -0.000004   -0.379211
     7   -0.152781    0.000004    0.379203
     8    0.076379   -0.132284   -0.379211
     9   -0.076394    0.132310    0.379203
    10    0.076415    0.132355   -0.379272
    11   -0.076430   -0.132380    0.379264
    12   -0.152751    0.000004   -0.379211
    13    0.152781   -0.000004    0.379203
    14    0.016432   -0.028511    0.000006
    15   -0.016432    0.028511    0.000006
    16    0.016425    0.028449    0.000006
    17   -0.016425   -0.028449    0.000006
    18   -0.032908   -0.000025    0.000006
    19    0.032908    0.000025    0.000006
----------------------------------------
   Tot   -0.000000   -0.000000   -0.000000
----------------------------------------
   Max    0.379272
   Res    0.187897    sqrt( Sum f_i^2 / 3N )
----------------------------------------
   Max    0.379272    constrained

Stress tensor Voigt[x,y,z,yz,xz,xy] (kbar):     -906.07     -906.08      192.89        0.00       -0.00       -0.01
(Free)E + p*V (eV/cell)     -166.1364
Target enthalpy (eV/cell)     -244.5603

siesta: Eigenvalues (eV):
  ik is       eps
   1  1  -19.3250  -13.8014  -12.5823  -12.0256  -12.0097  -11.4646  -11.2181  -10.6270  -10.6180  -10.4555
         -10.3728  -10.3499  -10.1204  -10.1203   -9.2017   -6.6179   -4.0905   -4.0905   -3.6186   -3.6186
   -3.5027   -3.5027   -3.4299   -3.4299   -3.0541   -3.0541   -2.4611   -2.4611   -1.1793   -1.1793
   -1.0780   -1.0779   -0.6829   -0.6829   -0.0960   -0.0960    0.3150    0.3150    0.9439    0.9440
    5.6988   12.2993   12.2995   16.4741   16.4741   16.4756   16.4756   16.6770   16.6771   19.2908
   19.2909   20.1126   20.1126   20.6344   20.6345   21.2083   21.2083   21.4915   21.4915   25.2430
   25.3588   25.6997   26.0348   26.0351   29.0768   29.0768   34.0048   34.0048   34.8147   34.8147
   38.9851   39.0294   39.0294   39.6267   46.3883   46.4466   47.0527   48.4127   48.6091   48.8091
   59.3467
   2  1  -19.1075  -13.6191  -12.5823  -11.9492  -11.8046  -11.4969  -11.4096  -11.0415  -10.9531  -10.5297
         -10.5262  -10.4414  -10.0609   -8.6660   -8.3928   -8.0851   -7.2709   -6.5901   -5.6554   -5.1131
   -5.0893   -4.3032   -3.9382   -3.0990   -2.7177   -2.6666   -2.3057   -1.0512   -0.4239   -0.4031
   -0.1099   -0.0881    0.3931    0.7630    1.5957    2.0710    2.0859    2.1588    2.4827    2.6812
    2.8378    2.9941    3.3013   10.2187   10.7501   11.6088   12.4528   12.7177   12.7976   13.7523
   14.0369   14.2779   14.4375   14.9381   15.1612   15.7945   17.1712   17.4131   18.7480   19.2329
   19.2337   19.4447   20.2422   22.1014   24.8273   25.4705   25.5510   25.8019   26.1002   26.5415
   27.6857   34.2879   49.9147   50.0931   51.1770   52.1454   52.4070   52.7678   56.1218   56.3635
   57.2728
   3  1  -19.1075  -13.6191  -12.5823  -11.9492  -11.8046  -11.4969  -11.4096  -11.0415  -10.9531  -10.5297
         -10.5262  -10.4414  -10.0609   -8.6660   -8.3928   -8.0851   -7.2709   -6.5901   -5.6554   -5.1131
   -5.0893   -4.3032   -3.9382   -3.0990   -2.7177   -2.6666   -2.3057   -1.0512   -0.4239   -0.4031
   -0.1099   -0.0881    0.3931    0.7630    1.5957    2.0710    2.0859    2.1588    2.4827    2.6812
    2.8378    2.9941    3.3013   10.2187   10.7501   11.6088   12.4528   12.7177   12.7976   13.7523
   14.0369   14.2779   14.4375   14.9381   15.1612   15.7945   17.1712   17.4131   18.7480   19.2329
   19.2337   19.4447   20.2422   22.1014   24.8273   25.4705   25.5510   25.8019   26.1002   26.5415
   27.6857   34.2879   49.9147   50.0931   51.1770   52.1454   52.4070   52.7678   56.1218   56.3635
   57.2728
   4  1  -19.1075  -13.6191  -12.5824  -11.9492  -11.8046  -11.4969  -11.4096  -11.0415  -10.9531  -10.5297
         -10.5262  -10.4414  -10.0609   -8.6660   -8.3928   -8.0851   -7.2709   -6.5900   -5.6554   -5.1131
   -5.0893   -4.3032   -3.9382   -3.0990   -2.7177   -2.6666   -2.3057   -1.0511   -0.4239   -0.4031
   -0.1099   -0.0881    0.3932    0.7630    1.5957    2.0710    2.0859    2.1588    2.4827    2.6812
    2.8378    2.9941    3.3013   10.2187   10.7503   11.6088   12.4528   12.7176   12.7976   13.7523
   14.0369   14.2778   14.4375   14.9381   15.1611   15.7945   17.1712   17.4130   18.7480   19.2329
   19.2337   19.4447   20.2423   22.1012   24.8273   25.4705   25.5510   25.8019   26.1001   26.5414
   27.6855   34.2879   49.9146   50.0931   51.1770   52.1454   52.4070   52.7677   56.1219   56.3636
   57.2730
   5  1  -19.3293  -13.7844  -12.4974  -12.2958  -11.7976  -11.5353  -11.0525  -10.6015  -10.5942  -10.4395
         -10.4034  -10.3354  -10.1204  -10.1203   -9.1340   -6.6489   -4.0461   -4.0461   -3.7749   -3.7749
   -3.4777   -3.4777   -3.3811   -3.3811   -2.7788   -2.7788   -2.7514   -2.7514   -1.2390   -1.2389
   -0.9148   -0.9148   -0.4309   -0.4309   -0.1938   -0.1937   -0.0542   -0.0542    1.0943    1.0944
    5.8901   12.8097   12.8099   15.2898   15.2899   17.3093   17.3094   18.1559   18.1559   18.4802
   18.4802   18.8241   18.8241   19.6062   19.6062   21.7928   21.7928   22.6877   22.6877   25.2373
   25.3493   25.7147   25.7966   25.7970   29.0921   29.0921   34.4609   34.4610   34.4905   34.4905
   36.8912   38.9938   38.9938   46.1227   46.3305   47.1507   48.1458   48.2031   48.2765   48.4103
   49.1354
   6  1  -19.1076  -13.6221  -12.5866  -11.9442  -11.8123  -11.4989  -11.4486  -11.0229  -10.9646  -10.5697
         -10.5296  -10.4416   -9.9966   -8.4784   -8.4071   -8.3976   -7.1132   -6.4367   -5.7494   -5.2335
   -4.7534   -4.6893   -3.6141   -3.2933   -3.0329   -2.2626   -1.9398   -1.5055   -0.4315   -0.3337
   -0.2648    0.0124    0.4299    0.7196    1.5141    2.0671    2.1714    2.2693    2.3596    2.6819
    2.7740    3.0433    3.3076    9.7095   10.9927   11.5665   11.6051   12.7858   13.9270   14.0240
   15.0701   15.1121   15.2774   15.3680   15.4898   15.5772   16.4311   16.9445   17.6028   17.7003
   18.0299   19.7953   20.1283   23.3662   24.9562   25.0267   25.5850   26.0455   26.1109   26.4808
   27.6698   34.2949   49.8016   50.4906   50.9056   52.1590   52.4294   52.7727   56.2739   56.6613
   56.8099
   7  1  -19.1076  -13.6221  -12.5866  -11.9442  -11.8123  -11.4989  -11.4486  -11.0229  -10.9646  -10.5697
         -10.5296  -10.4416   -9.9966   -8.4784   -8.4071   -8.3976   -7.1132   -6.4367   -5.7494   -5.2335
   -4.7534   -4.6893   -3.6141   -3.2933   -3.0329   -2.2626   -1.9398   -1.5055   -0.4315   -0.3337
   -0.2648    0.0124    0.4299    0.7196    1.5141    2.0671    2.1714    2.2693    2.3596    2.6819
    2.7740    3.0433    3.3076    9.7095   10.9927   11.5665   11.6051   12.7858   13.9270   14.0240
   15.0701   15.1121   15.2774   15.3680   15.4898   15.5772   16.4311   16.9445   17.6028   17.7003
   18.0299   19.7953   20.1283   23.3662   24.9562   25.0267   25.5850   26.0455   26.1109   26.4808
   27.6698   34.2949   49.8016   50.4906   50.9056   52.1590   52.4294   52.7727   56.2739   56.6613
   56.8099
   8  1  -19.1076  -13.6221  -12.5866  -11.9442  -11.8123  -11.4989  -11.4486  -11.0229  -10.9646  -10.5697
         -10.5296  -10.4417   -9.9966   -8.4784   -8.4071   -8.3976   -7.1132   -6.4366   -5.7494   -5.2335
   -4.7534   -4.6893   -3.6141   -3.2933   -3.0329   -2.2627   -1.9397   -1.5055   -0.4315   -0.3337
   -0.2648    0.0124    0.4299    0.7196    1.5141    2.0671    2.1714    2.2693    2.3596    2.6819
    2.7740    3.0433    3.3076    9.7095   10.9930   11.5665   11.6051   12.7858   13.9270   14.0241
   15.0700   15.1122   15.2773   15.3680   15.4898   15.5772   16.4311   16.9445   17.6027   17.7003
   18.0299   19.7954   20.1284   23.3660   24.9562   25.0267   25.5849   26.0454   26.1108   26.4807
   27.6696   34.2949   49.8015   50.4906   50.9056   52.1590   52.4294   52.7727   56.2740   56.6614
   56.8100
siesta: Fermi energy =     -10.442312 eV

siesta: Program's energy decomposition (eV):
siesta: Ebs     =      -269.818087
siesta: Eions   =       439.895300
siesta: Ena     =       153.024267
siesta: Ekin    =       194.357950
siesta: Enl     =        48.800698
siesta: Eso     =         0.000000
siesta: Edftu   =         0.000000
siesta: DEna    =         4.853075
siesta: DUscf   =         3.199455
siesta: DUext   =         0.000000
siesta: Exc     =      -201.371169
siesta: eta*DQ  =         0.000000
siesta: Emadel  =         0.000000
siesta: Emeta   =         0.000000
siesta: Emolmec =        -7.477822
siesta: Ekinion =         0.000000
siesta: Eharris =      -244.508847
siesta: Etot    =      -244.508847
siesta: FreeEng =      -244.560268

siesta: Final energy (eV):
siesta:  Band Struct. =    -269.818087
siesta:       Kinetic =     194.357950
siesta:       Hartree =     116.226202
siesta:       Edftu   =       0.000000
siesta:       Eso     =       0.000000
siesta:    Ext. field =       0.000000
siesta:   Exch.-corr. =    -201.371169
siesta:  Ion-electron =    -494.978897
siesta:       Ion-ion =     148.734889
siesta:       Ekinion =       0.000000
siesta:         Total =    -244.508847
siesta:         Fermi =     -10.442312

siesta: Atomic forces (eV/Ang):
siesta:      1    0.000000    0.000000    0.000013
siesta:      2   -0.076379    0.132284   -0.379211
siesta:      3    0.076394   -0.132310    0.379203
siesta:      4   -0.076415   -0.132355   -0.379272
siesta:      5    0.076430    0.132380    0.379264
siesta:      6    0.152751   -0.000004   -0.379211
siesta:      7   -0.152781    0.000004    0.379203
siesta:      8    0.076379   -0.132284   -0.379211
siesta:      9   -0.076394    0.132310    0.379203
siesta:     10    0.076415    0.132355   -0.379272
siesta:     11   -0.076430   -0.132380    0.379264
siesta:     12   -0.152751    0.000004   -0.379211
siesta:     13    0.152781   -0.000004    0.379203
siesta:     14    0.016432   -0.028511    0.000006
siesta:     15   -0.016432    0.028511    0.000006
siesta:     16    0.016425    0.028449    0.000006
siesta:     17   -0.016425   -0.028449    0.000006
siesta:     18   -0.032908   -0.000025    0.000006
siesta:     19    0.032908    0.000025    0.000006
siesta: ----------------------------------------
siesta:    Tot   -0.000000   -0.000000   -0.000000

siesta: Stress tensor (static) (eV/Ang**3):
siesta:    -0.565518   -0.000004   -0.000000
siesta:    -0.000004   -0.565523    0.000000
siesta:    -0.000000    0.000000    0.120393

siesta: Cell volume =        232.792832 Ang**3

siesta: Pressure (static):
siesta:                Solid            Molecule  Units
siesta:           0.00366908          0.00334693  Ry/Bohr**3
siesta:           0.33688264          0.30730389  eV/Ang**3
siesta:         539.75132974        492.36043352  kBar
(Free)E+ p_basis*V_orbitals  =        -196.731951
(Free)Eharris+ p_basis*V_orbitals  =        -196.731951

cite: Please see "LiC18_scf.bib" for an exhaustive BiBTeX file.
cite: Please clearly indicate Siesta version in published work: 4.1.5
cite: This calculation has made use of the following articles
cite: which are encouraged to be cited in a published work.
        Primary SIESTA paper
          DOI: www.doi.org/10.1088/0953-8984/14/11/302

>> End of run:   9-NOV-2022  10:44:14
Job completed
