Siesta Version  : 4.1.5
Architecture    : x86_64-unknown-linux-gnu--unknown
Compiler version: GNU Fortran (GCC) 11.3.0
Compiler flags  : mpif90 -g -O2 -fallow-argument-mismatch
PP flags        : -DMPI -DFC_HAVE_FLUSH -DFC_HAVE_ABORT
Libraries       :  -I/global/software/sl-7.x86_64/modules/intel/2020.4.304/mkl/include  /globall/software/sl-7.x86_64/modules/intel/2020.4.304/mkl/lib/intel64/libmkl_scalapack_lp64.a -Wl,--start-group /global/software/sl-7.x86_64/modules/intel/2020.4.304/mkl/lib/intel64/libmkl_intel_lp64.a /global/software/sl-7.x86_64/modules/intel/2020.4.304/mkl/lib/intel64/libmkl_sequential.a /global/software/sl-7.x86_64/modules/intel/2020.4.304/mkl/lib/intel64/libmkl_core.a /global/software/sl-7.x86_64/modules/intel/2020.4.304/mkl/lib/intel64/libmkl_blacs_openmpi_lp64.a -Wl,--end-group -lpthread -lm -ldl
PARALLEL version

* Running on 16 nodes in parallel
>> Start of run:   9-NOV-2022   8:59:00

                           ***********************       
                           *  WELCOME TO SIESTA  *       
                           ***********************       

reinit: Reading from standard input
reinit: Dumped input in INPUT_TMP.15517
************************** Dump of input data file ****************************
SystemName LiC18_scf
SystemLabel LiC18_scf
NumberOfAtoms   19
NumberOfSpecies 2
%block ChemicalSpeciesLabel
1  3   Li-gga
2  6   C-gga
%endblock ChemicalSpeciesLabel
PAO.BasisSize  SZP
PAO.EnergyShift  10 meV
%block PS.Lmax
C-gga   2
Li-gga  2
%endblock PS.Lmax
LatticeConstant 1.000000 Ang
%block LatticeVectors
	4.3161300000	0.0000000000	0.0000000000
	-2.1580650000	3.7378782260	0.0000000000
	0.0000000000	0.0000000000	10.4336061400
%endblock LatticeVectors
AtomicCoordinatesFormat Ang
%block AtomicCoordinatesAndAtomicSpecies
	0.00000000	0.00000000	0.00000000	2
	-0.70288177	1.21742694	1.73893783	1
	-1.45518323	2.52045129	8.69466831	1
	1.45518323	2.52045129	1.73893783	1
	0.70288177	1.21742694	8.69466831	1
	1.40576354	0.00000000	1.73893783	1
	2.91036646	0.00000000	8.69466831	1
	-1.45518323	2.52045129	1.73893783	1
	-0.70288177	1.21742694	8.69466831	1
	0.70288177	1.21742694	1.73893783	1
	1.45518323	2.52045129	8.69466831	1
	2.91036646	0.00000000	1.73893783	1
	1.40576354	0.00000000	8.69466831	1
	-0.70288177	1.21742694	5.21680307	1
	-1.45518323	2.52045129	5.21680307	1
	1.45518323	2.52045129	5.21680307	1
	0.70288177	1.21742694	5.21680307	1
	1.40576354	0.00000000	5.21680307	1
	2.91036646	0.00000000	5.21680307	1
%endblock AtomicCoordinatesAndAtomicSpecies
Kgrid_NoTRS  T
%block kgrid_MonkhorstPack
2       0       0       0.0
0       2       0       0.0
0       0       2       0.0
%endblock kgrid_MonkhorstPack
AtomCoorFormatOut Ang
BlockSize 1
#ProcessorY 12
Diag.ParallelOverK   T
Diag.DivideAndConquer F
MeshCutoff   300 Ry
SCF.FreeE.Tolerance 1E-3 eV
SCF.EDM.Tolerance   5E-3 eV
DM.Tolerance  1E-3
DM.Require.Energy.Convergence T
DM.NumberPulay 4
XC.Functional GGA
XC.Authors    PBE
UseSaveData        F
MD.TypeOfRun       CG
MD.VariableCell    F
MD.NumCGsteps      00
MD.MaxCGDispl      0.200000 Bohr
MD.MaxStressTol    1.000000 GPa
MD.MaxForceTol     0.010000 eV/Ang
WriteMDHistory T
WriteCoorStep T
WriteForces T
WriteCoorStep    T
WriteEigenValues T
WriteDM    F
MM.UnitsDistance Ang  # what this program prints out DO NOT CHANGE
MM.UnitsEnergy    eV  # what this program prints out DO NOT CHANGE
MM.Grimme.S6     0.75 # Grimme-paper for PBE (correct for your functional)
MM.Grimme.D     20.   # Grimme-paper (correct for your functional)
%block MM.Potentials
  1   1 Grimme     16.69      1.650 # Li, 10.1002/jcc.20495
  1   2 Grimme     17.40      2.277 # Li / C
  2   2 Grimme     18.14      2.904 # C, 10.1002/jcc.20495
%endblock MM.Potentials
#%block ProjectedDensityOfStates
# -200.0  120.0  0.4  12800  eV
#%endblock ProjectedDensityOfStates
************************** End of input data file *****************************

reinit: -----------------------------------------------------------------------
reinit: System Name: LiC18_scf
reinit: -----------------------------------------------------------------------
reinit: System Label: LiC18_scf
reinit: -----------------------------------------------------------------------
Reading two-body potentials
Grimme - two-body potential between 1 and 1
Grimme - two-body potential between 1 and 2
Grimme - two-body potential between 2 and 2

initatom: Reading input for the pseudopotentials and atomic orbitals ----------
Species number:   1 Atomic number:    3 Label: Li-gga
Species number:   2 Atomic number:    6 Label: C-gga

Ground state valence configuration:   2s01
Reading pseudopotential information in formatted form from Li-gga.psf

Valence configuration for pseudopotential generation:
2s( 1.00) rc: 2.28
2p( 0.00) rc: 2.28
3d( 0.00) rc: 2.59
4f( 0.00) rc: 2.59
Ground state valence configuration:   2s02  2p02
Reading pseudopotential information in formatted form from C-gga.psf

Valence configuration for pseudopotential generation:
2s( 2.00) rc: 1.56
2p( 2.00) rc: 1.56
3d( 0.00) rc: 1.56
4f( 0.00) rc: 1.56
relmxkb: Read Max KB Ang. Momentum=    2 for species C-gga
relmxkb: Read Max KB Ang. Momentum=    2 for species Li-gga

<basis_specs>
===============================================================================
Li-gga               Z=   3    Mass=  6.9400        Charge= 0.17977+309
Lmxo=0 Lmxkb= 2    BasisType=split      Semic=F
L=0  Nsemic=0  Cnfigmx=2
          i=1  nzeta=1  polorb=1  (2s)
            splnorm:   0.15000    
               vcte:    0.0000    
               rinn:    0.0000    
               qcoe:    0.0000    
               qyuk:    0.0000    
               qwid:   0.10000E-01
                rcs:    0.0000    
            lambdas:    1.0000    
-------------------------------------------------------------------------------
L=0  Nkbl=1  erefs: 0.17977+309
L=1  Nkbl=1  erefs: 0.17977+309
L=2  Nkbl=1  erefs: 0.17977+309
===============================================================================
</basis_specs>

atom: Called for Li-gga                (Z =   3)

read_vps: Pseudopotential generation method:
read_vps: ATM 3.2.2 Troullier-Martins                       
Valence charge for ps generation:    1.00000

read_vps: Pseudopotential includes a core correction:
read_vps: Pseudo-core for xc-correction

xc_check: Exchange-correlation functional:
xc_check: GGA Perdew, Burke & Ernzerhof 1996
V l=0 = -2*Zval/r beyond r=  2.2278
V l=1 = -2*Zval/r beyond r=  2.2278
V l=2 = -2*Zval/r beyond r=  2.5245
All V_l potentials equal beyond r=  2.4622
This should be close to max(r_c) in ps generation
All pots = -2*Zval/r beyond r=  2.5245

VLOCAL1: 99.0% of the norm of Vloc inside      7.160 Ry
VLOCAL1: 99.9% of the norm of Vloc inside     16.318 Ry
atom: Maximum radius for 4*pi*r*r*local-pseudopot. charge    2.86079
atom: Maximum radius for r*vlocal+2*Zval:    2.43160
GHOST: No ghost state for L =  0
GHOST: No ghost state for L =  1
GHOST: No ghost state for L =  2

KBgen: Kleinman-Bylander projectors: 
   l= 0   rc=  2.654023   el= -0.211234   Ekb=  1.742119   kbcos=  0.228463
   l= 1   rc=  2.721230   el= -0.080095   Ekb= -1.122375   kbcos= -0.147941
   l= 2   rc=  2.825246   el=  0.002001   Ekb= -0.207076   kbcos= -0.031965

KBgen: Total number of Kleinman-Bylander projectors:    9
atom: -------------------------------------------------------------------------

atom: SANKEY-TYPE ORBITALS:

SPLIT: Orbitals with angular momentum L= 0

SPLIT: Basis orbitals for state 2s

SPLIT: PAO cut-off radius determined from an
SPLIT: energy shift=  0.000735 Ry

   izeta = 1
                 lambda =    1.000000
                     rc =   11.897381
                 energy =   -0.210580
                kinetic =    0.143382
    potential(screened) =   -0.353962
       potential(ionic) =   -0.533453

POLgen: Perturbative polarization orbital with L=  1

POLgen: Polarization orbital for state 2s

   izeta = 1
                     rc =   11.897381
                 energy =   -0.027011
                kinetic =    0.282985
    potential(screened) =   -0.309997
       potential(ionic) =   -0.490997
atom: Total number of Sankey-type orbitals:  4

atm_pop: Valence configuration (for local Pseudopot. screening):
 2s( 1.00)                                                            
Vna: chval, zval:    1.00000   1.00000

Vna:  Cut-off radius for the neutral-atom potential:  11.897381
comcore: Pseudo-core radius Rcore=  3.450946

atom: _________________________________________________________________________

<basis_specs>
===============================================================================
C-gga                Z=   6    Mass=  12.010        Charge= 0.17977+309
Lmxo=1 Lmxkb= 2    BasisType=split      Semic=F
L=0  Nsemic=0  Cnfigmx=2
          i=1  nzeta=1  polorb=0  (2s)
            splnorm:   0.15000    
               vcte:    0.0000    
               rinn:    0.0000    
               qcoe:    0.0000    
               qyuk:    0.0000    
               qwid:   0.10000E-01
                rcs:    0.0000    
            lambdas:    1.0000    
L=1  Nsemic=0  Cnfigmx=2
          i=1  nzeta=1  polorb=1  (2p)
            splnorm:   0.15000    
               vcte:    0.0000    
               rinn:    0.0000    
               qcoe:    0.0000    
               qyuk:    0.0000    
               qwid:   0.10000E-01
                rcs:    0.0000    
            lambdas:    1.0000    
-------------------------------------------------------------------------------
L=0  Nkbl=1  erefs: 0.17977+309
L=1  Nkbl=1  erefs: 0.17977+309
L=2  Nkbl=1  erefs: 0.17977+309
===============================================================================
</basis_specs>

atom: Called for C-gga                 (Z =   6)

read_vps: Pseudopotential generation method:
read_vps: ATM 3.2.2 Troullier-Martins                       
Valence charge for ps generation:    4.00000

xc_check: Exchange-correlation functional:
xc_check: GGA Perdew, Burke & Ernzerhof 1996
V l=0 = -2*Zval/r beyond r=  1.5227
V l=1 = -2*Zval/r beyond r=  1.5227
V l=2 = -2*Zval/r beyond r=  1.5227
All V_l potentials equal beyond r=  1.4851
This should be close to max(r_c) in ps generation
All pots = -2*Zval/r beyond r=  1.5227

VLOCAL1: 99.0% of the norm of Vloc inside     19.682 Ry
VLOCAL1: 99.9% of the norm of Vloc inside     44.856 Ry
atom: Maximum radius for 4*pi*r*r*local-pseudopot. charge    1.79142
atom: Maximum radius for r*vlocal+2*Zval:    1.54183
GHOST: No ghost state for L =  0
GHOST: No ghost state for L =  1
GHOST: No ghost state for L =  2

KBgen: Kleinman-Bylander projectors: 
   l= 0   rc=  1.661951   el= -1.010689   Ekb=  5.289847   kbcos=  0.316429
   l= 1   rc=  1.661951   el= -0.388490   Ekb= -4.102504   kbcos= -0.351025
   l= 2   rc=  1.747182   el=  0.001971   Ekb= -1.006005   kbcos= -0.008530

KBgen: Total number of Kleinman-Bylander projectors:    9
atom: -------------------------------------------------------------------------

atom: SANKEY-TYPE ORBITALS:

SPLIT: Orbitals with angular momentum L= 0

SPLIT: Basis orbitals for state 2s

SPLIT: PAO cut-off radius determined from an
SPLIT: energy shift=  0.000735 Ry

   izeta = 1
                 lambda =    1.000000
                     rc =    5.948690
                 energy =   -1.010099
                kinetic =    0.827121
    potential(screened) =   -1.837220
       potential(ionic) =   -5.392783

SPLIT: Orbitals with angular momentum L= 1

SPLIT: Basis orbitals for state 2p

SPLIT: PAO cut-off radius determined from an
SPLIT: energy shift=  0.000735 Ry

   izeta = 1
                 lambda =    1.000000
                     rc =    7.638387
                 energy =   -0.387843
                kinetic =    2.314739
    potential(screened) =   -2.702582
       potential(ionic) =   -6.092371

POLgen: Perturbative polarization orbital with L=  2

POLgen: Polarization orbital for state 2p

   izeta = 1
                     rc =    7.638387
                 energy =    0.921402
                kinetic =    1.955040
    potential(screened) =   -1.033637
       potential(ionic) =   -3.679558
atom: Total number of Sankey-type orbitals:  9

atm_pop: Valence configuration (for local Pseudopot. screening):
 2s( 2.00)                                                            
 2p( 2.00)                                                            
Vna: chval, zval:    4.00000   4.00000

Vna:  Cut-off radius for the neutral-atom potential:   7.638387

atom: _________________________________________________________________________

prinput: Basis input ----------------------------------------------------------

PAO.BasisType split     

%block ChemicalSpeciesLabel
    1    3 Li-gga                  # Species index, atomic number, species label
    2    6 C-gga                   # Species index, atomic number, species label
%endblock ChemicalSpeciesLabel

%block PAO.Basis                 # Define Basis set
Li-gga                1                    # Species label, number of l-shells
 n=2   0   1 P   1                   # n, l, Nzeta, Polarization, NzetaPol
  11.897   
   1.000   
C-gga                 2                    # Species label, number of l-shells
 n=2   0   1                         # n, l, Nzeta 
   5.949   
   1.000   
 n=2   1   1 P   1                   # n, l, Nzeta, Polarization, NzetaPol
   7.638   
   1.000   
%endblock PAO.Basis

prinput: ----------------------------------------------------------------------

coor:   Atomic-coordinates input format  =     Cartesian coordinates
coor:                                          (in Angstroms)

siesta: Atomic coordinates (Bohr) and species
siesta:      0.00000   0.00000   0.00000  2        1
siesta:     -1.32825   2.30060   3.28612  1        2
siesta:     -2.74990   4.76296  16.43055  1        3
siesta:      2.74990   4.76296   3.28612  1        4
siesta:      1.32825   2.30060  16.43055  1        5
siesta:      2.65651   0.00000   3.28612  1        6
siesta:      5.49980   0.00000  16.43055  1        7
siesta:     -2.74990   4.76296   3.28612  1        8
siesta:     -1.32825   2.30060  16.43055  1        9
siesta:      1.32825   2.30060   3.28612  1       10
siesta:      2.74990   4.76296  16.43055  1       11
siesta:      5.49980   0.00000   3.28612  1       12
siesta:      2.65651   0.00000  16.43055  1       13
siesta:     -1.32825   2.30060   9.85833  1       14
siesta:     -2.74990   4.76296   9.85833  1       15
siesta:      2.74990   4.76296   9.85833  1       16
siesta:      1.32825   2.30060   9.85833  1       17
siesta:      2.65651   0.00000   9.85833  1       18
siesta:      5.49980   0.00000   9.85833  1       19

siesta: System type = bulk      

initatomlists: Number of atoms, orbitals, and projectors:     19    81   171

siesta: ******************** Simulation parameters ****************************
siesta:
siesta: The following are some of the parameters of the simulation.
siesta: A complete list of the parameters used, including default values,
siesta: can be found in file out.fdf
siesta:
redata: Spin configuration                          = none
redata: Number of spin components                   = 1
redata: Time-Reversal Symmetry                      = T
redata: Spin spiral                                 = F
redata: Long output                                 =   F
redata: Number of Atomic Species                    =        2
redata: Charge density info will appear in .RHO file
redata: Write Mulliken Pop.                         = NO
redata: Matel table size (NRTAB)                    =     1024
redata: Mesh Cutoff                                 =   300.0000 Ry
redata: Net charge of the system                    =     0.0000 |e|
redata: Min. number of SCF Iter                     =        0
redata: Max. number of SCF Iter                     =     1000
redata: SCF convergence failure will abort job
redata: SCF mix quantity                            = Hamiltonian
redata: Mix DM or H after convergence               =   F
redata: Recompute H after scf cycle                 =   F
redata: Mix DM in first SCF step                    =   T
redata: Write Pulay info on disk                    =   F
redata: New DM Occupancy tolerance                  = 0.000000000001
redata: No kicks to SCF
redata: DM Mixing Weight for Kicks                  =     0.5000
redata: Require Harris convergence for SCF          =   F
redata: Harris energy tolerance for SCF             =     0.000100 eV
redata: Require DM convergence for SCF              =   T
redata: DM tolerance for SCF                        =     0.001000
redata: Require EDM convergence for SCF             =   F
redata: EDM tolerance for SCF                       =     0.005000 eV
redata: Require H convergence for SCF               =   T
redata: Hamiltonian tolerance for SCF               =     0.001000 eV
redata: Require (free) Energy convergence for SCF   =   T
redata: (free) Energy tolerance for SCF             =     0.001000 eV
redata: Using Saved Data (generic)                  =   F
redata: Use continuation files for DM               =   F
redata: Neglect nonoverlap interactions             =   F
redata: Method of Calculation                       = Diagonalization
redata: Electronic Temperature                      =   299.9869 K
redata: Fix the spin of the system                  =   F
redata: Dynamics option                             = Single-point calculation
mix.SCF: Pulay mixing                            = Pulay
mix.SCF:    Variant                              = stable
mix.SCF:    History steps                        = 4
mix.SCF:    Linear mixing weight                 =     0.250000
mix.SCF:    Mixing weight                        =     0.250000
mix.SCF:    SVD condition                        = 0.1000E-07
redata: ***********************************************************************

%block SCF.Mixers
  Pulay
%endblock SCF.Mixers

%block SCF.Mixer.Pulay
  # Mixing method
  method pulay
  variant stable

  # Mixing options
  weight 0.2500
  weight.linear 0.2500
  history 4
%endblock SCF.Mixer.Pulay

DM_history_depth set to one: no extrapolation allowed by default for geometry relaxation
Size of DM history Fstack: 1
Total number of electrons:    22.000000
Total ionic charge:    22.000000

* ProcessorY, Blocksize:    4   1


* Orbital distribution balance (max,min):     6     5

k-point displ. along   1 input, could be:     0.00    0.50
k-point displ. along   2 input, could be:     0.00    0.50
k-point displ. along   3 input, could be:     0.00    0.50
 Kpoints in:            8 . Kpoints trimmed:            8

siesta: k-grid: Number of k-points =     8
siesta: k-grid: Cutoff (effective) =     4.316 Ang
siesta: k-grid: Supercell and displacements
siesta: k-grid:    2   0   0      0.000
siesta: k-grid:    0   2   0      0.000
siesta: k-grid:    0   0   2      0.000

diag: Algorithm                                     = Expert
diag: Parallel over k                               =   T
diag: Use parallel 2D distribution                  =   T
diag: Parallel block-size                           = 1
diag: Parallel distribution                         =     4 x     4
diag: Used triangular part                          = Lower
diag: Absolute tolerance                            =  0.100E-15
diag: Orthogonalization factor                      =  0.100E-05
diag: Memory factor                                 =  1.0000

superc: Internal auxiliary supercell:     9 x     9 x     5  =     405
superc: Number of atoms, orbitals, and projectors:   7695  32805  69255


ts: **************************************************************
ts: Save H and S matrices                           =    F
ts: Save DM and EDM matrices                        =    F
ts: Only save the overlap matrix S                  =    F
ts: **************************************************************

************************ Begin: TS CHECKS AND WARNINGS ************************
************************ End: TS CHECKS AND WARNINGS **************************


                     ====================================
                        Single-point calculation
                     ====================================

outcoor: Atomic coordinates (Ang):                          
    0.00000000    0.00000000    0.00000000   2       1  C-gga
   -0.70288177    1.21742694    1.73893783   1       2  Li-gga
   -1.45518323    2.52045129    8.69466831   1       3  Li-gga
    1.45518323    2.52045129    1.73893783   1       4  Li-gga
    0.70288177    1.21742694    8.69466831   1       5  Li-gga
    1.40576354    0.00000000    1.73893783   1       6  Li-gga
    2.91036646    0.00000000    8.69466831   1       7  Li-gga
   -1.45518323    2.52045129    1.73893783   1       8  Li-gga
   -0.70288177    1.21742694    8.69466831   1       9  Li-gga
    0.70288177    1.21742694    1.73893783   1      10  Li-gga
    1.45518323    2.52045129    8.69466831   1      11  Li-gga
    2.91036646    0.00000000    1.73893783   1      12  Li-gga
    1.40576354    0.00000000    8.69466831   1      13  Li-gga
   -0.70288177    1.21742694    5.21680307   1      14  Li-gga
   -1.45518323    2.52045129    5.21680307   1      15  Li-gga
    1.45518323    2.52045129    5.21680307   1      16  Li-gga
    0.70288177    1.21742694    5.21680307   1      17  Li-gga
    1.40576354    0.00000000    5.21680307   1      18  Li-gga
    2.91036646    0.00000000    5.21680307   1      19  Li-gga

superc: Internal auxiliary supercell:     9 x     9 x     5  =     405
superc: Number of atoms, orbitals, and projectors:   7695  32805  69255

outcell: Unit cell vectors (Ang):
        4.316130    0.000000    0.000000
       -2.158065    3.737878    0.000000
        0.000000    0.000000   10.433606

outcell: Cell vector modules (Ang)   :    4.316130    4.316130   10.433606
outcell: Cell angles (23,13,12) (deg):     90.0000     90.0000    120.0000
outcell: Cell volume (Ang**3)        :    168.3271
<dSpData1D:S at geom step 0
  <sparsity:sparsity for geom step 0
    nrows_g=81 nrows=6 sparsity=5.2155 nnzs=34219, refcount: 7>
  <dData1D:(new from dSpData1D) n=34219, refcount: 1>
refcount: 1>
new_DM -- step:     1
Initializing Density Matrix...
DM filled with atomic data:
<dSpData2D:DM initialized from atoms
  <sparsity:sparsity for geom step 0
    nrows_g=81 nrows=6 sparsity=5.2155 nnzs=34219, refcount: 8>
  <dData2D:DM n=34219 m=1, refcount: 1>
refcount: 1>
No. of atoms with KB's overlaping orbs in proc 0. Max # of overlaps:     458     912
New grid distribution:   1
           1       1:   20    1:    5    1:   15
           2       1:   20    1:    5   16:   30
           3       1:   20    1:    5   31:   45
           4       1:   20    1:    5   46:   60
           5       1:   20    6:   10    1:   15
           6       1:   20    6:   10   16:   30
           7       1:   20    6:   10   31:   45
           8       1:   20    6:   10   46:   60
           9       1:   20   11:   15    1:   15
          10       1:   20   11:   15   16:   30
          11       1:   20   11:   15   31:   45
          12       1:   20   11:   15   46:   60
          13       1:   20   16:   20    1:   15
          14       1:   20   16:   20   16:   30
          15       1:   20   16:   20   31:   45
          16       1:   20   16:   20   46:   60

InitMesh: MESH =    40 x    40 x   120 =      192000
InitMesh: (bp) =    20 x    20 x    60 =       24000
InitMesh: Mesh cutoff (required, used) =   300.000   316.498 Ry
ExtMesh (bp) on 0 =   156 x   141 x   163 =     3585348
New grid distribution:   2
           1       1:   10    1:   10    1:   15
           2       1:   10    1:   10   16:   30
           3       1:   10    1:   10   31:   45
           4       1:   10    1:   10   46:   60
           5      11:   20    1:   10    1:   15
           6      11:   20    1:   10   16:   30
           7      11:   20    1:   10   31:   45
           8      11:   20    1:   10   46:   60
           9       1:   10   11:   20    1:   15
          10       1:   10   11:   20   16:   30
          11       1:   10   11:   20   31:   45
          12       1:   10   11:   20   46:   60
          13      11:   20   11:   20    1:   15
          14      11:   20   11:   20   16:   30
          15      11:   20   11:   20   31:   45
          16      11:   20   11:   20   46:   60
New grid distribution:   3
           1       1:   10    1:   10    1:   15
           2       1:   10    1:   10   16:   30
           3       1:   10    1:   10   31:   45
           4       1:   10    1:   10   46:   60
           5      11:   20    1:   10    1:   15
           6      11:   20    1:   10   16:   30
           7      11:   20    1:   10   31:   45
           8      11:   20    1:   10   46:   60
           9       1:   10   11:   20    1:   15
          10       1:   10   11:   20   16:   30
          11       1:   10   11:   20   31:   45
          12       1:   10   11:   20   46:   60
          13      11:   20   11:   20    1:   15
          14      11:   20   11:   20   16:   30
          15      11:   20   11:   20   31:   45
          16      11:   20   11:   20   46:   60
Setting up quadratic distribution...
ExtMesh (bp) on 0 =   146 x   146 x   163 =     3474508
PhiOnMesh: Number of (b)points on node 0 =                 1500
PhiOnMesh: nlist on node 0 =               725740

stepf: Fermi-Dirac step function

siesta: Program's energy decomposition (eV):
siesta: Ebs     =      -260.319021
siesta: Eions   =       439.895300
siesta: Ena     =       134.160664
siesta: Ekin    =       247.148073
siesta: Enl     =        22.370257
siesta: Eso     =         0.000000
siesta: Edftu   =         0.000000
siesta: DEna    =        -0.008747
siesta: DUscf   =        11.966653
siesta: DUext   =         0.000000
siesta: Exc     =      -218.446354
siesta: eta*DQ  =         0.000000
siesta: Emadel  =         0.000000
siesta: Emeta   =         0.000000
siesta: Emolmec =        -8.458936
siesta: Ekinion =         0.000000
siesta: Eharris =      -219.320165
siesta: Etot    =      -251.163690
siesta: FreeEng =      -251.200864

        iscf     Eharris(eV)        E_KS(eV)     FreeEng(eV)     dDmax    Ef(eV) dHmax(eV)
   scf:    1     -219.320165     -251.163690     -251.200864  1.503873-12.160952 13.774655
timer: Routine,Calls,Time,% = IterSCF        1      10.312  52.39
   scf:    2     -133.607672     -223.954460     -223.992489  0.860032-11.862473 24.761550
   scf:    3     -241.067495     -256.536880     -256.567785  0.648240-12.178230  5.936586
   scf:    4     -257.341411     -257.826014     -257.847564  0.209477-12.146354  1.105801
   scf:    5     -257.734185     -257.780775     -257.802449  0.006514-12.142003  1.260682
   scf:    6     -257.460490     -257.978252     -258.018161  0.125375-12.166125  1.641539
   scf:    7     -253.306479     -256.153263     -256.182918  0.162483-12.112584  6.277558
   scf:    8     -257.705680     -256.990713     -257.026434  0.059645-12.135952  4.859210
   scf:    9     -258.473022     -257.912050     -257.951537  0.100048-12.166787  2.141263
   scf:   10     -258.143687     -258.129263     -258.164297  0.067787-12.181751  0.084557
   scf:   11     -258.127744     -258.131377     -258.164220  0.011700-12.181116  0.166880
   scf:   12     -258.129416     -258.130978     -258.163768  0.007673-12.178757  0.235218
   scf:   13     -258.132752     -258.132396     -258.165924  0.004598-12.178799  0.081118
   scf:   14     -258.132150     -258.132366     -258.166202  0.001918-12.178193  0.015512
   scf:   15     -258.132390     -258.132380     -258.166192  0.000301-12.178294  0.022315
   scf:   16     -258.132395     -258.132388     -258.166201  0.000368-12.178174  0.018958
   scf:   17     -258.132316     -258.132355     -258.166216  0.000912-12.177937  0.007140
   scf:   18     -258.132375     -258.132366     -258.166216  0.000227-12.177826  0.003991
   scf:   19     -258.132253     -258.132311     -258.166217  0.000290-12.177754  0.003574
   scf:   20     -258.132350     -258.132331     -258.166218  0.000279-12.177804  0.000589

SCF Convergence by FreeE+DM+H criterion
|FreeE_i-FreeE_(i-1)| (eV) <     0.00100000
max |DM_out - DM_in|         :     0.0002794713
max |H_out - H_in|      (eV) :     0.0005887505
SCF cycle converged after 20 iterations

Using DM_out to compute the final energy and forces
No. of atoms with KB's overlaping orbs in proc 0. Max # of overlaps:     458     912

MM-Stress (kbar):      -14.88      -14.88       23.65        0.00        0.00        0.00

siesta: E_KS(eV) =             -258.1323

siesta: E_KS - E_eggbox =      -258.1323

siesta: Atomic forces (eV/Ang):
     1    0.000000   -0.000000   -0.000380
     2   -0.017057    0.029571   -0.256790
     3    0.016958   -0.029399    0.256929
     4   -0.017126   -0.029664   -0.256861
     5    0.017027    0.029492    0.257000
     6    0.034138    0.000014   -0.256790
     7   -0.033940   -0.000014    0.256929
     8    0.017057   -0.029571   -0.256790
     9   -0.016958    0.029399    0.256929
    10    0.017126    0.029664   -0.256861
    11   -0.017027   -0.029492    0.257000
    12   -0.034138   -0.000014   -0.256790
    13    0.033940    0.000014    0.256929
    14   -0.160006    0.277099   -0.000076
    15    0.160006   -0.277099   -0.000076
    16   -0.160012   -0.277148   -0.000076
    17    0.160012    0.277148   -0.000076
    18    0.319978   -0.000020   -0.000076
    19   -0.319978    0.000020   -0.000076
----------------------------------------
   Tot    0.000000   -0.000000   -0.000000
----------------------------------------
   Max    0.319978
   Res    0.157846    sqrt( Sum f_i^2 / 3N )
----------------------------------------
   Max    0.319978    constrained

Stress tensor Voigt[x,y,z,yz,xz,xy] (kbar):    -1217.82    -1217.84      564.70        0.00       -0.00       -0.01
(Free)E + p*V (eV/cell)     -192.6449
Target enthalpy (eV/cell)     -258.1662

siesta: Eigenvalues (eV):
  ik is       eps
   1  1  -21.5425  -16.0640  -15.9426  -15.6570  -13.9895  -12.9986  -12.5485  -12.2343  -12.2342  -12.1943
         -12.1707  -12.0736  -11.9184  -10.8900   -7.7082   -6.7449   -6.7449   -6.2413   -6.2413   -5.8117
   -5.8117   -5.8037   -5.8037   -5.6714   -5.6714   -3.6598   -2.4811   -2.4810   -2.4002   -2.4001
   -2.1341   -2.1340   -1.9092   -1.9092    1.0813    1.0813    2.3452    2.3452    3.6370    3.6374
    9.2981   14.4788   14.4789   16.0245   16.0246   16.1102   16.1103   16.7128   16.7129   18.3759
   18.3759   22.1355   22.1355   23.4622   23.4793   24.1447   24.9957   24.9958   25.0018   25.0019
   25.1598   25.1599   29.7119   29.7119   31.6246   31.6247   32.3408   32.7378   32.7390   36.8455
   36.8458   42.3112   42.5191   44.4941   44.5924   45.6548   46.2418   46.2742   48.4963   50.4089
   50.4091
   2  1  -21.3922  -16.1938  -15.2809  -14.6684  -14.3958  -13.9753  -13.5786  -13.0900  -12.7440  -12.6939
         -12.2039  -12.0334  -12.0272  -11.0218   -9.1488   -8.3652   -8.1518   -7.5081   -7.4654   -7.4183
   -5.8119   -4.3996   -4.1720   -3.9311   -2.8289   -2.2381   -2.0542   -1.7885   -1.4514   -1.3041
   -0.9801   -0.9090   -0.3103   -0.1055    0.1400    0.4105    1.0103    1.0615    1.4499    1.6389
    2.9208    3.0594    4.2173    8.6812    9.6053    9.7805   11.3487   11.6695   12.0457   15.2002
   15.8814   16.9689   18.5938   18.6200   18.8329   19.1075   19.9175   20.2174   21.3135   21.7706
   22.8851   22.9084   23.4794   23.6033   25.2177   25.2283   25.2706   25.4387   26.0746   27.0245
   34.6758   45.2148   46.2076   49.3300   49.7097   50.9635   51.5108   52.9841   53.8445   56.4884
   56.7343
   3  1  -21.3922  -16.1938  -15.2809  -14.6684  -14.3958  -13.9753  -13.5786  -13.0900  -12.7440  -12.6939
         -12.2039  -12.0334  -12.0272  -11.0218   -9.1488   -8.3652   -8.1518   -7.5081   -7.4654   -7.4183
   -5.8119   -4.3996   -4.1720   -3.9311   -2.8289   -2.2381   -2.0542   -1.7885   -1.4514   -1.3041
   -0.9801   -0.9090   -0.3103   -0.1055    0.1400    0.4105    1.0103    1.0615    1.4499    1.6389
    2.9208    3.0594    4.2173    8.6812    9.6053    9.7805   11.3487   11.6695   12.0457   15.2002
   15.8814   16.9689   18.5938   18.6200   18.8329   19.1075   19.9175   20.2174   21.3135   21.7706
   22.8851   22.9084   23.4794   23.6033   25.2177   25.2283   25.2706   25.4387   26.0746   27.0245
   34.6759   45.2148   46.2076   49.3300   49.7097   50.9635   51.5108   52.9841   53.8445   56.4884
   56.7343
   4  1  -21.3922  -16.1938  -15.2809  -14.6684  -14.3957  -13.9753  -13.5786  -13.0900  -12.7440  -12.6940
         -12.2039  -12.0334  -12.0272  -11.0218   -9.1488   -8.3652   -8.1518   -7.5081   -7.4653   -7.4181
   -5.8119   -4.3996   -4.1720   -3.9311   -2.8290   -2.2381   -2.0542   -1.7885   -1.4514   -1.3041
   -0.9801   -0.9090   -0.3103   -0.1055    0.1401    0.4105    1.0103    1.0615    1.4500    1.6389
    2.9210    3.0592    4.2173    8.6813    9.6052    9.7805   11.3487   11.6695   12.0457   15.2002
   15.8813   16.9690   18.5938   18.6200   18.8330   19.1075   19.9176   20.2178   21.3135   21.7707
   22.8850   22.9086   23.4793   23.6033   25.2176   25.2282   25.2705   25.4387   26.0746   27.0246
   34.6751   45.2147   46.2076   49.3300   49.7096   50.9633   51.5109   52.9840   53.8444   56.4886
   56.7344
   5  1  -21.5567  -16.0717  -15.8402  -15.7653  -13.9979  -13.0040  -12.6555  -12.2508  -12.2343  -12.2342
         -12.1297  -12.0352  -11.6532  -11.0930   -7.6927   -6.5309   -6.5309   -6.4628   -6.4628   -6.3066
   -6.3065   -5.6602   -5.6601   -4.7331   -4.7331   -3.8242   -3.8242   -3.7876   -3.4412   -3.4412
   -0.5062   -0.5061   -0.4191   -0.4190    0.4987    0.4987    0.6732    0.6732    4.3219    4.3224
   10.1796   15.0336   15.0336   16.4987   16.4988   18.1951   18.1952   18.6148   18.6148   19.8925
   19.8926   20.2363   20.2364   21.0883   21.0884   23.4657   23.7411   23.8515   25.0965   25.0965
   26.8533   26.8534   29.4280   29.4281   31.8872   31.8873   32.8638   32.8649   36.5666   36.5669
   37.2633   37.2961   43.2656   44.8985   45.2010   45.4999   46.9884   47.7018   47.7526   50.5616
   50.5618
   6  1  -21.3901  -16.2121  -15.2372  -14.6294  -14.4663  -13.9281  -13.4935  -13.0556  -12.9734  -12.7418
         -12.6967  -12.4094  -11.0496  -10.0495   -9.9534   -9.0191   -8.3541   -8.1850   -7.7623   -6.4114
   -4.7874   -4.4828   -3.9669   -3.6847   -2.8567   -2.6616   -2.2758   -2.1591   -1.9973   -0.7322
   -0.5775   -0.4275   -0.3615   -0.3121   -0.0193    0.6766    0.9164    1.8022    1.8246    1.9788
    2.3062    2.5667    2.5794    7.7810   11.1910   11.4214   12.2932   13.2129   13.8151   15.2774
   16.3950   17.6994   17.7211   18.1095   18.2676   18.5220   19.0207   19.9267   20.9019   21.0378
   22.5307   22.5895   23.6909   24.5266   24.6332   25.1540   25.6600   25.7393   25.7753   28.1777
   35.5338   46.5118   46.8294   47.5417   48.3203   51.4732   51.5352   52.3261   53.1121   57.4541
   59.6476
   7  1  -21.3901  -16.2121  -15.2372  -14.6294  -14.4663  -13.9281  -13.4935  -13.0556  -12.9734  -12.7418
         -12.6967  -12.4094  -11.0496  -10.0495   -9.9534   -9.0191   -8.3541   -8.1850   -7.7623   -6.4114
   -4.7874   -4.4828   -3.9669   -3.6847   -2.8567   -2.6616   -2.2758   -2.1591   -1.9973   -0.7322
   -0.5775   -0.4275   -0.3615   -0.3121   -0.0193    0.6766    0.9164    1.8022    1.8247    1.9788
    2.3062    2.5667    2.5794    7.7810   11.1910   11.4214   12.2932   13.2129   13.8151   15.2774
   16.3950   17.6994   17.7211   18.1095   18.2676   18.5220   19.0207   19.9267   20.9019   21.0378
   22.5307   22.5895   23.6909   24.5266   24.6332   25.1540   25.6600   25.7393   25.7753   28.1777
   35.5338   46.5118   46.8294   47.5418   48.3203   51.4733   51.5352   52.3261   53.1121   57.4541
   59.6476
   8  1  -21.3901  -16.2121  -15.2372  -14.6294  -14.4663  -13.9281  -13.4935  -13.0556  -12.9734  -12.7418
         -12.6968  -12.4094  -11.0496  -10.0495   -9.9534   -9.0191   -8.3541   -8.1850   -7.7622   -6.4112
   -4.7874   -4.4828   -3.9669   -3.6848   -2.8567   -2.6616   -2.2758   -2.1591   -1.9974   -0.7322
   -0.5775   -0.4274   -0.3615   -0.3121   -0.0192    0.6766    0.9164    1.8022    1.8246    1.9788
    2.3060    2.5667    2.5796    7.7810   11.1909   11.4214   12.2932   13.2129   13.8151   15.2774
   16.3949   17.6993   17.7210   18.1096   18.2676   18.5221   19.0208   19.9269   20.9019   21.0378
   22.5312   22.5896   23.6909   24.5266   24.6331   25.1539   25.6599   25.7392   25.7753   28.1777
   35.5331   46.5118   46.8294   47.5417   48.3202   51.4731   51.5351   52.3263   53.1122   57.4540
   59.6477
siesta: Fermi energy =     -12.177804 eV

siesta: Program's energy decomposition (eV):
siesta: Ebs     =      -319.781778
siesta: Eions   =       439.895300
siesta: Ena     =       134.160664
siesta: Ekin    =       219.577061
siesta: Enl     =        30.735488
siesta: Eso     =         0.000000
siesta: Edftu   =         0.000000
siesta: DEna    =        15.221616
siesta: DUscf   =         2.950910
siesta: DUext   =         0.000000
siesta: Exc     =      -212.423834
siesta: eta*DQ  =         0.000000
siesta: Emadel  =         0.000000
siesta: Emeta   =         0.000000
siesta: Emolmec =        -8.458936
siesta: Ekinion =         0.000000
siesta: Eharris =      -258.132350
siesta: Etot    =      -258.132331
siesta: FreeEng =      -258.166218

siesta: Final energy (eV):
siesta:  Band Struct. =    -319.781778
siesta:       Kinetic =     219.577061
siesta:       Hartree =     101.113612
siesta:       Edftu   =       0.000000
siesta:       Eso     =       0.000000
siesta:    Ext. field =       0.000000
siesta:   Exch.-corr. =    -212.423834
siesta:  Ion-electron =    -524.784261
siesta:       Ion-ion =     166.844028
siesta:       Ekinion =       0.000000
siesta:         Total =    -258.132331
siesta:         Fermi =     -12.177804

siesta: Atomic forces (eV/Ang):
siesta:      1    0.000000   -0.000000   -0.000380
siesta:      2   -0.017057    0.029571   -0.256790
siesta:      3    0.016958   -0.029399    0.256929
siesta:      4   -0.017126   -0.029664   -0.256861
siesta:      5    0.017027    0.029492    0.257000
siesta:      6    0.034138    0.000014   -0.256790
siesta:      7   -0.033940   -0.000014    0.256929
siesta:      8    0.017057   -0.029571   -0.256790
siesta:      9   -0.016958    0.029399    0.256929
siesta:     10    0.017126    0.029664   -0.256861
siesta:     11   -0.017027   -0.029492    0.257000
siesta:     12   -0.034138   -0.000014   -0.256790
siesta:     13    0.033940    0.000014    0.256929
siesta:     14   -0.160006    0.277099   -0.000076
siesta:     15    0.160006   -0.277099   -0.000076
siesta:     16   -0.160012   -0.277148   -0.000076
siesta:     17    0.160012    0.277148   -0.000076
siesta:     18    0.319978   -0.000020   -0.000076
siesta:     19   -0.319978    0.000020   -0.000076
siesta: ----------------------------------------
siesta:    Tot    0.000000   -0.000000   -0.000000

siesta: Stress tensor (static) (eV/Ang**3):
siesta:    -0.760098   -0.000007   -0.000000
siesta:    -0.000007   -0.760107   -0.000000
siesta:    -0.000000    0.000000    0.352456

siesta: Cell volume =        168.327124 Ang**3

siesta: Pressure (static):
siesta:                Solid            Molecule  Units
siesta:           0.00423943          0.00404595  Ry/Bohr**3
siesta:           0.38924972          0.37148504  eV/Ang**3
siesta:         623.65355114        595.19107866  kBar
(Free)E+ p_basis*V_orbitals  =        -210.337901
(Free)Eharris+ p_basis*V_orbitals  =        -210.337920

cite: Please see "LiC18_scf.bib" for an exhaustive BiBTeX file.
cite: Please clearly indicate Siesta version in published work: 4.1.5
cite: This calculation has made use of the following articles
cite: which are encouraged to be cited in a published work.
        Primary SIESTA paper
          DOI: www.doi.org/10.1088/0953-8984/14/11/302

>> End of run:   9-NOV-2022   9:01:33
Job completed
