Siesta Version  : 4.1.5
Architecture    : x86_64-unknown-linux-gnu--unknown
Compiler version: GNU Fortran (GCC) 11.3.0
Compiler flags  : mpif90 -g -O2 -fallow-argument-mismatch
PP flags        : -DMPI -DFC_HAVE_FLUSH -DFC_HAVE_ABORT
Libraries       :  -I/global/software/sl-7.x86_64/modules/intel/2020.4.304/mkl/include  /globall/software/sl-7.x86_64/modules/intel/2020.4.304/mkl/lib/intel64/libmkl_scalapack_lp64.a -Wl,--start-group /global/software/sl-7.x86_64/modules/intel/2020.4.304/mkl/lib/intel64/libmkl_intel_lp64.a /global/software/sl-7.x86_64/modules/intel/2020.4.304/mkl/lib/intel64/libmkl_sequential.a /global/software/sl-7.x86_64/modules/intel/2020.4.304/mkl/lib/intel64/libmkl_core.a /global/software/sl-7.x86_64/modules/intel/2020.4.304/mkl/lib/intel64/libmkl_blacs_openmpi_lp64.a -Wl,--end-group -lpthread -lm -ldl
PARALLEL version

* Running on 16 nodes in parallel
>> Start of run:   9-NOV-2022  10:32:09

                           ***********************       
                           *  WELCOME TO SIESTA  *       
                           ***********************       

reinit: Reading from standard input
reinit: Dumped input in INPUT_TMP.04582
************************** Dump of input data file ****************************
SystemName LiC18_scf
SystemLabel LiC18_scf
NumberOfAtoms   19
NumberOfSpecies 2
%block ChemicalSpeciesLabel
1  3   Li-gga
2  6   C-gga
%endblock ChemicalSpeciesLabel
PAO.BasisSize  SZP
PAO.EnergyShift  10 meV
%block PS.Lmax
C-gga   2
Li-gga  2
%endblock PS.Lmax
LatticeConstant 1.000000 Ang
%block LatticeVectors
	4.3161300000	0.0000000000	0.0000000000
	-2.1580650000	3.7378782260	0.0000000000
	0.0000000000	0.0000000000	14.6514469200
%endblock LatticeVectors
AtomicCoordinatesFormat Ang
%block AtomicCoordinatesAndAtomicSpecies
	0.00000000	0.00000000	0.00000000	2
	-0.70288177	1.21742694	2.44191270	1
	-1.45518323	2.52045129	12.20953422	1
	1.45518323	2.52045129	2.44191270	1
	0.70288177	1.21742694	12.20953422	1
	1.40576354	0.00000000	2.44191270	1
	2.91036646	0.00000000	12.20953422	1
	-1.45518323	2.52045129	2.44191270	1
	-0.70288177	1.21742694	12.20953422	1
	0.70288177	1.21742694	2.44191270	1
	1.45518323	2.52045129	12.20953422	1
	2.91036646	0.00000000	2.44191270	1
	1.40576354	0.00000000	12.20953422	1
	-0.70288177	1.21742694	7.32572346	1
	-1.45518323	2.52045129	7.32572346	1
	1.45518323	2.52045129	7.32572346	1
	0.70288177	1.21742694	7.32572346	1
	1.40576354	0.00000000	7.32572346	1
	2.91036646	0.00000000	7.32572346	1
%endblock AtomicCoordinatesAndAtomicSpecies
Kgrid_NoTRS  T
%block kgrid_MonkhorstPack
2       0       0       0.0
0       2       0       0.0
0       0       2       0.0
%endblock kgrid_MonkhorstPack
AtomCoorFormatOut Ang
BlockSize 1
#ProcessorY 12
Diag.ParallelOverK   T
Diag.DivideAndConquer F
MeshCutoff   300 Ry
SCF.FreeE.Tolerance 1E-3 eV
SCF.EDM.Tolerance   5E-3 eV
DM.Tolerance  1E-3
DM.Require.Energy.Convergence T
DM.NumberPulay 4
XC.Functional GGA
XC.Authors    PBE
UseSaveData        F
MD.TypeOfRun       CG
MD.VariableCell    F
MD.NumCGsteps      00
MD.MaxCGDispl      0.200000 Bohr
MD.MaxStressTol    1.000000 GPa
MD.MaxForceTol     0.010000 eV/Ang
WriteMDHistory T
WriteCoorStep T
WriteForces T
WriteCoorStep    T
WriteEigenValues T
WriteDM    F
MM.UnitsDistance Ang  # what this program prints out DO NOT CHANGE
MM.UnitsEnergy    eV  # what this program prints out DO NOT CHANGE
MM.Grimme.S6     0.75 # Grimme-paper for PBE (correct for your functional)
MM.Grimme.D     20.   # Grimme-paper (correct for your functional)
%block MM.Potentials
  1   1 Grimme     16.69      1.650 # Li, 10.1002/jcc.20495
  1   2 Grimme     17.40      2.277 # Li / C
  2   2 Grimme     18.14      2.904 # C, 10.1002/jcc.20495
%endblock MM.Potentials
#%block ProjectedDensityOfStates
# -200.0  120.0  0.4  12800  eV
#%endblock ProjectedDensityOfStates
************************** End of input data file *****************************

reinit: -----------------------------------------------------------------------
reinit: System Name: LiC18_scf
reinit: -----------------------------------------------------------------------
reinit: System Label: LiC18_scf
reinit: -----------------------------------------------------------------------
Reading two-body potentials
Grimme - two-body potential between 1 and 1
Grimme - two-body potential between 1 and 2
Grimme - two-body potential between 2 and 2

initatom: Reading input for the pseudopotentials and atomic orbitals ----------
Species number:   1 Atomic number:    3 Label: Li-gga
Species number:   2 Atomic number:    6 Label: C-gga

Ground state valence configuration:   2s01
Reading pseudopotential information in formatted form from Li-gga.psf

Valence configuration for pseudopotential generation:
2s( 1.00) rc: 2.28
2p( 0.00) rc: 2.28
3d( 0.00) rc: 2.59
4f( 0.00) rc: 2.59
Ground state valence configuration:   2s02  2p02
Reading pseudopotential information in formatted form from C-gga.psf

Valence configuration for pseudopotential generation:
2s( 2.00) rc: 1.56
2p( 2.00) rc: 1.56
3d( 0.00) rc: 1.56
4f( 0.00) rc: 1.56
relmxkb: Read Max KB Ang. Momentum=    2 for species C-gga
relmxkb: Read Max KB Ang. Momentum=    2 for species Li-gga

<basis_specs>
===============================================================================
Li-gga               Z=   3    Mass=  6.9400        Charge= 0.17977+309
Lmxo=0 Lmxkb= 2    BasisType=split      Semic=F
L=0  Nsemic=0  Cnfigmx=2
          i=1  nzeta=1  polorb=1  (2s)
            splnorm:   0.15000    
               vcte:    0.0000    
               rinn:    0.0000    
               qcoe:    0.0000    
               qyuk:    0.0000    
               qwid:   0.10000E-01
                rcs:    0.0000    
            lambdas:    1.0000    
-------------------------------------------------------------------------------
L=0  Nkbl=1  erefs: 0.17977+309
L=1  Nkbl=1  erefs: 0.17977+309
L=2  Nkbl=1  erefs: 0.17977+309
===============================================================================
</basis_specs>

atom: Called for Li-gga                (Z =   3)

read_vps: Pseudopotential generation method:
read_vps: ATM 3.2.2 Troullier-Martins                       
Valence charge for ps generation:    1.00000

read_vps: Pseudopotential includes a core correction:
read_vps: Pseudo-core for xc-correction

xc_check: Exchange-correlation functional:
xc_check: GGA Perdew, Burke & Ernzerhof 1996
V l=0 = -2*Zval/r beyond r=  2.2278
V l=1 = -2*Zval/r beyond r=  2.2278
V l=2 = -2*Zval/r beyond r=  2.5245
All V_l potentials equal beyond r=  2.4622
This should be close to max(r_c) in ps generation
All pots = -2*Zval/r beyond r=  2.5245

VLOCAL1: 99.0% of the norm of Vloc inside      7.160 Ry
VLOCAL1: 99.9% of the norm of Vloc inside     16.318 Ry
atom: Maximum radius for 4*pi*r*r*local-pseudopot. charge    2.86079
atom: Maximum radius for r*vlocal+2*Zval:    2.43160
GHOST: No ghost state for L =  0
GHOST: No ghost state for L =  1
GHOST: No ghost state for L =  2

KBgen: Kleinman-Bylander projectors: 
   l= 0   rc=  2.654023   el= -0.211234   Ekb=  1.742119   kbcos=  0.228463
   l= 1   rc=  2.721230   el= -0.080095   Ekb= -1.122375   kbcos= -0.147941
   l= 2   rc=  2.825246   el=  0.002001   Ekb= -0.207076   kbcos= -0.031965

KBgen: Total number of Kleinman-Bylander projectors:    9
atom: -------------------------------------------------------------------------

atom: SANKEY-TYPE ORBITALS:

SPLIT: Orbitals with angular momentum L= 0

SPLIT: Basis orbitals for state 2s

SPLIT: PAO cut-off radius determined from an
SPLIT: energy shift=  0.000735 Ry

   izeta = 1
                 lambda =    1.000000
                     rc =   11.897381
                 energy =   -0.210580
                kinetic =    0.143382
    potential(screened) =   -0.353962
       potential(ionic) =   -0.533453

POLgen: Perturbative polarization orbital with L=  1

POLgen: Polarization orbital for state 2s

   izeta = 1
                     rc =   11.897381
                 energy =   -0.027011
                kinetic =    0.282985
    potential(screened) =   -0.309997
       potential(ionic) =   -0.490997
atom: Total number of Sankey-type orbitals:  4

atm_pop: Valence configuration (for local Pseudopot. screening):
 2s( 1.00)                                                            
Vna: chval, zval:    1.00000   1.00000

Vna:  Cut-off radius for the neutral-atom potential:  11.897381
comcore: Pseudo-core radius Rcore=  3.450946

atom: _________________________________________________________________________

<basis_specs>
===============================================================================
C-gga                Z=   6    Mass=  12.010        Charge= 0.17977+309
Lmxo=1 Lmxkb= 2    BasisType=split      Semic=F
L=0  Nsemic=0  Cnfigmx=2
          i=1  nzeta=1  polorb=0  (2s)
            splnorm:   0.15000    
               vcte:    0.0000    
               rinn:    0.0000    
               qcoe:    0.0000    
               qyuk:    0.0000    
               qwid:   0.10000E-01
                rcs:    0.0000    
            lambdas:    1.0000    
L=1  Nsemic=0  Cnfigmx=2
          i=1  nzeta=1  polorb=1  (2p)
            splnorm:   0.15000    
               vcte:    0.0000    
               rinn:    0.0000    
               qcoe:    0.0000    
               qyuk:    0.0000    
               qwid:   0.10000E-01
                rcs:    0.0000    
            lambdas:    1.0000    
-------------------------------------------------------------------------------
L=0  Nkbl=1  erefs: 0.17977+309
L=1  Nkbl=1  erefs: 0.17977+309
L=2  Nkbl=1  erefs: 0.17977+309
===============================================================================
</basis_specs>

atom: Called for C-gga                 (Z =   6)

read_vps: Pseudopotential generation method:
read_vps: ATM 3.2.2 Troullier-Martins                       
Valence charge for ps generation:    4.00000

xc_check: Exchange-correlation functional:
xc_check: GGA Perdew, Burke & Ernzerhof 1996
V l=0 = -2*Zval/r beyond r=  1.5227
V l=1 = -2*Zval/r beyond r=  1.5227
V l=2 = -2*Zval/r beyond r=  1.5227
All V_l potentials equal beyond r=  1.4851
This should be close to max(r_c) in ps generation
All pots = -2*Zval/r beyond r=  1.5227

VLOCAL1: 99.0% of the norm of Vloc inside     19.682 Ry
VLOCAL1: 99.9% of the norm of Vloc inside     44.856 Ry
atom: Maximum radius for 4*pi*r*r*local-pseudopot. charge    1.79142
atom: Maximum radius for r*vlocal+2*Zval:    1.54183
GHOST: No ghost state for L =  0
GHOST: No ghost state for L =  1
GHOST: No ghost state for L =  2

KBgen: Kleinman-Bylander projectors: 
   l= 0   rc=  1.661951   el= -1.010689   Ekb=  5.289847   kbcos=  0.316429
   l= 1   rc=  1.661951   el= -0.388490   Ekb= -4.102504   kbcos= -0.351025
   l= 2   rc=  1.747182   el=  0.001971   Ekb= -1.006005   kbcos= -0.008530

KBgen: Total number of Kleinman-Bylander projectors:    9
atom: -------------------------------------------------------------------------

atom: SANKEY-TYPE ORBITALS:

SPLIT: Orbitals with angular momentum L= 0

SPLIT: Basis orbitals for state 2s

SPLIT: PAO cut-off radius determined from an
SPLIT: energy shift=  0.000735 Ry

   izeta = 1
                 lambda =    1.000000
                     rc =    5.948690
                 energy =   -1.010099
                kinetic =    0.827121
    potential(screened) =   -1.837220
       potential(ionic) =   -5.392783

SPLIT: Orbitals with angular momentum L= 1

SPLIT: Basis orbitals for state 2p

SPLIT: PAO cut-off radius determined from an
SPLIT: energy shift=  0.000735 Ry

   izeta = 1
                 lambda =    1.000000
                     rc =    7.638387
                 energy =   -0.387843
                kinetic =    2.314739
    potential(screened) =   -2.702582
       potential(ionic) =   -6.092371

POLgen: Perturbative polarization orbital with L=  2

POLgen: Polarization orbital for state 2p

   izeta = 1
                     rc =    7.638387
                 energy =    0.921402
                kinetic =    1.955040
    potential(screened) =   -1.033637
       potential(ionic) =   -3.679558
atom: Total number of Sankey-type orbitals:  9

atm_pop: Valence configuration (for local Pseudopot. screening):
 2s( 2.00)                                                            
 2p( 2.00)                                                            
Vna: chval, zval:    4.00000   4.00000

Vna:  Cut-off radius for the neutral-atom potential:   7.638387

atom: _________________________________________________________________________

prinput: Basis input ----------------------------------------------------------

PAO.BasisType split     

%block ChemicalSpeciesLabel
    1    3 Li-gga                  # Species index, atomic number, species label
    2    6 C-gga                   # Species index, atomic number, species label
%endblock ChemicalSpeciesLabel

%block PAO.Basis                 # Define Basis set
Li-gga                1                    # Species label, number of l-shells
 n=2   0   1 P   1                   # n, l, Nzeta, Polarization, NzetaPol
  11.897   
   1.000   
C-gga                 2                    # Species label, number of l-shells
 n=2   0   1                         # n, l, Nzeta 
   5.949   
   1.000   
 n=2   1   1 P   1                   # n, l, Nzeta, Polarization, NzetaPol
   7.638   
   1.000   
%endblock PAO.Basis

prinput: ----------------------------------------------------------------------

coor:   Atomic-coordinates input format  =     Cartesian coordinates
coor:                                          (in Angstroms)

siesta: Atomic coordinates (Bohr) and species
siesta:      0.00000   0.00000   0.00000  2        1
siesta:     -1.32825   2.30060   4.61455  1        2
siesta:     -2.74990   4.76296  23.07268  1        3
siesta:      2.74990   4.76296   4.61455  1        4
siesta:      1.32825   2.30060  23.07268  1        5
siesta:      2.65651   0.00000   4.61455  1        6
siesta:      5.49980   0.00000  23.07268  1        7
siesta:     -2.74990   4.76296   4.61455  1        8
siesta:     -1.32825   2.30060  23.07268  1        9
siesta:      1.32825   2.30060   4.61455  1       10
siesta:      2.74990   4.76296  23.07268  1       11
siesta:      5.49980   0.00000   4.61455  1       12
siesta:      2.65651   0.00000  23.07268  1       13
siesta:     -1.32825   2.30060  13.84362  1       14
siesta:     -2.74990   4.76296  13.84362  1       15
siesta:      2.74990   4.76296  13.84362  1       16
siesta:      1.32825   2.30060  13.84362  1       17
siesta:      2.65651   0.00000  13.84362  1       18
siesta:      5.49980   0.00000  13.84362  1       19

siesta: System type = bulk      

initatomlists: Number of atoms, orbitals, and projectors:     19    81   171

siesta: ******************** Simulation parameters ****************************
siesta:
siesta: The following are some of the parameters of the simulation.
siesta: A complete list of the parameters used, including default values,
siesta: can be found in file out.fdf
siesta:
redata: Spin configuration                          = none
redata: Number of spin components                   = 1
redata: Time-Reversal Symmetry                      = T
redata: Spin spiral                                 = F
redata: Long output                                 =   F
redata: Number of Atomic Species                    =        2
redata: Charge density info will appear in .RHO file
redata: Write Mulliken Pop.                         = NO
redata: Matel table size (NRTAB)                    =     1024
redata: Mesh Cutoff                                 =   300.0000 Ry
redata: Net charge of the system                    =     0.0000 |e|
redata: Min. number of SCF Iter                     =        0
redata: Max. number of SCF Iter                     =     1000
redata: SCF convergence failure will abort job
redata: SCF mix quantity                            = Hamiltonian
redata: Mix DM or H after convergence               =   F
redata: Recompute H after scf cycle                 =   F
redata: Mix DM in first SCF step                    =   T
redata: Write Pulay info on disk                    =   F
redata: New DM Occupancy tolerance                  = 0.000000000001
redata: No kicks to SCF
redata: DM Mixing Weight for Kicks                  =     0.5000
redata: Require Harris convergence for SCF          =   F
redata: Harris energy tolerance for SCF             =     0.000100 eV
redata: Require DM convergence for SCF              =   T
redata: DM tolerance for SCF                        =     0.001000
redata: Require EDM convergence for SCF             =   F
redata: EDM tolerance for SCF                       =     0.005000 eV
redata: Require H convergence for SCF               =   T
redata: Hamiltonian tolerance for SCF               =     0.001000 eV
redata: Require (free) Energy convergence for SCF   =   T
redata: (free) Energy tolerance for SCF             =     0.001000 eV
redata: Using Saved Data (generic)                  =   F
redata: Use continuation files for DM               =   F
redata: Neglect nonoverlap interactions             =   F
redata: Method of Calculation                       = Diagonalization
redata: Electronic Temperature                      =   299.9869 K
redata: Fix the spin of the system                  =   F
redata: Dynamics option                             = Single-point calculation
mix.SCF: Pulay mixing                            = Pulay
mix.SCF:    Variant                              = stable
mix.SCF:    History steps                        = 4
mix.SCF:    Linear mixing weight                 =     0.250000
mix.SCF:    Mixing weight                        =     0.250000
mix.SCF:    SVD condition                        = 0.1000E-07
redata: ***********************************************************************

%block SCF.Mixers
  Pulay
%endblock SCF.Mixers

%block SCF.Mixer.Pulay
  # Mixing method
  method pulay
  variant stable

  # Mixing options
  weight 0.2500
  weight.linear 0.2500
  history 4
%endblock SCF.Mixer.Pulay

DM_history_depth set to one: no extrapolation allowed by default for geometry relaxation
Size of DM history Fstack: 1
Total number of electrons:    22.000000
Total ionic charge:    22.000000

* ProcessorY, Blocksize:    4   1


* Orbital distribution balance (max,min):     6     5

k-point displ. along   1 input, could be:     0.00    0.50
k-point displ. along   2 input, could be:     0.00    0.50
k-point displ. along   3 input, could be:     0.00    0.50
 Kpoints in:            8 . Kpoints trimmed:            8

siesta: k-grid: Number of k-points =     8
siesta: k-grid: Cutoff (effective) =     4.316 Ang
siesta: k-grid: Supercell and displacements
siesta: k-grid:    2   0   0      0.000
siesta: k-grid:    0   2   0      0.000
siesta: k-grid:    0   0   2      0.000

diag: Algorithm                                     = Expert
diag: Parallel over k                               =   T
diag: Use parallel 2D distribution                  =   T
diag: Parallel block-size                           = 1
diag: Parallel distribution                         =     4 x     4
diag: Used triangular part                          = Lower
diag: Absolute tolerance                            =  0.100E-15
diag: Orthogonalization factor                      =  0.100E-05
diag: Memory factor                                 =  1.0000

superc: Internal auxiliary supercell:     9 x     9 x     3  =     243
superc: Number of atoms, orbitals, and projectors:   4617  19683  41553


ts: **************************************************************
ts: Save H and S matrices                           =    F
ts: Save DM and EDM matrices                        =    F
ts: Only save the overlap matrix S                  =    F
ts: **************************************************************

************************ Begin: TS CHECKS AND WARNINGS ************************
************************ End: TS CHECKS AND WARNINGS **************************


                     ====================================
                        Single-point calculation
                     ====================================

outcoor: Atomic coordinates (Ang):                          
    0.00000000    0.00000000    0.00000000   2       1  C-gga
   -0.70288177    1.21742694    2.44191270   1       2  Li-gga
   -1.45518323    2.52045129   12.20953422   1       3  Li-gga
    1.45518323    2.52045129    2.44191270   1       4  Li-gga
    0.70288177    1.21742694   12.20953422   1       5  Li-gga
    1.40576354    0.00000000    2.44191270   1       6  Li-gga
    2.91036646    0.00000000   12.20953422   1       7  Li-gga
   -1.45518323    2.52045129    2.44191270   1       8  Li-gga
   -0.70288177    1.21742694   12.20953422   1       9  Li-gga
    0.70288177    1.21742694    2.44191270   1      10  Li-gga
    1.45518323    2.52045129   12.20953422   1      11  Li-gga
    2.91036646    0.00000000    2.44191270   1      12  Li-gga
    1.40576354    0.00000000   12.20953422   1      13  Li-gga
   -0.70288177    1.21742694    7.32572346   1      14  Li-gga
   -1.45518323    2.52045129    7.32572346   1      15  Li-gga
    1.45518323    2.52045129    7.32572346   1      16  Li-gga
    0.70288177    1.21742694    7.32572346   1      17  Li-gga
    1.40576354    0.00000000    7.32572346   1      18  Li-gga
    2.91036646    0.00000000    7.32572346   1      19  Li-gga

superc: Internal auxiliary supercell:     9 x     9 x     3  =     243
superc: Number of atoms, orbitals, and projectors:   4617  19683  41553

outcell: Unit cell vectors (Ang):
        4.316130    0.000000    0.000000
       -2.158065    3.737878    0.000000
        0.000000    0.000000   14.651447

outcell: Cell vector modules (Ang)   :    4.316130    4.316130   14.651447
outcell: Cell angles (23,13,12) (deg):     90.0000     90.0000    120.0000
outcell: Cell volume (Ang**3)        :    236.3743
<dSpData1D:S at geom step 0
  <sparsity:sparsity for geom step 0
    nrows_g=81 nrows=6 sparsity=3.4574 nnzs=22684, refcount: 7>
  <dData1D:(new from dSpData1D) n=22684, refcount: 1>
refcount: 1>
new_DM -- step:     1
Initializing Density Matrix...
DM filled with atomic data:
<dSpData2D:DM initialized from atoms
  <sparsity:sparsity for geom step 0
    nrows_g=81 nrows=6 sparsity=3.4574 nnzs=22684, refcount: 8>
  <dData2D:DM n=22684 m=1, refcount: 1>
refcount: 1>
No. of atoms with KB's overlaping orbs in proc 0. Max # of overlaps:     373     648
New grid distribution:   1
           1       1:   20    1:    5    1:   20
           2       1:   20    1:    5   21:   40
           3       1:   20    1:    5   41:   60
           4       1:   20    1:    5   61:   80
           5       1:   20    6:   10    1:   20
           6       1:   20    6:   10   21:   40
           7       1:   20    6:   10   41:   60
           8       1:   20    6:   10   61:   80
           9       1:   20   11:   15    1:   20
          10       1:   20   11:   15   21:   40
          11       1:   20   11:   15   41:   60
          12       1:   20   11:   15   61:   80
          13       1:   20   16:   20    1:   20
          14       1:   20   16:   20   21:   40
          15       1:   20   16:   20   41:   60
          16       1:   20   16:   20   61:   80

InitMesh: MESH =    40 x    40 x   160 =      256000
InitMesh: (bp) =    20 x    20 x    80 =       32000
InitMesh: Mesh cutoff (required, used) =   300.000   316.498 Ry
ExtMesh (bp) on 0 =   156 x   141 x   160 =     3519360
New grid distribution:   2
           1       1:   20    1:   10    1:    9
           2       1:   20    1:   10   19:   29
           3       1:   20    1:   10   52:   62
           4       1:   20    1:   10   72:   80
           5       1:   20    1:   10   10:   18
           6       1:   20    1:   10   30:   40
           7       1:   20    1:   10   41:   51
           8       1:   20    1:   10   63:   71
           9       1:   20   11:   20    1:    9
          10       1:   20   11:   20   19:   29
          11       1:   20   11:   20   52:   62
          12       1:   20   11:   20   72:   80
          13       1:   20   11:   20   10:   18
          14       1:   20   11:   20   30:   40
          15       1:   20   11:   20   41:   51
          16       1:   20   11:   20   63:   71
New grid distribution:   3
           1       1:   20    1:   10   11:   20
           2       1:   20    1:   10   31:   40
           3       1:   20    1:   10   51:   60
           4       1:   20    1:   10   71:   80
           5       1:   20    1:   10    1:   10
           6       1:   20    1:   10   21:   30
           7       1:   20    1:   10   41:   50
           8       1:   20    1:   10   61:   70
           9       1:   20   11:   20   11:   20
          10       1:   20   11:   20   31:   40
          11       1:   20   11:   20   51:   60
          12       1:   20   11:   20   71:   80
          13       1:   20   11:   20    1:   10
          14       1:   20   11:   20   21:   30
          15       1:   20   11:   20   41:   50
          16       1:   20   11:   20   61:   70
Setting up quadratic distribution...
ExtMesh (bp) on 0 =   156 x   146 x   149 =     3393624
PhiOnMesh: Number of (b)points on node 0 =                 1800
PhiOnMesh: nlist on node 0 =               630552

stepf: Fermi-Dirac step function

siesta: Program's energy decomposition (eV):
siesta: Ebs     =      -306.506407
siesta: Eions   =       439.895300
siesta: Ena     =       153.534047
siesta: Ekin    =       168.935357
siesta: Enl     =        57.536945
siesta: Eso     =         0.000000
siesta: Edftu   =         0.000000
siesta: DEna    =        12.268324
siesta: DUscf   =        23.180183
siesta: DUext   =         0.000000
siesta: Exc     =      -197.304994
siesta: eta*DQ  =         0.000000
siesta: Emadel  =         0.000000
siesta: Emeta   =         0.000000
siesta: Emolmec =        -7.437282
siesta: Ekinion =         0.000000
siesta: Eharris =      -188.204909
siesta: Etot    =      -229.182720
siesta: FreeEng =      -229.204837

        iscf     Eharris(eV)        E_KS(eV)     FreeEng(eV)     dDmax    Ef(eV) dHmax(eV)
   scf:    1     -188.204909     -229.182720     -229.204837  1.611749 -9.925557 21.708714
timer: Routine,Calls,Time,% = IterSCF        1       6.557  51.23
   scf:    2      862.429360       88.335947       88.291991  1.648614 -9.772834 90.138952
   scf:    3     -316.681761     -230.075578     -230.130249  1.259671-10.577365 19.884110
   scf:    4     -219.289055     -240.113003     -240.138101  0.793302-10.397781 10.517795
   scf:    5      -36.468303     -184.349913     -184.371566  1.305459-10.399431 41.766258
   scf:    6     -195.953728     -239.015846     -239.037817  1.220069-10.269118 11.222098
   scf:    7     -244.207269     -243.892207     -243.938259  0.266677-10.359256  1.435102
   scf:    8     -243.670332     -243.829519     -243.874994  0.039849-10.380675  1.785232
   scf:    9     -241.368279     -242.859768     -242.896245  0.128945-10.341951  5.509821
   scf:   10     -168.331666     -216.487731     -216.521667  0.394643-10.381335 23.551606
   scf:   11     -245.365821     -243.859280     -243.901824  0.379741-10.354477  2.087539
   scf:   12     -242.485396     -243.723052     -243.762854  0.179509-10.358933  3.287029
   scf:   13     -244.138131     -244.077803     -244.123099  0.091287-10.374478  0.544281
   scf:   14     -244.014588     -244.069782     -244.118126  0.030726-10.386797  0.718785
   scf:   15     -242.265401     -243.444335     -243.506094  0.069188-10.402658  3.493308
   scf:   16     -244.092861     -244.089970     -244.138353  0.069179-10.383584  0.152240
   scf:   17     -243.603692     -243.931220     -243.988910  0.051765-10.375990  1.493730
   scf:   18     -244.090844     -244.092114     -244.141404  0.043779-10.380426  0.071286
   scf:   19     -244.091864     -244.092055     -244.141681  0.002367-10.379161  0.035237
   scf:   20     -244.092006     -244.092037     -244.141729  0.000312-10.379011  0.022799
   scf:   21     -244.091900     -244.091980     -244.141755  0.000545-10.378778  0.006574
   scf:   22     -244.091911     -244.091948     -244.141761  0.000359-10.378346  0.002088
   scf:   23     -244.091977     -244.091963     -244.141761  0.000088-10.378198  0.003400
   scf:   24     -244.091981     -244.091973     -244.141761  0.000182-10.378204  0.003050
   scf:   25     -244.091999     -244.091987     -244.141760  0.000205-10.378024  0.004325
   scf:   26     -244.091994     -244.091992     -244.141758  0.000233-10.378023  0.008952
   scf:   27     -244.091954     -244.091975     -244.141761  0.000346-10.378086  0.002737
   scf:   28     -244.091989     -244.091982     -244.141761  0.000034-10.378017  0.002178
   scf:   29     -244.092001     -244.091991     -244.141761  0.000047-10.377920  0.000647

SCF Convergence by FreeE+DM+H criterion
|FreeE_i-FreeE_(i-1)| (eV) <     0.00100000
max |DM_out - DM_in|         :     0.0000470182
max |H_out - H_in|      (eV) :     0.0006465025
SCF cycle converged after 29 iterations

Using DM_out to compute the final energy and forces
No. of atoms with KB's overlaping orbs in proc 0. Max # of overlaps:     373     648

MM-Stress (kbar):      -11.68      -11.68       17.39        0.00        0.00       -0.00

siesta: E_KS(eV) =             -244.0920

siesta: E_KS - E_eggbox =      -244.0920

siesta: Atomic forces (eV/Ang):
     1    0.000000   -0.000000    0.000025
     2   -0.108994    0.188774   -0.355567
     3    0.109023   -0.188825    0.355550
     4   -0.109029   -0.188845   -0.355626
     5    0.109059    0.188896    0.355609
     6    0.217980   -0.000005   -0.355567
     7   -0.218039    0.000005    0.355550
     8    0.108994   -0.188774   -0.355567
     9   -0.109023    0.188825    0.355550
    10    0.109029    0.188845   -0.355626
    11   -0.109059   -0.188896    0.355609
    12   -0.217980    0.000005   -0.355567
    13    0.218039   -0.000005    0.355550
    14   -0.002730    0.004677    0.000012
    15    0.002730   -0.004677    0.000012
    16   -0.002738   -0.004742    0.000012
    17    0.002738    0.004742    0.000012
    18    0.005416   -0.000026    0.000012
    19   -0.005416    0.000026    0.000012
----------------------------------------
   Tot    0.000000   -0.000000   -0.000000
----------------------------------------
   Max    0.355626
   Res    0.191388    sqrt( Sum f_i^2 / 3N )
----------------------------------------
   Max    0.355626    constrained

Stress tensor Voigt[x,y,z,yz,xz,xy] (kbar):     -894.02     -894.02      181.35        0.00       -0.00       -0.01
(Free)E + p*V (eV/cell)     -165.1294
Target enthalpy (eV/cell)     -244.1418

siesta: Eigenvalues (eV):
  ik is       eps
   1  1  -19.2549  -13.7095  -12.4735  -11.9815  -11.9071  -11.4420  -11.1452  -10.5640  -10.5368  -10.4159
         -10.2892  -10.2629  -10.0607  -10.0606   -9.2311   -6.7341   -4.0109   -4.0109   -3.5591   -3.5591
   -3.4273   -3.4273   -3.3767   -3.3766   -2.9881   -2.9881   -2.4444   -2.4444   -1.0989   -1.0989
   -0.9555   -0.9555   -0.5477   -0.5476   -0.1595   -0.1595    0.1833    0.1834    0.9057    0.9058
    5.6597   12.2140   12.2141   16.2405   16.2405   16.6516   16.6516   16.7634   16.7634   19.1109
   19.1110   19.9010   19.9011   20.4514   20.4515   21.2551   21.2551   21.5587   21.5588   25.2648
   25.4192   25.7489   25.7591   25.7594   28.7981   28.7982   34.4012   34.4013   34.7198   34.7198
   38.3779   38.3779   39.0279   39.6660   46.1797   46.6619   47.2208   48.2209   48.8201   49.0068
   57.3436
   2  1  -19.0395  -13.5046  -12.4782  -11.8843  -11.7169  -11.4171  -11.3762  -10.9632  -10.9087  -10.4627
         -10.4608  -10.3722  -10.0220   -8.5566   -8.2992   -8.0283   -7.2911   -6.6148   -5.7335   -5.0364
   -5.0234   -4.2840   -3.8634   -3.0846   -2.7052   -2.5878   -2.3365   -1.0738   -0.3831   -0.3455
   -0.0870   -0.0220    0.4367    0.7684    1.6436    2.0997    2.1743    2.2095    2.5515    2.7259
    2.7618    2.9607    3.6014   10.2486   10.5723   11.4973   12.5282   12.8201   12.8746   13.7572
   14.0668   14.2904   14.3163   14.9357   15.1619   15.8657   17.0397   17.2721   18.7037   19.0679
   19.1756   19.3113   20.2153   21.9077   24.6169   25.4637   25.5894   25.8250   26.1116   26.5565
   27.5448   33.4257   50.0755   50.2174   51.1307   52.1513   52.4631   52.8986   56.2332   56.4621
   57.2838
   3  1  -19.0395  -13.5046  -12.4782  -11.8843  -11.7169  -11.4171  -11.3762  -10.9632  -10.9087  -10.4627
         -10.4608  -10.3722  -10.0220   -8.5566   -8.2992   -8.0283   -7.2911   -6.6148   -5.7335   -5.0364
   -5.0234   -4.2840   -3.8634   -3.0846   -2.7052   -2.5878   -2.3365   -1.0738   -0.3831   -0.3455
   -0.0870   -0.0220    0.4367    0.7684    1.6436    2.0997    2.1743    2.2095    2.5515    2.7259
    2.7618    2.9607    3.6014   10.2486   10.5723   11.4973   12.5282   12.8201   12.8746   13.7572
   14.0668   14.2904   14.3163   14.9358   15.1619   15.8657   17.0397   17.2721   18.7037   19.0679
   19.1756   19.3113   20.2153   21.9077   24.6169   25.4637   25.5894   25.8250   26.1116   26.5565
   27.5448   33.4257   50.0755   50.2174   51.1307   52.1513   52.4631   52.8986   56.2332   56.4621
   57.2838
   4  1  -19.0395  -13.5046  -12.4783  -11.8843  -11.7169  -11.4171  -11.3762  -10.9632  -10.9087  -10.4627
         -10.4608  -10.3722  -10.0220   -8.5566   -8.2992   -8.0283   -7.2911   -6.6147   -5.7335   -5.0364
   -5.0234   -4.2840   -3.8634   -3.0846   -2.7052   -2.5878   -2.3366   -1.0738   -0.3831   -0.3455
   -0.0870   -0.0220    0.4367    0.7684    1.6436    2.0996    2.1743    2.2095    2.5515    2.7259
    2.7618    2.9607    3.6014   10.2485   10.5725   11.4973   12.5282   12.8201   12.8746   13.7572
   14.0668   14.2904   14.3163   14.9358   15.1618   15.8658   17.0397   17.2720   18.7038   19.0678
   19.1756   19.3113   20.2155   21.9075   24.6169   25.4637   25.5893   25.8250   26.1116   26.5565
   27.5446   33.4257   50.0754   50.2174   51.1306   52.1512   52.4631   52.8985   56.2333   56.4622
   57.2840
   5  1  -19.2586  -13.6948  -12.3932  -12.2218  -11.7249  -11.4875  -11.0053  -10.5407  -10.5121  -10.3885
         -10.3477  -10.2319  -10.0607  -10.0606   -9.1706   -6.7604   -3.9687   -3.9686   -3.7020   -3.7020
   -3.4193   -3.4193   -3.3187   -3.3187   -2.7242   -2.7241   -2.7131   -2.7131   -1.0640   -1.0640
   -0.9397   -0.9397   -0.3468   -0.3468   -0.2263   -0.2263   -0.0549   -0.0549    0.9928    0.9929
    5.8277   12.5979   12.5981   15.2488   15.2488   17.3243   17.3243   18.3755   18.3755   18.6874
   18.6874   18.7933   18.7934   19.3455   19.3455   21.5227   21.5227   22.5779   22.5779   25.2550
   25.4015   25.5243   25.5246   25.7965   28.8296   28.8296   34.5840   34.5841   34.6885   34.6885
   36.3783   38.3306   38.3306   46.2498   46.4293   47.2249   48.2429   48.2677   48.3866   48.5102
   49.1500
   6  1  -19.0395  -13.5076  -12.4831  -11.8789  -11.7263  -11.4221  -11.4129  -10.9472  -10.9174  -10.5055
         -10.4610  -10.3724   -9.9618   -8.3772   -8.3346   -8.2928   -7.1420   -6.4723   -5.8191   -5.1563
   -4.6905   -4.6429   -3.5921   -3.2377   -2.9892   -2.3070   -1.9057   -1.5086   -0.3972   -0.2714
   -0.2296    0.0633    0.4856    0.7202    1.5465    2.1008    2.2703    2.3039    2.4369    2.5323
    2.7647    3.2534    3.4931    9.7612   10.7783   11.4505   11.6116   12.7704   13.8640   14.0747
   15.1183   15.2079   15.2338   15.3872   15.5801   15.5836   16.4554   16.7216   17.3957   17.6638
   18.1123   19.6997   20.1051   23.1221   24.7650   25.0474   25.6030   26.0299   26.1430   26.5013
   27.5388   33.4400   49.9233   50.5320   50.9736   52.1141   52.5571   52.8775   56.2780   56.7736
   56.9270
   7  1  -19.0395  -13.5076  -12.4831  -11.8789  -11.7263  -11.4221  -11.4129  -10.9472  -10.9174  -10.5055
         -10.4610  -10.3724   -9.9618   -8.3772   -8.3346   -8.2928   -7.1420   -6.4723   -5.8191   -5.1563
   -4.6905   -4.6429   -3.5921   -3.2377   -2.9892   -2.3070   -1.9057   -1.5086   -0.3972   -0.2714
   -0.2296    0.0633    0.4856    0.7202    1.5465    2.1008    2.2703    2.3039    2.4369    2.5323
    2.7647    3.2534    3.4931    9.7612   10.7783   11.4505   11.6116   12.7704   13.8640   14.0747
   15.1183   15.2079   15.2338   15.3872   15.5801   15.5836   16.4554   16.7216   17.3957   17.6638
   18.1123   19.6997   20.1051   23.1221   24.7650   25.0474   25.6030   26.0299   26.1430   26.5013
   27.5388   33.4400   49.9233   50.5320   50.9736   52.1141   52.5571   52.8775   56.2780   56.7736
   56.9270
   8  1  -19.0395  -13.5076  -12.4832  -11.8790  -11.7263  -11.4221  -11.4129  -10.9472  -10.9174  -10.5055
         -10.4609  -10.3725   -9.9618   -8.3772   -8.3346   -8.2928   -7.1420   -6.4723   -5.8191   -5.1563
   -4.6905   -4.6429   -3.5921   -3.2377   -2.9892   -2.3070   -1.9056   -1.5086   -0.3972   -0.2714
   -0.2296    0.0633    0.4856    0.7202    1.5465    2.1008    2.2703    2.3039    2.4369    2.5323
    2.7647    3.2534    3.4931    9.7611   10.7785   11.4505   11.6116   12.7704   13.8640   14.0747
   15.1182   15.2079   15.2338   15.3871   15.5801   15.5836   16.4554   16.7216   17.3957   17.6638
   18.1124   19.6998   20.1052   23.1219   24.7650   25.0474   25.6030   26.0298   26.1430   26.5013
   27.5387   33.4400   49.9232   50.5319   50.9736   52.1140   52.5571   52.8775   56.2781   56.7737
   56.9271
siesta: Fermi energy =     -10.377920 eV

siesta: Program's energy decomposition (eV):
siesta: Ebs     =      -268.218790
siesta: Eions   =       439.895300
siesta: Ena     =       153.534047
siesta: Ekin    =       193.903303
siesta: Enl     =        48.993556
siesta: Eso     =         0.000000
siesta: Edftu   =         0.000000
siesta: DEna    =         4.550886
siesta: DUscf   =         3.311868
siesta: DUext   =         0.000000
siesta: Exc     =      -201.053068
siesta: eta*DQ  =         0.000000
siesta: Emadel  =         0.000000
siesta: Emeta   =         0.000000
siesta: Emolmec =        -7.437282
siesta: Ekinion =         0.000000
siesta: Eharris =      -244.092001
siesta: Etot    =      -244.091991
siesta: FreeEng =      -244.141761

siesta: Final energy (eV):
siesta:  Band Struct. =    -268.218790
siesta:       Kinetic =     193.903303
siesta:       Hartree =     117.910251
siesta:       Edftu   =       0.000000
siesta:       Eso     =       0.000000
siesta:    Ext. field =       0.000000
siesta:   Exch.-corr. =    -201.053068
siesta:  Ion-electron =    -496.724517
siesta:       Ion-ion =     149.309322
siesta:       Ekinion =       0.000000
siesta:         Total =    -244.091991
siesta:         Fermi =     -10.377920

siesta: Atomic forces (eV/Ang):
siesta:      1    0.000000   -0.000000    0.000025
siesta:      2   -0.108994    0.188774   -0.355567
siesta:      3    0.109023   -0.188825    0.355550
siesta:      4   -0.109029   -0.188845   -0.355626
siesta:      5    0.109059    0.188896    0.355609
siesta:      6    0.217980   -0.000005   -0.355567
siesta:      7   -0.218039    0.000005    0.355550
siesta:      8    0.108994   -0.188774   -0.355567
siesta:      9   -0.109023    0.188825    0.355550
siesta:     10    0.109029    0.188845   -0.355626
siesta:     11   -0.109059   -0.188896    0.355609
siesta:     12   -0.217980    0.000005   -0.355567
siesta:     13    0.218039   -0.000005    0.355550
siesta:     14   -0.002730    0.004677    0.000012
siesta:     15    0.002730   -0.004677    0.000012
siesta:     16   -0.002738   -0.004742    0.000012
siesta:     17    0.002738    0.004742    0.000012
siesta:     18    0.005416   -0.000026    0.000012
siesta:     19   -0.005416    0.000026    0.000012
siesta: ----------------------------------------
siesta:    Tot    0.000000   -0.000000   -0.000000

siesta: Stress tensor (static) (eV/Ang**3):
siesta:    -0.557994   -0.000004   -0.000000
siesta:    -0.000004   -0.557999    0.000000
siesta:    -0.000000    0.000000    0.113189

siesta: Cell volume =        236.374260 Ang**3

siesta: Pressure (static):
siesta:                Solid            Molecule  Units
siesta:           0.00364061          0.00335116  Ry/Bohr**3
siesta:           0.33426817          0.30769187  eV/Ang**3
siesta:         535.56243794        492.98205962  kBar
(Free)E+ p_basis*V_orbitals  =        -196.313445
(Free)Eharris+ p_basis*V_orbitals  =        -196.313454

cite: Please see "LiC18_scf.bib" for an exhaustive BiBTeX file.
cite: Please clearly indicate Siesta version in published work: 4.1.5
cite: This calculation has made use of the following articles
cite: which are encouraged to be cited in a published work.
        Primary SIESTA paper
          DOI: www.doi.org/10.1088/0953-8984/14/11/302

>> End of run:   9-NOV-2022  10:34:23
Job completed
