Siesta Version  : 4.1.5
Architecture    : x86_64-unknown-linux-gnu--unknown
Compiler version: GNU Fortran (GCC) 11.3.0
Compiler flags  : mpif90 -g -O2 -fallow-argument-mismatch
PP flags        : -DMPI -DFC_HAVE_FLUSH -DFC_HAVE_ABORT
Libraries       :  -I/global/software/sl-7.x86_64/modules/intel/2020.4.304/mkl/include  /globall/software/sl-7.x86_64/modules/intel/2020.4.304/mkl/lib/intel64/libmkl_scalapack_lp64.a -Wl,--start-group /global/software/sl-7.x86_64/modules/intel/2020.4.304/mkl/lib/intel64/libmkl_intel_lp64.a /global/software/sl-7.x86_64/modules/intel/2020.4.304/mkl/lib/intel64/libmkl_sequential.a /global/software/sl-7.x86_64/modules/intel/2020.4.304/mkl/lib/intel64/libmkl_core.a /global/software/sl-7.x86_64/modules/intel/2020.4.304/mkl/lib/intel64/libmkl_blacs_openmpi_lp64.a -Wl,--end-group -lpthread -lm -ldl
PARALLEL version

* Running on 16 nodes in parallel
>> Start of run:   9-NOV-2022   9:05:43

                           ***********************       
                           *  WELCOME TO SIESTA  *       
                           ***********************       

reinit: Reading from standard input
reinit: Dumped input in INPUT_TMP.18881
************************** Dump of input data file ****************************
SystemName LiC18_scf
SystemLabel LiC18_scf
NumberOfAtoms   19
NumberOfSpecies 2
%block ChemicalSpeciesLabel
1  3   Li-gga
2  6   C-gga
%endblock ChemicalSpeciesLabel
PAO.BasisSize  SZP
PAO.EnergyShift  10 meV
%block PS.Lmax
C-gga   2
Li-gga  2
%endblock PS.Lmax
LatticeConstant 1.000000 Ang
%block LatticeVectors
	4.3161300000	0.0000000000	0.0000000000
	-2.1580650000	3.7378782260	0.0000000000
	0.0000000000	0.0000000000	9.5456396600
%endblock LatticeVectors
AtomicCoordinatesFormat Ang
%block AtomicCoordinatesAndAtomicSpecies
	0.00000000	0.00000000	0.00000000	2
	-0.70288177	1.21742694	1.59094313	1
	-1.45518323	2.52045129	7.95469653	1
	1.45518323	2.52045129	1.59094313	1
	0.70288177	1.21742694	7.95469653	1
	1.40576354	0.00000000	1.59094313	1
	2.91036646	0.00000000	7.95469653	1
	-1.45518323	2.52045129	1.59094313	1
	-0.70288177	1.21742694	7.95469653	1
	0.70288177	1.21742694	1.59094313	1
	1.45518323	2.52045129	7.95469653	1
	2.91036646	0.00000000	1.59094313	1
	1.40576354	0.00000000	7.95469653	1
	-0.70288177	1.21742694	4.77281983	1
	-1.45518323	2.52045129	4.77281983	1
	1.45518323	2.52045129	4.77281983	1
	0.70288177	1.21742694	4.77281983	1
	1.40576354	0.00000000	4.77281983	1
	2.91036646	0.00000000	4.77281983	1
%endblock AtomicCoordinatesAndAtomicSpecies
Kgrid_NoTRS  T
%block kgrid_MonkhorstPack
2       0       0       0.0
0       2       0       0.0
0       0       2       0.0
%endblock kgrid_MonkhorstPack
AtomCoorFormatOut Ang
BlockSize 1
#ProcessorY 12
Diag.ParallelOverK   T
Diag.DivideAndConquer F
MeshCutoff   300 Ry
SCF.FreeE.Tolerance 1E-3 eV
SCF.EDM.Tolerance   5E-3 eV
DM.Tolerance  1E-3
DM.Require.Energy.Convergence T
DM.NumberPulay 4
XC.Functional GGA
XC.Authors    PBE
UseSaveData        F
MD.TypeOfRun       CG
MD.VariableCell    F
MD.NumCGsteps      00
MD.MaxCGDispl      0.200000 Bohr
MD.MaxStressTol    1.000000 GPa
MD.MaxForceTol     0.010000 eV/Ang
WriteMDHistory T
WriteCoorStep T
WriteForces T
WriteCoorStep    T
WriteEigenValues T
WriteDM    F
MM.UnitsDistance Ang  # what this program prints out DO NOT CHANGE
MM.UnitsEnergy    eV  # what this program prints out DO NOT CHANGE
MM.Grimme.S6     0.75 # Grimme-paper for PBE (correct for your functional)
MM.Grimme.D     20.   # Grimme-paper (correct for your functional)
%block MM.Potentials
  1   1 Grimme     16.69      1.650 # Li, 10.1002/jcc.20495
  1   2 Grimme     17.40      2.277 # Li / C
  2   2 Grimme     18.14      2.904 # C, 10.1002/jcc.20495
%endblock MM.Potentials
#%block ProjectedDensityOfStates
# -200.0  120.0  0.4  12800  eV
#%endblock ProjectedDensityOfStates
************************** End of input data file *****************************

reinit: -----------------------------------------------------------------------
reinit: System Name: LiC18_scf
reinit: -----------------------------------------------------------------------
reinit: System Label: LiC18_scf
reinit: -----------------------------------------------------------------------
Reading two-body potentials
Grimme - two-body potential between 1 and 1
Grimme - two-body potential between 1 and 2
Grimme - two-body potential between 2 and 2

initatom: Reading input for the pseudopotentials and atomic orbitals ----------
Species number:   1 Atomic number:    3 Label: Li-gga
Species number:   2 Atomic number:    6 Label: C-gga

Ground state valence configuration:   2s01
Reading pseudopotential information in formatted form from Li-gga.psf

Valence configuration for pseudopotential generation:
2s( 1.00) rc: 2.28
2p( 0.00) rc: 2.28
3d( 0.00) rc: 2.59
4f( 0.00) rc: 2.59
Ground state valence configuration:   2s02  2p02
Reading pseudopotential information in formatted form from C-gga.psf

Valence configuration for pseudopotential generation:
2s( 2.00) rc: 1.56
2p( 2.00) rc: 1.56
3d( 0.00) rc: 1.56
4f( 0.00) rc: 1.56
relmxkb: Read Max KB Ang. Momentum=    2 for species C-gga
relmxkb: Read Max KB Ang. Momentum=    2 for species Li-gga

<basis_specs>
===============================================================================
Li-gga               Z=   3    Mass=  6.9400        Charge= 0.17977+309
Lmxo=0 Lmxkb= 2    BasisType=split      Semic=F
L=0  Nsemic=0  Cnfigmx=2
          i=1  nzeta=1  polorb=1  (2s)
            splnorm:   0.15000    
               vcte:    0.0000    
               rinn:    0.0000    
               qcoe:    0.0000    
               qyuk:    0.0000    
               qwid:   0.10000E-01
                rcs:    0.0000    
            lambdas:    1.0000    
-------------------------------------------------------------------------------
L=0  Nkbl=1  erefs: 0.17977+309
L=1  Nkbl=1  erefs: 0.17977+309
L=2  Nkbl=1  erefs: 0.17977+309
===============================================================================
</basis_specs>

atom: Called for Li-gga                (Z =   3)

read_vps: Pseudopotential generation method:
read_vps: ATM 3.2.2 Troullier-Martins                       
Valence charge for ps generation:    1.00000

read_vps: Pseudopotential includes a core correction:
read_vps: Pseudo-core for xc-correction

xc_check: Exchange-correlation functional:
xc_check: GGA Perdew, Burke & Ernzerhof 1996
V l=0 = -2*Zval/r beyond r=  2.2278
V l=1 = -2*Zval/r beyond r=  2.2278
V l=2 = -2*Zval/r beyond r=  2.5245
All V_l potentials equal beyond r=  2.4622
This should be close to max(r_c) in ps generation
All pots = -2*Zval/r beyond r=  2.5245

VLOCAL1: 99.0% of the norm of Vloc inside      7.160 Ry
VLOCAL1: 99.9% of the norm of Vloc inside     16.318 Ry
atom: Maximum radius for 4*pi*r*r*local-pseudopot. charge    2.86079
atom: Maximum radius for r*vlocal+2*Zval:    2.43160
GHOST: No ghost state for L =  0
GHOST: No ghost state for L =  1
GHOST: No ghost state for L =  2

KBgen: Kleinman-Bylander projectors: 
   l= 0   rc=  2.654023   el= -0.211234   Ekb=  1.742119   kbcos=  0.228463
   l= 1   rc=  2.721230   el= -0.080095   Ekb= -1.122375   kbcos= -0.147941
   l= 2   rc=  2.825246   el=  0.002001   Ekb= -0.207076   kbcos= -0.031965

KBgen: Total number of Kleinman-Bylander projectors:    9
atom: -------------------------------------------------------------------------

atom: SANKEY-TYPE ORBITALS:

SPLIT: Orbitals with angular momentum L= 0

SPLIT: Basis orbitals for state 2s

SPLIT: PAO cut-off radius determined from an
SPLIT: energy shift=  0.000735 Ry

   izeta = 1
                 lambda =    1.000000
                     rc =   11.897381
                 energy =   -0.210580
                kinetic =    0.143382
    potential(screened) =   -0.353962
       potential(ionic) =   -0.533453

POLgen: Perturbative polarization orbital with L=  1

POLgen: Polarization orbital for state 2s

   izeta = 1
                     rc =   11.897381
                 energy =   -0.027011
                kinetic =    0.282985
    potential(screened) =   -0.309997
       potential(ionic) =   -0.490997
atom: Total number of Sankey-type orbitals:  4

atm_pop: Valence configuration (for local Pseudopot. screening):
 2s( 1.00)                                                            
Vna: chval, zval:    1.00000   1.00000

Vna:  Cut-off radius for the neutral-atom potential:  11.897381
comcore: Pseudo-core radius Rcore=  3.450946

atom: _________________________________________________________________________

<basis_specs>
===============================================================================
C-gga                Z=   6    Mass=  12.010        Charge= 0.17977+309
Lmxo=1 Lmxkb= 2    BasisType=split      Semic=F
L=0  Nsemic=0  Cnfigmx=2
          i=1  nzeta=1  polorb=0  (2s)
            splnorm:   0.15000    
               vcte:    0.0000    
               rinn:    0.0000    
               qcoe:    0.0000    
               qyuk:    0.0000    
               qwid:   0.10000E-01
                rcs:    0.0000    
            lambdas:    1.0000    
L=1  Nsemic=0  Cnfigmx=2
          i=1  nzeta=1  polorb=1  (2p)
            splnorm:   0.15000    
               vcte:    0.0000    
               rinn:    0.0000    
               qcoe:    0.0000    
               qyuk:    0.0000    
               qwid:   0.10000E-01
                rcs:    0.0000    
            lambdas:    1.0000    
-------------------------------------------------------------------------------
L=0  Nkbl=1  erefs: 0.17977+309
L=1  Nkbl=1  erefs: 0.17977+309
L=2  Nkbl=1  erefs: 0.17977+309
===============================================================================
</basis_specs>

atom: Called for C-gga                 (Z =   6)

read_vps: Pseudopotential generation method:
read_vps: ATM 3.2.2 Troullier-Martins                       
Valence charge for ps generation:    4.00000

xc_check: Exchange-correlation functional:
xc_check: GGA Perdew, Burke & Ernzerhof 1996
V l=0 = -2*Zval/r beyond r=  1.5227
V l=1 = -2*Zval/r beyond r=  1.5227
V l=2 = -2*Zval/r beyond r=  1.5227
All V_l potentials equal beyond r=  1.4851
This should be close to max(r_c) in ps generation
All pots = -2*Zval/r beyond r=  1.5227

VLOCAL1: 99.0% of the norm of Vloc inside     19.682 Ry
VLOCAL1: 99.9% of the norm of Vloc inside     44.856 Ry
atom: Maximum radius for 4*pi*r*r*local-pseudopot. charge    1.79142
atom: Maximum radius for r*vlocal+2*Zval:    1.54183
GHOST: No ghost state for L =  0
GHOST: No ghost state for L =  1
GHOST: No ghost state for L =  2

KBgen: Kleinman-Bylander projectors: 
   l= 0   rc=  1.661951   el= -1.010689   Ekb=  5.289847   kbcos=  0.316429
   l= 1   rc=  1.661951   el= -0.388490   Ekb= -4.102504   kbcos= -0.351025
   l= 2   rc=  1.747182   el=  0.001971   Ekb= -1.006005   kbcos= -0.008530

KBgen: Total number of Kleinman-Bylander projectors:    9
atom: -------------------------------------------------------------------------

atom: SANKEY-TYPE ORBITALS:

SPLIT: Orbitals with angular momentum L= 0

SPLIT: Basis orbitals for state 2s

SPLIT: PAO cut-off radius determined from an
SPLIT: energy shift=  0.000735 Ry

   izeta = 1
                 lambda =    1.000000
                     rc =    5.948690
                 energy =   -1.010099
                kinetic =    0.827121
    potential(screened) =   -1.837220
       potential(ionic) =   -5.392783

SPLIT: Orbitals with angular momentum L= 1

SPLIT: Basis orbitals for state 2p

SPLIT: PAO cut-off radius determined from an
SPLIT: energy shift=  0.000735 Ry

   izeta = 1
                 lambda =    1.000000
                     rc =    7.638387
                 energy =   -0.387843
                kinetic =    2.314739
    potential(screened) =   -2.702582
       potential(ionic) =   -6.092371

POLgen: Perturbative polarization orbital with L=  2

POLgen: Polarization orbital for state 2p

   izeta = 1
                     rc =    7.638387
                 energy =    0.921402
                kinetic =    1.955040
    potential(screened) =   -1.033637
       potential(ionic) =   -3.679558
atom: Total number of Sankey-type orbitals:  9

atm_pop: Valence configuration (for local Pseudopot. screening):
 2s( 2.00)                                                            
 2p( 2.00)                                                            
Vna: chval, zval:    4.00000   4.00000

Vna:  Cut-off radius for the neutral-atom potential:   7.638387

atom: _________________________________________________________________________

prinput: Basis input ----------------------------------------------------------

PAO.BasisType split     

%block ChemicalSpeciesLabel
    1    3 Li-gga                  # Species index, atomic number, species label
    2    6 C-gga                   # Species index, atomic number, species label
%endblock ChemicalSpeciesLabel

%block PAO.Basis                 # Define Basis set
Li-gga                1                    # Species label, number of l-shells
 n=2   0   1 P   1                   # n, l, Nzeta, Polarization, NzetaPol
  11.897   
   1.000   
C-gga                 2                    # Species label, number of l-shells
 n=2   0   1                         # n, l, Nzeta 
   5.949   
   1.000   
 n=2   1   1 P   1                   # n, l, Nzeta, Polarization, NzetaPol
   7.638   
   1.000   
%endblock PAO.Basis

prinput: ----------------------------------------------------------------------

coor:   Atomic-coordinates input format  =     Cartesian coordinates
coor:                                          (in Angstroms)

siesta: Atomic coordinates (Bohr) and species
siesta:      0.00000   0.00000   0.00000  2        1
siesta:     -1.32825   2.30060   3.00645  1        2
siesta:     -2.74990   4.76296  15.03220  1        3
siesta:      2.74990   4.76296   3.00645  1        4
siesta:      1.32825   2.30060  15.03220  1        5
siesta:      2.65651   0.00000   3.00645  1        6
siesta:      5.49980   0.00000  15.03220  1        7
siesta:     -2.74990   4.76296   3.00645  1        8
siesta:     -1.32825   2.30060  15.03220  1        9
siesta:      1.32825   2.30060   3.00645  1       10
siesta:      2.74990   4.76296  15.03220  1       11
siesta:      5.49980   0.00000   3.00645  1       12
siesta:      2.65651   0.00000  15.03220  1       13
siesta:     -1.32825   2.30060   9.01933  1       14
siesta:     -2.74990   4.76296   9.01933  1       15
siesta:      2.74990   4.76296   9.01933  1       16
siesta:      1.32825   2.30060   9.01933  1       17
siesta:      2.65651   0.00000   9.01933  1       18
siesta:      5.49980   0.00000   9.01933  1       19

siesta: System type = bulk      

initatomlists: Number of atoms, orbitals, and projectors:     19    81   171

siesta: ******************** Simulation parameters ****************************
siesta:
siesta: The following are some of the parameters of the simulation.
siesta: A complete list of the parameters used, including default values,
siesta: can be found in file out.fdf
siesta:
redata: Spin configuration                          = none
redata: Number of spin components                   = 1
redata: Time-Reversal Symmetry                      = T
redata: Spin spiral                                 = F
redata: Long output                                 =   F
redata: Number of Atomic Species                    =        2
redata: Charge density info will appear in .RHO file
redata: Write Mulliken Pop.                         = NO
redata: Matel table size (NRTAB)                    =     1024
redata: Mesh Cutoff                                 =   300.0000 Ry
redata: Net charge of the system                    =     0.0000 |e|
redata: Min. number of SCF Iter                     =        0
redata: Max. number of SCF Iter                     =     1000
redata: SCF convergence failure will abort job
redata: SCF mix quantity                            = Hamiltonian
redata: Mix DM or H after convergence               =   F
redata: Recompute H after scf cycle                 =   F
redata: Mix DM in first SCF step                    =   T
redata: Write Pulay info on disk                    =   F
redata: New DM Occupancy tolerance                  = 0.000000000001
redata: No kicks to SCF
redata: DM Mixing Weight for Kicks                  =     0.5000
redata: Require Harris convergence for SCF          =   F
redata: Harris energy tolerance for SCF             =     0.000100 eV
redata: Require DM convergence for SCF              =   T
redata: DM tolerance for SCF                        =     0.001000
redata: Require EDM convergence for SCF             =   F
redata: EDM tolerance for SCF                       =     0.005000 eV
redata: Require H convergence for SCF               =   T
redata: Hamiltonian tolerance for SCF               =     0.001000 eV
redata: Require (free) Energy convergence for SCF   =   T
redata: (free) Energy tolerance for SCF             =     0.001000 eV
redata: Using Saved Data (generic)                  =   F
redata: Use continuation files for DM               =   F
redata: Neglect nonoverlap interactions             =   F
redata: Method of Calculation                       = Diagonalization
redata: Electronic Temperature                      =   299.9869 K
redata: Fix the spin of the system                  =   F
redata: Dynamics option                             = Single-point calculation
mix.SCF: Pulay mixing                            = Pulay
mix.SCF:    Variant                              = stable
mix.SCF:    History steps                        = 4
mix.SCF:    Linear mixing weight                 =     0.250000
mix.SCF:    Mixing weight                        =     0.250000
mix.SCF:    SVD condition                        = 0.1000E-07
redata: ***********************************************************************

%block SCF.Mixers
  Pulay
%endblock SCF.Mixers

%block SCF.Mixer.Pulay
  # Mixing method
  method pulay
  variant stable

  # Mixing options
  weight 0.2500
  weight.linear 0.2500
  history 4
%endblock SCF.Mixer.Pulay

DM_history_depth set to one: no extrapolation allowed by default for geometry relaxation
Size of DM history Fstack: 1
Total number of electrons:    22.000000
Total ionic charge:    22.000000

* ProcessorY, Blocksize:    4   1


* Orbital distribution balance (max,min):     6     5

k-point displ. along   1 input, could be:     0.00    0.50
k-point displ. along   2 input, could be:     0.00    0.50
k-point displ. along   3 input, could be:     0.00    0.50
 Kpoints in:            8 . Kpoints trimmed:            8

siesta: k-grid: Number of k-points =     8
siesta: k-grid: Cutoff (effective) =     4.316 Ang
siesta: k-grid: Supercell and displacements
siesta: k-grid:    2   0   0      0.000
siesta: k-grid:    0   2   0      0.000
siesta: k-grid:    0   0   2      0.000

diag: Algorithm                                     = Expert
diag: Parallel over k                               =   T
diag: Use parallel 2D distribution                  =   T
diag: Parallel block-size                           = 1
diag: Parallel distribution                         =     4 x     4
diag: Used triangular part                          = Lower
diag: Absolute tolerance                            =  0.100E-15
diag: Orthogonalization factor                      =  0.100E-05
diag: Memory factor                                 =  1.0000

superc: Internal auxiliary supercell:     9 x     9 x     5  =     405
superc: Number of atoms, orbitals, and projectors:   7695  32805  69255


ts: **************************************************************
ts: Save H and S matrices                           =    F
ts: Save DM and EDM matrices                        =    F
ts: Only save the overlap matrix S                  =    F
ts: **************************************************************

************************ Begin: TS CHECKS AND WARNINGS ************************
************************ End: TS CHECKS AND WARNINGS **************************


                     ====================================
                        Single-point calculation
                     ====================================

outcoor: Atomic coordinates (Ang):                          
    0.00000000    0.00000000    0.00000000   2       1  C-gga
   -0.70288177    1.21742694    1.59094313   1       2  Li-gga
   -1.45518323    2.52045129    7.95469653   1       3  Li-gga
    1.45518323    2.52045129    1.59094313   1       4  Li-gga
    0.70288177    1.21742694    7.95469653   1       5  Li-gga
    1.40576354    0.00000000    1.59094313   1       6  Li-gga
    2.91036646    0.00000000    7.95469653   1       7  Li-gga
   -1.45518323    2.52045129    1.59094313   1       8  Li-gga
   -0.70288177    1.21742694    7.95469653   1       9  Li-gga
    0.70288177    1.21742694    1.59094313   1      10  Li-gga
    1.45518323    2.52045129    7.95469653   1      11  Li-gga
    2.91036646    0.00000000    1.59094313   1      12  Li-gga
    1.40576354    0.00000000    7.95469653   1      13  Li-gga
   -0.70288177    1.21742694    4.77281983   1      14  Li-gga
   -1.45518323    2.52045129    4.77281983   1      15  Li-gga
    1.45518323    2.52045129    4.77281983   1      16  Li-gga
    0.70288177    1.21742694    4.77281983   1      17  Li-gga
    1.40576354    0.00000000    4.77281983   1      18  Li-gga
    2.91036646    0.00000000    4.77281983   1      19  Li-gga

superc: Internal auxiliary supercell:     9 x     9 x     5  =     405
superc: Number of atoms, orbitals, and projectors:   7695  32805  69255

outcell: Unit cell vectors (Ang):
        4.316130    0.000000    0.000000
       -2.158065    3.737878    0.000000
        0.000000    0.000000    9.545640

outcell: Cell vector modules (Ang)   :    4.316130    4.316130    9.545640
outcell: Cell angles (23,13,12) (deg):     90.0000     90.0000    120.0000
outcell: Cell volume (Ang**3)        :    154.0014
<dSpData1D:S at geom step 0
  <sparsity:sparsity for geom step 0
    nrows_g=81 nrows=6 sparsity=5.7738 nnzs=37882, refcount: 7>
  <dData1D:(new from dSpData1D) n=37882, refcount: 1>
refcount: 1>
new_DM -- step:     1
Initializing Density Matrix...
DM filled with atomic data:
<dSpData2D:DM initialized from atoms
  <sparsity:sparsity for geom step 0
    nrows_g=81 nrows=6 sparsity=5.7738 nnzs=37882, refcount: 8>
  <dData2D:DM n=37882 m=1, refcount: 1>
refcount: 1>
No. of atoms with KB's overlaping orbs in proc 0. Max # of overlaps:     492    1008
New grid distribution:   1
           1       1:   20    1:    5    1:   13
           2       1:   20    1:    5   14:   26
           3       1:   20    1:    5   27:   38
           4       1:   20    1:    5   39:   50
           5       1:   20    6:   10    1:   13
           6       1:   20    6:   10   14:   26
           7       1:   20    6:   10   27:   38
           8       1:   20    6:   10   39:   50
           9       1:   20   11:   15    1:   13
          10       1:   20   11:   15   14:   26
          11       1:   20   11:   15   27:   38
          12       1:   20   11:   15   39:   50
          13       1:   20   16:   20    1:   13
          14       1:   20   16:   20   14:   26
          15       1:   20   16:   20   27:   38
          16       1:   20   16:   20   39:   50

InitMesh: MESH =    40 x    40 x   100 =      160000
InitMesh: (bp) =    20 x    20 x    50 =       20000
InitMesh: Mesh cutoff (required, used) =   300.000   303.313 Ry
ExtMesh (bp) on 0 =   156 x   141 x   145 =     3189420
New grid distribution:   2
           1      11:   20    1:   10    1:   12
           2      11:   20    1:   10   13:   25
           3       1:   10    1:   10   26:   38
           4       1:   10    1:   10   39:   50
           5       1:   10    1:   10    1:   12
           6       1:   10    1:   10   13:   25
           7      11:   20    1:   10   26:   38
           8      11:   20    1:   10   39:   50
           9      11:   20   11:   20    1:   12
          10      11:   20   11:   20   13:   25
          11       1:   10   11:   20   26:   38
          12       1:   10   11:   20   39:   50
          13       1:   10   11:   20    1:   12
          14       1:   10   11:   20   13:   25
          15      11:   20   11:   20   26:   38
          16      11:   20   11:   20   39:   50
New grid distribution:   3
           1       1:   10    1:   10    1:   13
           2      11:   20    1:   10   14:   25
           3      11:   20    1:   10   26:   38
           4       1:   10    1:   10   39:   50
           5      11:   20    1:   10    1:   13
           6       1:   10    1:   10   14:   25
           7       1:   10    1:   10   26:   38
           8      11:   20    1:   10   39:   50
           9       1:   10   11:   20    1:   13
          10      11:   20   11:   20   14:   25
          11      11:   20   11:   20   26:   38
          12       1:   10   11:   20   39:   50
          13      11:   20   11:   20    1:   13
          14       1:   10   11:   20   14:   25
          15       1:   10   11:   20   26:   38
          16      11:   20   11:   20   39:   50
Setting up quadratic distribution...
ExtMesh (bp) on 0 =   146 x   146 x   144 =     3069504
PhiOnMesh: Number of (b)points on node 0 =                 1200
PhiOnMesh: nlist on node 0 =               636254

stepf: Fermi-Dirac step function

siesta: Program's energy decomposition (eV):
siesta: Ebs     =      -277.739274
siesta: Eions   =       439.895300
siesta: Ena     =       126.525424
siesta: Ekin    =       265.817581
siesta: Enl     =        13.812707
siesta: Eso     =         0.000000
siesta: Edftu   =         0.000000
siesta: DEna    =        -3.165622
siesta: DUscf   =        15.001833
siesta: DUext   =         0.000000
siesta: Exc     =      -224.166406
siesta: eta*DQ  =         0.000000
siesta: Emadel  =         0.000000
siesta: Emeta   =         0.000000
siesta: Emolmec =        -8.743744
siesta: Ekinion =         0.000000
siesta: Eharris =      -218.559730
siesta: Etot    =      -254.813528
siesta: FreeEng =      -254.850145

        iscf     Eharris(eV)        E_KS(eV)     FreeEng(eV)     dDmax    Ef(eV) dHmax(eV)
   scf:    1     -218.559730     -254.813528     -254.850145  1.470077-12.637679 14.932264
timer: Routine,Calls,Time,% = IterSCF        1      10.740  52.90
   scf:    2     -254.039152     -260.731196     -260.751179  0.499139-12.502898  4.404964
   scf:    3     -263.700787     -263.362428     -263.385845  0.293792-12.693960  0.763484
   scf:    4     -263.415051     -263.401695     -263.427481  0.031990-12.716991  0.257488
   scf:    5     -263.378367     -263.403338     -263.431692  0.026647-12.722039  0.294974
   scf:    6     -263.341199     -263.396492     -263.427078  0.048815-12.742508  0.354795
   scf:    7     -263.410791     -263.413260     -263.444043  0.026157-12.735913  0.037358
   scf:    8     -263.412796     -263.413181     -263.444322  0.004899-12.738684  0.021396
   scf:    9     -263.412875     -263.413031     -263.444355  0.001150-12.739452  0.008712
   scf:   10     -263.412946     -263.412990     -263.444362  0.000509-12.739401  0.001620
   scf:   11     -263.412926     -263.412958     -263.444363  0.000256-12.739385  0.000516

SCF Convergence by FreeE+DM+H criterion
|FreeE_i-FreeE_(i-1)| (eV) <     0.00100000
max |DM_out - DM_in|         :     0.0002560673
max |H_out - H_in|      (eV) :     0.0005158791
SCF cycle converged after 11 iterations

Using DM_out to compute the final energy and forces
No. of atoms with KB's overlaping orbs in proc 0. Max # of overlaps:     492    1008

MM-Stress (kbar):      -12.43      -12.43       43.78        0.00       -0.00       -0.00

siesta: E_KS(eV) =             -263.4130

siesta: E_KS - E_eggbox =      -263.4130

siesta: Atomic forces (eV/Ang):
     1    0.000000    0.000000    0.000001
     2   -0.366093    0.634066   -0.189728
     3    0.366093   -0.634066    0.189728
     4   -0.366103   -0.634109   -0.189766
     5    0.366103    0.634109    0.189765
     6    0.732163   -0.000013   -0.189728
     7   -0.732164    0.000013    0.189728
     8    0.366093   -0.634066   -0.189728
     9   -0.366093    0.634066    0.189728
    10    0.366103    0.634109   -0.189766
    11   -0.366103   -0.634109    0.189765
    12   -0.732163    0.000013   -0.189728
    13    0.732164   -0.000013    0.189728
    14   -0.203911    0.353144    0.000000
    15    0.203911   -0.353144    0.000000
    16   -0.203922   -0.353204    0.000000
    17    0.203922    0.353204    0.000000
    18    0.407787   -0.000020    0.000000
    19   -0.407787    0.000020    0.000000
----------------------------------------
   Tot   -0.000000   -0.000000   -0.000000
----------------------------------------
   Max    0.732164
   Res    0.371410    sqrt( Sum f_i^2 / 3N )
----------------------------------------
   Max    0.732164    constrained

Stress tensor Voigt[x,y,z,yz,xz,xy] (kbar):    -1281.30    -1281.31      615.24        0.00       -0.00       -0.01
(Free)E + p*V (eV/cell)     -201.0511
Target enthalpy (eV/cell)     -263.4444

siesta: Eigenvalues (eV):
  ik is       eps
   1  1  -22.6981  -17.1453  -17.0789  -16.7327  -15.0377  -13.8954  -13.4920  -13.4918  -13.2409  -12.7788
         -12.7458  -12.7022  -11.8211  -10.6203   -7.9504   -7.9504   -7.5115   -7.5115   -7.2396   -6.9646
   -6.9646   -6.8786   -6.8786   -6.6990   -6.6990   -3.1331   -2.5501   -2.5501   -2.3848   -2.3848
   -2.3590   -2.3590   -2.0776   -2.0776    3.6997    3.7003    3.9299    3.9299    5.6028    5.6028
   11.0260   14.4979   14.4981   16.6119   16.6119   16.6791   16.6791   17.0547   17.0547   17.7094
   17.7095   22.6844   23.1385   23.3216   23.3971   23.6274   23.6275   26.0235   26.0236   26.2009
   26.2010   26.3358   26.3359   29.5605   29.5606   30.4908   30.4908   33.9243   33.9256   38.6145
   38.6149   43.2386   44.5762   44.6795   46.0847   46.5233   46.6205   48.2049   48.2251   50.4305
   50.4308
   2  1  -22.5941  -17.0813  -16.4469  -15.8847  -15.6300  -15.0770  -14.7818  -14.1535  -13.9501  -13.5659
         -12.8205  -12.3290  -12.0515  -11.2713   -9.6192   -9.4643   -8.9265   -8.3168   -7.9400   -7.0716
   -6.4992   -4.8770   -4.5947   -4.0162   -3.5275   -2.7009   -2.0175   -1.7844   -1.4648   -1.3288
   -0.9686   -0.5595   -0.4800   -0.1711    0.1906    0.3539    0.4777    0.5405    0.5514    0.5981
    3.3766    3.5192    7.3620    8.7171    8.9937    9.3516   10.2219   10.9352   12.9164   15.8690
   16.0360   17.5056   18.3039   18.5270   20.8199   21.2231   22.1205   22.4195   22.8016   23.7566
   23.9785   24.0195   24.7812   25.0843   25.2165   25.3313   26.2694   26.4555   26.9744   28.1698
   34.5114   44.7393   44.7784   49.5658   49.6164   50.5940   52.1073   53.7110   55.0579   57.0603
   57.2477
   3  1  -22.5941  -17.0813  -16.4469  -15.8847  -15.6300  -15.0770  -14.7818  -14.1535  -13.9501  -13.5659
         -12.8205  -12.3290  -12.0515  -11.2713   -9.6192   -9.4643   -8.9265   -8.3168   -7.9400   -7.0716
   -6.4992   -4.8770   -4.5947   -4.0162   -3.5275   -2.7009   -2.0175   -1.7844   -1.4648   -1.3288
   -0.9686   -0.5595   -0.4800   -0.1711    0.1906    0.3539    0.4777    0.5405    0.5514    0.5981
    3.3766    3.5192    7.3620    8.7171    8.9937    9.3516   10.2219   10.9352   12.9164   15.8690
   16.0360   17.5056   18.3039   18.5270   20.8199   21.2231   22.1205   22.4195   22.8016   23.7566
   23.9785   24.0195   24.7812   25.0843   25.2165   25.3313   26.2694   26.4555   26.9744   28.1698
   34.5114   44.7393   44.7784   49.5658   49.6164   50.5940   52.1072   53.7110   55.0579   57.0603
   57.2477
   4  1  -22.5941  -17.0813  -16.4468  -15.8847  -15.6299  -15.0770  -14.7818  -14.1535  -13.9502  -13.5658
         -12.8205  -12.3290  -12.0515  -11.2713   -9.6192   -9.4643   -8.9265   -8.3166   -7.9400   -7.0716
   -6.4992   -4.8770   -4.5947   -4.0162   -3.5276   -2.7008   -2.0175   -1.7844   -1.4648   -1.3288
   -0.9686   -0.5595   -0.4800   -0.1711    0.1906    0.3539    0.4777    0.5405    0.5514    0.5981
    3.3764    3.5195    7.3620    8.7171    8.9936    9.3516   10.2219   10.9352   12.9163   15.8690
   16.0359   17.5056   18.3039   18.5271   20.8205   21.2232   22.1204   22.4196   22.8015   23.7566
   23.9785   24.0195   24.7811   25.0843   25.2165   25.3312   26.2695   26.4554   26.9743   28.1698
   34.5105   44.7392   44.7784   49.5658   49.6165   50.5940   52.1071   53.7109   55.0577   57.0604
   57.2478
   5  1  -22.7219  -17.1570  -17.1259  -16.7375  -15.0624  -13.9181  -13.4869  -13.4867  -13.2424  -13.0159
         -12.7187  -12.3986  -11.4051  -10.6637   -7.7713   -7.7713   -7.5940   -7.5940   -7.5867   -7.5867
   -7.4244   -6.7409   -6.7409   -5.6957   -5.6957   -3.7527   -3.7527   -3.3375   -3.3375   -3.0979
   -0.1231   -0.1231   -0.0451   -0.0450    0.8586    0.8586    1.1289    1.1289    4.4677    4.4682
   12.3080   14.6802   14.6803   16.0299   16.0299   16.3573   16.3573   19.2749   19.2750   20.9871
   20.9872   21.1494   21.1494   21.7105   21.7106   22.7526   22.7582   23.5162   26.9080   26.9081
   28.7305   28.7306   29.5130   29.5131   30.9066   30.9067   32.8576   32.8589   36.9642   36.9646
   38.1490   39.9395   39.9867   43.4879   43.6652   44.0803   45.5611   46.0910   46.1775   52.7156
   52.7159
   6  1  -22.5904  -17.1255  -16.4052  -15.8040  -15.5939  -15.1515  -14.8218  -14.0846  -14.0130  -13.9483
         -12.9014  -12.7305  -11.1237  -10.6324  -10.0212   -9.6389   -9.4051   -9.0253   -8.6054   -6.6621
   -4.5984   -4.4284   -4.3154   -3.8912   -3.1554   -2.7536   -2.7133   -2.5126   -1.8956   -1.6648
   -1.4882   -1.2841   -0.5700   -0.4740   -0.4483    0.1504    0.7205    1.2700    2.0973    2.1145
    2.1989    3.1442    3.3341    6.3482   10.5930   11.6245   14.1898   15.2065   15.6882   16.0766
   16.5593   17.7776   17.8233   18.1499   18.7292   18.7459   19.0214   21.8891   21.9648   22.3612
   23.0563   23.9229   24.6112   24.7567   25.1387   25.4190   25.6717   26.4556   28.0768   28.1024
   37.9072   44.7486   44.9207   45.7876   47.6320   50.9409   52.1137   52.9500   53.8805   58.4678
   60.8295
   7  1  -22.5904  -17.1255  -16.4052  -15.8040  -15.5939  -15.1515  -14.8218  -14.0846  -14.0130  -13.9483
         -12.9014  -12.7305  -11.1237  -10.6324  -10.0212   -9.6389   -9.4051   -9.0253   -8.6054   -6.6621
   -4.5984   -4.4284   -4.3154   -3.8912   -3.1554   -2.7536   -2.7133   -2.5126   -1.8956   -1.6648
   -1.4882   -1.2841   -0.5700   -0.4740   -0.4483    0.1504    0.7205    1.2700    2.0973    2.1145
    2.1989    3.1442    3.3341    6.3482   10.5930   11.6245   14.1898   15.2065   15.6882   16.0766
   16.5593   17.7776   17.8233   18.1499   18.7292   18.7459   19.0214   21.8891   21.9648   22.3612
   23.0563   23.9229   24.6112   24.7567   25.1387   25.4190   25.6717   26.4556   28.0768   28.1024
   37.9073   44.7486   44.9207   45.7876   47.6320   50.9409   52.1137   52.9500   53.8805   58.4678
   60.8295
   8  1  -22.5904  -17.1255  -16.4051  -15.8041  -15.5939  -15.1515  -14.8218  -14.0845  -14.0130  -13.9485
         -12.9014  -12.7305  -11.1237  -10.6323  -10.0212   -9.6389   -9.4051   -9.0253   -8.6054   -6.6619
   -4.5984   -4.4284   -4.3155   -3.8912   -3.1554   -2.7536   -2.7133   -2.5126   -1.8956   -1.6648
   -1.4882   -1.2841   -0.5699   -0.4740   -0.4483    0.1504    0.7205    1.2700    2.0973    2.1145
    2.1987    3.1442    3.3344    6.3482   10.5929   11.6245   14.1899   15.2066   15.6882   16.0766
   16.5592   17.7776   17.8236   18.1499   18.7291   18.7460   19.0213   21.8896   21.9647   22.3613
   23.0564   23.9228   24.6112   24.7567   25.1386   25.4190   25.6717   26.4555   28.0769   28.1023
   37.9064   44.7485   44.9207   45.7875   47.6319   50.9411   52.1137   52.9500   53.8803   58.4677
   60.8296
siesta: Fermi energy =     -12.739385 eV

siesta: Program's energy decomposition (eV):
siesta: Ebs     =      -342.561536
siesta: Eions   =       439.895300
siesta: Ena     =       126.525424
siesta: Ekin    =       230.427131
siesta: Enl     =        25.088046
siesta: Eso     =         0.000000
siesta: Edftu   =         0.000000
siesta: DEna    =        16.445877
siesta: DUscf   =         3.651524
siesta: DUext   =         0.000000
siesta: Exc     =      -216.911917
siesta: eta*DQ  =         0.000000
siesta: Emadel  =         0.000000
siesta: Emeta   =         0.000000
siesta: Emolmec =        -8.743744
siesta: Ekinion =         0.000000
siesta: Eharris =      -263.412926
siesta: Etot    =      -263.412958
siesta: FreeEng =      -263.444363

siesta: Final energy (eV):
siesta:  Band Struct. =    -342.561536
siesta:       Kinetic =     230.427131
siesta:       Hartree =      99.937548
siesta:       Edftu   =       0.000000
siesta:       Eso     =       0.000000
siesta:    Ext. field =       0.000000
siesta:   Exch.-corr. =    -216.911917
siesta:  Ion-electron =    -550.055895
siesta:       Ion-ion =     181.933918
siesta:       Ekinion =       0.000000
siesta:         Total =    -263.412958
siesta:         Fermi =     -12.739385

siesta: Atomic forces (eV/Ang):
siesta:      1    0.000000    0.000000    0.000001
siesta:      2   -0.366093    0.634066   -0.189728
siesta:      3    0.366093   -0.634066    0.189728
siesta:      4   -0.366103   -0.634109   -0.189766
siesta:      5    0.366103    0.634109    0.189765
siesta:      6    0.732163   -0.000013   -0.189728
siesta:      7   -0.732164    0.000013    0.189728
siesta:      8    0.366093   -0.634066   -0.189728
siesta:      9   -0.366093    0.634066    0.189728
siesta:     10    0.366103    0.634109   -0.189766
siesta:     11   -0.366103   -0.634109    0.189765
siesta:     12   -0.732163    0.000013   -0.189728
siesta:     13    0.732164   -0.000013    0.189728
siesta:     14   -0.203911    0.353144    0.000000
siesta:     15    0.203911   -0.353144    0.000000
siesta:     16   -0.203922   -0.353204    0.000000
siesta:     17    0.203922    0.353204    0.000000
siesta:     18    0.407787   -0.000020    0.000000
siesta:     19   -0.407787    0.000020    0.000000
siesta: ----------------------------------------
siesta:    Tot   -0.000000   -0.000000   -0.000000

siesta: Stress tensor (static) (eV/Ang**3):
siesta:    -0.799719   -0.000005    0.000000
siesta:    -0.000005   -0.799724   -0.000000
siesta:    -0.000000    0.000000    0.384000

siesta: Cell volume =        154.001412 Ang**3

siesta: Pressure (static):
siesta:                Solid            Molecule  Units
siesta:           0.00441257          0.00444100  Ry/Bohr**3
siesta:           0.40514746          0.40775743  eV/Ang**3
siesta:         649.12480658        653.30648315  kBar
(Free)E+ p_basis*V_orbitals  =        -215.616046
(Free)Eharris+ p_basis*V_orbitals  =        -215.616014

cite: Please see "LiC18_scf.bib" for an exhaustive BiBTeX file.
cite: Please clearly indicate Siesta version in published work: 4.1.5
cite: This calculation has made use of the following articles
cite: which are encouraged to be cited in a published work.
        Primary SIESTA paper
          DOI: www.doi.org/10.1088/0953-8984/14/11/302

>> End of run:   9-NOV-2022   9:07:31
Job completed
