Siesta Version  : 4.1.5
Architecture    : x86_64-unknown-linux-gnu--unknown
Compiler version: GNU Fortran (GCC) 11.3.0
Compiler flags  : mpif90 -g -O2 -fallow-argument-mismatch
PP flags        : -DMPI -DFC_HAVE_FLUSH -DFC_HAVE_ABORT
Libraries       :  -I/global/software/sl-7.x86_64/modules/intel/2020.4.304/mkl/include  /globall/software/sl-7.x86_64/modules/intel/2020.4.304/mkl/lib/intel64/libmkl_scalapack_lp64.a -Wl,--start-group /global/software/sl-7.x86_64/modules/intel/2020.4.304/mkl/lib/intel64/libmkl_intel_lp64.a /global/software/sl-7.x86_64/modules/intel/2020.4.304/mkl/lib/intel64/libmkl_sequential.a /global/software/sl-7.x86_64/modules/intel/2020.4.304/mkl/lib/intel64/libmkl_core.a /global/software/sl-7.x86_64/modules/intel/2020.4.304/mkl/lib/intel64/libmkl_blacs_openmpi_lp64.a -Wl,--end-group -lpthread -lm -ldl
PARALLEL version

* Running on 16 nodes in parallel
>> Start of run:   9-NOV-2022  10:05:06

                           ***********************       
                           *  WELCOME TO SIESTA  *       
                           ***********************       

reinit: Reading from standard input
reinit: Dumped input in INPUT_TMP.81798
************************** Dump of input data file ****************************
SystemName LiC18_scf
SystemLabel LiC18_scf
NumberOfAtoms   19
NumberOfSpecies 2
%block ChemicalSpeciesLabel
1  3   Li-gga
2  6   C-gga
%endblock ChemicalSpeciesLabel
PAO.BasisSize  SZP
PAO.EnergyShift  10 meV
%block PS.Lmax
C-gga   2
Li-gga  2
%endblock PS.Lmax
LatticeConstant 1.000000 Ang
%block LatticeVectors
	4.3161300000	0.0000000000	0.0000000000
	-2.1580650000	3.7378782260	0.0000000000
	0.0000000000	0.0000000000	11.5435642400
%endblock LatticeVectors
AtomicCoordinatesFormat Ang
%block AtomicCoordinatesAndAtomicSpecies
	0.00000000	0.00000000	0.00000000	2
	-0.70288177	1.21742694	1.92393122	1
	-1.45518323	2.52045129	9.61963302	1
	1.45518323	2.52045129	1.92393122	1
	0.70288177	1.21742694	9.61963302	1
	1.40576354	0.00000000	1.92393122	1
	2.91036646	0.00000000	9.61963302	1
	-1.45518323	2.52045129	1.92393122	1
	-0.70288177	1.21742694	9.61963302	1
	0.70288177	1.21742694	1.92393122	1
	1.45518323	2.52045129	9.61963302	1
	2.91036646	0.00000000	1.92393122	1
	1.40576354	0.00000000	9.61963302	1
	-0.70288177	1.21742694	5.77178212	1
	-1.45518323	2.52045129	5.77178212	1
	1.45518323	2.52045129	5.77178212	1
	0.70288177	1.21742694	5.77178212	1
	1.40576354	0.00000000	5.77178212	1
	2.91036646	0.00000000	5.77178212	1
%endblock AtomicCoordinatesAndAtomicSpecies
Kgrid_NoTRS  T
%block kgrid_MonkhorstPack
2       0       0       0.0
0       2       0       0.0
0       0       2       0.0
%endblock kgrid_MonkhorstPack
AtomCoorFormatOut Ang
BlockSize 1
#ProcessorY 12
Diag.ParallelOverK   T
Diag.DivideAndConquer F
MeshCutoff   300 Ry
SCF.FreeE.Tolerance 1E-3 eV
SCF.EDM.Tolerance   5E-3 eV
DM.Tolerance  1E-3
DM.Require.Energy.Convergence T
DM.NumberPulay 4
XC.Functional GGA
XC.Authors    PBE
UseSaveData        F
MD.TypeOfRun       CG
MD.VariableCell    F
MD.NumCGsteps      00
MD.MaxCGDispl      0.200000 Bohr
MD.MaxStressTol    1.000000 GPa
MD.MaxForceTol     0.010000 eV/Ang
WriteMDHistory T
WriteCoorStep T
WriteForces T
WriteCoorStep    T
WriteEigenValues T
WriteDM    F
MM.UnitsDistance Ang  # what this program prints out DO NOT CHANGE
MM.UnitsEnergy    eV  # what this program prints out DO NOT CHANGE
MM.Grimme.S6     0.75 # Grimme-paper for PBE (correct for your functional)
MM.Grimme.D     20.   # Grimme-paper (correct for your functional)
%block MM.Potentials
  1   1 Grimme     16.69      1.650 # Li, 10.1002/jcc.20495
  1   2 Grimme     17.40      2.277 # Li / C
  2   2 Grimme     18.14      2.904 # C, 10.1002/jcc.20495
%endblock MM.Potentials
#%block ProjectedDensityOfStates
# -200.0  120.0  0.4  12800  eV
#%endblock ProjectedDensityOfStates
************************** End of input data file *****************************

reinit: -----------------------------------------------------------------------
reinit: System Name: LiC18_scf
reinit: -----------------------------------------------------------------------
reinit: System Label: LiC18_scf
reinit: -----------------------------------------------------------------------
Reading two-body potentials
Grimme - two-body potential between 1 and 1
Grimme - two-body potential between 1 and 2
Grimme - two-body potential between 2 and 2

initatom: Reading input for the pseudopotentials and atomic orbitals ----------
Species number:   1 Atomic number:    3 Label: Li-gga
Species number:   2 Atomic number:    6 Label: C-gga

Ground state valence configuration:   2s01
Reading pseudopotential information in formatted form from Li-gga.psf

Valence configuration for pseudopotential generation:
2s( 1.00) rc: 2.28
2p( 0.00) rc: 2.28
3d( 0.00) rc: 2.59
4f( 0.00) rc: 2.59
Ground state valence configuration:   2s02  2p02
Reading pseudopotential information in formatted form from C-gga.psf

Valence configuration for pseudopotential generation:
2s( 2.00) rc: 1.56
2p( 2.00) rc: 1.56
3d( 0.00) rc: 1.56
4f( 0.00) rc: 1.56
relmxkb: Read Max KB Ang. Momentum=    2 for species C-gga
relmxkb: Read Max KB Ang. Momentum=    2 for species Li-gga

<basis_specs>
===============================================================================
Li-gga               Z=   3    Mass=  6.9400        Charge= 0.17977+309
Lmxo=0 Lmxkb= 2    BasisType=split      Semic=F
L=0  Nsemic=0  Cnfigmx=2
          i=1  nzeta=1  polorb=1  (2s)
            splnorm:   0.15000    
               vcte:    0.0000    
               rinn:    0.0000    
               qcoe:    0.0000    
               qyuk:    0.0000    
               qwid:   0.10000E-01
                rcs:    0.0000    
            lambdas:    1.0000    
-------------------------------------------------------------------------------
L=0  Nkbl=1  erefs: 0.17977+309
L=1  Nkbl=1  erefs: 0.17977+309
L=2  Nkbl=1  erefs: 0.17977+309
===============================================================================
</basis_specs>

atom: Called for Li-gga                (Z =   3)

read_vps: Pseudopotential generation method:
read_vps: ATM 3.2.2 Troullier-Martins                       
Valence charge for ps generation:    1.00000

read_vps: Pseudopotential includes a core correction:
read_vps: Pseudo-core for xc-correction

xc_check: Exchange-correlation functional:
xc_check: GGA Perdew, Burke & Ernzerhof 1996
V l=0 = -2*Zval/r beyond r=  2.2278
V l=1 = -2*Zval/r beyond r=  2.2278
V l=2 = -2*Zval/r beyond r=  2.5245
All V_l potentials equal beyond r=  2.4622
This should be close to max(r_c) in ps generation
All pots = -2*Zval/r beyond r=  2.5245

VLOCAL1: 99.0% of the norm of Vloc inside      7.160 Ry
VLOCAL1: 99.9% of the norm of Vloc inside     16.318 Ry
atom: Maximum radius for 4*pi*r*r*local-pseudopot. charge    2.86079
atom: Maximum radius for r*vlocal+2*Zval:    2.43160
GHOST: No ghost state for L =  0
GHOST: No ghost state for L =  1
GHOST: No ghost state for L =  2

KBgen: Kleinman-Bylander projectors: 
   l= 0   rc=  2.654023   el= -0.211234   Ekb=  1.742119   kbcos=  0.228463
   l= 1   rc=  2.721230   el= -0.080095   Ekb= -1.122375   kbcos= -0.147941
   l= 2   rc=  2.825246   el=  0.002001   Ekb= -0.207076   kbcos= -0.031965

KBgen: Total number of Kleinman-Bylander projectors:    9
atom: -------------------------------------------------------------------------

atom: SANKEY-TYPE ORBITALS:

SPLIT: Orbitals with angular momentum L= 0

SPLIT: Basis orbitals for state 2s

SPLIT: PAO cut-off radius determined from an
SPLIT: energy shift=  0.000735 Ry

   izeta = 1
                 lambda =    1.000000
                     rc =   11.897381
                 energy =   -0.210580
                kinetic =    0.143382
    potential(screened) =   -0.353962
       potential(ionic) =   -0.533453

POLgen: Perturbative polarization orbital with L=  1

POLgen: Polarization orbital for state 2s

   izeta = 1
                     rc =   11.897381
                 energy =   -0.027011
                kinetic =    0.282985
    potential(screened) =   -0.309997
       potential(ionic) =   -0.490997
atom: Total number of Sankey-type orbitals:  4

atm_pop: Valence configuration (for local Pseudopot. screening):
 2s( 1.00)                                                            
Vna: chval, zval:    1.00000   1.00000

Vna:  Cut-off radius for the neutral-atom potential:  11.897381
comcore: Pseudo-core radius Rcore=  3.450946

atom: _________________________________________________________________________

<basis_specs>
===============================================================================
C-gga                Z=   6    Mass=  12.010        Charge= 0.17977+309
Lmxo=1 Lmxkb= 2    BasisType=split      Semic=F
L=0  Nsemic=0  Cnfigmx=2
          i=1  nzeta=1  polorb=0  (2s)
            splnorm:   0.15000    
               vcte:    0.0000    
               rinn:    0.0000    
               qcoe:    0.0000    
               qyuk:    0.0000    
               qwid:   0.10000E-01
                rcs:    0.0000    
            lambdas:    1.0000    
L=1  Nsemic=0  Cnfigmx=2
          i=1  nzeta=1  polorb=1  (2p)
            splnorm:   0.15000    
               vcte:    0.0000    
               rinn:    0.0000    
               qcoe:    0.0000    
               qyuk:    0.0000    
               qwid:   0.10000E-01
                rcs:    0.0000    
            lambdas:    1.0000    
-------------------------------------------------------------------------------
L=0  Nkbl=1  erefs: 0.17977+309
L=1  Nkbl=1  erefs: 0.17977+309
L=2  Nkbl=1  erefs: 0.17977+309
===============================================================================
</basis_specs>

atom: Called for C-gga                 (Z =   6)

read_vps: Pseudopotential generation method:
read_vps: ATM 3.2.2 Troullier-Martins                       
Valence charge for ps generation:    4.00000

xc_check: Exchange-correlation functional:
xc_check: GGA Perdew, Burke & Ernzerhof 1996
V l=0 = -2*Zval/r beyond r=  1.5227
V l=1 = -2*Zval/r beyond r=  1.5227
V l=2 = -2*Zval/r beyond r=  1.5227
All V_l potentials equal beyond r=  1.4851
This should be close to max(r_c) in ps generation
All pots = -2*Zval/r beyond r=  1.5227

VLOCAL1: 99.0% of the norm of Vloc inside     19.682 Ry
VLOCAL1: 99.9% of the norm of Vloc inside     44.856 Ry
atom: Maximum radius for 4*pi*r*r*local-pseudopot. charge    1.79142
atom: Maximum radius for r*vlocal+2*Zval:    1.54183
GHOST: No ghost state for L =  0
GHOST: No ghost state for L =  1
GHOST: No ghost state for L =  2

KBgen: Kleinman-Bylander projectors: 
   l= 0   rc=  1.661951   el= -1.010689   Ekb=  5.289847   kbcos=  0.316429
   l= 1   rc=  1.661951   el= -0.388490   Ekb= -4.102504   kbcos= -0.351025
   l= 2   rc=  1.747182   el=  0.001971   Ekb= -1.006005   kbcos= -0.008530

KBgen: Total number of Kleinman-Bylander projectors:    9
atom: -------------------------------------------------------------------------

atom: SANKEY-TYPE ORBITALS:

SPLIT: Orbitals with angular momentum L= 0

SPLIT: Basis orbitals for state 2s

SPLIT: PAO cut-off radius determined from an
SPLIT: energy shift=  0.000735 Ry

   izeta = 1
                 lambda =    1.000000
                     rc =    5.948690
                 energy =   -1.010099
                kinetic =    0.827121
    potential(screened) =   -1.837220
       potential(ionic) =   -5.392783

SPLIT: Orbitals with angular momentum L= 1

SPLIT: Basis orbitals for state 2p

SPLIT: PAO cut-off radius determined from an
SPLIT: energy shift=  0.000735 Ry

   izeta = 1
                 lambda =    1.000000
                     rc =    7.638387
                 energy =   -0.387843
                kinetic =    2.314739
    potential(screened) =   -2.702582
       potential(ionic) =   -6.092371

POLgen: Perturbative polarization orbital with L=  2

POLgen: Polarization orbital for state 2p

   izeta = 1
                     rc =    7.638387
                 energy =    0.921402
                kinetic =    1.955040
    potential(screened) =   -1.033637
       potential(ionic) =   -3.679558
atom: Total number of Sankey-type orbitals:  9

atm_pop: Valence configuration (for local Pseudopot. screening):
 2s( 2.00)                                                            
 2p( 2.00)                                                            
Vna: chval, zval:    4.00000   4.00000

Vna:  Cut-off radius for the neutral-atom potential:   7.638387

atom: _________________________________________________________________________

prinput: Basis input ----------------------------------------------------------

PAO.BasisType split     

%block ChemicalSpeciesLabel
    1    3 Li-gga                  # Species index, atomic number, species label
    2    6 C-gga                   # Species index, atomic number, species label
%endblock ChemicalSpeciesLabel

%block PAO.Basis                 # Define Basis set
Li-gga                1                    # Species label, number of l-shells
 n=2   0   1 P   1                   # n, l, Nzeta, Polarization, NzetaPol
  11.897   
   1.000   
C-gga                 2                    # Species label, number of l-shells
 n=2   0   1                         # n, l, Nzeta 
   5.949   
   1.000   
 n=2   1   1 P   1                   # n, l, Nzeta, Polarization, NzetaPol
   7.638   
   1.000   
%endblock PAO.Basis

prinput: ----------------------------------------------------------------------

coor:   Atomic-coordinates input format  =     Cartesian coordinates
coor:                                          (in Angstroms)

siesta: Atomic coordinates (Bohr) and species
siesta:      0.00000   0.00000   0.00000  2        1
siesta:     -1.32825   2.30060   3.63570  1        2
siesta:     -2.74990   4.76296  18.17848  1        3
siesta:      2.74990   4.76296   3.63570  1        4
siesta:      1.32825   2.30060  18.17848  1        5
siesta:      2.65651   0.00000   3.63570  1        6
siesta:      5.49980   0.00000  18.17848  1        7
siesta:     -2.74990   4.76296   3.63570  1        8
siesta:     -1.32825   2.30060  18.17848  1        9
siesta:      1.32825   2.30060   3.63570  1       10
siesta:      2.74990   4.76296  18.17848  1       11
siesta:      5.49980   0.00000   3.63570  1       12
siesta:      2.65651   0.00000  18.17848  1       13
siesta:     -1.32825   2.30060  10.90709  1       14
siesta:     -2.74990   4.76296  10.90709  1       15
siesta:      2.74990   4.76296  10.90709  1       16
siesta:      1.32825   2.30060  10.90709  1       17
siesta:      2.65651   0.00000  10.90709  1       18
siesta:      5.49980   0.00000  10.90709  1       19

siesta: System type = bulk      

initatomlists: Number of atoms, orbitals, and projectors:     19    81   171

siesta: ******************** Simulation parameters ****************************
siesta:
siesta: The following are some of the parameters of the simulation.
siesta: A complete list of the parameters used, including default values,
siesta: can be found in file out.fdf
siesta:
redata: Spin configuration                          = none
redata: Number of spin components                   = 1
redata: Time-Reversal Symmetry                      = T
redata: Spin spiral                                 = F
redata: Long output                                 =   F
redata: Number of Atomic Species                    =        2
redata: Charge density info will appear in .RHO file
redata: Write Mulliken Pop.                         = NO
redata: Matel table size (NRTAB)                    =     1024
redata: Mesh Cutoff                                 =   300.0000 Ry
redata: Net charge of the system                    =     0.0000 |e|
redata: Min. number of SCF Iter                     =        0
redata: Max. number of SCF Iter                     =     1000
redata: SCF convergence failure will abort job
redata: SCF mix quantity                            = Hamiltonian
redata: Mix DM or H after convergence               =   F
redata: Recompute H after scf cycle                 =   F
redata: Mix DM in first SCF step                    =   T
redata: Write Pulay info on disk                    =   F
redata: New DM Occupancy tolerance                  = 0.000000000001
redata: No kicks to SCF
redata: DM Mixing Weight for Kicks                  =     0.5000
redata: Require Harris convergence for SCF          =   F
redata: Harris energy tolerance for SCF             =     0.000100 eV
redata: Require DM convergence for SCF              =   T
redata: DM tolerance for SCF                        =     0.001000
redata: Require EDM convergence for SCF             =   F
redata: EDM tolerance for SCF                       =     0.005000 eV
redata: Require H convergence for SCF               =   T
redata: Hamiltonian tolerance for SCF               =     0.001000 eV
redata: Require (free) Energy convergence for SCF   =   T
redata: (free) Energy tolerance for SCF             =     0.001000 eV
redata: Using Saved Data (generic)                  =   F
redata: Use continuation files for DM               =   F
redata: Neglect nonoverlap interactions             =   F
redata: Method of Calculation                       = Diagonalization
redata: Electronic Temperature                      =   299.9869 K
redata: Fix the spin of the system                  =   F
redata: Dynamics option                             = Single-point calculation
mix.SCF: Pulay mixing                            = Pulay
mix.SCF:    Variant                              = stable
mix.SCF:    History steps                        = 4
mix.SCF:    Linear mixing weight                 =     0.250000
mix.SCF:    Mixing weight                        =     0.250000
mix.SCF:    SVD condition                        = 0.1000E-07
redata: ***********************************************************************

%block SCF.Mixers
  Pulay
%endblock SCF.Mixers

%block SCF.Mixer.Pulay
  # Mixing method
  method pulay
  variant stable

  # Mixing options
  weight 0.2500
  weight.linear 0.2500
  history 4
%endblock SCF.Mixer.Pulay

DM_history_depth set to one: no extrapolation allowed by default for geometry relaxation
Size of DM history Fstack: 1
Total number of electrons:    22.000000
Total ionic charge:    22.000000

* ProcessorY, Blocksize:    4   1


* Orbital distribution balance (max,min):     6     5

k-point displ. along   1 input, could be:     0.00    0.50
k-point displ. along   2 input, could be:     0.00    0.50
k-point displ. along   3 input, could be:     0.00    0.50
 Kpoints in:            8 . Kpoints trimmed:            8

siesta: k-grid: Number of k-points =     8
siesta: k-grid: Cutoff (effective) =     4.316 Ang
siesta: k-grid: Supercell and displacements
siesta: k-grid:    2   0   0      0.000
siesta: k-grid:    0   2   0      0.000
siesta: k-grid:    0   0   2      0.000

diag: Algorithm                                     = Expert
diag: Parallel over k                               =   T
diag: Use parallel 2D distribution                  =   T
diag: Parallel block-size                           = 1
diag: Parallel distribution                         =     4 x     4
diag: Used triangular part                          = Lower
diag: Absolute tolerance                            =  0.100E-15
diag: Orthogonalization factor                      =  0.100E-05
diag: Memory factor                                 =  1.0000

superc: Internal auxiliary supercell:     9 x     9 x     5  =     405
superc: Number of atoms, orbitals, and projectors:   7695  32805  69255


ts: **************************************************************
ts: Save H and S matrices                           =    F
ts: Save DM and EDM matrices                        =    F
ts: Only save the overlap matrix S                  =    F
ts: **************************************************************

************************ Begin: TS CHECKS AND WARNINGS ************************
************************ End: TS CHECKS AND WARNINGS **************************


                     ====================================
                        Single-point calculation
                     ====================================

outcoor: Atomic coordinates (Ang):                          
    0.00000000    0.00000000    0.00000000   2       1  C-gga
   -0.70288177    1.21742694    1.92393122   1       2  Li-gga
   -1.45518323    2.52045129    9.61963302   1       3  Li-gga
    1.45518323    2.52045129    1.92393122   1       4  Li-gga
    0.70288177    1.21742694    9.61963302   1       5  Li-gga
    1.40576354    0.00000000    1.92393122   1       6  Li-gga
    2.91036646    0.00000000    9.61963302   1       7  Li-gga
   -1.45518323    2.52045129    1.92393122   1       8  Li-gga
   -0.70288177    1.21742694    9.61963302   1       9  Li-gga
    0.70288177    1.21742694    1.92393122   1      10  Li-gga
    1.45518323    2.52045129    9.61963302   1      11  Li-gga
    2.91036646    0.00000000    1.92393122   1      12  Li-gga
    1.40576354    0.00000000    9.61963302   1      13  Li-gga
   -0.70288177    1.21742694    5.77178212   1      14  Li-gga
   -1.45518323    2.52045129    5.77178212   1      15  Li-gga
    1.45518323    2.52045129    5.77178212   1      16  Li-gga
    0.70288177    1.21742694    5.77178212   1      17  Li-gga
    1.40576354    0.00000000    5.77178212   1      18  Li-gga
    2.91036646    0.00000000    5.77178212   1      19  Li-gga

superc: Internal auxiliary supercell:     9 x     9 x     5  =     405
superc: Number of atoms, orbitals, and projectors:   7695  32805  69255

outcell: Unit cell vectors (Ang):
        4.316130    0.000000    0.000000
       -2.158065    3.737878    0.000000
        0.000000    0.000000   11.543564

outcell: Cell vector modules (Ang)   :    4.316130    4.316130   11.543564
outcell: Cell angles (23,13,12) (deg):     90.0000     90.0000    120.0000
outcell: Cell volume (Ang**3)        :    186.2343
<dSpData1D:S at geom step 0
  <sparsity:sparsity for geom step 0
    nrows_g=81 nrows=6 sparsity=4.6170 nnzs=30292, refcount: 7>
  <dData1D:(new from dSpData1D) n=30292, refcount: 1>
refcount: 1>
new_DM -- step:     1
Initializing Density Matrix...
DM filled with atomic data:
<dSpData2D:DM initialized from atoms
  <sparsity:sparsity for geom step 0
    nrows_g=81 nrows=6 sparsity=4.6170 nnzs=30292, refcount: 8>
  <dData2D:DM n=30292 m=1, refcount: 1>
refcount: 1>
No. of atoms with KB's overlaping orbs in proc 0. Max # of overlaps:     428     816
New grid distribution:   1
           1       1:   20    1:    5    1:   16
           2       1:   20    1:    5   17:   32
           3       1:   20    1:    5   33:   48
           4       1:   20    1:    5   49:   64
           5       1:   20    6:   10    1:   16
           6       1:   20    6:   10   17:   32
           7       1:   20    6:   10   33:   48
           8       1:   20    6:   10   49:   64
           9       1:   20   11:   15    1:   16
          10       1:   20   11:   15   17:   32
          11       1:   20   11:   15   33:   48
          12       1:   20   11:   15   49:   64
          13       1:   20   16:   20    1:   16
          14       1:   20   16:   20   17:   32
          15       1:   20   16:   20   33:   48
          16       1:   20   16:   20   49:   64

InitMesh: MESH =    40 x    40 x   128 =      204800
InitMesh: (bp) =    20 x    20 x    64 =       25600
InitMesh: Mesh cutoff (required, used) =   300.000   316.498 Ry
ExtMesh (bp) on 0 =   156 x   141 x   156 =     3431376
New grid distribution:   2
           1      11:   20    1:   10    1:   15
           2      11:   20    1:   10   16:   32
           3       1:   10    1:   10   33:   49
           4       1:   10    1:   10   50:   64
           5       1:   10    1:   10    1:   15
           6       1:   10    1:   10   16:   32
           7      11:   20    1:   10   33:   49
           8      11:   20    1:   10   50:   64
           9      11:   20   11:   20    1:   15
          10      11:   20   11:   20   16:   32
          11       1:   10   11:   20   33:   49
          12       1:   10   11:   20   50:   64
          13       1:   10   11:   20    1:   15
          14       1:   10   11:   20   16:   32
          15      11:   20   11:   20   33:   49
          16      11:   20   11:   20   50:   64
New grid distribution:   3
           1       1:   10    1:   10    1:   16
           2       1:   10    1:   10   17:   32
           3       1:   10    1:   10   33:   48
           4       1:   10    1:   10   49:   64
           5      11:   20    1:   10    1:   16
           6      11:   20    1:   10   17:   32
           7      11:   20    1:   10   33:   48
           8      11:   20    1:   10   49:   64
           9       1:   10   11:   20    1:   16
          10       1:   10   11:   20   17:   32
          11       1:   10   11:   20   33:   48
          12       1:   10   11:   20   49:   64
          13      11:   20   11:   20    1:   16
          14      11:   20   11:   20   17:   32
          15      11:   20   11:   20   33:   48
          16      11:   20   11:   20   49:   64
Setting up quadratic distribution...
ExtMesh (bp) on 0 =   146 x   146 x   155 =     3303980
PhiOnMesh: Number of (b)points on node 0 =                 1500
PhiOnMesh: nlist on node 0 =               670908

stepf: Fermi-Dirac step function

siesta: Program's energy decomposition (eV):
siesta: Ebs     =      -240.226980
siesta: Eions   =       439.895300
siesta: Ena     =       141.715955
siesta: Ekin    =       230.971840
siesta: Enl     =        32.470765
siesta: Eso     =         0.000000
siesta: Edftu   =         0.000000
siesta: DEna    =        -0.069796
siesta: DUscf   =        10.315800
siesta: DUext   =         0.000000
siesta: Exc     =      -213.530031
siesta: eta*DQ  =         0.000000
siesta: Emadel  =         0.000000
siesta: Emeta   =         0.000000
siesta: Emolmec =        -8.201577
siesta: Ekinion =         0.000000
siesta: Eharris =      -217.949180
siesta: Etot    =      -246.222343
siesta: FreeEng =      -246.237635

        iscf     Eharris(eV)        E_KS(eV)     FreeEng(eV)     dDmax    Ef(eV) dHmax(eV)
   scf:    1     -217.949180     -246.222343     -246.237635  1.470024-11.707140 12.936764
timer: Routine,Calls,Time,% = IterSCF        1       8.692  52.37
   scf:    2      -54.594528     -196.993080     -197.015045  0.985861-11.255243 35.131311
   scf:    3     -266.605161     -251.242692     -251.277145  0.443324-11.627122  6.058737
   scf:    4     -252.544704     -252.757948     -252.796522  0.190972-11.652180  0.776438
   scf:    5     -252.747293     -252.773569     -252.809884  0.030629-11.638880  0.389310
   scf:    6     -249.282150     -251.666728     -251.713665  0.165135-11.659911  5.127827
   scf:    7     -252.753972     -252.267371     -252.313972  0.048205-11.651263  3.489217
   scf:    8     -252.907326     -252.768300     -252.810028  0.086992-11.624469  0.511915
   scf:    9     -252.784537     -252.777418     -252.817838  0.011989-11.624709  0.330635
   scf:   10     -252.784865     -252.783323     -252.822307  0.008116-11.620535  0.009809
   scf:   11     -252.782400     -252.782921     -252.822243  0.002963-11.620688  0.051792
   scf:   12     -252.783252     -252.783117     -252.822346  0.001113-11.620028  0.011576
   scf:   13     -252.783274     -252.783202     -252.822351  0.000518-11.619932  0.005903
   scf:   14     -252.783153     -252.783179     -252.822352  0.000211-11.619976  0.001176
   scf:   15     -252.783186     -252.783182     -252.822352  0.000034-11.619980  0.000560

SCF Convergence by FreeE+DM+H criterion
|FreeE_i-FreeE_(i-1)| (eV) <     0.00100000
max |DM_out - DM_in|         :     0.0000335485
max |H_out - H_in|      (eV) :     0.0005602063
SCF cycle converged after 15 iterations

Using DM_out to compute the final energy and forces
No. of atoms with KB's overlaping orbs in proc 0. Max # of overlaps:     428     816

MM-Stress (kbar):      -11.93      -11.93       25.03        0.00        0.00        0.00

siesta: E_KS(eV) =             -252.7832

siesta: E_KS - E_eggbox =      -252.7832

siesta: Atomic forces (eV/Ang):
     1    0.000000    0.000000    0.000006
     2    0.089852   -0.155609   -0.499034
     3   -0.089849    0.155605    0.499031
     4    0.089794    0.155527   -0.499101
     5   -0.089792   -0.155523    0.499098
     6   -0.179687    0.000009   -0.499034
     7    0.179683   -0.000009    0.499031
     8   -0.089852    0.155609   -0.499034
     9    0.089849   -0.155605    0.499031
    10   -0.089794   -0.155527   -0.499101
    11    0.089792    0.155523    0.499098
    12    0.179687   -0.000009   -0.499034
    13   -0.179683    0.000009    0.499031
    14    0.030308   -0.052529    0.000002
    15   -0.030308    0.052529    0.000002
    16    0.030302    0.052485    0.000002
    17   -0.030302   -0.052485    0.000002
    18   -0.060646   -0.000017    0.000002
    19    0.060646    0.000017    0.000002
----------------------------------------
   Tot   -0.000000   -0.000000    0.000000
----------------------------------------
   Max    0.499101
   Res    0.244161    sqrt( Sum f_i^2 / 3N )
----------------------------------------
   Max    0.499101    constrained

Stress tensor Voigt[x,y,z,yz,xz,xy] (kbar):    -1123.83    -1123.84      399.96        0.00       -0.00       -0.01
(Free)E + p*V (eV/cell)     -181.2314
Target enthalpy (eV/cell)     -252.8224

siesta: Eigenvalues (eV):
  ik is       eps
   1  1  -20.8916  -15.3188  -14.6426  -14.2305  -13.1195  -12.3173  -12.0491  -11.7239  -11.5958  -11.5957
         -11.5478  -11.5383  -11.3029  -11.0688   -8.3791   -5.6590   -5.6590   -4.8704   -4.8704   -4.8607
   -4.8606   -4.7813   -4.7813   -4.7439   -4.6316   -4.6316   -2.5606   -2.5605   -2.5258   -2.5258
   -2.1641   -2.1640   -2.0419   -2.0418    1.2130    1.2130    2.2014    2.2015    2.5324    2.5328
    7.4455   13.3999   13.4000   15.9705   15.9706   16.9809   16.9809   17.1847   17.1847   19.5669
   19.5670   20.5547   20.5547   23.5262   23.6704   23.7057   23.7058   23.8763   23.8764   23.8914
   23.8915   25.2471   29.7641   29.7641   31.0275   31.0284   32.8943   32.8944   35.5674   35.5676
   38.4491   39.1007   39.6078   44.6695   44.9370   46.4326   46.5398   47.2189   48.0518   48.0519
   49.5301
   2  1  -20.7004  -15.4418  -14.4199  -13.3331  -13.2995  -12.9954  -12.3970  -12.2906  -12.0176  -11.8841
         -11.6811  -11.6618  -11.4310  -10.5188   -9.1299   -7.8716   -7.3114   -7.0336   -6.9690   -6.7371
   -5.2240   -4.5461   -4.4296   -3.2624   -2.9689   -2.4568   -2.4363   -1.3459   -0.9957   -0.8791
   -0.8257   -0.6882    0.0816    0.1311    0.7109    1.0035    1.2409    1.5915    1.6198    1.8911
    2.5279    2.7349    3.3095   10.1773   10.6171   10.8785   11.5495   12.6248   12.7406   14.2121
   15.1618   15.3763   15.8570   16.6641   17.0541   17.5596   19.1523   19.1745   19.5120   19.8625
   20.5642   21.7891   21.9983   23.6942   25.2441   25.2734   25.4476   25.6944   26.1533   26.8386
   32.7472   46.3970   47.4142   48.2971   49.4095   49.9355   53.3274   53.7705   54.0219   55.8711
   56.1330
   3  1  -20.7004  -15.4418  -14.4199  -13.3331  -13.2995  -12.9954  -12.3970  -12.2906  -12.0176  -11.8841
         -11.6811  -11.6618  -11.4310  -10.5188   -9.1299   -7.8716   -7.3114   -7.0336   -6.9690   -6.7371
   -5.2240   -4.5461   -4.4296   -3.2624   -2.9689   -2.4568   -2.4363   -1.3459   -0.9957   -0.8791
   -0.8257   -0.6882    0.0816    0.1311    0.7109    1.0035    1.2409    1.5915    1.6198    1.8911
    2.5279    2.7349    3.3095   10.1773   10.6171   10.8785   11.5495   12.6248   12.7406   14.2121
   15.1618   15.3763   15.8570   16.6641   17.0541   17.5596   19.1523   19.1745   19.5120   19.8625
   20.5642   21.7891   21.9983   23.6942   25.2441   25.2734   25.4476   25.6944   26.1533   26.8386
   32.7472   46.3970   47.4143   48.2971   49.4095   49.9355   53.3274   53.7705   54.0219   55.8711
   56.1330
   4  1  -20.7004  -15.4418  -14.4199  -13.3331  -13.2995  -12.9954  -12.3970  -12.2906  -12.0176  -11.8841
         -11.6811  -11.6618  -11.4310  -10.5188   -9.1299   -7.8717   -7.3113   -7.0336   -6.9689   -6.7371
   -5.2240   -4.5461   -4.4297   -3.2624   -2.9688   -2.4568   -2.4365   -1.3460   -0.9957   -0.8791
   -0.8257   -0.6881    0.0816    0.1311    0.7108    1.0035    1.2410    1.5915    1.6198    1.8911
    2.5278    2.7349    3.3095   10.1773   10.6171   10.8785   11.5494   12.6248   12.7406   14.2121
   15.1617   15.3764   15.8570   16.6641   17.0541   17.5596   19.1525   19.1745   19.5120   19.8625
   20.5642   21.7890   21.9986   23.6942   25.2441   25.2734   25.4475   25.6943   26.1532   26.8386
   32.7466   46.3969   47.4142   48.2970   49.4094   49.9354   53.3273   53.7704   54.0220   55.8713
   56.1331
   5  1  -20.9049  -15.2989  -14.6331  -14.2781  -13.0159  -12.5595  -11.9645  -11.6177  -11.5951  -11.5950
         -11.5563  -11.3856  -11.3814  -11.1382   -8.3007   -5.5317   -5.5316   -5.3318   -5.3317   -4.9829
   -4.9829   -4.8733   -4.3392   -4.3392   -3.8762   -3.8762   -3.6717   -3.6717   -3.4923   -3.4923
   -0.6728   -0.6728   -0.5592   -0.5591    0.3177    0.3177    0.3409    0.3409    3.3722    3.3725
    8.0613   15.1711   15.1711   16.6251   16.6253   17.0619   17.0619   19.3159   19.3159   19.4827
   19.4827   20.1064   20.1064   20.3754   20.3755   23.3985   23.3986   23.6979   24.2890   24.4976
   25.2142   25.2143   29.8029   29.8030   31.1962   31.1971   33.0860   33.0860   35.4320   35.4322
   39.8695   41.5891   41.6936   44.1656   45.8945   46.3349   46.6453   48.0371   48.0373   48.2105
   48.3399
   6  1  -20.7008  -15.4504  -14.4021  -13.4905  -13.2185  -12.6880  -12.5356  -12.1934  -12.0771  -12.0665
         -12.0183  -11.8832  -10.7682   -9.7483   -9.6910   -9.1221   -7.1196   -7.0437   -6.7185   -6.3851
   -4.9329   -4.8457   -3.9926   -3.5485   -3.3696   -2.1048   -2.0077   -1.6796   -1.4267   -0.5871
   -0.5582   -0.3181    0.2650    0.3106    0.3185    0.5084    0.7294    1.0599    1.8466    1.8914
    2.0355    2.4989    4.0758    8.6071   11.5935   11.6132   11.6612   12.6433   13.0239   13.8386
   15.6571   16.0574   16.1148   16.6697   17.1540   17.9809   18.2678   18.8432   18.9286   19.3120
   20.5820   21.6063   22.4565   24.7441   24.8191   24.9687   25.6310   25.8992   25.9144   27.4945
   32.4417   46.6201   48.6069   49.2308   49.2831   49.6662   49.8768   54.6427   54.8754   55.1017
   56.6324
   7  1  -20.7008  -15.4504  -14.4021  -13.4905  -13.2185  -12.6880  -12.5356  -12.1934  -12.0771  -12.0665
         -12.0183  -11.8832  -10.7682   -9.7483   -9.6910   -9.1221   -7.1196   -7.0437   -6.7185   -6.3851
   -4.9329   -4.8457   -3.9926   -3.5485   -3.3696   -2.1048   -2.0077   -1.6796   -1.4267   -0.5871
   -0.5582   -0.3181    0.2650    0.3106    0.3185    0.5084    0.7294    1.0599    1.8466    1.8914
    2.0355    2.4989    4.0758    8.6071   11.5935   11.6132   11.6612   12.6433   13.0239   13.8386
   15.6571   16.0574   16.1148   16.6697   17.1540   17.9809   18.2678   18.8432   18.9286   19.3120
   20.5820   21.6063   22.4565   24.7441   24.8191   24.9687   25.6310   25.8992   25.9144   27.4945
   32.4417   46.6201   48.6069   49.2308   49.2831   49.6662   49.8768   54.6427   54.8754   55.1017
   56.6324
   8  1  -20.7008  -15.4504  -14.4021  -13.4905  -13.2185  -12.6880  -12.5356  -12.1934  -12.0771  -12.0664
         -12.0183  -11.8832  -10.7682   -9.7483   -9.6910   -9.1222   -7.1195   -7.0437   -6.7185   -6.3850
   -4.9329   -4.8457   -3.9926   -3.5485   -3.3696   -2.1048   -2.0078   -1.6796   -1.4267   -0.5871
   -0.5583   -0.3181    0.2650    0.3107    0.3185    0.5084    0.7294    1.0599    1.8467    1.8914
    2.0353    2.4989    4.0758    8.6070   11.5935   11.6132   11.6613   12.6433   13.0239   13.8386
   15.6570   16.0573   16.1147   16.6697   17.1541   17.9809   18.2678   18.8431   18.9287   19.3121
   20.5820   21.6068   22.4565   24.7441   24.8191   24.9687   25.6309   25.8992   25.9144   27.4946
   32.4411   46.6200   48.6068   49.2307   49.2830   49.6662   49.8767   54.6429   54.8755   55.1016
   56.6325
siesta: Fermi energy =     -11.619980 eV

siesta: Program's energy decomposition (eV):
siesta: Ebs     =      -300.754443
siesta: Eions   =       439.895300
siesta: Ena     =       141.715955
siesta: Ekin    =       207.930768
siesta: Enl     =        40.428291
siesta: Eso     =         0.000000
siesta: Edftu   =         0.000000
siesta: DEna    =        10.917128
siesta: DUscf   =         2.442333
siesta: DUext   =         0.000000
siesta: Exc     =      -208.120781
siesta: eta*DQ  =         0.000000
siesta: Emadel  =         0.000000
siesta: Emeta   =         0.000000
siesta: Emolmec =        -8.201577
siesta: Ekinion =         0.000000
siesta: Eharris =      -252.783186
siesta: Etot    =      -252.783182
siesta: FreeEng =      -252.822352

siesta: Final energy (eV):
siesta:  Band Struct. =    -300.754443
siesta:       Kinetic =     207.930768
siesta:       Hartree =     101.552527
siesta:       Edftu   =       0.000000
siesta:       Eso     =       0.000000
siesta:    Ext. field =       0.000000
siesta:   Exch.-corr. =    -208.120781
siesta:  Ion-electron =    -500.949321
siesta:       Ion-ion =     155.005200
siesta:       Ekinion =       0.000000
siesta:         Total =    -252.783182
siesta:         Fermi =     -11.619980

siesta: Atomic forces (eV/Ang):
siesta:      1    0.000000    0.000000    0.000006
siesta:      2    0.089852   -0.155609   -0.499034
siesta:      3   -0.089849    0.155605    0.499031
siesta:      4    0.089794    0.155527   -0.499101
siesta:      5   -0.089792   -0.155523    0.499098
siesta:      6   -0.179687    0.000009   -0.499034
siesta:      7    0.179683   -0.000009    0.499031
siesta:      8   -0.089852    0.155609   -0.499034
siesta:      9    0.089849   -0.155605    0.499031
siesta:     10   -0.089794   -0.155527   -0.499101
siesta:     11    0.089792    0.155523    0.499098
siesta:     12    0.179687   -0.000009   -0.499034
siesta:     13   -0.179683    0.000009    0.499031
siesta:     14    0.030308   -0.052529    0.000002
siesta:     15   -0.030308    0.052529    0.000002
siesta:     16    0.030302    0.052485    0.000002
siesta:     17   -0.030302   -0.052485    0.000002
siesta:     18   -0.060646   -0.000017    0.000002
siesta:     19    0.060646    0.000017    0.000002
siesta: ----------------------------------------
siesta:    Tot   -0.000000   -0.000000    0.000000

siesta: Stress tensor (static) (eV/Ang**3):
siesta:    -0.701431   -0.000006   -0.000000
siesta:    -0.000006   -0.701438   -0.000000
siesta:    -0.000000    0.000000    0.249630

siesta: Cell volume =        186.234265 Ang**3

siesta: Pressure (static):
siesta:                Solid            Molecule  Units
siesta:           0.00418675          0.00370059  Ry/Bohr**3
siesta:           0.38441325          0.33977603  eV/Ang**3
siesta:         615.90458731        544.38709604  kBar
(Free)E+ p_basis*V_orbitals  =        -204.994035
(Free)Eharris+ p_basis*V_orbitals  =        -204.994039

cite: Please see "LiC18_scf.bib" for an exhaustive BiBTeX file.
cite: Please clearly indicate Siesta version in published work: 4.1.5
cite: This calculation has made use of the following articles
cite: which are encouraged to be cited in a published work.
        Primary SIESTA paper
          DOI: www.doi.org/10.1088/0953-8984/14/11/302

>> End of run:   9-NOV-2022  10:06:48
Job completed
