Siesta Version  : 4.1.5
Architecture    : x86_64-unknown-linux-gnu--unknown
Compiler version: GNU Fortran (GCC) 11.3.0
Compiler flags  : mpif90 -g -O2 -fallow-argument-mismatch
PP flags        : -DMPI -DFC_HAVE_FLUSH -DFC_HAVE_ABORT
Libraries       :  -I/global/software/sl-7.x86_64/modules/intel/2020.4.304/mkl/include  /globall/software/sl-7.x86_64/modules/intel/2020.4.304/mkl/lib/intel64/libmkl_scalapack_lp64.a -Wl,--start-group /global/software/sl-7.x86_64/modules/intel/2020.4.304/mkl/lib/intel64/libmkl_intel_lp64.a /global/software/sl-7.x86_64/modules/intel/2020.4.304/mkl/lib/intel64/libmkl_sequential.a /global/software/sl-7.x86_64/modules/intel/2020.4.304/mkl/lib/intel64/libmkl_core.a /global/software/sl-7.x86_64/modules/intel/2020.4.304/mkl/lib/intel64/libmkl_blacs_openmpi_lp64.a -Wl,--end-group -lpthread -lm -ldl
PARALLEL version

* Running on 16 nodes in parallel
>> Start of run:   9-NOV-2022  10:12:42

                           ***********************       
                           *  WELCOME TO SIESTA  *       
                           ***********************       

reinit: Reading from standard input
reinit: Dumped input in INPUT_TMP.37361
************************** Dump of input data file ****************************
SystemName LiC18_scf
SystemLabel LiC18_scf
NumberOfAtoms   19
NumberOfSpecies 2
%block ChemicalSpeciesLabel
1  3   Li-gga
2  6   C-gga
%endblock ChemicalSpeciesLabel
PAO.BasisSize  SZP
PAO.EnergyShift  10 meV
%block PS.Lmax
C-gga   2
Li-gga  2
%endblock PS.Lmax
LatticeConstant 1.000000 Ang
%block LatticeVectors
	4.3161300000	0.0000000000	0.0000000000
	-2.1580650000	3.7378782260	0.0000000000
	0.0000000000	0.0000000000	12.4315307200
%endblock LatticeVectors
AtomicCoordinatesFormat Ang
%block AtomicCoordinatesAndAtomicSpecies
	0.00000000	0.00000000	0.00000000	2
	-0.70288177	1.21742694	2.07192593	1
	-1.45518323	2.52045129	10.35960479	1
	1.45518323	2.52045129	2.07192593	1
	0.70288177	1.21742694	10.35960479	1
	1.40576354	0.00000000	2.07192593	1
	2.91036646	0.00000000	10.35960479	1
	-1.45518323	2.52045129	2.07192593	1
	-0.70288177	1.21742694	10.35960479	1
	0.70288177	1.21742694	2.07192593	1
	1.45518323	2.52045129	10.35960479	1
	2.91036646	0.00000000	2.07192593	1
	1.40576354	0.00000000	10.35960479	1
	-0.70288177	1.21742694	6.21576536	1
	-1.45518323	2.52045129	6.21576536	1
	1.45518323	2.52045129	6.21576536	1
	0.70288177	1.21742694	6.21576536	1
	1.40576354	0.00000000	6.21576536	1
	2.91036646	0.00000000	6.21576536	1
%endblock AtomicCoordinatesAndAtomicSpecies
Kgrid_NoTRS  T
%block kgrid_MonkhorstPack
2       0       0       0.0
0       2       0       0.0
0       0       2       0.0
%endblock kgrid_MonkhorstPack
AtomCoorFormatOut Ang
BlockSize 1
#ProcessorY 12
Diag.ParallelOverK   T
Diag.DivideAndConquer F
MeshCutoff   300 Ry
SCF.FreeE.Tolerance 1E-3 eV
SCF.EDM.Tolerance   5E-3 eV
DM.Tolerance  1E-3
DM.Require.Energy.Convergence T
DM.NumberPulay 4
XC.Functional GGA
XC.Authors    PBE
UseSaveData        F
MD.TypeOfRun       CG
MD.VariableCell    F
MD.NumCGsteps      00
MD.MaxCGDispl      0.200000 Bohr
MD.MaxStressTol    1.000000 GPa
MD.MaxForceTol     0.010000 eV/Ang
WriteMDHistory T
WriteCoorStep T
WriteForces T
WriteCoorStep    T
WriteEigenValues T
WriteDM    F
MM.UnitsDistance Ang  # what this program prints out DO NOT CHANGE
MM.UnitsEnergy    eV  # what this program prints out DO NOT CHANGE
MM.Grimme.S6     0.75 # Grimme-paper for PBE (correct for your functional)
MM.Grimme.D     20.   # Grimme-paper (correct for your functional)
%block MM.Potentials
  1   1 Grimme     16.69      1.650 # Li, 10.1002/jcc.20495
  1   2 Grimme     17.40      2.277 # Li / C
  2   2 Grimme     18.14      2.904 # C, 10.1002/jcc.20495
%endblock MM.Potentials
#%block ProjectedDensityOfStates
# -200.0  120.0  0.4  12800  eV
#%endblock ProjectedDensityOfStates
************************** End of input data file *****************************

reinit: -----------------------------------------------------------------------
reinit: System Name: LiC18_scf
reinit: -----------------------------------------------------------------------
reinit: System Label: LiC18_scf
reinit: -----------------------------------------------------------------------
Reading two-body potentials
Grimme - two-body potential between 1 and 1
Grimme - two-body potential between 1 and 2
Grimme - two-body potential between 2 and 2

initatom: Reading input for the pseudopotentials and atomic orbitals ----------
Species number:   1 Atomic number:    3 Label: Li-gga
Species number:   2 Atomic number:    6 Label: C-gga

Ground state valence configuration:   2s01
Reading pseudopotential information in formatted form from Li-gga.psf

Valence configuration for pseudopotential generation:
2s( 1.00) rc: 2.28
2p( 0.00) rc: 2.28
3d( 0.00) rc: 2.59
4f( 0.00) rc: 2.59
Ground state valence configuration:   2s02  2p02
Reading pseudopotential information in formatted form from C-gga.psf

Valence configuration for pseudopotential generation:
2s( 2.00) rc: 1.56
2p( 2.00) rc: 1.56
3d( 0.00) rc: 1.56
4f( 0.00) rc: 1.56
relmxkb: Read Max KB Ang. Momentum=    2 for species C-gga
relmxkb: Read Max KB Ang. Momentum=    2 for species Li-gga

<basis_specs>
===============================================================================
Li-gga               Z=   3    Mass=  6.9400        Charge= 0.17977+309
Lmxo=0 Lmxkb= 2    BasisType=split      Semic=F
L=0  Nsemic=0  Cnfigmx=2
          i=1  nzeta=1  polorb=1  (2s)
            splnorm:   0.15000    
               vcte:    0.0000    
               rinn:    0.0000    
               qcoe:    0.0000    
               qyuk:    0.0000    
               qwid:   0.10000E-01
                rcs:    0.0000    
            lambdas:    1.0000    
-------------------------------------------------------------------------------
L=0  Nkbl=1  erefs: 0.17977+309
L=1  Nkbl=1  erefs: 0.17977+309
L=2  Nkbl=1  erefs: 0.17977+309
===============================================================================
</basis_specs>

atom: Called for Li-gga                (Z =   3)

read_vps: Pseudopotential generation method:
read_vps: ATM 3.2.2 Troullier-Martins                       
Valence charge for ps generation:    1.00000

read_vps: Pseudopotential includes a core correction:
read_vps: Pseudo-core for xc-correction

xc_check: Exchange-correlation functional:
xc_check: GGA Perdew, Burke & Ernzerhof 1996
V l=0 = -2*Zval/r beyond r=  2.2278
V l=1 = -2*Zval/r beyond r=  2.2278
V l=2 = -2*Zval/r beyond r=  2.5245
All V_l potentials equal beyond r=  2.4622
This should be close to max(r_c) in ps generation
All pots = -2*Zval/r beyond r=  2.5245

VLOCAL1: 99.0% of the norm of Vloc inside      7.160 Ry
VLOCAL1: 99.9% of the norm of Vloc inside     16.318 Ry
atom: Maximum radius for 4*pi*r*r*local-pseudopot. charge    2.86079
atom: Maximum radius for r*vlocal+2*Zval:    2.43160
GHOST: No ghost state for L =  0
GHOST: No ghost state for L =  1
GHOST: No ghost state for L =  2

KBgen: Kleinman-Bylander projectors: 
   l= 0   rc=  2.654023   el= -0.211234   Ekb=  1.742119   kbcos=  0.228463
   l= 1   rc=  2.721230   el= -0.080095   Ekb= -1.122375   kbcos= -0.147941
   l= 2   rc=  2.825246   el=  0.002001   Ekb= -0.207076   kbcos= -0.031965

KBgen: Total number of Kleinman-Bylander projectors:    9
atom: -------------------------------------------------------------------------

atom: SANKEY-TYPE ORBITALS:

SPLIT: Orbitals with angular momentum L= 0

SPLIT: Basis orbitals for state 2s

SPLIT: PAO cut-off radius determined from an
SPLIT: energy shift=  0.000735 Ry

   izeta = 1
                 lambda =    1.000000
                     rc =   11.897381
                 energy =   -0.210580
                kinetic =    0.143382
    potential(screened) =   -0.353962
       potential(ionic) =   -0.533453

POLgen: Perturbative polarization orbital with L=  1

POLgen: Polarization orbital for state 2s

   izeta = 1
                     rc =   11.897381
                 energy =   -0.027011
                kinetic =    0.282985
    potential(screened) =   -0.309997
       potential(ionic) =   -0.490997
atom: Total number of Sankey-type orbitals:  4

atm_pop: Valence configuration (for local Pseudopot. screening):
 2s( 1.00)                                                            
Vna: chval, zval:    1.00000   1.00000

Vna:  Cut-off radius for the neutral-atom potential:  11.897381
comcore: Pseudo-core radius Rcore=  3.450946

atom: _________________________________________________________________________

<basis_specs>
===============================================================================
C-gga                Z=   6    Mass=  12.010        Charge= 0.17977+309
Lmxo=1 Lmxkb= 2    BasisType=split      Semic=F
L=0  Nsemic=0  Cnfigmx=2
          i=1  nzeta=1  polorb=0  (2s)
            splnorm:   0.15000    
               vcte:    0.0000    
               rinn:    0.0000    
               qcoe:    0.0000    
               qyuk:    0.0000    
               qwid:   0.10000E-01
                rcs:    0.0000    
            lambdas:    1.0000    
L=1  Nsemic=0  Cnfigmx=2
          i=1  nzeta=1  polorb=1  (2p)
            splnorm:   0.15000    
               vcte:    0.0000    
               rinn:    0.0000    
               qcoe:    0.0000    
               qyuk:    0.0000    
               qwid:   0.10000E-01
                rcs:    0.0000    
            lambdas:    1.0000    
-------------------------------------------------------------------------------
L=0  Nkbl=1  erefs: 0.17977+309
L=1  Nkbl=1  erefs: 0.17977+309
L=2  Nkbl=1  erefs: 0.17977+309
===============================================================================
</basis_specs>

atom: Called for C-gga                 (Z =   6)

read_vps: Pseudopotential generation method:
read_vps: ATM 3.2.2 Troullier-Martins                       
Valence charge for ps generation:    4.00000

xc_check: Exchange-correlation functional:
xc_check: GGA Perdew, Burke & Ernzerhof 1996
V l=0 = -2*Zval/r beyond r=  1.5227
V l=1 = -2*Zval/r beyond r=  1.5227
V l=2 = -2*Zval/r beyond r=  1.5227
All V_l potentials equal beyond r=  1.4851
This should be close to max(r_c) in ps generation
All pots = -2*Zval/r beyond r=  1.5227

VLOCAL1: 99.0% of the norm of Vloc inside     19.682 Ry
VLOCAL1: 99.9% of the norm of Vloc inside     44.856 Ry
atom: Maximum radius for 4*pi*r*r*local-pseudopot. charge    1.79142
atom: Maximum radius for r*vlocal+2*Zval:    1.54183
GHOST: No ghost state for L =  0
GHOST: No ghost state for L =  1
GHOST: No ghost state for L =  2

KBgen: Kleinman-Bylander projectors: 
   l= 0   rc=  1.661951   el= -1.010689   Ekb=  5.289847   kbcos=  0.316429
   l= 1   rc=  1.661951   el= -0.388490   Ekb= -4.102504   kbcos= -0.351025
   l= 2   rc=  1.747182   el=  0.001971   Ekb= -1.006005   kbcos= -0.008530

KBgen: Total number of Kleinman-Bylander projectors:    9
atom: -------------------------------------------------------------------------

atom: SANKEY-TYPE ORBITALS:

SPLIT: Orbitals with angular momentum L= 0

SPLIT: Basis orbitals for state 2s

SPLIT: PAO cut-off radius determined from an
SPLIT: energy shift=  0.000735 Ry

   izeta = 1
                 lambda =    1.000000
                     rc =    5.948690
                 energy =   -1.010099
                kinetic =    0.827121
    potential(screened) =   -1.837220
       potential(ionic) =   -5.392783

SPLIT: Orbitals with angular momentum L= 1

SPLIT: Basis orbitals for state 2p

SPLIT: PAO cut-off radius determined from an
SPLIT: energy shift=  0.000735 Ry

   izeta = 1
                 lambda =    1.000000
                     rc =    7.638387
                 energy =   -0.387843
                kinetic =    2.314739
    potential(screened) =   -2.702582
       potential(ionic) =   -6.092371

POLgen: Perturbative polarization orbital with L=  2

POLgen: Polarization orbital for state 2p

   izeta = 1
                     rc =    7.638387
                 energy =    0.921402
                kinetic =    1.955040
    potential(screened) =   -1.033637
       potential(ionic) =   -3.679558
atom: Total number of Sankey-type orbitals:  9

atm_pop: Valence configuration (for local Pseudopot. screening):
 2s( 2.00)                                                            
 2p( 2.00)                                                            
Vna: chval, zval:    4.00000   4.00000

Vna:  Cut-off radius for the neutral-atom potential:   7.638387

atom: _________________________________________________________________________

prinput: Basis input ----------------------------------------------------------

PAO.BasisType split     

%block ChemicalSpeciesLabel
    1    3 Li-gga                  # Species index, atomic number, species label
    2    6 C-gga                   # Species index, atomic number, species label
%endblock ChemicalSpeciesLabel

%block PAO.Basis                 # Define Basis set
Li-gga                1                    # Species label, number of l-shells
 n=2   0   1 P   1                   # n, l, Nzeta, Polarization, NzetaPol
  11.897   
   1.000   
C-gga                 2                    # Species label, number of l-shells
 n=2   0   1                         # n, l, Nzeta 
   5.949   
   1.000   
 n=2   1   1 P   1                   # n, l, Nzeta, Polarization, NzetaPol
   7.638   
   1.000   
%endblock PAO.Basis

prinput: ----------------------------------------------------------------------

coor:   Atomic-coordinates input format  =     Cartesian coordinates
coor:                                          (in Angstroms)

siesta: Atomic coordinates (Bohr) and species
siesta:      0.00000   0.00000   0.00000  2        1
siesta:     -1.32825   2.30060   3.91537  1        2
siesta:     -2.74990   4.76296  19.57682  1        3
siesta:      2.74990   4.76296   3.91537  1        4
siesta:      1.32825   2.30060  19.57682  1        5
siesta:      2.65651   0.00000   3.91537  1        6
siesta:      5.49980   0.00000  19.57682  1        7
siesta:     -2.74990   4.76296   3.91537  1        8
siesta:     -1.32825   2.30060  19.57682  1        9
siesta:      1.32825   2.30060   3.91537  1       10
siesta:      2.74990   4.76296  19.57682  1       11
siesta:      5.49980   0.00000   3.91537  1       12
siesta:      2.65651   0.00000  19.57682  1       13
siesta:     -1.32825   2.30060  11.74610  1       14
siesta:     -2.74990   4.76296  11.74610  1       15
siesta:      2.74990   4.76296  11.74610  1       16
siesta:      1.32825   2.30060  11.74610  1       17
siesta:      2.65651   0.00000  11.74610  1       18
siesta:      5.49980   0.00000  11.74610  1       19

siesta: System type = bulk      

initatomlists: Number of atoms, orbitals, and projectors:     19    81   171

siesta: ******************** Simulation parameters ****************************
siesta:
siesta: The following are some of the parameters of the simulation.
siesta: A complete list of the parameters used, including default values,
siesta: can be found in file out.fdf
siesta:
redata: Spin configuration                          = none
redata: Number of spin components                   = 1
redata: Time-Reversal Symmetry                      = T
redata: Spin spiral                                 = F
redata: Long output                                 =   F
redata: Number of Atomic Species                    =        2
redata: Charge density info will appear in .RHO file
redata: Write Mulliken Pop.                         = NO
redata: Matel table size (NRTAB)                    =     1024
redata: Mesh Cutoff                                 =   300.0000 Ry
redata: Net charge of the system                    =     0.0000 |e|
redata: Min. number of SCF Iter                     =        0
redata: Max. number of SCF Iter                     =     1000
redata: SCF convergence failure will abort job
redata: SCF mix quantity                            = Hamiltonian
redata: Mix DM or H after convergence               =   F
redata: Recompute H after scf cycle                 =   F
redata: Mix DM in first SCF step                    =   T
redata: Write Pulay info on disk                    =   F
redata: New DM Occupancy tolerance                  = 0.000000000001
redata: No kicks to SCF
redata: DM Mixing Weight for Kicks                  =     0.5000
redata: Require Harris convergence for SCF          =   F
redata: Harris energy tolerance for SCF             =     0.000100 eV
redata: Require DM convergence for SCF              =   T
redata: DM tolerance for SCF                        =     0.001000
redata: Require EDM convergence for SCF             =   F
redata: EDM tolerance for SCF                       =     0.005000 eV
redata: Require H convergence for SCF               =   T
redata: Hamiltonian tolerance for SCF               =     0.001000 eV
redata: Require (free) Energy convergence for SCF   =   T
redata: (free) Energy tolerance for SCF             =     0.001000 eV
redata: Using Saved Data (generic)                  =   F
redata: Use continuation files for DM               =   F
redata: Neglect nonoverlap interactions             =   F
redata: Method of Calculation                       = Diagonalization
redata: Electronic Temperature                      =   299.9869 K
redata: Fix the spin of the system                  =   F
redata: Dynamics option                             = Single-point calculation
mix.SCF: Pulay mixing                            = Pulay
mix.SCF:    Variant                              = stable
mix.SCF:    History steps                        = 4
mix.SCF:    Linear mixing weight                 =     0.250000
mix.SCF:    Mixing weight                        =     0.250000
mix.SCF:    SVD condition                        = 0.1000E-07
redata: ***********************************************************************

%block SCF.Mixers
  Pulay
%endblock SCF.Mixers

%block SCF.Mixer.Pulay
  # Mixing method
  method pulay
  variant stable

  # Mixing options
  weight 0.2500
  weight.linear 0.2500
  history 4
%endblock SCF.Mixer.Pulay

DM_history_depth set to one: no extrapolation allowed by default for geometry relaxation
Size of DM history Fstack: 1
Total number of electrons:    22.000000
Total ionic charge:    22.000000

* ProcessorY, Blocksize:    4   1


* Orbital distribution balance (max,min):     6     5

k-point displ. along   1 input, could be:     0.00    0.50
k-point displ. along   2 input, could be:     0.00    0.50
k-point displ. along   3 input, could be:     0.00    0.50
 Kpoints in:            8 . Kpoints trimmed:            8

siesta: k-grid: Number of k-points =     8
siesta: k-grid: Cutoff (effective) =     4.316 Ang
siesta: k-grid: Supercell and displacements
siesta: k-grid:    2   0   0      0.000
siesta: k-grid:    0   2   0      0.000
siesta: k-grid:    0   0   2      0.000

diag: Algorithm                                     = Expert
diag: Parallel over k                               =   T
diag: Use parallel 2D distribution                  =   T
diag: Parallel block-size                           = 1
diag: Parallel distribution                         =     4 x     4
diag: Used triangular part                          = Lower
diag: Absolute tolerance                            =  0.100E-15
diag: Orthogonalization factor                      =  0.100E-05
diag: Memory factor                                 =  1.0000

superc: Internal auxiliary supercell:     9 x     9 x     3  =     243
superc: Number of atoms, orbitals, and projectors:   4617  19683  41553


ts: **************************************************************
ts: Save H and S matrices                           =    F
ts: Save DM and EDM matrices                        =    F
ts: Only save the overlap matrix S                  =    F
ts: **************************************************************

************************ Begin: TS CHECKS AND WARNINGS ************************
************************ End: TS CHECKS AND WARNINGS **************************


                     ====================================
                        Single-point calculation
                     ====================================

outcoor: Atomic coordinates (Ang):                          
    0.00000000    0.00000000    0.00000000   2       1  C-gga
   -0.70288177    1.21742694    2.07192593   1       2  Li-gga
   -1.45518323    2.52045129   10.35960479   1       3  Li-gga
    1.45518323    2.52045129    2.07192593   1       4  Li-gga
    0.70288177    1.21742694   10.35960479   1       5  Li-gga
    1.40576354    0.00000000    2.07192593   1       6  Li-gga
    2.91036646    0.00000000   10.35960479   1       7  Li-gga
   -1.45518323    2.52045129    2.07192593   1       8  Li-gga
   -0.70288177    1.21742694   10.35960479   1       9  Li-gga
    0.70288177    1.21742694    2.07192593   1      10  Li-gga
    1.45518323    2.52045129   10.35960479   1      11  Li-gga
    2.91036646    0.00000000    2.07192593   1      12  Li-gga
    1.40576354    0.00000000   10.35960479   1      13  Li-gga
   -0.70288177    1.21742694    6.21576536   1      14  Li-gga
   -1.45518323    2.52045129    6.21576536   1      15  Li-gga
    1.45518323    2.52045129    6.21576536   1      16  Li-gga
    0.70288177    1.21742694    6.21576536   1      17  Li-gga
    1.40576354    0.00000000    6.21576536   1      18  Li-gga
    2.91036646    0.00000000    6.21576536   1      19  Li-gga

superc: Internal auxiliary supercell:     9 x     9 x     3  =     243
superc: Number of atoms, orbitals, and projectors:   4617  19683  41553

outcell: Unit cell vectors (Ang):
        4.316130    0.000000    0.000000
       -2.158065    3.737878    0.000000
        0.000000    0.000000   12.431531

outcell: Cell vector modules (Ang)   :    4.316130    4.316130   12.431531
outcell: Cell angles (23,13,12) (deg):     90.0000     90.0000    120.0000
outcell: Cell volume (Ang**3)        :    200.5600
<dSpData1D:S at geom step 0
  <sparsity:sparsity for geom step 0
    nrows_g=81 nrows=6 sparsity=3.9726 nnzs=26064, refcount: 7>
  <dData1D:(new from dSpData1D) n=26064, refcount: 1>
refcount: 1>
new_DM -- step:     1
Initializing Density Matrix...
DM filled with atomic data:
<dSpData2D:DM initialized from atoms
  <sparsity:sparsity for geom step 0
    nrows_g=81 nrows=6 sparsity=3.9726 nnzs=26064, refcount: 8>
  <dData2D:DM n=26064 m=1, refcount: 1>
refcount: 1>
No. of atoms with KB's overlaping orbs in proc 0. Max # of overlaps:     408     728
New grid distribution:   1
           1       1:   20    1:    5    1:   18
           2       1:   20    1:    5   19:   36
           3       1:   20    1:    5   37:   54
           4       1:   20    1:    5   55:   72
           5       1:   20    6:   10    1:   18
           6       1:   20    6:   10   19:   36
           7       1:   20    6:   10   37:   54
           8       1:   20    6:   10   55:   72
           9       1:   20   11:   15    1:   18
          10       1:   20   11:   15   19:   36
          11       1:   20   11:   15   37:   54
          12       1:   20   11:   15   55:   72
          13       1:   20   16:   20    1:   18
          14       1:   20   16:   20   19:   36
          15       1:   20   16:   20   37:   54
          16       1:   20   16:   20   55:   72

InitMesh: MESH =    40 x    40 x   144 =      230400
InitMesh: (bp) =    20 x    20 x    72 =       28800
InitMesh: Mesh cutoff (required, used) =   300.000   316.498 Ry
ExtMesh (bp) on 0 =   156 x   141 x   166 =     3651336
New grid distribution:   2
           1      11:   20    1:   10    1:   17
           2      11:   20    1:   10   18:   36
           3       1:   10    1:   10   37:   55
           4       1:   10    1:   10   56:   72
           5       1:   10    1:   10    1:   17
           6       1:   10    1:   10   18:   36
           7      11:   20    1:   10   37:   55
           8      11:   20    1:   10   56:   72
           9      11:   20   11:   20    1:   17
          10      11:   20   11:   20   18:   36
          11       1:   10   11:   20   37:   55
          12       1:   10   11:   20   56:   72
          13       1:   10   11:   20    1:   17
          14       1:   10   11:   20   18:   36
          15      11:   20   11:   20   37:   55
          16      11:   20   11:   20   56:   72
New grid distribution:   3
           1       1:   10    1:   10    1:   18
           2       1:   10    1:   10   19:   36
           3       1:   10    1:   10   37:   54
           4       1:   10    1:   10   55:   72
           5      11:   20    1:   10    1:   18
           6      11:   20    1:   10   19:   36
           7      11:   20    1:   10   37:   54
           8      11:   20    1:   10   55:   72
           9       1:   10   11:   20    1:   18
          10       1:   10   11:   20   19:   36
          11       1:   10   11:   20   37:   54
          12       1:   10   11:   20   55:   72
          13      11:   20   11:   20    1:   18
          14      11:   20   11:   20   19:   36
          15      11:   20   11:   20   37:   54
          16      11:   20   11:   20   55:   72
Setting up quadratic distribution...
ExtMesh (bp) on 0 =   146 x   146 x   165 =     3517140
PhiOnMesh: Number of (b)points on node 0 =                 1700
PhiOnMesh: nlist on node 0 =               711638

stepf: Fermi-Dirac step function

siesta: Program's energy decomposition (eV):
siesta: Ebs     =      -282.743950
siesta: Eions   =       439.895300
siesta: Ena     =       146.310929
siesta: Ekin    =       203.995170
siesta: Enl     =        44.869931
siesta: Eso     =         0.000000
siesta: Edftu   =         0.000000
siesta: DEna    =         6.041796
siesta: DUscf   =         3.426633
siesta: DUext   =         0.000000
siesta: Exc     =      -206.046644
siesta: eta*DQ  =         0.000000
siesta: Emadel  =         0.000000
siesta: Emeta   =         0.000000
siesta: Emolmec =        -7.959876
siesta: Ekinion =         0.000000
siesta: Eharris =      -235.930825
siesta: Etot    =      -249.257360
siesta: FreeEng =      -249.287155

        iscf     Eharris(eV)        E_KS(eV)     FreeEng(eV)     dDmax    Ef(eV) dHmax(eV)
   scf:    1     -235.930825     -249.257360     -249.287155  1.616459-11.332750  1.298805
timer: Routine,Calls,Time,% = IterSCF        1       8.167  52.59
   scf:    2     -222.926983     -241.104930     -241.140698  0.283428-11.162508 13.482954
   scf:    3     -247.280753     -249.427599     -249.444178  0.312575-11.322294  2.067167
   scf:    4     -249.648514     -249.558224     -249.575727  0.038530-11.281776  0.962047
   scf:    5     -249.609494     -249.588734     -249.607574  0.023166-11.259028  0.468153
   scf:    6     -249.583469     -249.592628     -249.615719  0.028809-11.234731  0.164137
   scf:    7     -249.595617     -249.595274     -249.616664  0.006182-11.238982  0.099765
   scf:    8     -249.594854     -249.595092     -249.616907  0.003706-11.234956  0.058579
   scf:    9     -249.595098     -249.595095     -249.616916  0.000064-11.234852  0.056877
   scf:   10     -249.595245     -249.595177     -249.617001  0.000749-11.234079  0.038306
   scf:   11     -249.595081     -249.595143     -249.617067  0.001895-11.232376  0.006768
   scf:   12     -249.595107     -249.595127     -249.617066  0.000323-11.232473  0.005749
   scf:   13     -249.595074     -249.595102     -249.617070  0.000261-11.232199  0.001482
   scf:   14     -249.595038     -249.595070     -249.617070  0.000187-11.232229  0.001234
   scf:   15     -249.595086     -249.595078     -249.617070  0.000058-11.232317  0.000791

SCF Convergence by FreeE+DM+H criterion
|FreeE_i-FreeE_(i-1)| (eV) <     0.00100000
max |DM_out - DM_in|         :     0.0000584063
max |H_out - H_in|      (eV) :     0.0007913422
SCF cycle converged after 15 iterations

Using DM_out to compute the final energy and forces
No. of atoms with KB's overlaping orbs in proc 0. Max # of overlaps:     408     728

MM-Stress (kbar):      -10.52      -10.52       27.78        0.00       -0.00        0.00

siesta: E_KS(eV) =             -249.5951

siesta: E_KS - E_eggbox =      -249.5951

siesta: Atomic forces (eV/Ang):
     1    0.000000   -0.000000   -0.000007
     2    0.093203   -0.161435   -0.541160
     3   -0.093207    0.161442    0.541164
     4    0.093182    0.161396   -0.541215
     5   -0.093186   -0.161403    0.541219
     6   -0.186408   -0.000001   -0.541160
     7    0.186416    0.000001    0.541164
     8   -0.093203    0.161435   -0.541160
     9    0.093207   -0.161442    0.541164
    10   -0.093182   -0.161396   -0.541215
    11    0.093186    0.161403    0.541219
    12    0.186408    0.000001   -0.541160
    13   -0.186416   -0.000001    0.541164
    14   -0.020950    0.036252   -0.000003
    15    0.020950   -0.036252   -0.000003
    16   -0.020954   -0.036293   -0.000003
    17    0.020954    0.036293   -0.000003
    18    0.041870   -0.000017   -0.000003
    19   -0.041870    0.000017   -0.000003
----------------------------------------
   Tot    0.000000   -0.000000    0.000000
----------------------------------------
   Max    0.541219
   Res    0.262978    sqrt( Sum f_i^2 / 3N )
----------------------------------------
   Max    0.541219    constrained

Stress tensor Voigt[x,y,z,yz,xz,xy] (kbar):    -1047.64    -1047.64      325.55        0.00       -0.00       -0.01
(Free)E + p*V (eV/cell)     -175.7729
Target enthalpy (eV/cell)     -249.6171

siesta: Eigenvalues (eV):
  ik is       eps
   1  1  -20.2248  -14.7422  -13.8837  -13.3483  -12.5802  -11.9936  -11.7710  -11.3712  -11.1537  -11.1461
         -11.1079  -10.9407  -10.9406  -10.8658   -8.6705   -5.3711   -4.9868   -4.9868   -4.3286   -4.3286
   -4.2579   -4.2579   -4.1254   -4.1254   -4.0684   -4.0684   -2.5868   -2.5867   -2.2602   -2.2602
   -1.9861   -1.9861   -1.8317   -1.8317    1.0322    1.0322    1.8769    1.8769    1.8941    1.8944
    6.6406   12.9290   12.9291   15.9859   15.9860   18.2918   18.2919   18.6805   18.6806   19.2235
   19.2236   19.5277   19.5277   22.4434   22.4435   22.7629   22.7630   22.8565   22.8566   23.9903
   24.1617   25.5576   29.3653   29.3660   30.0617   30.0617   33.3831   33.3832   35.0313   35.0314
   38.5827   39.0718   45.4933   45.4934   45.6591   46.0163   46.4495   47.4918   48.0563   48.1746
   49.2101
   2  1  -20.0141  -14.7799  -13.6780  -12.7290  -12.6113  -12.5339  -11.8639  -11.8162  -11.4279  -11.3678
         -11.3336  -11.2748  -10.8309   -9.9380   -9.1167   -8.1572   -7.1747   -6.6318   -6.2896   -5.9548
   -5.0159   -4.5334   -4.4396   -3.3335   -2.9578   -2.7724   -2.1766   -1.0554   -0.7484   -0.6871
   -0.6377   -0.3423    0.3237    0.6799    0.9066    1.0059    1.2570    1.2755    1.8332    1.8438
    2.2594    3.3171    3.7108   10.3575   11.5504   11.8233   12.5433   12.6761   12.8774   13.4253
   13.8291   14.7926   15.0690   15.2438   16.0779   16.6762   18.5889   18.8096   19.2412   19.6514
   19.7485   20.0433   21.2166   23.6145   25.2889   25.3623   25.4923   25.7604   26.2364   26.4558
   30.7309   42.7758   48.9914   49.4579   49.8158   50.3480   52.6037   52.8976   54.8934   55.1446
   57.8484
   3  1  -20.0141  -14.7799  -13.6780  -12.7290  -12.6113  -12.5339  -11.8639  -11.8162  -11.4279  -11.3678
         -11.3336  -11.2748  -10.8309   -9.9380   -9.1167   -8.1572   -7.1747   -6.6318   -6.2896   -5.9548
   -5.0159   -4.5334   -4.4396   -3.3335   -2.9578   -2.7724   -2.1766   -1.0554   -0.7484   -0.6871
   -0.6377   -0.3423    0.3237    0.6799    0.9066    1.0059    1.2570    1.2755    1.8332    1.8438
    2.2594    3.3171    3.7108   10.3575   11.5504   11.8233   12.5433   12.6761   12.8774   13.4253
   13.8291   14.7926   15.0690   15.2438   16.0779   16.6762   18.5889   18.8096   19.2412   19.6514
   19.7485   20.0433   21.2166   23.6145   25.2889   25.3623   25.4923   25.7604   26.2364   26.4558
   30.7309   42.7758   48.9915   49.4579   49.8158   50.3480   52.6037   52.8976   54.8934   55.1446
   57.8484
   4  1  -20.0141  -14.7799  -13.6780  -12.7290  -12.6114  -12.5339  -11.8639  -11.8162  -11.4279  -11.3678
         -11.3337  -11.2748  -10.8308   -9.9380   -9.1167   -8.1572   -7.1747   -6.6316   -6.2896   -5.9548
   -5.0159   -4.5334   -4.4396   -3.3334   -2.9578   -2.7724   -2.1767   -1.0554   -0.7483   -0.6871
   -0.6376   -0.3422    0.3237    0.6799    0.9066    1.0060    1.2570    1.2755    1.8332    1.8438
    2.2593    3.3171    3.7108   10.3574   11.5504   11.8233   12.5433   12.6761   12.8774   13.4253
   13.8291   14.7927   15.0690   15.2438   16.0779   16.6762   18.5890   18.8096   19.2412   19.6514
   19.7485   20.0432   21.2169   23.6143   25.2888   25.3623   25.4923   25.7603   26.2364   26.4559
   30.7304   42.7757   48.9914   49.4579   49.8157   50.3479   52.6036   52.8976   54.8935   55.1447
   57.8485
   5  1  -20.2355  -14.7156  -13.8352  -13.4361  -12.3699  -12.3460  -11.5547  -11.3078  -11.2417  -11.0992
         -10.9642  -10.9409  -10.9407  -10.9238   -8.5860   -5.4667   -4.8844   -4.8844   -4.6892   -4.6892
   -4.2958   -4.2958   -3.8018   -3.8018   -3.6237   -3.6237   -3.3734   -3.3734   -2.9351   -2.9351
   -0.8092   -0.8092   -0.6676   -0.6676    0.1417    0.1417    0.1707    0.1707    2.6175    2.6177
    7.1123   15.4851   15.4852   16.2285   16.2285   18.1400   18.1400   18.3227   18.3228   19.1172
   19.1172   19.6342   19.6343   19.7545   19.7545   22.3382   22.3382   24.1225   24.4168   24.4169
   24.7288   24.9484   29.3132   29.3139   30.0119   30.0119   33.5815   33.5816   34.8899   34.8900
   37.3126   42.9939   43.1836   45.5388   45.5389   46.1002   46.3762   46.7151   47.6086   47.7245
   48.3882
   6  1  -20.0148  -14.7863  -13.6642  -12.8675  -12.5280  -12.3283  -12.0946  -11.6847  -11.5267  -11.4710
         -11.3834  -11.3339  -10.5136   -9.4932   -9.3797   -8.9831   -6.8888   -6.3196   -6.2560   -5.8813
   -5.0975   -4.9175   -3.8124   -3.5799   -3.5509   -1.9328   -1.8757   -1.4235   -0.9776   -0.7646
   -0.6064   -0.1755   -0.0002    0.6215    0.9651    0.9928    1.3343    1.4058    1.6492    1.8178
    1.9959    2.3382    4.7212    9.0887   11.6826   11.8511   11.8760   13.1916   13.2052   13.2726
   15.5567   15.6070   15.6945   15.8278   15.9342   16.4664   17.1738   18.2094   18.2657   18.7122
   20.2381   20.9081   20.9755   24.5682   24.9545   25.2262   25.6966   25.9836   26.0773   26.8362
   30.5968   42.7362   48.7847   49.9232   50.1780   50.7937   51.0236   53.5264   54.5540   56.5656
   56.6175
   7  1  -20.0148  -14.7863  -13.6642  -12.8675  -12.5280  -12.3283  -12.0946  -11.6847  -11.5267  -11.4710
         -11.3834  -11.3339  -10.5136   -9.4932   -9.3797   -8.9831   -6.8888   -6.3196   -6.2560   -5.8813
   -5.0975   -4.9175   -3.8124   -3.5799   -3.5509   -1.9328   -1.8757   -1.4235   -0.9776   -0.7646
   -0.6064   -0.1755   -0.0002    0.6215    0.9651    0.9928    1.3343    1.4058    1.6492    1.8178
    1.9959    2.3382    4.7212    9.0887   11.6826   11.8511   11.8760   13.1916   13.2052   13.2726
   15.5567   15.6070   15.6945   15.8278   15.9342   16.4664   17.1738   18.2094   18.2657   18.7122
   20.2381   20.9081   20.9755   24.5682   24.9545   25.2262   25.6966   25.9836   26.0773   26.8362
   30.5968   42.7362   48.7847   49.9232   50.1780   50.7937   51.0236   53.5264   54.5540   56.5656
   56.6175
   8  1  -20.0148  -14.7863  -13.6641  -12.8675  -12.5280  -12.3283  -12.0946  -11.6847  -11.5267  -11.4710
         -11.3834  -11.3340  -10.5136   -9.4932   -9.3797   -8.9831   -6.8887   -6.3196   -6.2559   -5.8813
   -5.0974   -4.9175   -3.8124   -3.5799   -3.5510   -1.9329   -1.8757   -1.4235   -0.9776   -0.7646
   -0.6064   -0.1755   -0.0002    0.6216    0.9651    0.9928    1.3343    1.4058    1.6493    1.8178
    1.9958    2.3382    4.7212    9.0886   11.6826   11.8511   11.8760   13.1916   13.2051   13.2726
   15.5567   15.6070   15.6945   15.8280   15.9342   16.4664   17.1739   18.2093   18.2657   18.7122
   20.2382   20.9085   20.9755   24.5681   24.9545   25.2262   25.6966   25.9836   26.0773   26.8362
   30.5963   42.7361   48.7847   49.9231   50.1778   50.7936   51.0235   53.5264   54.5542   56.5658
   56.6177
siesta: Fermi energy =     -11.232317 eV

siesta: Program's energy decomposition (eV):
siesta: Ebs     =      -288.251066
siesta: Eions   =       439.895300
siesta: Ena     =       146.310929
siesta: Ekin    =       202.550393
siesta: Enl     =        44.103751
siesta: Eso     =         0.000000
siesta: Edftu   =         0.000000
siesta: DEna    =         8.244092
siesta: DUscf   =         2.632438
siesta: DUext   =         0.000000
siesta: Exc     =      -205.581506
siesta: eta*DQ  =         0.000000
siesta: Emadel  =         0.000000
siesta: Emeta   =         0.000000
siesta: Emolmec =        -7.959876
siesta: Ekinion =         0.000000
siesta: Eharris =      -249.595086
siesta: Etot    =      -249.595078
siesta: FreeEng =      -249.617070

siesta: Final energy (eV):
siesta:  Band Struct. =    -288.251066
siesta:       Kinetic =     202.550393
siesta:       Hartree =     105.048517
siesta:       Edftu   =       0.000000
siesta:       Eso     =       0.000000
siesta:    Ext. field =       0.000000
siesta:   Exch.-corr. =    -205.581506
siesta:  Ion-electron =    -493.542487
siesta:       Ion-ion =     149.889881
siesta:       Ekinion =       0.000000
siesta:         Total =    -249.595078
siesta:         Fermi =     -11.232317

siesta: Atomic forces (eV/Ang):
siesta:      1    0.000000   -0.000000   -0.000007
siesta:      2    0.093203   -0.161435   -0.541160
siesta:      3   -0.093207    0.161442    0.541164
siesta:      4    0.093182    0.161396   -0.541215
siesta:      5   -0.093186   -0.161403    0.541219
siesta:      6   -0.186408   -0.000001   -0.541160
siesta:      7    0.186416    0.000001    0.541164
siesta:      8   -0.093203    0.161435   -0.541160
siesta:      9    0.093207   -0.161442    0.541164
siesta:     10   -0.093182   -0.161396   -0.541215
siesta:     11    0.093186    0.161403    0.541219
siesta:     12    0.186408    0.000001   -0.541160
siesta:     13   -0.186416   -0.000001    0.541164
siesta:     14   -0.020950    0.036252   -0.000003
siesta:     15    0.020950   -0.036252   -0.000003
siesta:     16   -0.020954   -0.036293   -0.000003
siesta:     17    0.020954    0.036293   -0.000003
siesta:     18    0.041870   -0.000017   -0.000003
siesta:     19   -0.041870    0.000017   -0.000003
siesta: ----------------------------------------
siesta:    Tot    0.000000   -0.000000    0.000000

siesta: Stress tensor (static) (eV/Ang**3):
siesta:    -0.653877   -0.000003   -0.000000
siesta:    -0.000003   -0.653881   -0.000000
siesta:    -0.000000    0.000000    0.203188

siesta: Cell volume =        200.559978 Ang**3

siesta: Pressure (static):
siesta:                Solid            Molecule  Units
siesta:           0.00401006          0.00349590  Ry/Bohr**3
siesta:           0.36819001          0.32098136  eV/Ang**3
siesta:         589.91180287        514.27438977  kBar
(Free)E+ p_basis*V_orbitals  =        -201.788754
(Free)Eharris+ p_basis*V_orbitals  =        -201.788761

cite: Please see "LiC18_scf.bib" for an exhaustive BiBTeX file.
cite: Please clearly indicate Siesta version in published work: 4.1.5
cite: This calculation has made use of the following articles
cite: which are encouraged to be cited in a published work.
        Primary SIESTA paper
          DOI: www.doi.org/10.1088/0953-8984/14/11/302

>> End of run:   9-NOV-2022  10:14:16
Job completed
