Siesta Version  : 4.1.5
Architecture    : x86_64-unknown-linux-gnu--unknown
Compiler version: GNU Fortran (GCC) 11.3.0
Compiler flags  : mpif90 -g -O2 -fallow-argument-mismatch
PP flags        : -DMPI -DFC_HAVE_FLUSH -DFC_HAVE_ABORT
Libraries       :  -I/global/software/sl-7.x86_64/modules/intel/2020.4.304/mkl/include  /globall/software/sl-7.x86_64/modules/intel/2020.4.304/mkl/lib/intel64/libmkl_scalapack_lp64.a -Wl,--start-group /global/software/sl-7.x86_64/modules/intel/2020.4.304/mkl/lib/intel64/libmkl_intel_lp64.a /global/software/sl-7.x86_64/modules/intel/2020.4.304/mkl/lib/intel64/libmkl_sequential.a /global/software/sl-7.x86_64/modules/intel/2020.4.304/mkl/lib/intel64/libmkl_core.a /global/software/sl-7.x86_64/modules/intel/2020.4.304/mkl/lib/intel64/libmkl_blacs_openmpi_lp64.a -Wl,--end-group -lpthread -lm -ldl
PARALLEL version

* Running on 16 nodes in parallel
>> Start of run:   9-NOV-2022   9:40:56

                           ***********************       
                           *  WELCOME TO SIESTA  *       
                           ***********************       

reinit: Reading from standard input
reinit: Dumped input in INPUT_TMP.31947
************************** Dump of input data file ****************************
SystemName LiC18_scf
SystemLabel LiC18_scf
NumberOfAtoms   19
NumberOfSpecies 2
%block ChemicalSpeciesLabel
1  3   Li-gga
2  6   C-gga
%endblock ChemicalSpeciesLabel
PAO.BasisSize  SZP
PAO.EnergyShift  10 meV
%block PS.Lmax
C-gga   2
Li-gga  2
%endblock PS.Lmax
LatticeConstant 1.000000 Ang
%block LatticeVectors
	4.3161300000	0.0000000000	0.0000000000
	-2.1580650000	3.7378782260	0.0000000000
	0.0000000000	0.0000000000	6.2157653600
%endblock LatticeVectors
AtomicCoordinatesFormat Ang
%block AtomicCoordinatesAndAtomicSpecies
	0.00000000	0.00000000	0.00000000	2
	-0.70288177	1.21742694	1.03596297	1
	-1.45518323	2.52045129	5.17980239	1
	1.45518323	2.52045129	1.03596297	1
	0.70288177	1.21742694	5.17980239	1
	1.40576354	0.00000000	1.03596297	1
	2.91036646	0.00000000	5.17980239	1
	-1.45518323	2.52045129	1.03596297	1
	-0.70288177	1.21742694	5.17980239	1
	0.70288177	1.21742694	1.03596297	1
	1.45518323	2.52045129	5.17980239	1
	2.91036646	0.00000000	1.03596297	1
	1.40576354	0.00000000	5.17980239	1
	-0.70288177	1.21742694	3.10788268	1
	-1.45518323	2.52045129	3.10788268	1
	1.45518323	2.52045129	3.10788268	1
	0.70288177	1.21742694	3.10788268	1
	1.40576354	0.00000000	3.10788268	1
	2.91036646	0.00000000	3.10788268	1
%endblock AtomicCoordinatesAndAtomicSpecies
Kgrid_NoTRS  T
%block kgrid_MonkhorstPack
2       0       0       0.0
0       2       0       0.0
0       0       2       0.0
%endblock kgrid_MonkhorstPack
AtomCoorFormatOut Ang
BlockSize 1
#ProcessorY 12
Diag.ParallelOverK   T
Diag.DivideAndConquer F
MeshCutoff   300 Ry
SCF.FreeE.Tolerance 1E-3 eV
SCF.EDM.Tolerance   5E-3 eV
DM.Tolerance  1E-3
DM.Require.Energy.Convergence T
DM.NumberPulay 4
XC.Functional GGA
XC.Authors    PBE
UseSaveData        F
MD.TypeOfRun       CG
MD.VariableCell    F
MD.NumCGsteps      00
MD.MaxCGDispl      0.200000 Bohr
MD.MaxStressTol    1.000000 GPa
MD.MaxForceTol     0.010000 eV/Ang
WriteMDHistory T
WriteCoorStep T
WriteForces T
WriteCoorStep    T
WriteEigenValues T
WriteDM    F
MM.UnitsDistance Ang  # what this program prints out DO NOT CHANGE
MM.UnitsEnergy    eV  # what this program prints out DO NOT CHANGE
MM.Grimme.S6     0.75 # Grimme-paper for PBE (correct for your functional)
MM.Grimme.D     20.   # Grimme-paper (correct for your functional)
%block MM.Potentials
  1   1 Grimme     16.69      1.650 # Li, 10.1002/jcc.20495
  1   2 Grimme     17.40      2.277 # Li / C
  2   2 Grimme     18.14      2.904 # C, 10.1002/jcc.20495
%endblock MM.Potentials
#%block ProjectedDensityOfStates
# -200.0  120.0  0.4  12800  eV
#%endblock ProjectedDensityOfStates
************************** End of input data file *****************************

reinit: -----------------------------------------------------------------------
reinit: System Name: LiC18_scf
reinit: -----------------------------------------------------------------------
reinit: System Label: LiC18_scf
reinit: -----------------------------------------------------------------------
Reading two-body potentials
Grimme - two-body potential between 1 and 1
Grimme - two-body potential between 1 and 2
Grimme - two-body potential between 2 and 2

initatom: Reading input for the pseudopotentials and atomic orbitals ----------
Species number:   1 Atomic number:    3 Label: Li-gga
Species number:   2 Atomic number:    6 Label: C-gga

Ground state valence configuration:   2s01
Reading pseudopotential information in formatted form from Li-gga.psf

Valence configuration for pseudopotential generation:
2s( 1.00) rc: 2.28
2p( 0.00) rc: 2.28
3d( 0.00) rc: 2.59
4f( 0.00) rc: 2.59
Ground state valence configuration:   2s02  2p02
Reading pseudopotential information in formatted form from C-gga.psf

Valence configuration for pseudopotential generation:
2s( 2.00) rc: 1.56
2p( 2.00) rc: 1.56
3d( 0.00) rc: 1.56
4f( 0.00) rc: 1.56
relmxkb: Read Max KB Ang. Momentum=    2 for species C-gga
relmxkb: Read Max KB Ang. Momentum=    2 for species Li-gga

<basis_specs>
===============================================================================
Li-gga               Z=   3    Mass=  6.9400        Charge= 0.17977+309
Lmxo=0 Lmxkb= 2    BasisType=split      Semic=F
L=0  Nsemic=0  Cnfigmx=2
          i=1  nzeta=1  polorb=1  (2s)
            splnorm:   0.15000    
               vcte:    0.0000    
               rinn:    0.0000    
               qcoe:    0.0000    
               qyuk:    0.0000    
               qwid:   0.10000E-01
                rcs:    0.0000    
            lambdas:    1.0000    
-------------------------------------------------------------------------------
L=0  Nkbl=1  erefs: 0.17977+309
L=1  Nkbl=1  erefs: 0.17977+309
L=2  Nkbl=1  erefs: 0.17977+309
===============================================================================
</basis_specs>

atom: Called for Li-gga                (Z =   3)

read_vps: Pseudopotential generation method:
read_vps: ATM 3.2.2 Troullier-Martins                       
Valence charge for ps generation:    1.00000

read_vps: Pseudopotential includes a core correction:
read_vps: Pseudo-core for xc-correction

xc_check: Exchange-correlation functional:
xc_check: GGA Perdew, Burke & Ernzerhof 1996
V l=0 = -2*Zval/r beyond r=  2.2278
V l=1 = -2*Zval/r beyond r=  2.2278
V l=2 = -2*Zval/r beyond r=  2.5245
All V_l potentials equal beyond r=  2.4622
This should be close to max(r_c) in ps generation
All pots = -2*Zval/r beyond r=  2.5245

VLOCAL1: 99.0% of the norm of Vloc inside      7.160 Ry
VLOCAL1: 99.9% of the norm of Vloc inside     16.318 Ry
atom: Maximum radius for 4*pi*r*r*local-pseudopot. charge    2.86079
atom: Maximum radius for r*vlocal+2*Zval:    2.43160
GHOST: No ghost state for L =  0
GHOST: No ghost state for L =  1
GHOST: No ghost state for L =  2

KBgen: Kleinman-Bylander projectors: 
   l= 0   rc=  2.654023   el= -0.211234   Ekb=  1.742119   kbcos=  0.228463
   l= 1   rc=  2.721230   el= -0.080095   Ekb= -1.122375   kbcos= -0.147941
   l= 2   rc=  2.825246   el=  0.002001   Ekb= -0.207076   kbcos= -0.031965

KBgen: Total number of Kleinman-Bylander projectors:    9
atom: -------------------------------------------------------------------------

atom: SANKEY-TYPE ORBITALS:

SPLIT: Orbitals with angular momentum L= 0

SPLIT: Basis orbitals for state 2s

SPLIT: PAO cut-off radius determined from an
SPLIT: energy shift=  0.000735 Ry

   izeta = 1
                 lambda =    1.000000
                     rc =   11.897381
                 energy =   -0.210580
                kinetic =    0.143382
    potential(screened) =   -0.353962
       potential(ionic) =   -0.533453

POLgen: Perturbative polarization orbital with L=  1

POLgen: Polarization orbital for state 2s

   izeta = 1
                     rc =   11.897381
                 energy =   -0.027011
                kinetic =    0.282985
    potential(screened) =   -0.309997
       potential(ionic) =   -0.490997
atom: Total number of Sankey-type orbitals:  4

atm_pop: Valence configuration (for local Pseudopot. screening):
 2s( 1.00)                                                            
Vna: chval, zval:    1.00000   1.00000

Vna:  Cut-off radius for the neutral-atom potential:  11.897381
comcore: Pseudo-core radius Rcore=  3.450946

atom: _________________________________________________________________________

<basis_specs>
===============================================================================
C-gga                Z=   6    Mass=  12.010        Charge= 0.17977+309
Lmxo=1 Lmxkb= 2    BasisType=split      Semic=F
L=0  Nsemic=0  Cnfigmx=2
          i=1  nzeta=1  polorb=0  (2s)
            splnorm:   0.15000    
               vcte:    0.0000    
               rinn:    0.0000    
               qcoe:    0.0000    
               qyuk:    0.0000    
               qwid:   0.10000E-01
                rcs:    0.0000    
            lambdas:    1.0000    
L=1  Nsemic=0  Cnfigmx=2
          i=1  nzeta=1  polorb=1  (2p)
            splnorm:   0.15000    
               vcte:    0.0000    
               rinn:    0.0000    
               qcoe:    0.0000    
               qyuk:    0.0000    
               qwid:   0.10000E-01
                rcs:    0.0000    
            lambdas:    1.0000    
-------------------------------------------------------------------------------
L=0  Nkbl=1  erefs: 0.17977+309
L=1  Nkbl=1  erefs: 0.17977+309
L=2  Nkbl=1  erefs: 0.17977+309
===============================================================================
</basis_specs>

atom: Called for C-gga                 (Z =   6)

read_vps: Pseudopotential generation method:
read_vps: ATM 3.2.2 Troullier-Martins                       
Valence charge for ps generation:    4.00000

xc_check: Exchange-correlation functional:
xc_check: GGA Perdew, Burke & Ernzerhof 1996
V l=0 = -2*Zval/r beyond r=  1.5227
V l=1 = -2*Zval/r beyond r=  1.5227
V l=2 = -2*Zval/r beyond r=  1.5227
All V_l potentials equal beyond r=  1.4851
This should be close to max(r_c) in ps generation
All pots = -2*Zval/r beyond r=  1.5227

VLOCAL1: 99.0% of the norm of Vloc inside     19.682 Ry
VLOCAL1: 99.9% of the norm of Vloc inside     44.856 Ry
atom: Maximum radius for 4*pi*r*r*local-pseudopot. charge    1.79142
atom: Maximum radius for r*vlocal+2*Zval:    1.54183
GHOST: No ghost state for L =  0
GHOST: No ghost state for L =  1
GHOST: No ghost state for L =  2

KBgen: Kleinman-Bylander projectors: 
   l= 0   rc=  1.661951   el= -1.010689   Ekb=  5.289847   kbcos=  0.316429
   l= 1   rc=  1.661951   el= -0.388490   Ekb= -4.102504   kbcos= -0.351025
   l= 2   rc=  1.747182   el=  0.001971   Ekb= -1.006005   kbcos= -0.008530

KBgen: Total number of Kleinman-Bylander projectors:    9
atom: -------------------------------------------------------------------------

atom: SANKEY-TYPE ORBITALS:

SPLIT: Orbitals with angular momentum L= 0

SPLIT: Basis orbitals for state 2s

SPLIT: PAO cut-off radius determined from an
SPLIT: energy shift=  0.000735 Ry

   izeta = 1
                 lambda =    1.000000
                     rc =    5.948690
                 energy =   -1.010099
                kinetic =    0.827121
    potential(screened) =   -1.837220
       potential(ionic) =   -5.392783

SPLIT: Orbitals with angular momentum L= 1

SPLIT: Basis orbitals for state 2p

SPLIT: PAO cut-off radius determined from an
SPLIT: energy shift=  0.000735 Ry

   izeta = 1
                 lambda =    1.000000
                     rc =    7.638387
                 energy =   -0.387843
                kinetic =    2.314739
    potential(screened) =   -2.702582
       potential(ionic) =   -6.092371

POLgen: Perturbative polarization orbital with L=  2

POLgen: Polarization orbital for state 2p

   izeta = 1
                     rc =    7.638387
                 energy =    0.921402
                kinetic =    1.955040
    potential(screened) =   -1.033637
       potential(ionic) =   -3.679558
atom: Total number of Sankey-type orbitals:  9

atm_pop: Valence configuration (for local Pseudopot. screening):
 2s( 2.00)                                                            
 2p( 2.00)                                                            
Vna: chval, zval:    4.00000   4.00000

Vna:  Cut-off radius for the neutral-atom potential:   7.638387

atom: _________________________________________________________________________

prinput: Basis input ----------------------------------------------------------

PAO.BasisType split     

%block ChemicalSpeciesLabel
    1    3 Li-gga                  # Species index, atomic number, species label
    2    6 C-gga                   # Species index, atomic number, species label
%endblock ChemicalSpeciesLabel

%block PAO.Basis                 # Define Basis set
Li-gga                1                    # Species label, number of l-shells
 n=2   0   1 P   1                   # n, l, Nzeta, Polarization, NzetaPol
  11.897   
   1.000   
C-gga                 2                    # Species label, number of l-shells
 n=2   0   1                         # n, l, Nzeta 
   5.949   
   1.000   
 n=2   1   1 P   1                   # n, l, Nzeta, Polarization, NzetaPol
   7.638   
   1.000   
%endblock PAO.Basis

prinput: ----------------------------------------------------------------------

coor:   Atomic-coordinates input format  =     Cartesian coordinates
coor:                                          (in Angstroms)

siesta: Atomic coordinates (Bohr) and species
siesta:      0.00000   0.00000   0.00000  2        1
siesta:     -1.32825   2.30060   1.95769  1        2
siesta:     -2.74990   4.76296   9.78841  1        3
siesta:      2.74990   4.76296   1.95769  1        4
siesta:      1.32825   2.30060   9.78841  1        5
siesta:      2.65651   0.00000   1.95769  1        6
siesta:      5.49980   0.00000   9.78841  1        7
siesta:     -2.74990   4.76296   1.95769  1        8
siesta:     -1.32825   2.30060   9.78841  1        9
siesta:      1.32825   2.30060   1.95769  1       10
siesta:      2.74990   4.76296   9.78841  1       11
siesta:      5.49980   0.00000   1.95769  1       12
siesta:      2.65651   0.00000   9.78841  1       13
siesta:     -1.32825   2.30060   5.87305  1       14
siesta:     -2.74990   4.76296   5.87305  1       15
siesta:      2.74990   4.76296   5.87305  1       16
siesta:      1.32825   2.30060   5.87305  1       17
siesta:      2.65651   0.00000   5.87305  1       18
siesta:      5.49980   0.00000   5.87305  1       19

siesta: System type = bulk      

initatomlists: Number of atoms, orbitals, and projectors:     19    81   171

siesta: ******************** Simulation parameters ****************************
siesta:
siesta: The following are some of the parameters of the simulation.
siesta: A complete list of the parameters used, including default values,
siesta: can be found in file out.fdf
siesta:
redata: Spin configuration                          = none
redata: Number of spin components                   = 1
redata: Time-Reversal Symmetry                      = T
redata: Spin spiral                                 = F
redata: Long output                                 =   F
redata: Number of Atomic Species                    =        2
redata: Charge density info will appear in .RHO file
redata: Write Mulliken Pop.                         = NO
redata: Matel table size (NRTAB)                    =     1024
redata: Mesh Cutoff                                 =   300.0000 Ry
redata: Net charge of the system                    =     0.0000 |e|
redata: Min. number of SCF Iter                     =        0
redata: Max. number of SCF Iter                     =     1000
redata: SCF convergence failure will abort job
redata: SCF mix quantity                            = Hamiltonian
redata: Mix DM or H after convergence               =   F
redata: Recompute H after scf cycle                 =   F
redata: Mix DM in first SCF step                    =   T
redata: Write Pulay info on disk                    =   F
redata: New DM Occupancy tolerance                  = 0.000000000001
redata: No kicks to SCF
redata: DM Mixing Weight for Kicks                  =     0.5000
redata: Require Harris convergence for SCF          =   F
redata: Harris energy tolerance for SCF             =     0.000100 eV
redata: Require DM convergence for SCF              =   T
redata: DM tolerance for SCF                        =     0.001000
redata: Require EDM convergence for SCF             =   F
redata: EDM tolerance for SCF                       =     0.005000 eV
redata: Require H convergence for SCF               =   T
redata: Hamiltonian tolerance for SCF               =     0.001000 eV
redata: Require (free) Energy convergence for SCF   =   T
redata: (free) Energy tolerance for SCF             =     0.001000 eV
redata: Using Saved Data (generic)                  =   F
redata: Use continuation files for DM               =   F
redata: Neglect nonoverlap interactions             =   F
redata: Method of Calculation                       = Diagonalization
redata: Electronic Temperature                      =   299.9869 K
redata: Fix the spin of the system                  =   F
redata: Dynamics option                             = Single-point calculation
mix.SCF: Pulay mixing                            = Pulay
mix.SCF:    Variant                              = stable
mix.SCF:    History steps                        = 4
mix.SCF:    Linear mixing weight                 =     0.250000
mix.SCF:    Mixing weight                        =     0.250000
mix.SCF:    SVD condition                        = 0.1000E-07
redata: ***********************************************************************

%block SCF.Mixers
  Pulay
%endblock SCF.Mixers

%block SCF.Mixer.Pulay
  # Mixing method
  method pulay
  variant stable

  # Mixing options
  weight 0.2500
  weight.linear 0.2500
  history 4
%endblock SCF.Mixer.Pulay

DM_history_depth set to one: no extrapolation allowed by default for geometry relaxation
Size of DM history Fstack: 1
Total number of electrons:    22.000000
Total ionic charge:    22.000000

* ProcessorY, Blocksize:    4   1


* Orbital distribution balance (max,min):     6     5

k-point displ. along   1 input, could be:     0.00    0.50
k-point displ. along   2 input, could be:     0.00    0.50
k-point displ. along   3 input, could be:     0.00    0.50
 Kpoints in:            8 . Kpoints trimmed:            8

siesta: k-grid: Number of k-points =     8
siesta: k-grid: Cutoff (effective) =     4.316 Ang
siesta: k-grid: Supercell and displacements
siesta: k-grid:    2   0   0      0.000
siesta: k-grid:    0   2   0      0.000
siesta: k-grid:    0   0   2      0.000

diag: Algorithm                                     = Expert
diag: Parallel over k                               =   T
diag: Use parallel 2D distribution                  =   T
diag: Parallel block-size                           = 1
diag: Parallel distribution                         =     4 x     4
diag: Used triangular part                          = Lower
diag: Absolute tolerance                            =  0.100E-15
diag: Orthogonalization factor                      =  0.100E-05
diag: Memory factor                                 =  1.0000

superc: Internal auxiliary supercell:     9 x     9 x     5  =     405
superc: Number of atoms, orbitals, and projectors:   7695  32805  69255


ts: **************************************************************
ts: Save H and S matrices                           =    F
ts: Save DM and EDM matrices                        =    F
ts: Only save the overlap matrix S                  =    F
ts: **************************************************************

************************ Begin: TS CHECKS AND WARNINGS ************************
************************ End: TS CHECKS AND WARNINGS **************************


                     ====================================
                        Single-point calculation
                     ====================================

outcoor: Atomic coordinates (Ang):                          
    0.00000000    0.00000000    0.00000000   2       1  C-gga
   -0.70288177    1.21742694    1.03596297   1       2  Li-gga
   -1.45518323    2.52045129    5.17980239   1       3  Li-gga
    1.45518323    2.52045129    1.03596297   1       4  Li-gga
    0.70288177    1.21742694    5.17980239   1       5  Li-gga
    1.40576354    0.00000000    1.03596297   1       6  Li-gga
    2.91036646    0.00000000    5.17980239   1       7  Li-gga
   -1.45518323    2.52045129    1.03596297   1       8  Li-gga
   -0.70288177    1.21742694    5.17980239   1       9  Li-gga
    0.70288177    1.21742694    1.03596297   1      10  Li-gga
    1.45518323    2.52045129    5.17980239   1      11  Li-gga
    2.91036646    0.00000000    1.03596297   1      12  Li-gga
    1.40576354    0.00000000    5.17980239   1      13  Li-gga
   -0.70288177    1.21742694    3.10788268   1      14  Li-gga
   -1.45518323    2.52045129    3.10788268   1      15  Li-gga
    1.45518323    2.52045129    3.10788268   1      16  Li-gga
    0.70288177    1.21742694    3.10788268   1      17  Li-gga
    1.40576354    0.00000000    3.10788268   1      18  Li-gga
    2.91036646    0.00000000    3.10788268   1      19  Li-gga

superc: Internal auxiliary supercell:     9 x     9 x     5  =     405
superc: Number of atoms, orbitals, and projectors:   7695  32805  69255

outcell: Unit cell vectors (Ang):
        4.316130    0.000000    0.000000
       -2.158065    3.737878    0.000000
        0.000000    0.000000    6.215765

outcell: Cell vector modules (Ang)   :    4.316130    4.316130    6.215765
outcell: Cell angles (23,13,12) (deg):     90.0000     90.0000    120.0000
outcell: Cell volume (Ang**3)        :    100.2800
<dSpData1D:S at geom step 0
  <sparsity:sparsity for geom step 0
    nrows_g=81 nrows=6 sparsity=9.0283 nnzs=59235, refcount: 7>
  <dData1D:(new from dSpData1D) n=59235, refcount: 1>
refcount: 1>
new_DM -- step:     1
Initializing Density Matrix...
DM filled with atomic data:
<dSpData2D:DM initialized from atoms
  <sparsity:sparsity for geom step 0
    nrows_g=81 nrows=6 sparsity=9.0283 nnzs=59235, refcount: 8>
  <dData2D:DM n=59235 m=1, refcount: 1>
refcount: 1>
No. of atoms with KB's overlaping orbs in proc 0. Max # of overlaps:     677    1496
New grid distribution:   1
           1       1:   20    1:    5    1:    9
           2       1:   20    1:    5   10:   18
           3       1:   20    1:    5   19:   27
           4       1:   20    1:    5   28:   36
           5       1:   20    6:   10    1:    9
           6       1:   20    6:   10   10:   18
           7       1:   20    6:   10   19:   27
           8       1:   20    6:   10   28:   36
           9       1:   20   11:   15    1:    9
          10       1:   20   11:   15   10:   18
          11       1:   20   11:   15   19:   27
          12       1:   20   11:   15   28:   36
          13       1:   20   16:   20    1:    9
          14       1:   20   16:   20   10:   18
          15       1:   20   16:   20   19:   27
          16       1:   20   16:   20   28:   36

InitMesh: MESH =    40 x    40 x    72 =      115200
InitMesh: (bp) =    20 x    20 x    36 =       14400
InitMesh: Mesh cutoff (required, used) =   300.000   316.498 Ry
ExtMesh (bp) on 0 =   156 x   141 x   157 =     3453372
New grid distribution:   2
           1       1:   10   11:   20   19:   27
           2      11:   20    1:   10    1:    9
           3      11:   20    1:   10   19:   27
           4      11:   20   11:   20    1:    9
           5       1:   10   11:   20   28:   36
           6      11:   20    1:   10   10:   18
           7      11:   20   11:   20   10:   18
           8      11:   20    1:   10   28:   36
           9       1:   10    1:   10   19:   27
          10       1:   10    1:   10    1:    9
          11      11:   20   11:   20   19:   27
          12       1:   10   11:   20    1:    9
          13       1:   10    1:   10   28:   36
          14       1:   10    1:   10   10:   18
          15       1:   10   11:   20   10:   18
          16      11:   20   11:   20   28:   36
New grid distribution:   3
           1       1:   10   11:   20   19:   27
           2      11:   20    1:   10    1:    9
           3      11:   20    1:   10   19:   27
           4      11:   20   11:   20    1:    9
           5       1:   10   11:   20   28:   36
           6      11:   20    1:   10   10:   18
           7      11:   20   11:   20   10:   18
           8      11:   20    1:   10   28:   36
           9       1:   10    1:   10   19:   27
          10       1:   10    1:   10    1:    9
          11      11:   20   11:   20   19:   27
          12       1:   10   11:   20    1:    9
          13       1:   10    1:   10   28:   36
          14       1:   10    1:   10   10:   18
          15       1:   10   11:   20   10:   18
          16      11:   20   11:   20   28:   36
Setting up quadratic distribution...
ExtMesh (bp) on 0 =   146 x   146 x   157 =     3346612
PhiOnMesh: Number of (b)points on node 0 =                  900
PhiOnMesh: nlist on node 0 =               725572

stepf: Fermi-Dirac step function

siesta: Program's energy decomposition (eV):
siesta: Ebs     =      -396.191064
siesta: Eions   =       439.895300
siesta: Ena     =        90.153131
siesta: Ekin    =       363.109952
siesta: Enl     =         0.767196
siesta: Eso     =         0.000000
siesta: Edftu   =         0.000000
siesta: DEna    =       -35.369217
siesta: DUscf   =        36.532087
siesta: DUext   =         0.000000
siesta: Exc     =      -256.220967
siesta: eta*DQ  =         0.000000
siesta: Emadel  =         0.000000
siesta: Emeta   =         0.000000
siesta: Emolmec =       -15.358789
siesta: Ekinion =         0.000000
siesta: Eharris =      -206.122935
siesta: Etot    =      -256.281908
siesta: FreeEng =      -256.282817

        iscf     Eharris(eV)        E_KS(eV)     FreeEng(eV)     dDmax    Ef(eV) dHmax(eV)
   scf:    1     -206.122935     -256.281908     -256.282817  3.460990-17.781501 20.050478
timer: Routine,Calls,Time,% = IterSCF        1      20.701  57.64
   scf:    2     -281.091774     -270.913079     -270.925992  1.042668-17.670914  7.175900
   scf:    3     -255.594216     -268.909649     -268.927502  1.417293-17.246264  8.018827
   scf:    4     -263.357413     -266.264532     -266.282091  0.372401-17.268188 10.211272
   scf:    5     -276.144789     -272.338776     -272.357550  0.865830-17.422871  4.267946
   scf:    6     -273.496255     -273.532132     -273.556476  0.524182-17.565769  0.270127
   scf:    7     -273.505283     -273.537507     -273.557433  0.109061-17.556169  0.413248
   scf:    8     -272.997365     -273.387894     -273.410954  0.256354-17.583647  1.405250
   scf:    9     -273.443003     -273.540586     -273.558712  0.268515-17.556458  0.410398
   scf:   10     -273.553538     -273.550276     -273.571231  0.041873-17.564932  0.116882
   scf:   11     -273.549949     -273.550542     -273.572308  0.015341-17.567039  0.009779
   scf:   12     -273.550046     -273.550329     -273.572281  0.005636-17.566978  0.023300
   scf:   13     -273.550638     -273.550496     -273.572321  0.002618-17.566438  0.004959
   scf:   14     -273.550509     -273.550503     -273.572322  0.000339-17.566251  0.002496
   scf:   15     -273.550532     -273.550517     -273.572323  0.000297-17.566212  0.000406

SCF Convergence by FreeE+DM+H criterion
|FreeE_i-FreeE_(i-1)| (eV) <     0.00100000
max |DM_out - DM_in|         :     0.0002973978
max |H_out - H_in|      (eV) :     0.0004059600
SCF cycle converged after 15 iterations

Using DM_out to compute the final energy and forces
No. of atoms with KB's overlaping orbs in proc 0. Max # of overlaps:     677    1496

MM-Stress (kbar):       88.67       88.67      549.60       -0.00       -0.00       -0.00

siesta: E_KS(eV) =             -273.5505

siesta: E_KS - E_eggbox =      -273.5505

siesta: Atomic forces (eV/Ang):
     1   -0.000000    0.000000    0.000000
     2   -0.890871    1.543135    0.020702
     3    0.890871   -1.543136   -0.020702
     4   -0.890980   -1.543223    0.020516
     5    0.890980    1.543223   -0.020516
     6    1.781830    0.000051    0.020702
     7   -1.781830   -0.000051   -0.020702
     8    0.890871   -1.543136    0.020702
     9   -0.890871    1.543135   -0.020702
    10    0.890980    1.543223    0.020516
    11   -0.890980   -1.543223   -0.020516
    12   -1.781830   -0.000051    0.020702
    13    1.781830    0.000051   -0.020702
    14   -0.406764    0.704640   -0.000000
    15    0.406764   -0.704640   -0.000000
    16   -0.406845   -0.704677   -0.000000
    17    0.406845    0.704677   -0.000000
    18    0.813618    0.000052    0.000000
    19   -0.813618   -0.000052    0.000000
----------------------------------------
   Tot    0.000000   -0.000000   -0.000000
----------------------------------------
   Max    1.781830
   Res    0.859192    sqrt( Sum f_i^2 / 3N )
----------------------------------------
   Max    1.781830    constrained

Stress tensor Voigt[x,y,z,yz,xz,xy] (kbar):    -1651.20    -1651.24     -395.54        0.00       -0.00       -0.03
(Free)E + p*V (eV/cell)     -196.4212
Target enthalpy (eV/cell)     -273.5723

siesta: Eigenvalues (eV):
  ik is       eps
   1  1  -28.9482  -23.0271  -22.7554  -22.6458  -22.2394  -21.7907  -20.9426  -20.9425  -19.9074  -18.0365
         -17.8809  -15.5968  -15.5968  -15.0237  -15.0237  -14.8067  -14.8067  -14.7035  -14.7035  -14.2263
  -14.2262  -14.1442  -10.7241   -2.7841   -1.9561   -1.9556   -1.4749    0.1243    0.1244    2.1065
    2.1066    3.8730    3.8731    4.5707    4.5707    6.0163    6.0163    9.1827    9.1829   10.6035
   10.8696   10.8697   13.3295   13.3300   13.3886   13.3886   15.9120   16.6776   18.8311   19.0999
   19.2410   19.2410   21.6580   21.6582   23.5416   23.5416   24.7944   27.0091   27.0091   29.6214
   29.6219   33.0266   33.0267   33.7150   33.7151   36.3597   36.6122   36.6123   36.6837   37.8841
   39.1528   41.3511   41.3524   41.4295   41.5975   42.4892   42.6149   46.1277   46.1278   50.6857
   50.6865
   2  1  -29.3471  -23.5412  -23.4274  -23.3463  -23.2563  -22.6226  -22.4462  -21.2979  -21.1982  -19.6965
         -17.7982  -17.3065  -17.2907  -16.8104  -12.9704  -12.6869  -12.6734  -12.6381  -12.5806  -10.9572
  -10.4733   -8.5283   -8.0527   -7.3963   -7.0573   -6.4659   -6.3750   -5.8927   -4.8515   -4.6609
   -3.7044   -3.5200   -2.9471    0.4257    1.6473    3.3036    4.1470    4.9411    8.2047    9.0689
   10.9712   12.2203   12.7606   12.9429   14.5174   16.1142   16.9159   16.9391   17.1853   17.4744
   17.6850   18.6736   19.5792   21.0308   21.1650   22.3909   22.4318   22.7977   25.1460   25.2958
   25.4226   26.8128   26.8180   27.4731   27.4771   31.3672   32.1166   33.5537   38.7693   42.3568
   43.3674   43.8782   44.6197   45.3092   46.5991   46.8357   48.1498   48.4104   49.5987   54.6794
   66.7180
   3  1  -29.3471  -23.5412  -23.4274  -23.3463  -23.2563  -22.6226  -22.4462  -21.2979  -21.1982  -19.6965
         -17.7982  -17.3065  -17.2907  -16.8104  -12.9704  -12.6869  -12.6734  -12.6381  -12.5806  -10.9572
  -10.4733   -8.5283   -8.0527   -7.3963   -7.0573   -6.4659   -6.3750   -5.8927   -4.8515   -4.6609
   -3.7044   -3.5200   -2.9471    0.4257    1.6473    3.3036    4.1470    4.9411    8.2047    9.0689
   10.9712   12.2203   12.7606   12.9429   14.5174   16.1142   16.9159   16.9391   17.1853   17.4744
   17.6850   18.6736   19.5792   21.0308   21.1650   22.3909   22.4318   22.7977   25.1460   25.2958
   25.4226   26.8128   26.8180   27.4731   27.4771   31.3672   32.1166   33.5537   38.7693   42.3568
   43.3674   43.8782   44.6197   45.3092   46.5991   46.8357   48.1498   48.4104   49.5987   54.6794
   66.7180
   4  1  -29.3471  -23.5412  -23.4274  -23.3463  -23.2562  -22.6227  -22.4462  -21.2979  -21.1982  -19.6965
         -17.7981  -17.3065  -17.2907  -16.8104  -12.9704  -12.6869  -12.6734  -12.6381  -12.5807  -10.9572
  -10.4733   -8.5284   -8.0527   -7.3963   -7.0572   -6.4659   -6.3750   -5.8927   -4.8515   -4.6609
   -3.7043   -3.5200   -2.9472    0.4257    1.6473    3.3037    4.1470    4.9406    8.2052    9.0691
   10.9712   12.2206   12.7603   12.9430   14.5175   16.1142   16.9158   16.9391   17.1853   17.4744
   17.6850   18.6736   19.5791   21.0308   21.1649   22.3909   22.4317   22.7978   25.1461   25.2959
   25.4223   26.8127   26.8182   27.4732   27.4774   31.3672   32.1161   33.5537   38.7692   42.3568
   43.3674   43.8783   44.6198   45.3089   46.5989   46.8356   48.1499   48.4105   49.5986   54.6792
   66.7179
   5  1  -29.2210  -24.5512  -23.2842  -22.9454  -22.4132  -21.1317  -21.0325  -21.0324  -20.6714  -19.2235
         -15.6183  -15.6182  -15.2261  -15.2261  -15.1879  -15.1879  -15.1582  -15.1582  -14.3738  -14.2331
  -14.2330  -13.4232   -8.1904   -3.7197   -2.7771   -2.7771   -1.9394   -1.9394   -1.6048   -1.6042
    1.8588    1.8589    2.7976    2.7976    4.9987   10.9730   10.9730   12.2355   15.3072   15.3072
   15.4728   15.8102   16.1897   16.1898   16.2629   16.2630   16.4757   16.4758   20.7059   23.8151
   23.8152   23.8378   23.8390   25.4062   27.2872   27.2880   30.7306   30.7307   36.4357   36.4357
   38.0067   38.0227   39.7974   40.2966   40.3575   40.3576   40.9037   42.2576   42.5176   42.9354
   44.5718   44.5722   46.9302   46.9304   53.2127   53.2127   64.1305   64.1308   66.7468   73.1189
   73.1191
   6  1  -29.3593  -23.7913  -23.4040  -23.3266  -22.7640  -22.7526  -22.3922  -21.7234  -21.4051  -19.6648
         -17.6102  -17.5650  -16.7972  -15.7864  -14.3119  -13.5813  -12.6125  -12.3950  -12.3770  -12.1722
  -10.0128   -9.5431   -9.4186   -8.7823   -7.8146   -4.5700   -3.7038   -3.0606   -1.9071   -1.7526
   -0.5905    1.4123    1.9494    2.4226    2.9372    3.6996    4.1703    4.9330    5.4842    5.5575
    7.2679    7.5380    9.8055   10.8917   11.7119   12.8273   13.9552   14.9664   16.2576   16.6564
   17.1442   17.5338   18.4926   20.1419   20.2538   21.2036   23.5294   24.0989   24.6315   26.3274
   27.4967   30.8439   32.4876   32.7913   32.8049   33.6461   36.3721   42.3441   43.7506   44.4229
   44.4907   45.6474   47.2204   47.4760   47.9039   48.4934   49.3937   49.7769   50.3314   54.2479
   54.9841
   7  1  -29.3593  -23.7913  -23.4040  -23.3266  -22.7640  -22.7526  -22.3922  -21.7234  -21.4051  -19.6648
         -17.6102  -17.5650  -16.7972  -15.7864  -14.3119  -13.5813  -12.6125  -12.3950  -12.3770  -12.1722
  -10.0128   -9.5431   -9.4186   -8.7823   -7.8146   -4.5700   -3.7038   -3.0606   -1.9071   -1.7526
   -0.5905    1.4123    1.9494    2.4226    2.9372    3.6996    4.1703    4.9330    5.4842    5.5575
    7.2679    7.5380    9.8055   10.8917   11.7119   12.8273   13.9552   14.9664   16.2576   16.6564
   17.1441   17.5338   18.4926   20.1419   20.2538   21.2036   23.5294   24.0989   24.6315   26.3274
   27.4967   30.8439   32.4876   32.7913   32.8049   33.6461   36.3721   42.3441   43.7506   44.4229
   44.4907   45.6474   47.2204   47.4760   47.9039   48.4934   49.3937   49.7769   50.3314   54.2479
   54.9841
   8  1  -29.3593  -23.7913  -23.4040  -23.3266  -22.7640  -22.7526  -22.3922  -21.7234  -21.4052  -19.6648
         -17.6102  -17.5649  -16.7972  -15.7864  -14.3118  -13.5813  -12.6125  -12.3951  -12.3770  -12.1722
  -10.0128   -9.5431   -9.4186   -8.7823   -7.8146   -4.5700   -3.7039   -3.0606   -1.9071   -1.7527
   -0.5905    1.4128    1.9494    2.4226    2.9372    3.6996    4.1703    4.9330    5.4844    5.5576
    7.2675    7.5380    9.8054   10.8918   11.7118   12.8275   13.9552   14.9662   16.2575   16.6564
   17.1442   17.5339   18.4927   20.1420   20.2538   21.2033   23.5286   24.0988   24.6316   26.3278
   27.4967   30.8439   32.4877   32.7913   32.8050   33.6462   36.3720   42.3440   43.7507   44.4229
   44.4906   45.6472   47.2205   47.4758   47.9040   48.4934   49.3936   49.7769   50.3312   54.2480
   54.9842
siesta: Fermi energy =     -17.566212 eV

siesta: Program's energy decomposition (eV):
siesta: Ebs     =      -492.669106
siesta: Eions   =       439.895300
siesta: Ena     =        90.153131
siesta: Ekin    =       300.434237
siesta: Enl     =        21.868560
siesta: Eso     =         0.000000
siesta: Edftu   =         0.000000
siesta: DEna    =         4.763511
siesta: DUscf   =         8.518831
siesta: DUext   =         0.000000
siesta: Exc     =      -244.034697
siesta: eta*DQ  =         0.000000
siesta: Emadel  =         0.000000
siesta: Emeta   =         0.000000
siesta: Emolmec =       -15.358789
siesta: Ekinion =         0.000000
siesta: Eharris =      -273.550532
siesta: Etot    =      -273.550517
siesta: FreeEng =      -273.572323

siesta: Final energy (eV):
siesta:  Band Struct. =    -492.669106
siesta:       Kinetic =     300.434237
siesta:       Hartree =      97.985631
siesta:       Edftu   =       0.000000
siesta:       Eso     =       0.000000
siesta:    Ext. field =       0.000000
siesta:   Exch.-corr. =    -244.034697
siesta:  Ion-electron =    -732.634506
siesta:       Ion-ion =     320.057608
siesta:       Ekinion =       0.000000
siesta:         Total =    -273.550517
siesta:         Fermi =     -17.566212

siesta: Atomic forces (eV/Ang):
siesta:      1   -0.000000    0.000000    0.000000
siesta:      2   -0.890871    1.543135    0.020702
siesta:      3    0.890871   -1.543136   -0.020702
siesta:      4   -0.890980   -1.543223    0.020516
siesta:      5    0.890980    1.543223   -0.020516
siesta:      6    1.781830    0.000051    0.020702
siesta:      7   -1.781830   -0.000051   -0.020702
siesta:      8    0.890871   -1.543136    0.020702
siesta:      9   -0.890871    1.543135   -0.020702
siesta:     10    0.890980    1.543223    0.020516
siesta:     11   -0.890980   -1.543223   -0.020516
siesta:     12   -1.781830   -0.000051    0.020702
siesta:     13    1.781830    0.000051   -0.020702
siesta:     14   -0.406764    0.704640   -0.000000
siesta:     15    0.406764   -0.704640   -0.000000
siesta:     16   -0.406845   -0.704677   -0.000000
siesta:     17    0.406845    0.704677   -0.000000
siesta:     18    0.813618    0.000052    0.000000
siesta:     19   -0.813618   -0.000052    0.000000
siesta: ----------------------------------------
siesta:    Tot    0.000000   -0.000000   -0.000000

siesta: Stress tensor (static) (eV/Ang**3):
siesta:    -1.030590   -0.000018   -0.000000
siesta:    -0.000018   -1.030611   -0.000000
siesta:    -0.000000    0.000000   -0.246871

siesta: Cell volume =        100.279989 Ang**3

siesta: Pressure (static):
siesta:                Solid            Molecule  Units
siesta:           0.00837928          0.00911318  Ry/Bohr**3
siesta:           0.76935732          0.83674153  eV/Ang**3
siesta:        1232.65964811       1340.62221151  kBar
(Free)E+ p_basis*V_orbitals  =        -225.744006
(Free)Eharris+ p_basis*V_orbitals  =        -225.744020

cite: Please see "LiC18_scf.bib" for an exhaustive BiBTeX file.
cite: Please clearly indicate Siesta version in published work: 4.1.5
cite: This calculation has made use of the following articles
cite: which are encouraged to be cited in a published work.
        Primary SIESTA paper
          DOI: www.doi.org/10.1088/0953-8984/14/11/302

>> End of run:   9-NOV-2022   9:45:27
Job completed
