Siesta Version  : 4.1.5
Architecture    : x86_64-unknown-linux-gnu--unknown
Compiler version: GNU Fortran (GCC) 11.3.0
Compiler flags  : mpif90 -g -O2 -fallow-argument-mismatch
PP flags        : -DMPI -DFC_HAVE_FLUSH -DFC_HAVE_ABORT
Libraries       :  -I/global/software/sl-7.x86_64/modules/intel/2020.4.304/mkl/include  /globall/software/sl-7.x86_64/modules/intel/2020.4.304/mkl/lib/intel64/libmkl_scalapack_lp64.a -Wl,--start-group /global/software/sl-7.x86_64/modules/intel/2020.4.304/mkl/lib/intel64/libmkl_intel_lp64.a /global/software/sl-7.x86_64/modules/intel/2020.4.304/mkl/lib/intel64/libmkl_sequential.a /global/software/sl-7.x86_64/modules/intel/2020.4.304/mkl/lib/intel64/libmkl_core.a /global/software/sl-7.x86_64/modules/intel/2020.4.304/mkl/lib/intel64/libmkl_blacs_openmpi_lp64.a -Wl,--end-group -lpthread -lm -ldl
PARALLEL version

* Running on 12 nodes in parallel
>> Start of run:   9-NOV-2022   9:44:42

                           ***********************       
                           *  WELCOME TO SIESTA  *       
                           ***********************       

reinit: Reading from standard input
reinit: Dumped input in INPUT_TMP.49565
************************** Dump of input data file ****************************
SystemName LiC12_scf
SystemLabel LiC12_scf
NumberOfAtoms   13
NumberOfSpecies 2
%block ChemicalSpeciesLabel
1  3   Li-gga
2  6   C-gga
%endblock ChemicalSpeciesLabel
PAO.BasisSize  SZP
PAO.EnergyShift  10 meV
%block PS.Lmax
C-gga   2
Li-gga  2
%endblock PS.Lmax
LatticeConstant 1.000000 Ang
%block LatticeVectors
	4.2686000000	0.0000000000	0.0000000000
	-2.1343000000	3.6967160386	0.0000000000
	0.0000000000	0.0000000000	4.9160300000
%endblock LatticeVectors
AtomicCoordinatesFormat Ang
%block AtomicCoordinatesAndAtomicSpecies
	0.00000000	0.00000000	0.00000000	2
	1.42144380	0.00000000	1.22900750	1
	2.84715620	0.00000000	3.68702250	1
	-0.71072190	1.23100644	1.22900750	1
	-1.42357810	2.46570960	3.68702250	1
	1.42357810	2.46570960	1.22900750	1
	0.71072190	1.23100644	3.68702250	1
	2.84715620	0.00000000	1.22900750	1
	1.42144380	0.00000000	3.68702250	1
	-1.42357810	2.46570960	1.22900750	1
	-0.71072190	1.23100644	3.68702250	1
	0.71072190	1.23100644	1.22900750	1
	1.42357810	2.46570960	3.68702250	1
%endblock AtomicCoordinatesAndAtomicSpecies
Kgrid_NoTRS  T
%block kgrid_MonkhorstPack
2       0       0       0.0
0       2       0       0.0
0       0       2       0.0
%endblock kgrid_MonkhorstPack
AtomCoorFormatOut Ang
BlockSize 1
#ProcessorY 12
Diag.ParallelOverK   T
Diag.DivideAndConquer F
MeshCutoff   300 Ry
SCF.FreeE.Tolerance 1E-3 eV
SCF.EDM.Tolerance   5E-3 eV
DM.Tolerance  1E-3
DM.Require.Energy.Convergence T
DM.NumberPulay 4
XC.Functional GGA
XC.Authors    PBE
UseSaveData        F
MD.TypeOfRun       CG
MD.VariableCell    F
MD.NumCGsteps      00
MD.MaxCGDispl      0.200000 Bohr
MD.MaxStressTol    1.000000 GPa
MD.MaxForceTol     0.010000 eV/Ang
WriteMDHistory T
WriteCoorStep T
WriteForces T
WriteCoorStep    T
WriteEigenValues T
WriteDM    F
MM.UnitsDistance Ang  # what this program prints out DO NOT CHANGE
MM.UnitsEnergy    eV  # what this program prints out DO NOT CHANGE
MM.Grimme.S6     0.75 # Grimme-paper for PBE (correct for your functional)
MM.Grimme.D     20.   # Grimme-paper (correct for your functional)
%block MM.Potentials
  1   1 Grimme     16.69      1.650 # Li, 10.1002/jcc.20495
  1   2 Grimme     17.40      2.277 # Li / C
  2   2 Grimme     18.14      2.904 # C, 10.1002/jcc.20495
%endblock MM.Potentials
#%block ProjectedDensityOfStates
# -200.0  120.0  0.4  12800  eV
#%endblock ProjectedDensityOfStates
************************** End of input data file *****************************

reinit: -----------------------------------------------------------------------
reinit: System Name: LiC12_scf
reinit: -----------------------------------------------------------------------
reinit: System Label: LiC12_scf
reinit: -----------------------------------------------------------------------
Reading two-body potentials
Grimme - two-body potential between 1 and 1
Grimme - two-body potential between 1 and 2
Grimme - two-body potential between 2 and 2

initatom: Reading input for the pseudopotentials and atomic orbitals ----------
Species number:   1 Atomic number:    3 Label: Li-gga
Species number:   2 Atomic number:    6 Label: C-gga

Ground state valence configuration:   2s01
Reading pseudopotential information in formatted form from Li-gga.psf

Valence configuration for pseudopotential generation:
2s( 1.00) rc: 2.28
2p( 0.00) rc: 2.28
3d( 0.00) rc: 2.59
4f( 0.00) rc: 2.59
Ground state valence configuration:   2s02  2p02
Reading pseudopotential information in formatted form from C-gga.psf

Valence configuration for pseudopotential generation:
2s( 2.00) rc: 1.56
2p( 2.00) rc: 1.56
3d( 0.00) rc: 1.56
4f( 0.00) rc: 1.56
relmxkb: Read Max KB Ang. Momentum=    2 for species C-gga
relmxkb: Read Max KB Ang. Momentum=    2 for species Li-gga

<basis_specs>
===============================================================================
Li-gga               Z=   3    Mass=  6.9400        Charge= 0.17977+309
Lmxo=0 Lmxkb= 2    BasisType=split      Semic=F
L=0  Nsemic=0  Cnfigmx=2
          i=1  nzeta=1  polorb=1  (2s)
            splnorm:   0.15000    
               vcte:    0.0000    
               rinn:    0.0000    
               qcoe:    0.0000    
               qyuk:    0.0000    
               qwid:   0.10000E-01
                rcs:    0.0000    
            lambdas:    1.0000    
-------------------------------------------------------------------------------
L=0  Nkbl=1  erefs: 0.17977+309
L=1  Nkbl=1  erefs: 0.17977+309
L=2  Nkbl=1  erefs: 0.17977+309
===============================================================================
</basis_specs>

atom: Called for Li-gga                (Z =   3)

read_vps: Pseudopotential generation method:
read_vps: ATM 3.2.2 Troullier-Martins                       
Valence charge for ps generation:    1.00000

read_vps: Pseudopotential includes a core correction:
read_vps: Pseudo-core for xc-correction

xc_check: Exchange-correlation functional:
xc_check: GGA Perdew, Burke & Ernzerhof 1996
V l=0 = -2*Zval/r beyond r=  2.2278
V l=1 = -2*Zval/r beyond r=  2.2278
V l=2 = -2*Zval/r beyond r=  2.5245
All V_l potentials equal beyond r=  2.4622
This should be close to max(r_c) in ps generation
All pots = -2*Zval/r beyond r=  2.5245

VLOCAL1: 99.0% of the norm of Vloc inside      7.160 Ry
VLOCAL1: 99.9% of the norm of Vloc inside     16.318 Ry
atom: Maximum radius for 4*pi*r*r*local-pseudopot. charge    2.86079
atom: Maximum radius for r*vlocal+2*Zval:    2.43160
GHOST: No ghost state for L =  0
GHOST: No ghost state for L =  1
GHOST: No ghost state for L =  2

KBgen: Kleinman-Bylander projectors: 
   l= 0   rc=  2.654023   el= -0.211234   Ekb=  1.742119   kbcos=  0.228463
   l= 1   rc=  2.721230   el= -0.080095   Ekb= -1.122375   kbcos= -0.147941
   l= 2   rc=  2.825246   el=  0.002001   Ekb= -0.207076   kbcos= -0.031965

KBgen: Total number of Kleinman-Bylander projectors:    9
atom: -------------------------------------------------------------------------

atom: SANKEY-TYPE ORBITALS:

SPLIT: Orbitals with angular momentum L= 0

SPLIT: Basis orbitals for state 2s

SPLIT: PAO cut-off radius determined from an
SPLIT: energy shift=  0.000735 Ry

   izeta = 1
                 lambda =    1.000000
                     rc =   11.897381
                 energy =   -0.210580
                kinetic =    0.143382
    potential(screened) =   -0.353962
       potential(ionic) =   -0.533453

POLgen: Perturbative polarization orbital with L=  1

POLgen: Polarization orbital for state 2s

   izeta = 1
                     rc =   11.897381
                 energy =   -0.027011
                kinetic =    0.282985
    potential(screened) =   -0.309997
       potential(ionic) =   -0.490997
atom: Total number of Sankey-type orbitals:  4

atm_pop: Valence configuration (for local Pseudopot. screening):
 2s( 1.00)                                                            
Vna: chval, zval:    1.00000   1.00000

Vna:  Cut-off radius for the neutral-atom potential:  11.897381
comcore: Pseudo-core radius Rcore=  3.450946

atom: _________________________________________________________________________

<basis_specs>
===============================================================================
C-gga                Z=   6    Mass=  12.010        Charge= 0.17977+309
Lmxo=1 Lmxkb= 2    BasisType=split      Semic=F
L=0  Nsemic=0  Cnfigmx=2
          i=1  nzeta=1  polorb=0  (2s)
            splnorm:   0.15000    
               vcte:    0.0000    
               rinn:    0.0000    
               qcoe:    0.0000    
               qyuk:    0.0000    
               qwid:   0.10000E-01
                rcs:    0.0000    
            lambdas:    1.0000    
L=1  Nsemic=0  Cnfigmx=2
          i=1  nzeta=1  polorb=1  (2p)
            splnorm:   0.15000    
               vcte:    0.0000    
               rinn:    0.0000    
               qcoe:    0.0000    
               qyuk:    0.0000    
               qwid:   0.10000E-01
                rcs:    0.0000    
            lambdas:    1.0000    
-------------------------------------------------------------------------------
L=0  Nkbl=1  erefs: 0.17977+309
L=1  Nkbl=1  erefs: 0.17977+309
L=2  Nkbl=1  erefs: 0.17977+309
===============================================================================
</basis_specs>

atom: Called for C-gga                 (Z =   6)

read_vps: Pseudopotential generation method:
read_vps: ATM 3.2.2 Troullier-Martins                       
Valence charge for ps generation:    4.00000

xc_check: Exchange-correlation functional:
xc_check: GGA Perdew, Burke & Ernzerhof 1996
V l=0 = -2*Zval/r beyond r=  1.5227
V l=1 = -2*Zval/r beyond r=  1.5227
V l=2 = -2*Zval/r beyond r=  1.5227
All V_l potentials equal beyond r=  1.4851
This should be close to max(r_c) in ps generation
All pots = -2*Zval/r beyond r=  1.5227

VLOCAL1: 99.0% of the norm of Vloc inside     19.682 Ry
VLOCAL1: 99.9% of the norm of Vloc inside     44.856 Ry
atom: Maximum radius for 4*pi*r*r*local-pseudopot. charge    1.79142
atom: Maximum radius for r*vlocal+2*Zval:    1.54183
GHOST: No ghost state for L =  0
GHOST: No ghost state for L =  1
GHOST: No ghost state for L =  2

KBgen: Kleinman-Bylander projectors: 
   l= 0   rc=  1.661951   el= -1.010689   Ekb=  5.289847   kbcos=  0.316429
   l= 1   rc=  1.661951   el= -0.388490   Ekb= -4.102504   kbcos= -0.351025
   l= 2   rc=  1.747182   el=  0.001971   Ekb= -1.006005   kbcos= -0.008530

KBgen: Total number of Kleinman-Bylander projectors:    9
atom: -------------------------------------------------------------------------

atom: SANKEY-TYPE ORBITALS:

SPLIT: Orbitals with angular momentum L= 0

SPLIT: Basis orbitals for state 2s

SPLIT: PAO cut-off radius determined from an
SPLIT: energy shift=  0.000735 Ry

   izeta = 1
                 lambda =    1.000000
                     rc =    5.948690
                 energy =   -1.010099
                kinetic =    0.827121
    potential(screened) =   -1.837220
       potential(ionic) =   -5.392783

SPLIT: Orbitals with angular momentum L= 1

SPLIT: Basis orbitals for state 2p

SPLIT: PAO cut-off radius determined from an
SPLIT: energy shift=  0.000735 Ry

   izeta = 1
                 lambda =    1.000000
                     rc =    7.638387
                 energy =   -0.387843
                kinetic =    2.314739
    potential(screened) =   -2.702582
       potential(ionic) =   -6.092371

POLgen: Perturbative polarization orbital with L=  2

POLgen: Polarization orbital for state 2p

   izeta = 1
                     rc =    7.638387
                 energy =    0.921402
                kinetic =    1.955040
    potential(screened) =   -1.033637
       potential(ionic) =   -3.679558
atom: Total number of Sankey-type orbitals:  9

atm_pop: Valence configuration (for local Pseudopot. screening):
 2s( 2.00)                                                            
 2p( 2.00)                                                            
Vna: chval, zval:    4.00000   4.00000

Vna:  Cut-off radius for the neutral-atom potential:   7.638387

atom: _________________________________________________________________________

prinput: Basis input ----------------------------------------------------------

PAO.BasisType split     

%block ChemicalSpeciesLabel
    1    3 Li-gga                  # Species index, atomic number, species label
    2    6 C-gga                   # Species index, atomic number, species label
%endblock ChemicalSpeciesLabel

%block PAO.Basis                 # Define Basis set
Li-gga                1                    # Species label, number of l-shells
 n=2   0   1 P   1                   # n, l, Nzeta, Polarization, NzetaPol
  11.897   
   1.000   
C-gga                 2                    # Species label, number of l-shells
 n=2   0   1                         # n, l, Nzeta 
   5.949   
   1.000   
 n=2   1   1 P   1                   # n, l, Nzeta, Polarization, NzetaPol
   7.638   
   1.000   
%endblock PAO.Basis

prinput: ----------------------------------------------------------------------

coor:   Atomic-coordinates input format  =     Cartesian coordinates
coor:                                          (in Angstroms)

siesta: Atomic coordinates (Bohr) and species
siesta:      0.00000   0.00000   0.00000  2        1
siesta:      2.68614   0.00000   2.32249  1        2
siesta:      5.38035   0.00000   6.96747  1        3
siesta:     -1.34307   2.32627   2.32249  1        4
siesta:     -2.69017   4.65952   6.96747  1        5
siesta:      2.69017   4.65952   2.32249  1        6
siesta:      1.34307   2.32627   6.96747  1        7
siesta:      5.38035   0.00000   2.32249  1        8
siesta:      2.68614   0.00000   6.96747  1        9
siesta:     -2.69017   4.65952   2.32249  1       10
siesta:     -1.34307   2.32627   6.96747  1       11
siesta:      1.34307   2.32627   2.32249  1       12
siesta:      2.69017   4.65952   6.96747  1       13

siesta: System type = bulk      

initatomlists: Number of atoms, orbitals, and projectors:     13    57   117

siesta: ******************** Simulation parameters ****************************
siesta:
siesta: The following are some of the parameters of the simulation.
siesta: A complete list of the parameters used, including default values,
siesta: can be found in file out.fdf
siesta:
redata: Spin configuration                          = none
redata: Number of spin components                   = 1
redata: Time-Reversal Symmetry                      = T
redata: Spin spiral                                 = F
redata: Long output                                 =   F
redata: Number of Atomic Species                    =        2
redata: Charge density info will appear in .RHO file
redata: Write Mulliken Pop.                         = NO
redata: Matel table size (NRTAB)                    =     1024
redata: Mesh Cutoff                                 =   300.0000 Ry
redata: Net charge of the system                    =     0.0000 |e|
redata: Min. number of SCF Iter                     =        0
redata: Max. number of SCF Iter                     =     1000
redata: SCF convergence failure will abort job
redata: SCF mix quantity                            = Hamiltonian
redata: Mix DM or H after convergence               =   F
redata: Recompute H after scf cycle                 =   F
redata: Mix DM in first SCF step                    =   T
redata: Write Pulay info on disk                    =   F
redata: New DM Occupancy tolerance                  = 0.000000000001
redata: No kicks to SCF
redata: DM Mixing Weight for Kicks                  =     0.5000
redata: Require Harris convergence for SCF          =   F
redata: Harris energy tolerance for SCF             =     0.000100 eV
redata: Require DM convergence for SCF              =   T
redata: DM tolerance for SCF                        =     0.001000
redata: Require EDM convergence for SCF             =   F
redata: EDM tolerance for SCF                       =     0.005000 eV
redata: Require H convergence for SCF               =   T
redata: Hamiltonian tolerance for SCF               =     0.001000 eV
redata: Require (free) Energy convergence for SCF   =   T
redata: (free) Energy tolerance for SCF             =     0.001000 eV
redata: Using Saved Data (generic)                  =   F
redata: Use continuation files for DM               =   F
redata: Neglect nonoverlap interactions             =   F
redata: Method of Calculation                       = Diagonalization
redata: Electronic Temperature                      =   299.9869 K
redata: Fix the spin of the system                  =   F
redata: Dynamics option                             = Single-point calculation
mix.SCF: Pulay mixing                            = Pulay
mix.SCF:    Variant                              = stable
mix.SCF:    History steps                        = 4
mix.SCF:    Linear mixing weight                 =     0.250000
mix.SCF:    Mixing weight                        =     0.250000
mix.SCF:    SVD condition                        = 0.1000E-07
redata: ***********************************************************************

%block SCF.Mixers
  Pulay
%endblock SCF.Mixers

%block SCF.Mixer.Pulay
  # Mixing method
  method pulay
  variant stable

  # Mixing options
  weight 0.2500
  weight.linear 0.2500
  history 4
%endblock SCF.Mixer.Pulay

DM_history_depth set to one: no extrapolation allowed by default for geometry relaxation
Size of DM history Fstack: 1
Total number of electrons:    16.000000
Total ionic charge:    16.000000

* ProcessorY, Blocksize:    3   1


* Orbital distribution balance (max,min):     5     4

k-point displ. along   1 input, could be:     0.00    0.50
k-point displ. along   2 input, could be:     0.00    0.50
k-point displ. along   3 input, could be:     0.00    0.50
 Kpoints in:            8 . Kpoints trimmed:            8

siesta: k-grid: Number of k-points =     8
siesta: k-grid: Cutoff (effective) =     4.269 Ang
siesta: k-grid: Supercell and displacements
siesta: k-grid:    2   0   0      0.000
siesta: k-grid:    0   2   0      0.000
siesta: k-grid:    0   0   2      0.000

diag: Algorithm                                     = Expert
diag: Parallel over k                               =   T
diag: Use parallel 2D distribution                  =   T
diag: Parallel block-size                           = 1
diag: Parallel distribution                         =     3 x     4
diag: Used triangular part                          = Lower
diag: Absolute tolerance                            =  0.100E-15
diag: Orthogonalization factor                      =  0.100E-05
diag: Memory factor                                 =  1.0000

superc: Internal auxiliary supercell:     9 x     9 x     7  =     567
superc: Number of atoms, orbitals, and projectors:   7371  32319  66339


ts: **************************************************************
ts: Save H and S matrices                           =    F
ts: Save DM and EDM matrices                        =    F
ts: Only save the overlap matrix S                  =    F
ts: **************************************************************

************************ Begin: TS CHECKS AND WARNINGS ************************
************************ End: TS CHECKS AND WARNINGS **************************


                     ====================================
                        Single-point calculation
                     ====================================

outcoor: Atomic coordinates (Ang):                          
    0.00000000    0.00000000    0.00000000   2       1  C-gga
    1.42144380    0.00000000    1.22900750   1       2  Li-gga
    2.84715620    0.00000000    3.68702250   1       3  Li-gga
   -0.71072190    1.23100644    1.22900750   1       4  Li-gga
   -1.42357810    2.46570960    3.68702250   1       5  Li-gga
    1.42357810    2.46570960    1.22900750   1       6  Li-gga
    0.71072190    1.23100644    3.68702250   1       7  Li-gga
    2.84715620    0.00000000    1.22900750   1       8  Li-gga
    1.42144380    0.00000000    3.68702250   1       9  Li-gga
   -1.42357810    2.46570960    1.22900750   1      10  Li-gga
   -0.71072190    1.23100644    3.68702250   1      11  Li-gga
    0.71072190    1.23100644    1.22900750   1      12  Li-gga
    1.42357810    2.46570960    3.68702250   1      13  Li-gga

superc: Internal auxiliary supercell:     9 x     9 x     7  =     567
superc: Number of atoms, orbitals, and projectors:   7371  32319  66339

outcell: Unit cell vectors (Ang):
        4.268600    0.000000    0.000000
       -2.134300    3.696716    0.000000
        0.000000    0.000000    4.916030

outcell: Cell vector modules (Ang)   :    4.268600    4.268600    4.916030
outcell: Cell angles (23,13,12) (deg):     90.0000     90.0000    120.0000
outcell: Cell volume (Ang**3)        :     77.5740
<dSpData1D:S at geom step 0
  <sparsity:sparsity for geom step 0
    nrows_g=57 nrows=5 sparsity=12.5636 nnzs=40819, refcount: 7>
  <dData1D:(new from dSpData1D) n=40819, refcount: 1>
refcount: 1>
new_DM -- step:     1
Initializing Density Matrix...
DM filled with atomic data:
<dSpData2D:DM initialized from atoms
  <sparsity:sparsity for geom step 0
    nrows_g=57 nrows=5 sparsity=12.5636 nnzs=40819, refcount: 8>
  <dData2D:DM n=40819 m=1, refcount: 1>
refcount: 1>
No. of atoms with KB's overlaping orbs in proc 0. Max # of overlaps:     500    1265
New grid distribution:   1
           1       1:   20    1:    7    1:    7
           2       1:   20    1:    7    8:   14
           3       1:   20    1:    7   15:   21
           4       1:   20    1:    7   22:   27
           5       1:   20    8:   14    1:    7
           6       1:   20    8:   14    8:   14
           7       1:   20    8:   14   15:   21
           8       1:   20    8:   14   22:   27
           9       1:   20   15:   20    1:    7
          10       1:   20   15:   20    8:   14
          11       1:   20   15:   20   15:   21
          12       1:   20   15:   20   22:   27

InitMesh: MESH =    40 x    40 x    54 =       86400
InitMesh: (bp) =    20 x    20 x    27 =       10800
InitMesh: Mesh cutoff (required, used) =   300.000   323.586 Ry
ExtMesh (bp) on 0 =   160 x   147 x   147 =     3457440
New grid distribution:   2
           1       1:    7    1:   10    1:   14
           2       8:   20    1:   10    8:   14
           3       1:    7    1:   10   15:   27
           4       8:   20    1:   10   15:   20
           5       8:   20   11:   20    1:    7
           6       8:   20   11:   20    8:   14
           7       1:    7   11:   20   15:   27
           8       8:   20    1:   10   21:   27
           9       1:    7   11:   20    1:   14
          10       8:   20    1:   10    1:    7
          11       8:   20   11:   20   15:   20
          12       8:   20   11:   20   21:   27
New grid distribution:   3
           1       1:    7    1:   10    1:   14
           2       8:   20    1:   10    8:   14
           3       1:    7    1:   10   15:   27
           4       8:   20    1:   10   22:   27
           5       8:   20    1:   10    1:    7
           6       8:   20   11:   20    8:   14
           7       8:   20    1:   10   15:   21
           8       1:    7   11:   20   15:   27
           9       1:    7   11:   20    1:   14
          10       8:   20   11:   20    1:    7
          11       8:   20   11:   20   15:   21
          12       8:   20   11:   20   22:   27
Setting up quadratic distribution...
ExtMesh (bp) on 0 =   147 x   150 x   154 =     3395700
PhiOnMesh: Number of (b)points on node 0 =                  980
PhiOnMesh: nlist on node 0 =               684617

stepf: Fermi-Dirac step function

siesta: Program's energy decomposition (eV):
siesta: Ebs     =      -254.094710
siesta: Eions   =       380.620085
siesta: Ena     =        87.335339
siesta: Ekin    =       273.499470
siesta: Enl     =        -6.987710
siesta: Eso     =         0.000000
siesta: Edftu   =         0.000000
siesta: DEna    =       -27.046102
siesta: DUscf   =        23.307831
siesta: DUext   =         0.000000
siesta: Exc     =      -183.429303
siesta: eta*DQ  =         0.000000
siesta: Emadel  =         0.000000
siesta: Emeta   =         0.000000
siesta: Emolmec =        -7.587372
siesta: Ekinion =         0.000000
siesta: Eharris =      -182.522953
siesta: Etot    =      -221.527932
siesta: FreeEng =      -221.540273

        iscf     Eharris(eV)        E_KS(eV)     FreeEng(eV)     dDmax    Ef(eV) dHmax(eV)
   scf:    1     -182.522953     -221.527932     -221.540273  1.983461-16.126328 15.196462
timer: Routine,Calls,Time,% = IterSCF        1      14.886  54.89
   scf:    2     -239.264165     -232.643441     -232.643516  0.640337-14.697176  3.924394
   scf:    3     -233.729237     -233.428871     -233.428993  0.181177-14.859414  0.169694
   scf:    4     -233.435825     -233.433231     -233.433360  0.026580-14.870034  0.094610
   scf:    5     -233.436201     -233.434895     -233.435011  0.024878-14.865184  0.012530
   scf:    6     -233.435064     -233.434983     -233.435091  0.007827-14.865495  0.004450
   scf:    7     -233.434987     -233.434985     -233.435093  0.000753-14.865612  0.000710

SCF Convergence by FreeE+DM+H criterion
|FreeE_i-FreeE_(i-1)| (eV) <     0.00100000
max |DM_out - DM_in|         :     0.0007525182
max |H_out - H_in|      (eV) :     0.0007098095
SCF cycle converged after 7 iterations

Using DM_out to compute the final energy and forces
No. of atoms with KB's overlaping orbs in proc 0. Max # of overlaps:     500    1265

MM-Stress (kbar):       64.36       64.36      231.94       -0.00       -0.00        0.00

siesta: E_KS(eV) =             -233.4350

siesta: E_KS - E_eggbox =      -233.4350

siesta: Atomic forces (eV/Ang):
     1   -0.000000    0.000000    0.000000
     2    0.437857   -0.000024   -0.056138
     3   -0.437857    0.000024    0.056138
     4   -0.218949    0.379184   -0.056138
     5    0.218949   -0.379184    0.056138
     6   -0.218927   -0.379192   -0.056160
     7    0.218927    0.379192    0.056160
     8   -0.437857    0.000024   -0.056138
     9    0.437857   -0.000024    0.056138
    10    0.218949   -0.379184   -0.056138
    11   -0.218949    0.379184    0.056138
    12    0.218927    0.379192   -0.056160
    13   -0.218927   -0.379192    0.056160
----------------------------------------
   Tot   -0.000000   -0.000000   -0.000000
----------------------------------------
   Max    0.437857
   Res    0.244867    sqrt( Sum f_i^2 / 3N )
----------------------------------------
   Max    0.437857    constrained

Stress tensor Voigt[x,y,z,yz,xz,xy] (kbar):    -1495.48    -1495.49      228.46       -0.00        0.00       -0.01
(Free)E + p*V (eV/cell)     -188.8506
Target enthalpy (eV/cell)     -233.4351

siesta: Eigenvalues (eV):
  ik is       eps
   1  1  -26.8577  -22.0463  -19.8622  -19.7783  -18.7356  -18.2211  -18.2209  -15.0451  -13.2282  -12.4874
         -12.4874  -12.3589  -12.3589  -11.5310  -11.5310   -9.5175   -7.6907   -3.9981   -3.9980   -3.2400
   -3.2400    1.1652    1.1658    2.1601    4.4874    4.4875   12.5990   15.1382   15.1383   19.4650
   19.6370   19.6371   20.0482   20.0483   21.2163   24.3180   24.3180   25.9752   25.9765   26.6593
   26.6598   31.4437   31.4438   32.7544   32.7545   35.1457   42.8739   43.1636   44.3983   44.6218
   49.1371   49.1372   65.2772   74.1209   74.1211   82.4369   82.4372
   2  1  -26.8320  -21.2241  -20.5636  -20.5310  -19.7299  -19.3235  -18.7027  -14.6570  -14.5704  -13.8811
         -13.8773  -13.7642   -9.0499   -8.7277   -6.5343   -5.6581   -5.6142   -4.3124   -1.4783   -1.3731
    0.1288    0.2196    1.0457    1.2877    1.7668    1.9543    2.8625    3.0262    7.5169    8.9551
    9.1516   12.0831   13.0159   14.1029   15.3519   17.6875   19.6953   20.8689   20.9246   21.4190
   25.2198   25.4010   26.5882   27.5676   27.8637   29.0492   30.8555   34.4116   37.4280   39.2548
   44.9169   46.0218   48.2294   51.7792   53.4674   58.3558   60.8225
   3  1  -26.8320  -21.2241  -20.5636  -20.5310  -19.7299  -19.3235  -18.7027  -14.6570  -14.5704  -13.8811
         -13.8773  -13.7642   -9.0499   -8.7277   -6.5343   -5.6581   -5.6142   -4.3124   -1.4783   -1.3731
    0.1288    0.2196    1.0457    1.2877    1.7668    1.9543    2.8625    3.0262    7.5169    8.9551
    9.1516   12.0831   13.0159   14.1029   15.3519   17.6875   19.6953   20.8689   20.9246   21.4190
   25.2198   25.4010   26.5882   27.5676   27.8637   29.0492   30.8555   34.4116   37.4280   39.2548
   44.9169   46.0218   48.2294   51.7791   53.4674   58.3558   60.8226
   4  1  -26.8320  -21.2241  -20.5636  -20.5310  -19.7299  -19.3234  -18.7028  -14.6570  -14.5704  -13.8811
         -13.8773  -13.7640   -9.0499   -8.7278   -6.5343   -5.6581   -5.6141   -4.3124   -1.4785   -1.3731
    0.1288    0.2196    1.0461    1.2877    1.7668    1.9543    2.8624    3.0262    7.5169    8.9550
    9.1515   12.0828   13.0163   14.1029   15.3519   17.6874   19.6957   20.8688   20.9246   21.4189
   25.2196   25.4009   26.5882   27.5677   27.8637   29.0492   30.8547   34.4117   37.4279   39.2550
   44.9169   46.0217   48.2295   51.7791   53.4676   58.3559   60.8225
   5  1  -26.7600  -21.6540  -20.3174  -19.3154  -18.1560  -18.1558  -17.5163  -17.1172  -14.0716  -12.2564
         -12.2564  -12.1573  -12.1573  -11.6041  -11.6041  -11.3350   -3.7786   -3.0932   -0.3696   -0.3692
    1.6858    1.6858    4.3510    4.3510    5.0171    5.0171    7.4367    7.4369   11.6153   11.6155
   14.4410   14.4410   19.6537   20.1421   20.3060   24.5747   24.5748   28.6693   28.6696   28.9121
   28.9122   31.2444   31.2445   31.6720   31.6721   35.6033   35.7679   43.7478   43.9083   43.9766
   44.1854   46.9277   46.9279   47.0136   47.0151   47.5592   47.5600
   6  1  -26.7823  -21.3033  -21.1096  -20.4946  -19.4670  -18.6031  -18.4844  -16.0384  -15.2014  -14.4463
         -11.7614  -11.4631   -8.6514   -8.4362   -7.1271   -7.0101   -5.7027   -5.6310   -5.4410   -4.6353
   -4.3187   -3.6959   -3.6626   -3.4773   -0.8142   -0.1227    4.6146    5.4862    5.7207    6.9480
   13.4083   13.7443   14.4547   14.4999   17.5703   18.3982   19.0481   19.6014   20.3451   20.8758
   21.9439   23.2515   23.7184   24.1401   25.1803   26.1758   30.4318   34.3453   36.9462   37.6421
   45.9457   47.9019   48.0062   49.6146   49.9939   50.3320   66.4672
   7  1  -26.7823  -21.3033  -21.1096  -20.4946  -19.4670  -18.6031  -18.4844  -16.0384  -15.2014  -14.4463
         -11.7614  -11.4631   -8.6514   -8.4362   -7.1271   -7.0101   -5.7027   -5.6310   -5.4410   -4.6353
   -4.3187   -3.6959   -3.6626   -3.4773   -0.8142   -0.1227    4.6146    5.4862    5.7207    6.9480
   13.4083   13.7443   14.4547   14.4999   17.5703   18.3982   19.0481   19.6014   20.3451   20.8758
   21.9439   23.2515   23.7184   24.1401   25.1803   26.1758   30.4318   34.3453   36.9462   37.6421
   45.9457   47.9019   48.0062   49.6146   49.9938   50.3320   66.4672
   8  1  -26.7823  -21.3033  -21.1095  -20.4946  -19.4670  -18.6032  -18.4844  -16.0384  -15.2013  -14.4463
         -11.7614  -11.4631   -8.6515   -8.4361   -7.1271   -7.0101   -5.7027   -5.6310   -5.4410   -4.6353
   -4.3187   -3.6959   -3.6626   -3.4773   -0.8142   -0.1227    4.6146    5.4858    5.7207    6.9485
   13.4082   13.7441   14.4550   14.5000   17.5703   18.3985   19.0482   19.6014   20.3450   20.8757
   21.9439   23.2516   23.7185   24.1402   25.1800   26.1758   30.4319   34.3452   36.9461   37.6412
   45.9456   47.9018   48.0062   49.6147   49.9939   50.3319   66.4670
siesta: Fermi energy =     -14.865612 eV

siesta: Program's energy decomposition (eV):
siesta: Ebs     =      -322.735357
siesta: Eions   =       380.620085
siesta: Ena     =        87.335339
siesta: Ekin    =       223.734794
siesta: Enl     =         7.963658
siesta: Eso     =         0.000000
siesta: Edftu   =         0.000000
siesta: DEna    =         4.151405
siesta: DUscf   =         5.028181
siesta: DUext   =         0.000000
siesta: Exc     =      -173.440905
siesta: eta*DQ  =         0.000000
siesta: Emadel  =         0.000000
siesta: Emeta   =         0.000000
siesta: Emolmec =        -7.587372
siesta: Ekinion =         0.000000
siesta: Eharris =      -233.434987
siesta: Etot    =      -233.434985
siesta: FreeEng =      -233.435093

siesta: Final energy (eV):
siesta:  Band Struct. =    -322.735357
siesta:       Kinetic =     223.734794
siesta:       Hartree =      78.297974
siesta:       Edftu   =       0.000000
siesta:       Eso     =       0.000000
siesta:    Ext. field =       0.000000
siesta:   Exch.-corr. =    -173.440905
siesta:  Ion-electron =    -517.426275
siesta:       Ion-ion =     162.986799
siesta:       Ekinion =       0.000000
siesta:         Total =    -233.434985
siesta:         Fermi =     -14.865612

siesta: Atomic forces (eV/Ang):
siesta:      1   -0.000000    0.000000    0.000000
siesta:      2    0.437857   -0.000024   -0.056138
siesta:      3   -0.437857    0.000024    0.056138
siesta:      4   -0.218949    0.379184   -0.056138
siesta:      5    0.218949   -0.379184    0.056138
siesta:      6   -0.218927   -0.379192   -0.056160
siesta:      7    0.218927    0.379192    0.056160
siesta:      8   -0.437857    0.000024   -0.056138
siesta:      9    0.437857   -0.000024    0.056138
siesta:     10    0.218949   -0.379184   -0.056138
siesta:     11   -0.218949    0.379184    0.056138
siesta:     12    0.218927    0.379192   -0.056160
siesta:     13   -0.218927   -0.379192    0.056160
siesta: ----------------------------------------
siesta:    Tot   -0.000000   -0.000000   -0.000000

siesta: Stress tensor (static) (eV/Ang**3):
siesta:    -0.933395   -0.000008    0.000000
siesta:    -0.000008   -0.933404   -0.000000
siesta:     0.000000   -0.000000    0.142593

siesta: Cell volume =         77.573980 Ang**3

siesta: Pressure (static):
siesta:                Solid            Molecule  Units
siesta:           0.00625960          0.00639614  Ry/Bohr**3
siesta:           0.57473522          0.58727166  eV/Ang**3
siesta:         920.83728668        940.92309613  kBar
(Free)E+ p_basis*V_orbitals  =        -201.264972
(Free)Eharris+ p_basis*V_orbitals  =        -201.264974

cite: Please see "LiC12_scf.bib" for an exhaustive BiBTeX file.
cite: Please clearly indicate Siesta version in published work: 4.1.5
cite: This calculation has made use of the following articles
cite: which are encouraged to be cited in a published work.
        Primary SIESTA paper
          DOI: www.doi.org/10.1088/0953-8984/14/11/302

>> End of run:   9-NOV-2022   9:46:44
Job completed
