Siesta Version  : 4.1.5
Architecture    : x86_64-unknown-linux-gnu--unknown
Compiler version: GNU Fortran (GCC) 11.3.0
Compiler flags  : mpif90 -g -O2 -fallow-argument-mismatch
PP flags        : -DMPI -DFC_HAVE_FLUSH -DFC_HAVE_ABORT
Libraries       :  -I/global/software/sl-7.x86_64/modules/intel/2020.4.304/mkl/include  /globall/software/sl-7.x86_64/modules/intel/2020.4.304/mkl/lib/intel64/libmkl_scalapack_lp64.a -Wl,--start-group /global/software/sl-7.x86_64/modules/intel/2020.4.304/mkl/lib/intel64/libmkl_intel_lp64.a /global/software/sl-7.x86_64/modules/intel/2020.4.304/mkl/lib/intel64/libmkl_sequential.a /global/software/sl-7.x86_64/modules/intel/2020.4.304/mkl/lib/intel64/libmkl_core.a /global/software/sl-7.x86_64/modules/intel/2020.4.304/mkl/lib/intel64/libmkl_blacs_openmpi_lp64.a -Wl,--end-group -lpthread -lm -ldl
PARALLEL version

* Running on 12 nodes in parallel
>> Start of run:   9-NOV-2022   9:19:42

                           ***********************       
                           *  WELCOME TO SIESTA  *       
                           ***********************       

reinit: Reading from standard input
reinit: Dumped input in INPUT_TMP.49089
************************** Dump of input data file ****************************
SystemName LiC12_scf
SystemLabel LiC12_scf
NumberOfAtoms   13
NumberOfSpecies 2
%block ChemicalSpeciesLabel
1  3   Li-gga
2  6   C-gga
%endblock ChemicalSpeciesLabel
PAO.BasisSize  SZP
PAO.EnergyShift  10 meV
%block PS.Lmax
C-gga   2
Li-gga  2
%endblock PS.Lmax
LatticeConstant 1.000000 Ang
%block LatticeVectors
	4.2686000000	0.0000000000	0.0000000000
	-2.1343000000	3.6967160386	0.0000000000
	0.0000000000	0.0000000000	6.3206100000
%endblock LatticeVectors
AtomicCoordinatesFormat Ang
%block AtomicCoordinatesAndAtomicSpecies
	0.00000000	0.00000000	0.00000000	2
	1.42144380	0.00000000	1.58015250	1
	2.84715620	0.00000000	4.74045750	1
	-0.71072190	1.23100644	1.58015250	1
	-1.42357810	2.46570960	4.74045750	1
	1.42357810	2.46570960	1.58015250	1
	0.71072190	1.23100644	4.74045750	1
	2.84715620	0.00000000	1.58015250	1
	1.42144380	0.00000000	4.74045750	1
	-1.42357810	2.46570960	1.58015250	1
	-0.71072190	1.23100644	4.74045750	1
	0.71072190	1.23100644	1.58015250	1
	1.42357810	2.46570960	4.74045750	1
%endblock AtomicCoordinatesAndAtomicSpecies
Kgrid_NoTRS  T
%block kgrid_MonkhorstPack
2       0       0       0.0
0       2       0       0.0
0       0       2       0.0
%endblock kgrid_MonkhorstPack
AtomCoorFormatOut Ang
BlockSize 1
#ProcessorY 12
Diag.ParallelOverK   T
Diag.DivideAndConquer F
MeshCutoff   300 Ry
SCF.FreeE.Tolerance 1E-3 eV
SCF.EDM.Tolerance   5E-3 eV
DM.Tolerance  1E-3
DM.Require.Energy.Convergence T
DM.NumberPulay 4
XC.Functional GGA
XC.Authors    PBE
UseSaveData        F
MD.TypeOfRun       CG
MD.VariableCell    F
MD.NumCGsteps      00
MD.MaxCGDispl      0.200000 Bohr
MD.MaxStressTol    1.000000 GPa
MD.MaxForceTol     0.010000 eV/Ang
WriteMDHistory T
WriteCoorStep T
WriteForces T
WriteCoorStep    T
WriteEigenValues T
WriteDM    F
MM.UnitsDistance Ang  # what this program prints out DO NOT CHANGE
MM.UnitsEnergy    eV  # what this program prints out DO NOT CHANGE
MM.Grimme.S6     0.75 # Grimme-paper for PBE (correct for your functional)
MM.Grimme.D     20.   # Grimme-paper (correct for your functional)
%block MM.Potentials
  1   1 Grimme     16.69      1.650 # Li, 10.1002/jcc.20495
  1   2 Grimme     17.40      2.277 # Li / C
  2   2 Grimme     18.14      2.904 # C, 10.1002/jcc.20495
%endblock MM.Potentials
#%block ProjectedDensityOfStates
# -200.0  120.0  0.4  12800  eV
#%endblock ProjectedDensityOfStates
************************** End of input data file *****************************

reinit: -----------------------------------------------------------------------
reinit: System Name: LiC12_scf
reinit: -----------------------------------------------------------------------
reinit: System Label: LiC12_scf
reinit: -----------------------------------------------------------------------
Reading two-body potentials
Grimme - two-body potential between 1 and 1
Grimme - two-body potential between 1 and 2
Grimme - two-body potential between 2 and 2

initatom: Reading input for the pseudopotentials and atomic orbitals ----------
Species number:   1 Atomic number:    3 Label: Li-gga
Species number:   2 Atomic number:    6 Label: C-gga

Ground state valence configuration:   2s01
Reading pseudopotential information in formatted form from Li-gga.psf

Valence configuration for pseudopotential generation:
2s( 1.00) rc: 2.28
2p( 0.00) rc: 2.28
3d( 0.00) rc: 2.59
4f( 0.00) rc: 2.59
Ground state valence configuration:   2s02  2p02
Reading pseudopotential information in formatted form from C-gga.psf

Valence configuration for pseudopotential generation:
2s( 2.00) rc: 1.56
2p( 2.00) rc: 1.56
3d( 0.00) rc: 1.56
4f( 0.00) rc: 1.56
relmxkb: Read Max KB Ang. Momentum=    2 for species C-gga
relmxkb: Read Max KB Ang. Momentum=    2 for species Li-gga

<basis_specs>
===============================================================================
Li-gga               Z=   3    Mass=  6.9400        Charge= 0.17977+309
Lmxo=0 Lmxkb= 2    BasisType=split      Semic=F
L=0  Nsemic=0  Cnfigmx=2
          i=1  nzeta=1  polorb=1  (2s)
            splnorm:   0.15000    
               vcte:    0.0000    
               rinn:    0.0000    
               qcoe:    0.0000    
               qyuk:    0.0000    
               qwid:   0.10000E-01
                rcs:    0.0000    
            lambdas:    1.0000    
-------------------------------------------------------------------------------
L=0  Nkbl=1  erefs: 0.17977+309
L=1  Nkbl=1  erefs: 0.17977+309
L=2  Nkbl=1  erefs: 0.17977+309
===============================================================================
</basis_specs>

atom: Called for Li-gga                (Z =   3)

read_vps: Pseudopotential generation method:
read_vps: ATM 3.2.2 Troullier-Martins                       
Valence charge for ps generation:    1.00000

read_vps: Pseudopotential includes a core correction:
read_vps: Pseudo-core for xc-correction

xc_check: Exchange-correlation functional:
xc_check: GGA Perdew, Burke & Ernzerhof 1996
V l=0 = -2*Zval/r beyond r=  2.2278
V l=1 = -2*Zval/r beyond r=  2.2278
V l=2 = -2*Zval/r beyond r=  2.5245
All V_l potentials equal beyond r=  2.4622
This should be close to max(r_c) in ps generation
All pots = -2*Zval/r beyond r=  2.5245

VLOCAL1: 99.0% of the norm of Vloc inside      7.160 Ry
VLOCAL1: 99.9% of the norm of Vloc inside     16.318 Ry
atom: Maximum radius for 4*pi*r*r*local-pseudopot. charge    2.86079
atom: Maximum radius for r*vlocal+2*Zval:    2.43160
GHOST: No ghost state for L =  0
GHOST: No ghost state for L =  1
GHOST: No ghost state for L =  2

KBgen: Kleinman-Bylander projectors: 
   l= 0   rc=  2.654023   el= -0.211234   Ekb=  1.742119   kbcos=  0.228463
   l= 1   rc=  2.721230   el= -0.080095   Ekb= -1.122375   kbcos= -0.147941
   l= 2   rc=  2.825246   el=  0.002001   Ekb= -0.207076   kbcos= -0.031965

KBgen: Total number of Kleinman-Bylander projectors:    9
atom: -------------------------------------------------------------------------

atom: SANKEY-TYPE ORBITALS:

SPLIT: Orbitals with angular momentum L= 0

SPLIT: Basis orbitals for state 2s

SPLIT: PAO cut-off radius determined from an
SPLIT: energy shift=  0.000735 Ry

   izeta = 1
                 lambda =    1.000000
                     rc =   11.897381
                 energy =   -0.210580
                kinetic =    0.143382
    potential(screened) =   -0.353962
       potential(ionic) =   -0.533453

POLgen: Perturbative polarization orbital with L=  1

POLgen: Polarization orbital for state 2s

   izeta = 1
                     rc =   11.897381
                 energy =   -0.027011
                kinetic =    0.282985
    potential(screened) =   -0.309997
       potential(ionic) =   -0.490997
atom: Total number of Sankey-type orbitals:  4

atm_pop: Valence configuration (for local Pseudopot. screening):
 2s( 1.00)                                                            
Vna: chval, zval:    1.00000   1.00000

Vna:  Cut-off radius for the neutral-atom potential:  11.897381
comcore: Pseudo-core radius Rcore=  3.450946

atom: _________________________________________________________________________

<basis_specs>
===============================================================================
C-gga                Z=   6    Mass=  12.010        Charge= 0.17977+309
Lmxo=1 Lmxkb= 2    BasisType=split      Semic=F
L=0  Nsemic=0  Cnfigmx=2
          i=1  nzeta=1  polorb=0  (2s)
            splnorm:   0.15000    
               vcte:    0.0000    
               rinn:    0.0000    
               qcoe:    0.0000    
               qyuk:    0.0000    
               qwid:   0.10000E-01
                rcs:    0.0000    
            lambdas:    1.0000    
L=1  Nsemic=0  Cnfigmx=2
          i=1  nzeta=1  polorb=1  (2p)
            splnorm:   0.15000    
               vcte:    0.0000    
               rinn:    0.0000    
               qcoe:    0.0000    
               qyuk:    0.0000    
               qwid:   0.10000E-01
                rcs:    0.0000    
            lambdas:    1.0000    
-------------------------------------------------------------------------------
L=0  Nkbl=1  erefs: 0.17977+309
L=1  Nkbl=1  erefs: 0.17977+309
L=2  Nkbl=1  erefs: 0.17977+309
===============================================================================
</basis_specs>

atom: Called for C-gga                 (Z =   6)

read_vps: Pseudopotential generation method:
read_vps: ATM 3.2.2 Troullier-Martins                       
Valence charge for ps generation:    4.00000

xc_check: Exchange-correlation functional:
xc_check: GGA Perdew, Burke & Ernzerhof 1996
V l=0 = -2*Zval/r beyond r=  1.5227
V l=1 = -2*Zval/r beyond r=  1.5227
V l=2 = -2*Zval/r beyond r=  1.5227
All V_l potentials equal beyond r=  1.4851
This should be close to max(r_c) in ps generation
All pots = -2*Zval/r beyond r=  1.5227

VLOCAL1: 99.0% of the norm of Vloc inside     19.682 Ry
VLOCAL1: 99.9% of the norm of Vloc inside     44.856 Ry
atom: Maximum radius for 4*pi*r*r*local-pseudopot. charge    1.79142
atom: Maximum radius for r*vlocal+2*Zval:    1.54183
GHOST: No ghost state for L =  0
GHOST: No ghost state for L =  1
GHOST: No ghost state for L =  2

KBgen: Kleinman-Bylander projectors: 
   l= 0   rc=  1.661951   el= -1.010689   Ekb=  5.289847   kbcos=  0.316429
   l= 1   rc=  1.661951   el= -0.388490   Ekb= -4.102504   kbcos= -0.351025
   l= 2   rc=  1.747182   el=  0.001971   Ekb= -1.006005   kbcos= -0.008530

KBgen: Total number of Kleinman-Bylander projectors:    9
atom: -------------------------------------------------------------------------

atom: SANKEY-TYPE ORBITALS:

SPLIT: Orbitals with angular momentum L= 0

SPLIT: Basis orbitals for state 2s

SPLIT: PAO cut-off radius determined from an
SPLIT: energy shift=  0.000735 Ry

   izeta = 1
                 lambda =    1.000000
                     rc =    5.948690
                 energy =   -1.010099
                kinetic =    0.827121
    potential(screened) =   -1.837220
       potential(ionic) =   -5.392783

SPLIT: Orbitals with angular momentum L= 1

SPLIT: Basis orbitals for state 2p

SPLIT: PAO cut-off radius determined from an
SPLIT: energy shift=  0.000735 Ry

   izeta = 1
                 lambda =    1.000000
                     rc =    7.638387
                 energy =   -0.387843
                kinetic =    2.314739
    potential(screened) =   -2.702582
       potential(ionic) =   -6.092371

POLgen: Perturbative polarization orbital with L=  2

POLgen: Polarization orbital for state 2p

   izeta = 1
                     rc =    7.638387
                 energy =    0.921402
                kinetic =    1.955040
    potential(screened) =   -1.033637
       potential(ionic) =   -3.679558
atom: Total number of Sankey-type orbitals:  9

atm_pop: Valence configuration (for local Pseudopot. screening):
 2s( 2.00)                                                            
 2p( 2.00)                                                            
Vna: chval, zval:    4.00000   4.00000

Vna:  Cut-off radius for the neutral-atom potential:   7.638387

atom: _________________________________________________________________________

prinput: Basis input ----------------------------------------------------------

PAO.BasisType split     

%block ChemicalSpeciesLabel
    1    3 Li-gga                  # Species index, atomic number, species label
    2    6 C-gga                   # Species index, atomic number, species label
%endblock ChemicalSpeciesLabel

%block PAO.Basis                 # Define Basis set
Li-gga                1                    # Species label, number of l-shells
 n=2   0   1 P   1                   # n, l, Nzeta, Polarization, NzetaPol
  11.897   
   1.000   
C-gga                 2                    # Species label, number of l-shells
 n=2   0   1                         # n, l, Nzeta 
   5.949   
   1.000   
 n=2   1   1 P   1                   # n, l, Nzeta, Polarization, NzetaPol
   7.638   
   1.000   
%endblock PAO.Basis

prinput: ----------------------------------------------------------------------

coor:   Atomic-coordinates input format  =     Cartesian coordinates
coor:                                          (in Angstroms)

siesta: Atomic coordinates (Bohr) and species
siesta:      0.00000   0.00000   0.00000  2        1
siesta:      2.68614   0.00000   2.98606  1        2
siesta:      5.38035   0.00000   8.95817  1        3
siesta:     -1.34307   2.32627   2.98606  1        4
siesta:     -2.69017   4.65952   8.95817  1        5
siesta:      2.69017   4.65952   2.98606  1        6
siesta:      1.34307   2.32627   8.95817  1        7
siesta:      5.38035   0.00000   2.98606  1        8
siesta:      2.68614   0.00000   8.95817  1        9
siesta:     -2.69017   4.65952   2.98606  1       10
siesta:     -1.34307   2.32627   8.95817  1       11
siesta:      1.34307   2.32627   2.98606  1       12
siesta:      2.69017   4.65952   8.95817  1       13

siesta: System type = bulk      

initatomlists: Number of atoms, orbitals, and projectors:     13    57   117

siesta: ******************** Simulation parameters ****************************
siesta:
siesta: The following are some of the parameters of the simulation.
siesta: A complete list of the parameters used, including default values,
siesta: can be found in file out.fdf
siesta:
redata: Spin configuration                          = none
redata: Number of spin components                   = 1
redata: Time-Reversal Symmetry                      = T
redata: Spin spiral                                 = F
redata: Long output                                 =   F
redata: Number of Atomic Species                    =        2
redata: Charge density info will appear in .RHO file
redata: Write Mulliken Pop.                         = NO
redata: Matel table size (NRTAB)                    =     1024
redata: Mesh Cutoff                                 =   300.0000 Ry
redata: Net charge of the system                    =     0.0000 |e|
redata: Min. number of SCF Iter                     =        0
redata: Max. number of SCF Iter                     =     1000
redata: SCF convergence failure will abort job
redata: SCF mix quantity                            = Hamiltonian
redata: Mix DM or H after convergence               =   F
redata: Recompute H after scf cycle                 =   F
redata: Mix DM in first SCF step                    =   T
redata: Write Pulay info on disk                    =   F
redata: New DM Occupancy tolerance                  = 0.000000000001
redata: No kicks to SCF
redata: DM Mixing Weight for Kicks                  =     0.5000
redata: Require Harris convergence for SCF          =   F
redata: Harris energy tolerance for SCF             =     0.000100 eV
redata: Require DM convergence for SCF              =   T
redata: DM tolerance for SCF                        =     0.001000
redata: Require EDM convergence for SCF             =   F
redata: EDM tolerance for SCF                       =     0.005000 eV
redata: Require H convergence for SCF               =   T
redata: Hamiltonian tolerance for SCF               =     0.001000 eV
redata: Require (free) Energy convergence for SCF   =   T
redata: (free) Energy tolerance for SCF             =     0.001000 eV
redata: Using Saved Data (generic)                  =   F
redata: Use continuation files for DM               =   F
redata: Neglect nonoverlap interactions             =   F
redata: Method of Calculation                       = Diagonalization
redata: Electronic Temperature                      =   299.9869 K
redata: Fix the spin of the system                  =   F
redata: Dynamics option                             = Single-point calculation
mix.SCF: Pulay mixing                            = Pulay
mix.SCF:    Variant                              = stable
mix.SCF:    History steps                        = 4
mix.SCF:    Linear mixing weight                 =     0.250000
mix.SCF:    Mixing weight                        =     0.250000
mix.SCF:    SVD condition                        = 0.1000E-07
redata: ***********************************************************************

%block SCF.Mixers
  Pulay
%endblock SCF.Mixers

%block SCF.Mixer.Pulay
  # Mixing method
  method pulay
  variant stable

  # Mixing options
  weight 0.2500
  weight.linear 0.2500
  history 4
%endblock SCF.Mixer.Pulay

DM_history_depth set to one: no extrapolation allowed by default for geometry relaxation
Size of DM history Fstack: 1
Total number of electrons:    16.000000
Total ionic charge:    16.000000

* ProcessorY, Blocksize:    3   1


* Orbital distribution balance (max,min):     5     4

k-point displ. along   1 input, could be:     0.00    0.50
k-point displ. along   2 input, could be:     0.00    0.50
k-point displ. along   3 input, could be:     0.00    0.50
 Kpoints in:            8 . Kpoints trimmed:            8

siesta: k-grid: Number of k-points =     8
siesta: k-grid: Cutoff (effective) =     4.269 Ang
siesta: k-grid: Supercell and displacements
siesta: k-grid:    2   0   0      0.000
siesta: k-grid:    0   2   0      0.000
siesta: k-grid:    0   0   2      0.000

diag: Algorithm                                     = Expert
diag: Parallel over k                               =   T
diag: Use parallel 2D distribution                  =   T
diag: Parallel block-size                           = 1
diag: Parallel distribution                         =     3 x     4
diag: Used triangular part                          = Lower
diag: Absolute tolerance                            =  0.100E-15
diag: Orthogonalization factor                      =  0.100E-05
diag: Memory factor                                 =  1.0000

superc: Internal auxiliary supercell:     9 x     9 x     5  =     405
superc: Number of atoms, orbitals, and projectors:   5265  23085  47385


ts: **************************************************************
ts: Save H and S matrices                           =    F
ts: Save DM and EDM matrices                        =    F
ts: Only save the overlap matrix S                  =    F
ts: **************************************************************

************************ Begin: TS CHECKS AND WARNINGS ************************
************************ End: TS CHECKS AND WARNINGS **************************


                     ====================================
                        Single-point calculation
                     ====================================

outcoor: Atomic coordinates (Ang):                          
    0.00000000    0.00000000    0.00000000   2       1  C-gga
    1.42144380    0.00000000    1.58015250   1       2  Li-gga
    2.84715620    0.00000000    4.74045750   1       3  Li-gga
   -0.71072190    1.23100644    1.58015250   1       4  Li-gga
   -1.42357810    2.46570960    4.74045750   1       5  Li-gga
    1.42357810    2.46570960    1.58015250   1       6  Li-gga
    0.71072190    1.23100644    4.74045750   1       7  Li-gga
    2.84715620    0.00000000    1.58015250   1       8  Li-gga
    1.42144380    0.00000000    4.74045750   1       9  Li-gga
   -1.42357810    2.46570960    1.58015250   1      10  Li-gga
   -0.71072190    1.23100644    4.74045750   1      11  Li-gga
    0.71072190    1.23100644    1.58015250   1      12  Li-gga
    1.42357810    2.46570960    4.74045750   1      13  Li-gga

superc: Internal auxiliary supercell:     9 x     9 x     5  =     405
superc: Number of atoms, orbitals, and projectors:   5265  23085  47385

outcell: Unit cell vectors (Ang):
        4.268600    0.000000    0.000000
       -2.134300    3.696716    0.000000
        0.000000    0.000000    6.320610

outcell: Cell vector modules (Ang)   :    4.268600    4.268600    6.320610
outcell: Cell angles (23,13,12) (deg):     90.0000     90.0000    120.0000
outcell: Cell volume (Ang**3)        :     99.7380
<dSpData1D:S at geom step 0
  <sparsity:sparsity for geom step 0
    nrows_g=57 nrows=5 sparsity=10.0157 nnzs=32541, refcount: 7>
  <dData1D:(new from dSpData1D) n=32541, refcount: 1>
refcount: 1>
new_DM -- step:     1
Initializing Density Matrix...
DM filled with atomic data:
<dSpData2D:DM initialized from atoms
  <sparsity:sparsity for geom step 0
    nrows_g=57 nrows=5 sparsity=10.0157 nnzs=32541, refcount: 8>
  <dData2D:DM n=32541 m=1, refcount: 1>
refcount: 1>
No. of atoms with KB's overlaping orbs in proc 0. Max # of overlaps:     416    1048
New grid distribution:   1
           1       1:   20    1:    7    1:    9
           2       1:   20    1:    7   10:   18
           3       1:   20    1:    7   19:   27
           4       1:   20    1:    7   28:   36
           5       1:   20    8:   14    1:    9
           6       1:   20    8:   14   10:   18
           7       1:   20    8:   14   19:   27
           8       1:   20    8:   14   28:   36
           9       1:   20   15:   20    1:    9
          10       1:   20   15:   20   10:   18
          11       1:   20   15:   20   19:   27
          12       1:   20   15:   20   28:   36

InitMesh: MESH =    40 x    40 x    72 =      115200
InitMesh: (bp) =    20 x    20 x    36 =       14400
InitMesh: Mesh cutoff (required, used) =   300.000   323.586 Ry
ExtMesh (bp) on 0 =   160 x   147 x   153 =     3598560
New grid distribution:   2
           1       1:    7    1:   10    1:   18
           2       8:   20   11:   20   19:   27
           3       1:    7    1:   10   19:   36
           4       8:   20    1:   10    1:    9
           5       8:   20   11:   20    1:    9
           6       8:   20    1:   10   10:   18
           7       1:    7   11:   20   19:   36
           8       8:   20    1:   10   28:   36
           9       1:    7   11:   20    1:   18
          10       8:   20    1:   10   19:   27
          11       8:   20   11:   20   10:   18
          12       8:   20   11:   20   28:   36
New grid distribution:   3
           1       1:    7    1:   10    1:   18
           2       8:   20   11:   20   19:   27
           3       1:    7    1:   10   19:   36
           4       8:   20    1:   10    1:    9
           5       8:   20   11:   20    1:    9
           6       8:   20    1:   10   10:   18
           7       1:    7   11:   20   19:   36
           8       8:   20    1:   10   28:   36
           9       1:    7   11:   20    1:   18
          10       8:   20    1:   10   19:   27
          11       8:   20   11:   20   10:   18
          12       8:   20   11:   20   28:   36
Setting up quadratic distribution...
ExtMesh (bp) on 0 =   147 x   150 x   162 =     3572100
PhiOnMesh: Number of (b)points on node 0 =                 1260
PhiOnMesh: nlist on node 0 =               685080

stepf: Fermi-Dirac step function

siesta: Program's energy decomposition (eV):
siesta: Ebs     =      -219.159975
siesta: Eions   =       380.620085
siesta: Ena     =       103.726890
siesta: Ekin    =       222.498140
siesta: Enl     =         2.856816
siesta: Eso     =         0.000000
siesta: Edftu   =         0.000000
siesta: DEna    =        -6.103238
siesta: DUscf   =        10.600610
siesta: DUext   =         0.000000
siesta: Exc     =      -167.888521
siesta: eta*DQ  =         0.000000
siesta: Emadel  =         0.000000
siesta: Emeta   =         0.000000
siesta: Emolmec =        -5.987819
siesta: Ekinion =         0.000000
siesta: Eharris =      -195.815874
siesta: Etot    =      -220.917208
siesta: FreeEng =      -220.944429

        iscf     Eharris(eV)        E_KS(eV)     FreeEng(eV)     dDmax    Ef(eV) dHmax(eV)
   scf:    1     -195.815874     -220.917208     -220.944429  1.471084-12.943780 10.700596
timer: Routine,Calls,Time,% = IterSCF        1      10.965  53.73
   scf:    2     -228.752043     -226.210557     -226.232546  0.379532-13.150542  1.659246
   scf:    3     -226.402770     -226.349327     -226.371630  0.068025-13.214293  0.068327
   scf:    4     -226.368474     -226.360015     -226.382272  0.037493-13.266358  0.036359
   scf:    5     -226.358745     -226.359430     -226.381596  0.004044-13.266535  0.062422
   scf:    6     -226.360737     -226.360395     -226.382866  0.010554-13.272488  0.007818
   scf:    7     -226.360366     -226.360380     -226.382871  0.000476-13.272946  0.005833
   scf:    8     -226.360277     -226.360329     -226.382877  0.001293-13.274106  0.000287
   scf:    9     -226.360326     -226.360327     -226.382877  0.000239-13.274058  0.000226

SCF Convergence by FreeE+DM+H criterion
|FreeE_i-FreeE_(i-1)| (eV) <     0.00100000
max |DM_out - DM_in|         :     0.0002388010
max |H_out - H_in|      (eV) :     0.0002260800
SCF cycle converged after 9 iterations

Using DM_out to compute the final energy and forces
No. of atoms with KB's overlaping orbs in proc 0. Max # of overlaps:     416    1048

MM-Stress (kbar):       13.77       13.77       41.62       -0.00       -0.00       -0.00

siesta: E_KS(eV) =             -226.3603

siesta: E_KS - E_eggbox =      -226.3603

siesta: Atomic forces (eV/Ang):
     1    0.000000    0.000000    0.000000
     2    0.526163    0.000134   -0.161814
     3   -0.526163    0.000177    0.161814
     4   -0.263235    0.455582   -0.161814
     5    0.262965   -0.455738    0.161814
     6   -0.262969   -0.455788   -0.161844
     7    0.263239    0.455632    0.161844
     8   -0.526163    0.000177   -0.161814
     9    0.526163    0.000134    0.161814
    10    0.262965   -0.455738   -0.161814
    11   -0.263235    0.455582    0.161814
    12    0.263239    0.455632   -0.161844
    13   -0.262969   -0.455788    0.161844
----------------------------------------
   Tot   -0.000000    0.000000    0.000000
----------------------------------------
   Max    0.526163
   Res    0.305363    sqrt( Sum f_i^2 / 3N )
----------------------------------------
   Max    0.526163    constrained

Stress tensor Voigt[x,y,z,yz,xz,xy] (kbar):    -1320.49    -1320.51      699.07       -0.00        0.00       -0.01
(Free)E + p*V (eV/cell)     -186.0873
Target enthalpy (eV/cell)     -226.3829

siesta: Eigenvalues (eV):
  ik is       eps
   1  1  -23.0946  -17.7836  -17.2091  -15.3249  -13.9871  -13.8850  -13.8848  -13.3347  -12.8531  -11.4223
          -8.4822   -8.0905   -8.0905   -7.5577   -7.5577   -6.1437   -6.1437   -4.1069   -4.1068   -3.4369
   -3.4369   -2.3509    3.3313    3.3319    3.9635    3.9635    5.7330    5.7330    8.2562   15.1123
   15.1125   17.0404   17.0404   18.5968   18.5970   20.1436   20.1436   22.0448   22.9764   23.4582
   26.2859   26.2860   28.5383   28.5383   31.4584   31.4595   34.9426   34.9427   37.2700   37.2704
   38.5621   45.5829   46.0396   46.6447   46.8077   61.1610   61.1613
   2  1  -22.9767  -17.2766  -17.0310  -16.0941  -15.7700  -14.6444  -14.3710  -13.3086  -13.2439   -9.9769
          -9.9453   -9.7939   -9.4778   -7.7050   -5.2303   -4.9119   -4.2737   -2.3635   -1.7139   -1.5753
   -1.3312   -1.0927   -0.4781    0.0099    0.1587    0.8324    1.5837    1.7818    2.5839    6.1128
    8.3891    8.9207    8.9796   11.0590   15.8095   16.0923   17.4943   18.3444   21.5672   22.2055
   22.4988   22.5915   24.8059   25.2695   25.3543   26.2983   28.5720   29.9040   30.5311   31.7406
   46.7369   47.6548   48.6703   57.8023   58.1744   59.5676   62.0206
   3  1  -22.9767  -17.2766  -17.0310  -16.0941  -15.7700  -14.6444  -14.3710  -13.3086  -13.2439   -9.9769
          -9.9453   -9.7939   -9.4778   -7.7050   -5.2303   -4.9119   -4.2737   -2.3635   -1.7139   -1.5753
   -1.3312   -1.0927   -0.4781    0.0099    0.1587    0.8324    1.5837    1.7818    2.5839    6.1128
    8.3891    8.9207    8.9796   11.0590   15.8095   16.0923   17.4943   18.3444   21.5672   22.2055
   22.4988   22.5915   24.8059   25.2695   25.3543   26.2983   28.5720   29.9040   30.5311   31.7406
   46.7369   47.6548   48.6703   57.8023   58.1744   59.5675   62.0205
   4  1  -22.9767  -17.2765  -17.0310  -16.0941  -15.7700  -14.6444  -14.3712  -13.3086  -13.2439   -9.9769
          -9.9453   -9.7939   -9.4776   -7.7050   -5.2303   -4.9119   -4.2738   -2.3635   -1.7138   -1.5753
   -1.3312   -1.0927   -0.4781    0.0099    0.1588    0.8322    1.5836    1.7818    2.5841    6.1127
    8.3892    8.9207    8.9796   11.0589   15.8093   16.0925   17.4944   18.3445   21.5676   22.2055
   22.4988   22.5916   24.8057   25.2695   25.3543   26.2983   28.5720   29.9040   30.5313   31.7398
   46.7369   47.6549   48.6703   57.8022   58.1744   59.5678   62.0204
   5  1  -23.1951  -17.8399  -16.9819  -15.3406  -13.9347  -13.9205  -13.9203  -13.7027  -12.9060  -11.7970
          -7.9088   -7.9088   -7.7231   -7.7231   -7.3700   -7.3700   -6.8101   -4.4052   -2.3195   -2.3195
   -2.2406   -2.2406   -1.2529   -1.2529   -0.7987   -0.7986    4.3428    4.3433   15.4573   15.4574
   15.6454   18.2213   18.2213   20.6607   20.6608   22.7384   22.7987   23.0903   23.0904   23.2012
   23.2012   24.2334   24.2335   32.8300   32.8301   38.9413   38.9426   43.7887   43.7892   45.3054
   45.3056   46.2187   46.3679   46.5763   46.6055   50.3600   50.3840
   6  1  -22.9841  -17.6395  -16.8910  -16.0917  -15.5170  -14.5318  -14.3960  -13.4669  -12.3604  -11.7037
         -10.6156  -10.0893   -7.3014   -7.1488   -6.4310   -4.4666   -3.8562   -3.0722   -2.4648   -2.4564
   -1.9465   -0.9923   -0.8188   -0.6950    0.1652    0.9204    1.6434    3.0375    4.1874    4.2719
   11.6985   12.4903   13.4431   14.7142   17.5206   17.7579   18.0070   18.2928   19.5631   20.6028
   21.6125   22.3277   23.3930   24.1706   24.2938   24.6811   25.0549   25.4377   26.5278   40.3784
   47.4144   49.7763   51.7612   51.7617   52.2356   52.7850   53.6224
   7  1  -22.9841  -17.6395  -16.8910  -16.0917  -15.5170  -14.5318  -14.3960  -13.4669  -12.3604  -11.7037
         -10.6156  -10.0893   -7.3014   -7.1488   -6.4310   -4.4666   -3.8562   -3.0722   -2.4648   -2.4564
   -1.9465   -0.9923   -0.8188   -0.6950    0.1652    0.9204    1.6434    3.0375    4.1874    4.2719
   11.6985   12.4903   13.4431   14.7142   17.5206   17.7579   18.0070   18.2928   19.5631   20.6028
   21.6125   22.3277   23.3930   24.1706   24.2938   24.6811   25.0549   25.4377   26.5278   40.3784
   47.4143   49.7763   51.7613   51.7617   52.2356   52.7850   53.6224
   8  1  -22.9841  -17.6395  -16.8909  -16.0917  -15.5170  -14.5318  -14.3962  -13.4669  -12.3603  -11.7037
         -10.6156  -10.0893   -7.3014   -7.1486   -6.4310   -4.4667   -3.8562   -3.0723   -2.4648   -2.4564
   -1.9464   -0.9923   -0.8188   -0.6950    0.1652    0.9204    1.6434    3.0375    4.1871    4.2721
   11.6984   12.4903   13.4431   14.7142   17.5206   17.7580   18.0072   18.2927   19.5631   20.6027
   21.6125   22.3284   23.3929   24.1706   24.2937   24.6811   25.0550   25.4377   26.5276   40.3776
   47.4143   49.7763   51.7611   51.7616   52.2357   52.7852   53.6222
siesta: Fermi energy =     -13.274058 eV

siesta: Program's energy decomposition (eV):
siesta: Ebs     =      -261.563993
siesta: Eions   =       380.620085
siesta: Ena     =       103.726890
siesta: Ekin    =       192.093481
siesta: Enl     =        12.240385
siesta: Eso     =         0.000000
siesta: Edftu   =         0.000000
siesta: DEna    =        11.098874
siesta: DUscf   =         2.772992
siesta: DUext   =         0.000000
siesta: Exc     =      -161.685045
siesta: eta*DQ  =         0.000000
siesta: Emadel  =         0.000000
siesta: Emeta   =         0.000000
siesta: Emolmec =        -5.987819
siesta: Ekinion =         0.000000
siesta: Eharris =      -226.360326
siesta: Etot    =      -226.360327
siesta: FreeEng =      -226.382877

siesta: Final energy (eV):
siesta:  Band Struct. =    -261.563993
siesta:       Kinetic =     192.093481
siesta:       Hartree =      74.974673
siesta:       Edftu   =       0.000000
siesta:       Eso     =       0.000000
siesta:    Ext. field =       0.000000
siesta:   Exch.-corr. =    -161.685045
siesta:  Ion-electron =    -432.839399
siesta:       Ion-ion =     107.083781
siesta:       Ekinion =       0.000000
siesta:         Total =    -226.360327
siesta:         Fermi =     -13.274058

siesta: Atomic forces (eV/Ang):
siesta:      1    0.000000    0.000000    0.000000
siesta:      2    0.526163    0.000134   -0.161814
siesta:      3   -0.526163    0.000177    0.161814
siesta:      4   -0.263235    0.455582   -0.161814
siesta:      5    0.262965   -0.455738    0.161814
siesta:      6   -0.262969   -0.455788   -0.161844
siesta:      7    0.263239    0.455632    0.161844
siesta:      8   -0.526163    0.000177   -0.161814
siesta:      9    0.526163    0.000134    0.161814
siesta:     10    0.262965   -0.455738   -0.161814
siesta:     11   -0.263235    0.455582    0.161814
siesta:     12    0.263239    0.455632   -0.161844
siesta:     13   -0.262969   -0.455788    0.161844
siesta: ----------------------------------------
siesta:    Tot   -0.000000    0.000000    0.000000

siesta: Stress tensor (static) (eV/Ang**3):
siesta:    -0.824178   -0.000006    0.000000
siesta:    -0.000006   -0.824186    0.000000
siesta:     0.000000   -0.000000    0.436321

siesta: Cell volume =         99.737975 Ang**3

siesta: Pressure (static):
siesta:                Solid            Molecule  Units
siesta:           0.00440023          0.00445238  Ry/Bohr**3
siesta:           0.40401440          0.40880225  eV/Ang**3
siesta:         647.30942807        654.98048653  kBar
(Free)E+ p_basis*V_orbitals  =        -194.212756
(Free)Eharris+ p_basis*V_orbitals  =        -194.212754

cite: Please see "LiC12_scf.bib" for an exhaustive BiBTeX file.
cite: Please clearly indicate Siesta version in published work: 4.1.5
cite: This calculation has made use of the following articles
cite: which are encouraged to be cited in a published work.
        Primary SIESTA paper
          DOI: www.doi.org/10.1088/0953-8984/14/11/302

>> End of run:   9-NOV-2022   9:21:18
Job completed
