Siesta Version  : 4.1.5
Architecture    : x86_64-unknown-linux-gnu--unknown
Compiler version: GNU Fortran (GCC) 11.3.0
Compiler flags  : mpif90 -g -O2 -fallow-argument-mismatch
PP flags        : -DMPI -DFC_HAVE_FLUSH -DFC_HAVE_ABORT
Libraries       :  -I/global/software/sl-7.x86_64/modules/intel/2020.4.304/mkl/include  /globall/software/sl-7.x86_64/modules/intel/2020.4.304/mkl/lib/intel64/libmkl_scalapack_lp64.a -Wl,--start-group /global/software/sl-7.x86_64/modules/intel/2020.4.304/mkl/lib/intel64/libmkl_intel_lp64.a /global/software/sl-7.x86_64/modules/intel/2020.4.304/mkl/lib/intel64/libmkl_sequential.a /global/software/sl-7.x86_64/modules/intel/2020.4.304/mkl/lib/intel64/libmkl_core.a /global/software/sl-7.x86_64/modules/intel/2020.4.304/mkl/lib/intel64/libmkl_blacs_openmpi_lp64.a -Wl,--end-group -lpthread -lm -ldl
PARALLEL version

* Running on 12 nodes in parallel
>> Start of run:   9-NOV-2022  10:44:21

                           ***********************       
                           *  WELCOME TO SIESTA  *       
                           ***********************       

reinit: Reading from standard input
reinit: Dumped input in INPUT_TMP.28177
************************** Dump of input data file ****************************
SystemName LiC12_scf
SystemLabel LiC12_scf
NumberOfAtoms   13
NumberOfSpecies 2
%block ChemicalSpeciesLabel
1  3   Li-gga
2  6   C-gga
%endblock ChemicalSpeciesLabel
PAO.BasisSize  SZP
PAO.EnergyShift  10 meV
%block PS.Lmax
C-gga   2
Li-gga  2
%endblock PS.Lmax
LatticeConstant 1.000000 Ang
%block LatticeVectors
	4.2686000000	0.0000000000	0.0000000000
	-2.1343000000	3.6967160386	0.0000000000
	0.0000000000	0.0000000000	9.4106860000
%endblock LatticeVectors
AtomicCoordinatesFormat Ang
%block AtomicCoordinatesAndAtomicSpecies
	0.00000000	0.00000000	0.00000000	2
	1.42144380	0.00000000	2.35267150	1
	2.84715620	0.00000000	7.05801450	1
	-0.71072190	1.23100644	2.35267150	1
	-1.42357810	2.46570960	7.05801450	1
	1.42357810	2.46570960	2.35267150	1
	0.71072190	1.23100644	7.05801450	1
	2.84715620	0.00000000	2.35267150	1
	1.42144380	0.00000000	7.05801450	1
	-1.42357810	2.46570960	2.35267150	1
	-0.71072190	1.23100644	7.05801450	1
	0.71072190	1.23100644	2.35267150	1
	1.42357810	2.46570960	7.05801450	1
%endblock AtomicCoordinatesAndAtomicSpecies
Kgrid_NoTRS  T
%block kgrid_MonkhorstPack
2       0       0       0.0
0       2       0       0.0
0       0       2       0.0
%endblock kgrid_MonkhorstPack
AtomCoorFormatOut Ang
BlockSize 1
#ProcessorY 12
Diag.ParallelOverK   T
Diag.DivideAndConquer F
MeshCutoff   300 Ry
SCF.FreeE.Tolerance 1E-3 eV
SCF.EDM.Tolerance   5E-3 eV
DM.Tolerance  1E-3
DM.Require.Energy.Convergence T
DM.NumberPulay 4
XC.Functional GGA
XC.Authors    PBE
UseSaveData        F
MD.TypeOfRun       CG
MD.VariableCell    F
MD.NumCGsteps      00
MD.MaxCGDispl      0.200000 Bohr
MD.MaxStressTol    1.000000 GPa
MD.MaxForceTol     0.010000 eV/Ang
WriteMDHistory T
WriteCoorStep T
WriteForces T
WriteCoorStep    T
WriteEigenValues T
WriteDM    F
MM.UnitsDistance Ang  # what this program prints out DO NOT CHANGE
MM.UnitsEnergy    eV  # what this program prints out DO NOT CHANGE
MM.Grimme.S6     0.75 # Grimme-paper for PBE (correct for your functional)
MM.Grimme.D     20.   # Grimme-paper (correct for your functional)
%block MM.Potentials
  1   1 Grimme     16.69      1.650 # Li, 10.1002/jcc.20495
  1   2 Grimme     17.40      2.277 # Li / C
  2   2 Grimme     18.14      2.904 # C, 10.1002/jcc.20495
%endblock MM.Potentials
#%block ProjectedDensityOfStates
# -200.0  120.0  0.4  12800  eV
#%endblock ProjectedDensityOfStates
************************** End of input data file *****************************

reinit: -----------------------------------------------------------------------
reinit: System Name: LiC12_scf
reinit: -----------------------------------------------------------------------
reinit: System Label: LiC12_scf
reinit: -----------------------------------------------------------------------
Reading two-body potentials
Grimme - two-body potential between 1 and 1
Grimme - two-body potential between 1 and 2
Grimme - two-body potential between 2 and 2

initatom: Reading input for the pseudopotentials and atomic orbitals ----------
Species number:   1 Atomic number:    3 Label: Li-gga
Species number:   2 Atomic number:    6 Label: C-gga

Ground state valence configuration:   2s01
Reading pseudopotential information in formatted form from Li-gga.psf

Valence configuration for pseudopotential generation:
2s( 1.00) rc: 2.28
2p( 0.00) rc: 2.28
3d( 0.00) rc: 2.59
4f( 0.00) rc: 2.59
Ground state valence configuration:   2s02  2p02
Reading pseudopotential information in formatted form from C-gga.psf

Valence configuration for pseudopotential generation:
2s( 2.00) rc: 1.56
2p( 2.00) rc: 1.56
3d( 0.00) rc: 1.56
4f( 0.00) rc: 1.56
relmxkb: Read Max KB Ang. Momentum=    2 for species C-gga
relmxkb: Read Max KB Ang. Momentum=    2 for species Li-gga

<basis_specs>
===============================================================================
Li-gga               Z=   3    Mass=  6.9400        Charge= 0.17977+309
Lmxo=0 Lmxkb= 2    BasisType=split      Semic=F
L=0  Nsemic=0  Cnfigmx=2
          i=1  nzeta=1  polorb=1  (2s)
            splnorm:   0.15000    
               vcte:    0.0000    
               rinn:    0.0000    
               qcoe:    0.0000    
               qyuk:    0.0000    
               qwid:   0.10000E-01
                rcs:    0.0000    
            lambdas:    1.0000    
-------------------------------------------------------------------------------
L=0  Nkbl=1  erefs: 0.17977+309
L=1  Nkbl=1  erefs: 0.17977+309
L=2  Nkbl=1  erefs: 0.17977+309
===============================================================================
</basis_specs>

atom: Called for Li-gga                (Z =   3)

read_vps: Pseudopotential generation method:
read_vps: ATM 3.2.2 Troullier-Martins                       
Valence charge for ps generation:    1.00000

read_vps: Pseudopotential includes a core correction:
read_vps: Pseudo-core for xc-correction

xc_check: Exchange-correlation functional:
xc_check: GGA Perdew, Burke & Ernzerhof 1996
V l=0 = -2*Zval/r beyond r=  2.2278
V l=1 = -2*Zval/r beyond r=  2.2278
V l=2 = -2*Zval/r beyond r=  2.5245
All V_l potentials equal beyond r=  2.4622
This should be close to max(r_c) in ps generation
All pots = -2*Zval/r beyond r=  2.5245

VLOCAL1: 99.0% of the norm of Vloc inside      7.160 Ry
VLOCAL1: 99.9% of the norm of Vloc inside     16.318 Ry
atom: Maximum radius for 4*pi*r*r*local-pseudopot. charge    2.86079
atom: Maximum radius for r*vlocal+2*Zval:    2.43160
GHOST: No ghost state for L =  0
GHOST: No ghost state for L =  1
GHOST: No ghost state for L =  2

KBgen: Kleinman-Bylander projectors: 
   l= 0   rc=  2.654023   el= -0.211234   Ekb=  1.742119   kbcos=  0.228463
   l= 1   rc=  2.721230   el= -0.080095   Ekb= -1.122375   kbcos= -0.147941
   l= 2   rc=  2.825246   el=  0.002001   Ekb= -0.207076   kbcos= -0.031965

KBgen: Total number of Kleinman-Bylander projectors:    9
atom: -------------------------------------------------------------------------

atom: SANKEY-TYPE ORBITALS:

SPLIT: Orbitals with angular momentum L= 0

SPLIT: Basis orbitals for state 2s

SPLIT: PAO cut-off radius determined from an
SPLIT: energy shift=  0.000735 Ry

   izeta = 1
                 lambda =    1.000000
                     rc =   11.897381
                 energy =   -0.210580
                kinetic =    0.143382
    potential(screened) =   -0.353962
       potential(ionic) =   -0.533453

POLgen: Perturbative polarization orbital with L=  1

POLgen: Polarization orbital for state 2s

   izeta = 1
                     rc =   11.897381
                 energy =   -0.027011
                kinetic =    0.282985
    potential(screened) =   -0.309997
       potential(ionic) =   -0.490997
atom: Total number of Sankey-type orbitals:  4

atm_pop: Valence configuration (for local Pseudopot. screening):
 2s( 1.00)                                                            
Vna: chval, zval:    1.00000   1.00000

Vna:  Cut-off radius for the neutral-atom potential:  11.897381
comcore: Pseudo-core radius Rcore=  3.450946

atom: _________________________________________________________________________

<basis_specs>
===============================================================================
C-gga                Z=   6    Mass=  12.010        Charge= 0.17977+309
Lmxo=1 Lmxkb= 2    BasisType=split      Semic=F
L=0  Nsemic=0  Cnfigmx=2
          i=1  nzeta=1  polorb=0  (2s)
            splnorm:   0.15000    
               vcte:    0.0000    
               rinn:    0.0000    
               qcoe:    0.0000    
               qyuk:    0.0000    
               qwid:   0.10000E-01
                rcs:    0.0000    
            lambdas:    1.0000    
L=1  Nsemic=0  Cnfigmx=2
          i=1  nzeta=1  polorb=1  (2p)
            splnorm:   0.15000    
               vcte:    0.0000    
               rinn:    0.0000    
               qcoe:    0.0000    
               qyuk:    0.0000    
               qwid:   0.10000E-01
                rcs:    0.0000    
            lambdas:    1.0000    
-------------------------------------------------------------------------------
L=0  Nkbl=1  erefs: 0.17977+309
L=1  Nkbl=1  erefs: 0.17977+309
L=2  Nkbl=1  erefs: 0.17977+309
===============================================================================
</basis_specs>

atom: Called for C-gga                 (Z =   6)

read_vps: Pseudopotential generation method:
read_vps: ATM 3.2.2 Troullier-Martins                       
Valence charge for ps generation:    4.00000

xc_check: Exchange-correlation functional:
xc_check: GGA Perdew, Burke & Ernzerhof 1996
V l=0 = -2*Zval/r beyond r=  1.5227
V l=1 = -2*Zval/r beyond r=  1.5227
V l=2 = -2*Zval/r beyond r=  1.5227
All V_l potentials equal beyond r=  1.4851
This should be close to max(r_c) in ps generation
All pots = -2*Zval/r beyond r=  1.5227

VLOCAL1: 99.0% of the norm of Vloc inside     19.682 Ry
VLOCAL1: 99.9% of the norm of Vloc inside     44.856 Ry
atom: Maximum radius for 4*pi*r*r*local-pseudopot. charge    1.79142
atom: Maximum radius for r*vlocal+2*Zval:    1.54183
GHOST: No ghost state for L =  0
GHOST: No ghost state for L =  1
GHOST: No ghost state for L =  2

KBgen: Kleinman-Bylander projectors: 
   l= 0   rc=  1.661951   el= -1.010689   Ekb=  5.289847   kbcos=  0.316429
   l= 1   rc=  1.661951   el= -0.388490   Ekb= -4.102504   kbcos= -0.351025
   l= 2   rc=  1.747182   el=  0.001971   Ekb= -1.006005   kbcos= -0.008530

KBgen: Total number of Kleinman-Bylander projectors:    9
atom: -------------------------------------------------------------------------

atom: SANKEY-TYPE ORBITALS:

SPLIT: Orbitals with angular momentum L= 0

SPLIT: Basis orbitals for state 2s

SPLIT: PAO cut-off radius determined from an
SPLIT: energy shift=  0.000735 Ry

   izeta = 1
                 lambda =    1.000000
                     rc =    5.948690
                 energy =   -1.010099
                kinetic =    0.827121
    potential(screened) =   -1.837220
       potential(ionic) =   -5.392783

SPLIT: Orbitals with angular momentum L= 1

SPLIT: Basis orbitals for state 2p

SPLIT: PAO cut-off radius determined from an
SPLIT: energy shift=  0.000735 Ry

   izeta = 1
                 lambda =    1.000000
                     rc =    7.638387
                 energy =   -0.387843
                kinetic =    2.314739
    potential(screened) =   -2.702582
       potential(ionic) =   -6.092371

POLgen: Perturbative polarization orbital with L=  2

POLgen: Polarization orbital for state 2p

   izeta = 1
                     rc =    7.638387
                 energy =    0.921402
                kinetic =    1.955040
    potential(screened) =   -1.033637
       potential(ionic) =   -3.679558
atom: Total number of Sankey-type orbitals:  9

atm_pop: Valence configuration (for local Pseudopot. screening):
 2s( 2.00)                                                            
 2p( 2.00)                                                            
Vna: chval, zval:    4.00000   4.00000

Vna:  Cut-off radius for the neutral-atom potential:   7.638387

atom: _________________________________________________________________________

prinput: Basis input ----------------------------------------------------------

PAO.BasisType split     

%block ChemicalSpeciesLabel
    1    3 Li-gga                  # Species index, atomic number, species label
    2    6 C-gga                   # Species index, atomic number, species label
%endblock ChemicalSpeciesLabel

%block PAO.Basis                 # Define Basis set
Li-gga                1                    # Species label, number of l-shells
 n=2   0   1 P   1                   # n, l, Nzeta, Polarization, NzetaPol
  11.897   
   1.000   
C-gga                 2                    # Species label, number of l-shells
 n=2   0   1                         # n, l, Nzeta 
   5.949   
   1.000   
 n=2   1   1 P   1                   # n, l, Nzeta, Polarization, NzetaPol
   7.638   
   1.000   
%endblock PAO.Basis

prinput: ----------------------------------------------------------------------

coor:   Atomic-coordinates input format  =     Cartesian coordinates
coor:                                          (in Angstroms)

siesta: Atomic coordinates (Bohr) and species
siesta:      0.00000   0.00000   0.00000  2        1
siesta:      2.68614   0.00000   4.44591  1        2
siesta:      5.38035   0.00000  13.33772  1        3
siesta:     -1.34307   2.32627   4.44591  1        4
siesta:     -2.69017   4.65952  13.33772  1        5
siesta:      2.69017   4.65952   4.44591  1        6
siesta:      1.34307   2.32627  13.33772  1        7
siesta:      5.38035   0.00000   4.44591  1        8
siesta:      2.68614   0.00000  13.33772  1        9
siesta:     -2.69017   4.65952   4.44591  1       10
siesta:     -1.34307   2.32627  13.33772  1       11
siesta:      1.34307   2.32627   4.44591  1       12
siesta:      2.69017   4.65952  13.33772  1       13

siesta: System type = bulk      

initatomlists: Number of atoms, orbitals, and projectors:     13    57   117

siesta: ******************** Simulation parameters ****************************
siesta:
siesta: The following are some of the parameters of the simulation.
siesta: A complete list of the parameters used, including default values,
siesta: can be found in file out.fdf
siesta:
redata: Spin configuration                          = none
redata: Number of spin components                   = 1
redata: Time-Reversal Symmetry                      = T
redata: Spin spiral                                 = F
redata: Long output                                 =   F
redata: Number of Atomic Species                    =        2
redata: Charge density info will appear in .RHO file
redata: Write Mulliken Pop.                         = NO
redata: Matel table size (NRTAB)                    =     1024
redata: Mesh Cutoff                                 =   300.0000 Ry
redata: Net charge of the system                    =     0.0000 |e|
redata: Min. number of SCF Iter                     =        0
redata: Max. number of SCF Iter                     =     1000
redata: SCF convergence failure will abort job
redata: SCF mix quantity                            = Hamiltonian
redata: Mix DM or H after convergence               =   F
redata: Recompute H after scf cycle                 =   F
redata: Mix DM in first SCF step                    =   T
redata: Write Pulay info on disk                    =   F
redata: New DM Occupancy tolerance                  = 0.000000000001
redata: No kicks to SCF
redata: DM Mixing Weight for Kicks                  =     0.5000
redata: Require Harris convergence for SCF          =   F
redata: Harris energy tolerance for SCF             =     0.000100 eV
redata: Require DM convergence for SCF              =   T
redata: DM tolerance for SCF                        =     0.001000
redata: Require EDM convergence for SCF             =   F
redata: EDM tolerance for SCF                       =     0.005000 eV
redata: Require H convergence for SCF               =   T
redata: Hamiltonian tolerance for SCF               =     0.001000 eV
redata: Require (free) Energy convergence for SCF   =   T
redata: (free) Energy tolerance for SCF             =     0.001000 eV
redata: Using Saved Data (generic)                  =   F
redata: Use continuation files for DM               =   F
redata: Neglect nonoverlap interactions             =   F
redata: Method of Calculation                       = Diagonalization
redata: Electronic Temperature                      =   299.9869 K
redata: Fix the spin of the system                  =   F
redata: Dynamics option                             = Single-point calculation
mix.SCF: Pulay mixing                            = Pulay
mix.SCF:    Variant                              = stable
mix.SCF:    History steps                        = 4
mix.SCF:    Linear mixing weight                 =     0.250000
mix.SCF:    Mixing weight                        =     0.250000
mix.SCF:    SVD condition                        = 0.1000E-07
redata: ***********************************************************************

%block SCF.Mixers
  Pulay
%endblock SCF.Mixers

%block SCF.Mixer.Pulay
  # Mixing method
  method pulay
  variant stable

  # Mixing options
  weight 0.2500
  weight.linear 0.2500
  history 4
%endblock SCF.Mixer.Pulay

DM_history_depth set to one: no extrapolation allowed by default for geometry relaxation
Size of DM history Fstack: 1
Total number of electrons:    16.000000
Total ionic charge:    16.000000

* ProcessorY, Blocksize:    3   1


* Orbital distribution balance (max,min):     5     4

k-point displ. along   1 input, could be:     0.00    0.50
k-point displ. along   2 input, could be:     0.00    0.50
k-point displ. along   3 input, could be:     0.00    0.50
 Kpoints in:            8 . Kpoints trimmed:            8

siesta: k-grid: Number of k-points =     8
siesta: k-grid: Cutoff (effective) =     4.269 Ang
siesta: k-grid: Supercell and displacements
siesta: k-grid:    2   0   0      0.000
siesta: k-grid:    0   2   0      0.000
siesta: k-grid:    0   0   2      0.000

diag: Algorithm                                     = Expert
diag: Parallel over k                               =   T
diag: Use parallel 2D distribution                  =   T
diag: Parallel block-size                           = 1
diag: Parallel distribution                         =     3 x     4
diag: Used triangular part                          = Lower
diag: Absolute tolerance                            =  0.100E-15
diag: Orthogonalization factor                      =  0.100E-05
diag: Memory factor                                 =  1.0000

superc: Internal auxiliary supercell:     9 x     9 x     3  =     243
superc: Number of atoms, orbitals, and projectors:   3159  13851  28431


ts: **************************************************************
ts: Save H and S matrices                           =    F
ts: Save DM and EDM matrices                        =    F
ts: Only save the overlap matrix S                  =    F
ts: **************************************************************

************************ Begin: TS CHECKS AND WARNINGS ************************
************************ End: TS CHECKS AND WARNINGS **************************


                     ====================================
                        Single-point calculation
                     ====================================

outcoor: Atomic coordinates (Ang):                          
    0.00000000    0.00000000    0.00000000   2       1  C-gga
    1.42144380    0.00000000    2.35267150   1       2  Li-gga
    2.84715620    0.00000000    7.05801450   1       3  Li-gga
   -0.71072190    1.23100644    2.35267150   1       4  Li-gga
   -1.42357810    2.46570960    7.05801450   1       5  Li-gga
    1.42357810    2.46570960    2.35267150   1       6  Li-gga
    0.71072190    1.23100644    7.05801450   1       7  Li-gga
    2.84715620    0.00000000    2.35267150   1       8  Li-gga
    1.42144380    0.00000000    7.05801450   1       9  Li-gga
   -1.42357810    2.46570960    2.35267150   1      10  Li-gga
   -0.71072190    1.23100644    7.05801450   1      11  Li-gga
    0.71072190    1.23100644    2.35267150   1      12  Li-gga
    1.42357810    2.46570960    7.05801450   1      13  Li-gga

superc: Internal auxiliary supercell:     9 x     9 x     3  =     243
superc: Number of atoms, orbitals, and projectors:   3159  13851  28431

outcell: Unit cell vectors (Ang):
        4.268600    0.000000    0.000000
       -2.134300    3.696716    0.000000
        0.000000    0.000000    9.410686

outcell: Cell vector modules (Ang)   :    4.268600    4.268600    9.410686
outcell: Cell angles (23,13,12) (deg):     90.0000     90.0000    120.0000
outcell: Cell volume (Ang**3)        :    148.4988
<dSpData1D:S at geom step 0
  <sparsity:sparsity for geom step 0
    nrows_g=57 nrows=5 sparsity=6.3653 nnzs=20681, refcount: 7>
  <dData1D:(new from dSpData1D) n=20681, refcount: 1>
refcount: 1>
new_DM -- step:     1
Initializing Density Matrix...
DM filled with atomic data:
<dSpData2D:DM initialized from atoms
  <sparsity:sparsity for geom step 0
    nrows_g=57 nrows=5 sparsity=6.3653 nnzs=20681, refcount: 8>
  <dData2D:DM n=20681 m=1, refcount: 1>
refcount: 1>
No. of atoms with KB's overlaping orbs in proc 0. Max # of overlaps:     306     696
New grid distribution:   1
           1       1:   20    1:    7    1:   13
           2       1:   20    1:    7   14:   26
           3       1:   20    1:    7   27:   38
           4       1:   20    1:    7   39:   50
           5       1:   20    8:   14    1:   13
           6       1:   20    8:   14   14:   26
           7       1:   20    8:   14   27:   38
           8       1:   20    8:   14   39:   50
           9       1:   20   15:   20    1:   13
          10       1:   20   15:   20   14:   26
          11       1:   20   15:   20   27:   38
          12       1:   20   15:   20   39:   50

InitMesh: MESH =    40 x    40 x   100 =      160000
InitMesh: (bp) =    20 x    20 x    50 =       20000
InitMesh: Mesh cutoff (required, used) =   300.000   312.075 Ry
ExtMesh (bp) on 0 =   160 x   147 x   149 =     3504480
New grid distribution:   2
           1       1:   10    8:   20   26:   38
           2       1:   20    1:    7   13:   25
           3       1:   10    8:   20    1:   12
           4       1:   20    1:    7   39:   50
           5       1:   20    1:    7   26:   38
           6      11:   20    8:   20   13:   25
           7       1:   20    1:    7    1:   12
           8      11:   20    8:   20   39:   50
           9      11:   20    8:   20    1:   12
          10       1:   10    8:   20   13:   25
          11      11:   20    8:   20   26:   38
          12       1:   10    8:   20   39:   50
New grid distribution:   3
           1      11:   20    8:   20    1:   13
           2       1:   20    1:    7   14:   25
           3       1:   20    1:    7   26:   38
           4      11:   20    8:   20   14:   25
           5       1:   20    1:    7    1:   13
           6       1:   20    1:    7   39:   50
           7      11:   20    8:   20   26:   38
           8       1:   10    8:   20   39:   50
           9       1:   10    8:   20    1:   13
          10       1:   10    8:   20   14:   25
          11       1:   10    8:   20   26:   38
          12      11:   20    8:   20   39:   50
Setting up quadratic distribution...
ExtMesh (bp) on 0 =   150 x   153 x   149 =     3419550
PhiOnMesh: Number of (b)points on node 0 =                 1690
PhiOnMesh: nlist on node 0 =               606690

stepf: Fermi-Dirac step function

siesta: Program's energy decomposition (eV):
siesta: Ebs     =      -230.527579
siesta: Eions   =       380.620085
siesta: Ena     =       123.381002
siesta: Ekin    =       134.610008
siesta: Enl     =        39.660368
siesta: Eso     =         0.000000
siesta: Edftu   =         0.000000
siesta: DEna    =        14.968236
siesta: DUscf   =        14.344181
siesta: DUext   =         0.000000
siesta: Exc     =      -144.934856
siesta: eta*DQ  =         0.000000
siesta: Emadel  =         0.000000
siesta: Emeta   =         0.000000
siesta: Emolmec =        -5.083946
siesta: Ekinion =         0.000000
siesta: Eharris =      -177.719544
siesta: Etot    =      -203.675092
siesta: FreeEng =      -203.675363

        iscf     Eharris(eV)        E_KS(eV)     FreeEng(eV)     dDmax    Ef(eV) dHmax(eV)
   scf:    1     -177.719544     -203.675092     -203.675363  1.664706-10.235414 13.863897
timer: Routine,Calls,Time,% = IterSCF        1       6.679  52.44
   scf:    2      -54.939586     -169.917060     -169.942958  1.180167-11.066755 28.873111
   scf:    3     -203.716642     -211.181970     -211.224973  0.943500-10.756746  3.277705
   scf:    4     -123.162041     -184.706602     -184.756813  1.143846-10.916311 24.188652
   scf:    5     -171.908865     -206.052439     -206.052552  1.335600-10.334703 11.533228
   scf:    6     -209.137513     -207.652100     -207.652575  0.056073-10.413201  9.686529
   scf:    7     -199.067533     -209.575322     -209.610143  0.599872-10.754833  6.495686
   scf:    8     -210.760141     -210.200241     -210.235110  0.043267-10.761187  5.322974
   scf:    9     -201.025103     -209.471800     -209.488545  0.560155-10.617167  7.070646
   scf:   10     -197.201042     -208.550118     -208.565269  0.589058-10.827543  7.299994
   scf:   11     -207.846832     -208.203651     -208.214586  0.012520-10.838397  7.522871
   scf:   12     -206.371956     -211.156361     -211.202316  0.415870-10.732437  3.945109
   scf:   13     -209.774608     -211.588440     -211.639674  0.274487-10.783300  2.671717
   scf:   14     -211.664187     -211.632005     -211.683133  0.022131-10.771254  2.378761
   scf:   15     -212.062211     -211.967600     -212.022205  0.097636-10.788864  0.463451
   scf:   16     -211.872629     -211.953305     -212.008011  0.039582-10.799744  0.511591
   scf:   17     -211.967998     -211.978259     -212.032808  0.027957-10.794384  0.168199
   scf:   18     -211.979833     -211.979172     -212.033670  0.003233-10.796382  0.125025
   scf:   19     -211.980091     -211.980179     -212.034479  0.005218-10.799785  0.019620
   scf:   20     -211.980174     -211.980189     -212.034504  0.000857-10.799233  0.003382
   scf:   21     -211.980246     -211.980217     -212.034505  0.000289-10.799275  0.001194
   scf:   22     -211.980215     -211.980218     -212.034501  0.000413-10.799457  0.008243
   scf:   23     -211.980224     -211.980221     -212.034502  0.000040-10.799493  0.007464
   scf:   24     -211.980216     -211.980219     -212.034502  0.000032-10.799414  0.007282
   scf:   25     -211.980227     -211.980223     -212.034504  0.000168-10.799542  0.003397
   scf:   26     -211.980226     -211.980224     -212.034505  0.000029-10.799537  0.002842
   scf:   27     -211.980247     -211.980235     -212.034505  0.000051-10.799530  0.001701
   scf:   28     -211.980256     -211.980246     -212.034504  0.000143-10.799614  0.002554
   scf:   29     -211.980246     -211.980246     -212.034505  0.000107-10.799541  0.000279

SCF Convergence by FreeE+DM+H criterion
|FreeE_i-FreeE_(i-1)| (eV) <     0.00100000
max |DM_out - DM_in|         :     0.0001065257
max |H_out - H_in|      (eV) :     0.0002787250
SCF cycle converged after 29 iterations

Using DM_out to compute the final energy and forces
No. of atoms with KB's overlaping orbs in proc 0. Max # of overlaps:     306     696

MM-Stress (kbar):        7.94        7.94       27.16       -0.00       -0.00       -0.00

siesta: E_KS(eV) =             -211.9802

siesta: E_KS - E_eggbox =      -211.9802

siesta: Atomic forces (eV/Ang):
     1   -0.000000   -0.000000    0.000020
     2   -0.127081    0.000001   -0.387301
     3    0.127083   -0.000001    0.387297
     4    0.063542   -0.110055   -0.387301
     5   -0.063542    0.110056    0.387297
     6    0.063503    0.109991   -0.387377
     7   -0.063504   -0.109992    0.387374
     8    0.127081   -0.000001   -0.387301
     9   -0.127083    0.000001    0.387297
    10   -0.063542    0.110055   -0.387301
    11    0.063542   -0.110056    0.387297
    12   -0.063503   -0.109991   -0.387377
    13    0.063504    0.109992    0.387374
----------------------------------------
   Tot   -0.000000   -0.000000    0.000000
----------------------------------------
   Max    0.387377
   Res    0.226114    sqrt( Sum f_i^2 / 3N )
----------------------------------------
   Max    0.387377    constrained

Stress tensor Voigt[x,y,z,yz,xz,xy] (kbar):     -949.78     -949.79      262.57        0.00       -0.00       -0.01
(Free)E + p*V (eV/cell)     -161.4595
Target enthalpy (eV/cell)     -212.0345

siesta: Eigenvalues (eV):
  ik is       eps
   1  1  -19.7347  -14.1217  -12.6588  -11.7462  -11.4444  -11.2030  -10.8585  -10.8295  -10.4879  -10.4878
          -9.5594   -6.6158   -3.8610   -3.8610   -3.5363   -3.5363   -3.1733   -3.1733   -3.0737   -3.0737
   -1.6575   -1.6575   -0.1487   -0.1486    0.4684    0.4684    0.7186    0.7187    5.2852   11.6630
   11.6631   17.4417   17.4418   18.3264   18.3264   18.8774   18.8774   21.7319   21.7320   24.7241
   24.7241   25.3298   25.4606   26.0350   26.0354   31.4411   31.4411   37.4870   38.5737   38.5738
   42.7308   42.7308   49.1845   49.2139   49.4207   49.5735   62.3301
   2  1  -19.5026  -13.9356  -12.8708  -11.9691  -11.6589  -11.1886  -11.0966  -10.8467  -10.8075  -10.1504
          -8.5148   -7.6873   -7.0317   -5.5196   -5.0525   -4.8329   -3.3982   -3.1075   -2.3501   -0.7412
   -0.4308    0.0599    0.2849    0.9344    2.0114    2.1823    2.3524    2.7236    2.8138    4.0120
    9.7949   10.1505   12.0473   12.0738   14.6396   14.7466   14.9854   15.2413   15.6467   17.4555
   19.6390   19.9376   20.2004   20.3949   21.8555   24.8776   25.6350   25.6987   26.1359   28.4045
   35.9384   53.6190   53.6978   54.2366   54.5704   55.1557   56.2186
   3  1  -19.5026  -13.9356  -12.8708  -11.9691  -11.6589  -11.1886  -11.0966  -10.8467  -10.8075  -10.1504
          -8.5148   -7.6873   -7.0317   -5.5196   -5.0525   -4.8329   -3.3982   -3.1075   -2.3501   -0.7412
   -0.4308    0.0599    0.2849    0.9344    2.0114    2.1823    2.3524    2.7236    2.8138    4.0120
    9.7949   10.1505   12.0473   12.0738   14.6396   14.7466   14.9854   15.2413   15.6467   17.4555
   19.6390   19.9376   20.2004   20.3949   21.8555   24.8776   25.6350   25.6987   26.1359   28.4045
   35.9384   53.6190   53.6978   54.2366   54.5704   55.1557   56.2186
   4  1  -19.5026  -13.9356  -12.8708  -11.9691  -11.6589  -11.1886  -11.0966  -10.8467  -10.8075  -10.1504
          -8.5149   -7.6873   -7.0316   -5.5196   -5.0525   -4.8329   -3.3982   -3.1075   -2.3502   -0.7412
   -0.4308    0.0599    0.2849    0.9344    2.0114    2.1823    2.3524    2.7236    2.8138    4.0120
    9.7948   10.1507   12.0473   12.0738   14.6396   14.7466   14.9853   15.2413   15.6467   17.4556
   19.6390   19.9376   20.2006   20.3949   21.8553   24.8776   25.6349   25.6986   26.1359   28.4043
   35.9384   53.6190   53.6977   54.2367   54.5704   55.1558   56.2188
   5  1  -19.7482  -14.0852  -12.3189  -11.9935  -11.4276  -11.1239  -10.8457  -10.8247  -10.4878  -10.4877
          -9.0703   -6.8298   -3.7732   -3.7732   -3.6584   -3.6583   -3.4030   -3.4029   -2.6491   -2.6491
   -1.2018   -1.2018   -0.8314   -0.8314   -0.6092   -0.6092    1.6208    1.6209    6.0758   14.2014
   14.2016   15.3414   15.3414   18.3935   18.3935   20.5041   20.5041   21.5990   21.5990   22.1071
   22.1071   25.3998   25.3999   27.0341   27.0344   30.6876   30.6876   38.8084   38.8084   41.7893
   42.2034   42.2035   42.4066   48.7260   48.8281   49.0676   49.0817
   6  1  -19.5029  -13.9371  -12.8528  -12.0478  -11.6224  -11.2599  -11.0841  -10.8153  -10.7574  -10.2814
          -8.9111   -7.0299   -6.3885   -6.1101   -5.2699   -4.1977   -4.0433   -2.1805   -2.1009   -2.0266
   -0.4339   -0.0110    0.3926    0.7151    2.0529    2.2492    2.3869    2.5122    3.4506    3.5501
   11.3356   11.6377   11.8485   12.4251   14.2231   15.0153   15.2102   15.2251   15.2944   15.3379
   17.1994   17.7486   18.7540   20.4676   24.6809   24.7485   25.0480   25.9974   26.2766   28.0168
   35.6126   53.8260   53.8324   53.9060   53.9942   55.3545   55.4012
   7  1  -19.5029  -13.9371  -12.8528  -12.0478  -11.6224  -11.2599  -11.0841  -10.8153  -10.7574  -10.2814
          -8.9111   -7.0299   -6.3885   -6.1101   -5.2699   -4.1977   -4.0433   -2.1805   -2.1009   -2.0266
   -0.4339   -0.0110    0.3926    0.7151    2.0529    2.2492    2.3869    2.5122    3.4506    3.5501
   11.3356   11.6377   11.8485   12.4251   14.2231   15.0153   15.2102   15.2251   15.2944   15.3379
   17.1994   17.7486   18.7540   20.4676   24.6809   24.7485   25.0480   25.9974   26.2766   28.0168
   35.6126   53.8260   53.8324   53.9060   53.9942   55.3545   55.4012
   8  1  -19.5029  -13.9370  -12.8528  -12.0478  -11.6224  -11.2598  -11.0841  -10.8154  -10.7574  -10.2814
          -8.9111   -7.0299   -6.3884   -6.1101   -5.2699   -4.1977   -4.0433   -2.1805   -2.1010   -2.0266
   -0.4339   -0.0110    0.3926    0.7152    2.0529    2.2492    2.3869    2.5122    3.4506    3.5501
   11.3355   11.6379   11.8484   12.4251   14.2231   15.0154   15.2101   15.2251   15.2943   15.3379
   17.1995   17.7485   18.7540   20.4678   24.6808   24.7483   25.0480   25.9973   26.2766   28.0166
   35.6125   53.8260   53.8323   53.9060   53.9942   55.3546   55.4014
siesta: Fermi energy =     -10.799541 eV

siesta: Program's energy decomposition (eV):
siesta: Ebs     =      -205.867886
siesta: Eions   =       380.620085
siesta: Ena     =       123.381002
siesta: Ekin    =       161.542946
siesta: Enl     =        30.447522
siesta: Eso     =         0.000000
siesta: Edftu   =         0.000000
siesta: DEna    =         5.050157
siesta: DUscf   =         2.502872
siesta: DUext   =         0.000000
siesta: Exc     =      -149.200714
siesta: eta*DQ  =         0.000000
siesta: Emadel  =         0.000000
siesta: Emeta   =         0.000000
siesta: Emolmec =        -5.083946
siesta: Ekinion =         0.000000
siesta: Eharris =      -211.980246
siesta: Etot    =      -211.980246
siesta: FreeEng =      -212.034505

siesta: Final energy (eV):
siesta:  Band Struct. =    -205.867886
siesta:       Kinetic =     161.542946
siesta:       Hartree =      74.160221
siesta:       Edftu   =       0.000000
siesta:       Eso     =       0.000000
siesta:    Ext. field =       0.000000
siesta:   Exch.-corr. =    -149.200714
siesta:  Ion-electron =    -361.870468
siesta:       Ion-ion =      68.471715
siesta:       Ekinion =       0.000000
siesta:         Total =    -211.980246
siesta:         Fermi =     -10.799541

siesta: Atomic forces (eV/Ang):
siesta:      1   -0.000000   -0.000000    0.000020
siesta:      2   -0.127081    0.000001   -0.387301
siesta:      3    0.127083   -0.000001    0.387297
siesta:      4    0.063542   -0.110055   -0.387301
siesta:      5   -0.063542    0.110056    0.387297
siesta:      6    0.063503    0.109991   -0.387377
siesta:      7   -0.063504   -0.109992    0.387374
siesta:      8    0.127081   -0.000001   -0.387301
siesta:      9   -0.127083    0.000001    0.387297
siesta:     10   -0.063542    0.110055   -0.387301
siesta:     11    0.063542   -0.110056    0.387297
siesta:     12   -0.063503   -0.109991   -0.387377
siesta:     13    0.063504    0.109992    0.387374
siesta: ----------------------------------------
siesta:    Tot   -0.000000   -0.000000    0.000000

siesta: Stress tensor (static) (eV/Ang**3):
siesta:    -0.592801   -0.000006   -0.000000
siesta:    -0.000006   -0.592808   -0.000000
siesta:    -0.000000    0.000000    0.163884

siesta: Cell volume =        148.498763 Ang**3

siesta: Pressure (static):
siesta:                Solid            Molecule  Units
siesta:           0.00370930          0.00341540  Ry/Bohr**3
siesta:           0.34057518          0.31359010  eV/Ang**3
siesta:         545.66749327        502.43216142  kBar
(Free)E+ p_basis*V_orbitals  =        -179.864384
(Free)Eharris+ p_basis*V_orbitals  =        -179.864383

cite: Please see "LiC12_scf.bib" for an exhaustive BiBTeX file.
cite: Please clearly indicate Siesta version in published work: 4.1.5
cite: This calculation has made use of the following articles
cite: which are encouraged to be cited in a published work.
        Primary SIESTA paper
          DOI: www.doi.org/10.1088/0953-8984/14/11/302

>> End of run:   9-NOV-2022  10:46:33
Job completed
