Siesta Version  : 4.1.5
Architecture    : x86_64-unknown-linux-gnu--unknown
Compiler version: GNU Fortran (GCC) 11.3.0
Compiler flags  : mpif90 -g -O2 -fallow-argument-mismatch
PP flags        : -DMPI -DFC_HAVE_FLUSH -DFC_HAVE_ABORT
Libraries       :  -I/global/software/sl-7.x86_64/modules/intel/2020.4.304/mkl/include  /globall/software/sl-7.x86_64/modules/intel/2020.4.304/mkl/lib/intel64/libmkl_scalapack_lp64.a -Wl,--start-group /global/software/sl-7.x86_64/modules/intel/2020.4.304/mkl/lib/intel64/libmkl_intel_lp64.a /global/software/sl-7.x86_64/modules/intel/2020.4.304/mkl/lib/intel64/libmkl_sequential.a /global/software/sl-7.x86_64/modules/intel/2020.4.304/mkl/lib/intel64/libmkl_core.a /global/software/sl-7.x86_64/modules/intel/2020.4.304/mkl/lib/intel64/libmkl_blacs_openmpi_lp64.a -Wl,--end-group -lpthread -lm -ldl
PARALLEL version

* Running on 12 nodes in parallel
>> Start of run:   9-NOV-2022  10:56:52

                           ***********************       
                           *  WELCOME TO SIESTA  *       
                           ***********************       

reinit: Reading from standard input
reinit: Dumped input in INPUT_TMP.79499
************************** Dump of input data file ****************************
SystemName LiC12_scf
SystemLabel LiC12_scf
NumberOfAtoms   13
NumberOfSpecies 2
%block ChemicalSpeciesLabel
1  3   Li-gga
2  6   C-gga
%endblock ChemicalSpeciesLabel
PAO.BasisSize  SZP
PAO.EnergyShift  10 meV
%block PS.Lmax
C-gga   2
Li-gga  2
%endblock PS.Lmax
LatticeConstant 1.000000 Ang
%block LatticeVectors
	4.2686000000	0.0000000000	0.0000000000
	-2.1343000000	3.6967160386	0.0000000000
	0.0000000000	0.0000000000	10.3938920000
%endblock LatticeVectors
AtomicCoordinatesFormat Ang
%block AtomicCoordinatesAndAtomicSpecies
	0.00000000	0.00000000	0.00000000	2
	1.42144380	0.00000000	2.59847300	1
	2.84715620	0.00000000	7.79541900	1
	-0.71072190	1.23100644	2.59847300	1
	-1.42357810	2.46570960	7.79541900	1
	1.42357810	2.46570960	2.59847300	1
	0.71072190	1.23100644	7.79541900	1
	2.84715620	0.00000000	2.59847300	1
	1.42144380	0.00000000	7.79541900	1
	-1.42357810	2.46570960	2.59847300	1
	-0.71072190	1.23100644	7.79541900	1
	0.71072190	1.23100644	2.59847300	1
	1.42357810	2.46570960	7.79541900	1
%endblock AtomicCoordinatesAndAtomicSpecies
Kgrid_NoTRS  T
%block kgrid_MonkhorstPack
2       0       0       0.0
0       2       0       0.0
0       0       2       0.0
%endblock kgrid_MonkhorstPack
AtomCoorFormatOut Ang
BlockSize 1
#ProcessorY 12
Diag.ParallelOverK   T
Diag.DivideAndConquer F
MeshCutoff   300 Ry
SCF.FreeE.Tolerance 1E-3 eV
SCF.EDM.Tolerance   5E-3 eV
DM.Tolerance  1E-3
DM.Require.Energy.Convergence T
DM.NumberPulay 4
XC.Functional GGA
XC.Authors    PBE
UseSaveData        F
MD.TypeOfRun       CG
MD.VariableCell    F
MD.NumCGsteps      00
MD.MaxCGDispl      0.200000 Bohr
MD.MaxStressTol    1.000000 GPa
MD.MaxForceTol     0.010000 eV/Ang
WriteMDHistory T
WriteCoorStep T
WriteForces T
WriteCoorStep    T
WriteEigenValues T
WriteDM    F
MM.UnitsDistance Ang  # what this program prints out DO NOT CHANGE
MM.UnitsEnergy    eV  # what this program prints out DO NOT CHANGE
MM.Grimme.S6     0.75 # Grimme-paper for PBE (correct for your functional)
MM.Grimme.D     20.   # Grimme-paper (correct for your functional)
%block MM.Potentials
  1   1 Grimme     16.69      1.650 # Li, 10.1002/jcc.20495
  1   2 Grimme     17.40      2.277 # Li / C
  2   2 Grimme     18.14      2.904 # C, 10.1002/jcc.20495
%endblock MM.Potentials
#%block ProjectedDensityOfStates
# -200.0  120.0  0.4  12800  eV
#%endblock ProjectedDensityOfStates
************************** End of input data file *****************************

reinit: -----------------------------------------------------------------------
reinit: System Name: LiC12_scf
reinit: -----------------------------------------------------------------------
reinit: System Label: LiC12_scf
reinit: -----------------------------------------------------------------------
Reading two-body potentials
Grimme - two-body potential between 1 and 1
Grimme - two-body potential between 1 and 2
Grimme - two-body potential between 2 and 2

initatom: Reading input for the pseudopotentials and atomic orbitals ----------
Species number:   1 Atomic number:    3 Label: Li-gga
Species number:   2 Atomic number:    6 Label: C-gga

Ground state valence configuration:   2s01
Reading pseudopotential information in formatted form from Li-gga.psf

Valence configuration for pseudopotential generation:
2s( 1.00) rc: 2.28
2p( 0.00) rc: 2.28
3d( 0.00) rc: 2.59
4f( 0.00) rc: 2.59
Ground state valence configuration:   2s02  2p02
Reading pseudopotential information in formatted form from C-gga.psf

Valence configuration for pseudopotential generation:
2s( 2.00) rc: 1.56
2p( 2.00) rc: 1.56
3d( 0.00) rc: 1.56
4f( 0.00) rc: 1.56
relmxkb: Read Max KB Ang. Momentum=    2 for species C-gga
relmxkb: Read Max KB Ang. Momentum=    2 for species Li-gga

<basis_specs>
===============================================================================
Li-gga               Z=   3    Mass=  6.9400        Charge= 0.17977+309
Lmxo=0 Lmxkb= 2    BasisType=split      Semic=F
L=0  Nsemic=0  Cnfigmx=2
          i=1  nzeta=1  polorb=1  (2s)
            splnorm:   0.15000    
               vcte:    0.0000    
               rinn:    0.0000    
               qcoe:    0.0000    
               qyuk:    0.0000    
               qwid:   0.10000E-01
                rcs:    0.0000    
            lambdas:    1.0000    
-------------------------------------------------------------------------------
L=0  Nkbl=1  erefs: 0.17977+309
L=1  Nkbl=1  erefs: 0.17977+309
L=2  Nkbl=1  erefs: 0.17977+309
===============================================================================
</basis_specs>

atom: Called for Li-gga                (Z =   3)

read_vps: Pseudopotential generation method:
read_vps: ATM 3.2.2 Troullier-Martins                       
Valence charge for ps generation:    1.00000

read_vps: Pseudopotential includes a core correction:
read_vps: Pseudo-core for xc-correction

xc_check: Exchange-correlation functional:
xc_check: GGA Perdew, Burke & Ernzerhof 1996
V l=0 = -2*Zval/r beyond r=  2.2278
V l=1 = -2*Zval/r beyond r=  2.2278
V l=2 = -2*Zval/r beyond r=  2.5245
All V_l potentials equal beyond r=  2.4622
This should be close to max(r_c) in ps generation
All pots = -2*Zval/r beyond r=  2.5245

VLOCAL1: 99.0% of the norm of Vloc inside      7.160 Ry
VLOCAL1: 99.9% of the norm of Vloc inside     16.318 Ry
atom: Maximum radius for 4*pi*r*r*local-pseudopot. charge    2.86079
atom: Maximum radius for r*vlocal+2*Zval:    2.43160
GHOST: No ghost state for L =  0
GHOST: No ghost state for L =  1
GHOST: No ghost state for L =  2

KBgen: Kleinman-Bylander projectors: 
   l= 0   rc=  2.654023   el= -0.211234   Ekb=  1.742119   kbcos=  0.228463
   l= 1   rc=  2.721230   el= -0.080095   Ekb= -1.122375   kbcos= -0.147941
   l= 2   rc=  2.825246   el=  0.002001   Ekb= -0.207076   kbcos= -0.031965

KBgen: Total number of Kleinman-Bylander projectors:    9
atom: -------------------------------------------------------------------------

atom: SANKEY-TYPE ORBITALS:

SPLIT: Orbitals with angular momentum L= 0

SPLIT: Basis orbitals for state 2s

SPLIT: PAO cut-off radius determined from an
SPLIT: energy shift=  0.000735 Ry

   izeta = 1
                 lambda =    1.000000
                     rc =   11.897381
                 energy =   -0.210580
                kinetic =    0.143382
    potential(screened) =   -0.353962
       potential(ionic) =   -0.533453

POLgen: Perturbative polarization orbital with L=  1

POLgen: Polarization orbital for state 2s

   izeta = 1
                     rc =   11.897381
                 energy =   -0.027011
                kinetic =    0.282985
    potential(screened) =   -0.309997
       potential(ionic) =   -0.490997
atom: Total number of Sankey-type orbitals:  4

atm_pop: Valence configuration (for local Pseudopot. screening):
 2s( 1.00)                                                            
Vna: chval, zval:    1.00000   1.00000

Vna:  Cut-off radius for the neutral-atom potential:  11.897381
comcore: Pseudo-core radius Rcore=  3.450946

atom: _________________________________________________________________________

<basis_specs>
===============================================================================
C-gga                Z=   6    Mass=  12.010        Charge= 0.17977+309
Lmxo=1 Lmxkb= 2    BasisType=split      Semic=F
L=0  Nsemic=0  Cnfigmx=2
          i=1  nzeta=1  polorb=0  (2s)
            splnorm:   0.15000    
               vcte:    0.0000    
               rinn:    0.0000    
               qcoe:    0.0000    
               qyuk:    0.0000    
               qwid:   0.10000E-01
                rcs:    0.0000    
            lambdas:    1.0000    
L=1  Nsemic=0  Cnfigmx=2
          i=1  nzeta=1  polorb=1  (2p)
            splnorm:   0.15000    
               vcte:    0.0000    
               rinn:    0.0000    
               qcoe:    0.0000    
               qyuk:    0.0000    
               qwid:   0.10000E-01
                rcs:    0.0000    
            lambdas:    1.0000    
-------------------------------------------------------------------------------
L=0  Nkbl=1  erefs: 0.17977+309
L=1  Nkbl=1  erefs: 0.17977+309
L=2  Nkbl=1  erefs: 0.17977+309
===============================================================================
</basis_specs>

atom: Called for C-gga                 (Z =   6)

read_vps: Pseudopotential generation method:
read_vps: ATM 3.2.2 Troullier-Martins                       
Valence charge for ps generation:    4.00000

xc_check: Exchange-correlation functional:
xc_check: GGA Perdew, Burke & Ernzerhof 1996
V l=0 = -2*Zval/r beyond r=  1.5227
V l=1 = -2*Zval/r beyond r=  1.5227
V l=2 = -2*Zval/r beyond r=  1.5227
All V_l potentials equal beyond r=  1.4851
This should be close to max(r_c) in ps generation
All pots = -2*Zval/r beyond r=  1.5227

VLOCAL1: 99.0% of the norm of Vloc inside     19.682 Ry
VLOCAL1: 99.9% of the norm of Vloc inside     44.856 Ry
atom: Maximum radius for 4*pi*r*r*local-pseudopot. charge    1.79142
atom: Maximum radius for r*vlocal+2*Zval:    1.54183
GHOST: No ghost state for L =  0
GHOST: No ghost state for L =  1
GHOST: No ghost state for L =  2

KBgen: Kleinman-Bylander projectors: 
   l= 0   rc=  1.661951   el= -1.010689   Ekb=  5.289847   kbcos=  0.316429
   l= 1   rc=  1.661951   el= -0.388490   Ekb= -4.102504   kbcos= -0.351025
   l= 2   rc=  1.747182   el=  0.001971   Ekb= -1.006005   kbcos= -0.008530

KBgen: Total number of Kleinman-Bylander projectors:    9
atom: -------------------------------------------------------------------------

atom: SANKEY-TYPE ORBITALS:

SPLIT: Orbitals with angular momentum L= 0

SPLIT: Basis orbitals for state 2s

SPLIT: PAO cut-off radius determined from an
SPLIT: energy shift=  0.000735 Ry

   izeta = 1
                 lambda =    1.000000
                     rc =    5.948690
                 energy =   -1.010099
                kinetic =    0.827121
    potential(screened) =   -1.837220
       potential(ionic) =   -5.392783

SPLIT: Orbitals with angular momentum L= 1

SPLIT: Basis orbitals for state 2p

SPLIT: PAO cut-off radius determined from an
SPLIT: energy shift=  0.000735 Ry

   izeta = 1
                 lambda =    1.000000
                     rc =    7.638387
                 energy =   -0.387843
                kinetic =    2.314739
    potential(screened) =   -2.702582
       potential(ionic) =   -6.092371

POLgen: Perturbative polarization orbital with L=  2

POLgen: Polarization orbital for state 2p

   izeta = 1
                     rc =    7.638387
                 energy =    0.921402
                kinetic =    1.955040
    potential(screened) =   -1.033637
       potential(ionic) =   -3.679558
atom: Total number of Sankey-type orbitals:  9

atm_pop: Valence configuration (for local Pseudopot. screening):
 2s( 2.00)                                                            
 2p( 2.00)                                                            
Vna: chval, zval:    4.00000   4.00000

Vna:  Cut-off radius for the neutral-atom potential:   7.638387

atom: _________________________________________________________________________

prinput: Basis input ----------------------------------------------------------

PAO.BasisType split     

%block ChemicalSpeciesLabel
    1    3 Li-gga                  # Species index, atomic number, species label
    2    6 C-gga                   # Species index, atomic number, species label
%endblock ChemicalSpeciesLabel

%block PAO.Basis                 # Define Basis set
Li-gga                1                    # Species label, number of l-shells
 n=2   0   1 P   1                   # n, l, Nzeta, Polarization, NzetaPol
  11.897   
   1.000   
C-gga                 2                    # Species label, number of l-shells
 n=2   0   1                         # n, l, Nzeta 
   5.949   
   1.000   
 n=2   1   1 P   1                   # n, l, Nzeta, Polarization, NzetaPol
   7.638   
   1.000   
%endblock PAO.Basis

prinput: ----------------------------------------------------------------------

coor:   Atomic-coordinates input format  =     Cartesian coordinates
coor:                                          (in Angstroms)

siesta: Atomic coordinates (Bohr) and species
siesta:      0.00000   0.00000   0.00000  2        1
siesta:      2.68614   0.00000   4.91040  1        2
siesta:      5.38035   0.00000  14.73121  1        3
siesta:     -1.34307   2.32627   4.91040  1        4
siesta:     -2.69017   4.65952  14.73121  1        5
siesta:      2.69017   4.65952   4.91040  1        6
siesta:      1.34307   2.32627  14.73121  1        7
siesta:      5.38035   0.00000   4.91040  1        8
siesta:      2.68614   0.00000  14.73121  1        9
siesta:     -2.69017   4.65952   4.91040  1       10
siesta:     -1.34307   2.32627  14.73121  1       11
siesta:      1.34307   2.32627   4.91040  1       12
siesta:      2.69017   4.65952  14.73121  1       13

siesta: System type = bulk      

initatomlists: Number of atoms, orbitals, and projectors:     13    57   117

siesta: ******************** Simulation parameters ****************************
siesta:
siesta: The following are some of the parameters of the simulation.
siesta: A complete list of the parameters used, including default values,
siesta: can be found in file out.fdf
siesta:
redata: Spin configuration                          = none
redata: Number of spin components                   = 1
redata: Time-Reversal Symmetry                      = T
redata: Spin spiral                                 = F
redata: Long output                                 =   F
redata: Number of Atomic Species                    =        2
redata: Charge density info will appear in .RHO file
redata: Write Mulliken Pop.                         = NO
redata: Matel table size (NRTAB)                    =     1024
redata: Mesh Cutoff                                 =   300.0000 Ry
redata: Net charge of the system                    =     0.0000 |e|
redata: Min. number of SCF Iter                     =        0
redata: Max. number of SCF Iter                     =     1000
redata: SCF convergence failure will abort job
redata: SCF mix quantity                            = Hamiltonian
redata: Mix DM or H after convergence               =   F
redata: Recompute H after scf cycle                 =   F
redata: Mix DM in first SCF step                    =   T
redata: Write Pulay info on disk                    =   F
redata: New DM Occupancy tolerance                  = 0.000000000001
redata: No kicks to SCF
redata: DM Mixing Weight for Kicks                  =     0.5000
redata: Require Harris convergence for SCF          =   F
redata: Harris energy tolerance for SCF             =     0.000100 eV
redata: Require DM convergence for SCF              =   T
redata: DM tolerance for SCF                        =     0.001000
redata: Require EDM convergence for SCF             =   F
redata: EDM tolerance for SCF                       =     0.005000 eV
redata: Require H convergence for SCF               =   T
redata: Hamiltonian tolerance for SCF               =     0.001000 eV
redata: Require (free) Energy convergence for SCF   =   T
redata: (free) Energy tolerance for SCF             =     0.001000 eV
redata: Using Saved Data (generic)                  =   F
redata: Use continuation files for DM               =   F
redata: Neglect nonoverlap interactions             =   F
redata: Method of Calculation                       = Diagonalization
redata: Electronic Temperature                      =   299.9869 K
redata: Fix the spin of the system                  =   F
redata: Dynamics option                             = Single-point calculation
mix.SCF: Pulay mixing                            = Pulay
mix.SCF:    Variant                              = stable
mix.SCF:    History steps                        = 4
mix.SCF:    Linear mixing weight                 =     0.250000
mix.SCF:    Mixing weight                        =     0.250000
mix.SCF:    SVD condition                        = 0.1000E-07
redata: ***********************************************************************

%block SCF.Mixers
  Pulay
%endblock SCF.Mixers

%block SCF.Mixer.Pulay
  # Mixing method
  method pulay
  variant stable

  # Mixing options
  weight 0.2500
  weight.linear 0.2500
  history 4
%endblock SCF.Mixer.Pulay

DM_history_depth set to one: no extrapolation allowed by default for geometry relaxation
Size of DM history Fstack: 1
Total number of electrons:    16.000000
Total ionic charge:    16.000000

* ProcessorY, Blocksize:    3   1


* Orbital distribution balance (max,min):     5     4

k-point displ. along   1 input, could be:     0.00    0.50
k-point displ. along   2 input, could be:     0.00    0.50
k-point displ. along   3 input, could be:     0.00    0.50
 Kpoints in:            8 . Kpoints trimmed:            8

siesta: k-grid: Number of k-points =     8
siesta: k-grid: Cutoff (effective) =     4.269 Ang
siesta: k-grid: Supercell and displacements
siesta: k-grid:    2   0   0      0.000
siesta: k-grid:    0   2   0      0.000
siesta: k-grid:    0   0   2      0.000

diag: Algorithm                                     = Expert
diag: Parallel over k                               =   T
diag: Use parallel 2D distribution                  =   T
diag: Parallel block-size                           = 1
diag: Parallel distribution                         =     3 x     4
diag: Used triangular part                          = Lower
diag: Absolute tolerance                            =  0.100E-15
diag: Orthogonalization factor                      =  0.100E-05
diag: Memory factor                                 =  1.0000

superc: Internal auxiliary supercell:     9 x     9 x     3  =     243
superc: Number of atoms, orbitals, and projectors:   3159  13851  28431


ts: **************************************************************
ts: Save H and S matrices                           =    F
ts: Save DM and EDM matrices                        =    F
ts: Only save the overlap matrix S                  =    F
ts: **************************************************************

************************ Begin: TS CHECKS AND WARNINGS ************************
************************ End: TS CHECKS AND WARNINGS **************************


                     ====================================
                        Single-point calculation
                     ====================================

outcoor: Atomic coordinates (Ang):                          
    0.00000000    0.00000000    0.00000000   2       1  C-gga
    1.42144380    0.00000000    2.59847300   1       2  Li-gga
    2.84715620    0.00000000    7.79541900   1       3  Li-gga
   -0.71072190    1.23100644    2.59847300   1       4  Li-gga
   -1.42357810    2.46570960    7.79541900   1       5  Li-gga
    1.42357810    2.46570960    2.59847300   1       6  Li-gga
    0.71072190    1.23100644    7.79541900   1       7  Li-gga
    2.84715620    0.00000000    2.59847300   1       8  Li-gga
    1.42144380    0.00000000    7.79541900   1       9  Li-gga
   -1.42357810    2.46570960    2.59847300   1      10  Li-gga
   -0.71072190    1.23100644    7.79541900   1      11  Li-gga
    0.71072190    1.23100644    2.59847300   1      12  Li-gga
    1.42357810    2.46570960    7.79541900   1      13  Li-gga

superc: Internal auxiliary supercell:     9 x     9 x     3  =     243
superc: Number of atoms, orbitals, and projectors:   3159  13851  28431

outcell: Unit cell vectors (Ang):
        4.268600    0.000000    0.000000
       -2.134300    3.696716    0.000000
        0.000000    0.000000   10.393892

outcell: Cell vector modules (Ang)   :    4.268600    4.268600   10.393892
outcell: Cell angles (23,13,12) (deg):     90.0000     90.0000    120.0000
outcell: Cell volume (Ang**3)        :    164.0136
<dSpData1D:S at geom step 0
  <sparsity:sparsity for geom step 0
    nrows_g=57 nrows=5 sparsity=5.8704 nnzs=19073, refcount: 7>
  <dData1D:(new from dSpData1D) n=19073, refcount: 1>
refcount: 1>
new_DM -- step:     1
Initializing Density Matrix...
DM filled with atomic data:
<dSpData2D:DM initialized from atoms
  <sparsity:sparsity for geom step 0
    nrows_g=57 nrows=5 sparsity=5.8704 nnzs=19073, refcount: 8>
  <dData2D:DM n=19073 m=1, refcount: 1>
refcount: 1>
No. of atoms with KB's overlaping orbs in proc 0. Max # of overlaps:     284     648
New grid distribution:   1
           1       1:   20    1:    7    1:   15
           2       1:   20    1:    7   16:   30
           3       1:   20    1:    7   31:   45
           4       1:   20    1:    7   46:   60
           5       1:   20    8:   14    1:   15
           6       1:   20    8:   14   16:   30
           7       1:   20    8:   14   31:   45
           8       1:   20    8:   14   46:   60
           9       1:   20   15:   20    1:   15
          10       1:   20   15:   20   16:   30
          11       1:   20   15:   20   31:   45
          12       1:   20   15:   20   46:   60

InitMesh: MESH =    40 x    40 x   120 =      192000
InitMesh: (bp) =    20 x    20 x    60 =       24000
InitMesh: Mesh cutoff (required, used) =   300.000   323.586 Ry
ExtMesh (bp) on 0 =   160 x   147 x   163 =     3833760
New grid distribution:   2
           1       1:   10    8:   20   31:   46
           2       1:   20    1:    7   15:   30
           3       1:   10    8:   20    1:   14
           4       1:   20    1:    7   47:   60
           5       1:   20    1:    7   31:   46
           6      11:   20    8:   20   15:   30
           7       1:   20    1:    7    1:   14
           8      11:   20    8:   20   47:   60
           9      11:   20    8:   20    1:   14
          10       1:   10    8:   20   15:   30
          11      11:   20    8:   20   31:   46
          12       1:   10    8:   20   47:   60
New grid distribution:   3
           1       1:   20    1:    7    1:   15
           2       1:   10    8:   20   16:   30
           3       1:   20    1:    7   31:   45
           4      11:   20    8:   20    1:   15
           5       1:   20    1:    7   16:   30
           6       1:   10    8:   20    1:   15
           7      11:   20    8:   20   31:   45
           8      11:   20    8:   20   46:   60
           9       1:   20    1:    7   46:   60
          10      11:   20    8:   20   16:   30
          11       1:   10    8:   20   31:   45
          12       1:   10    8:   20   46:   60
Setting up quadratic distribution...
ExtMesh (bp) on 0 =   150 x   153 x   164 =     3763800
PhiOnMesh: Number of (b)points on node 0 =                 2080
PhiOnMesh: nlist on node 0 =               672912

stepf: Fermi-Dirac step function

siesta: Program's energy decomposition (eV):
siesta: Ebs     =      -219.829496
siesta: Eions   =       380.620085
siesta: Ena     =       125.883538
siesta: Ekin    =       129.291946
siesta: Enl     =        42.946386
siesta: Eso     =         0.000000
siesta: Edftu   =         0.000000
siesta: DEna    =        13.016926
siesta: DUscf   =        19.209691
siesta: DUext   =         0.000000
siesta: Exc     =      -143.191989
siesta: eta*DQ  =         0.000000
siesta: Emadel  =         0.000000
siesta: Emeta   =         0.000000
siesta: Emolmec =        -4.868533
siesta: Ekinion =         0.000000
siesta: Eharris =      -166.640060
siesta: Etot    =      -198.332120
siesta: FreeEng =      -198.351380

        iscf     Eharris(eV)        E_KS(eV)     FreeEng(eV)     dDmax    Ef(eV) dHmax(eV)
   scf:    1     -166.640060     -198.332120     -198.351380  1.640160 -9.556510 16.973082
timer: Routine,Calls,Time,% = IterSCF        1       6.282  49.86
   scf:    2       17.406203     -148.463963     -148.482296  1.408187-10.904201 36.338211
   scf:    3     -191.296235     -208.359571     -208.361053  1.156935 -9.987271  5.927547
   scf:    4      -67.983812     -167.359042     -167.406477  1.337927-10.588285 31.225471
   scf:    5     -200.221028     -209.380708     -209.393023  1.263197-10.227455  3.363912
   scf:    6     -103.998293     -177.165736     -177.212505  1.109768-10.452952 26.906536
   scf:    7     -210.174760     -209.930458     -209.964232  0.979748-10.235804  0.341587
   scf:    8     -209.389824     -209.736273     -209.763871  0.071194-10.205205  2.116434
   scf:    9     -209.748963     -209.919489     -209.959115  0.117967-10.219806  0.561470
   scf:   10     -209.950899     -209.942397     -209.979891  0.025587-10.228106  0.091620
   scf:   11     -209.943630     -209.943101     -209.980386  0.002065-10.235818  0.066730
   scf:   12     -209.943597     -209.943373     -209.980534  0.000920-10.236885  0.037159
   scf:   13     -209.943637     -209.943527     -209.980607  0.003315-10.238279  0.004283
   scf:   14     -209.943482     -209.943505     -209.980608  0.000286-10.238727  0.001498
   scf:   15     -209.943510     -209.943508     -209.980608  0.000053-10.238805  0.001238
   scf:   16     -209.943503     -209.943505     -209.980608  0.000047-10.238825  0.001798
   scf:   17     -209.943519     -209.943512     -209.980608  0.000075-10.238796  0.000892

SCF Convergence by FreeE+DM+H criterion
|FreeE_i-FreeE_(i-1)| (eV) <     0.00100000
max |DM_out - DM_in|         :     0.0000753317
max |H_out - H_in|      (eV) :     0.0008919441
SCF cycle converged after 17 iterations

Using DM_out to compute the final energy and forces
No. of atoms with KB's overlaping orbs in proc 0. Max # of overlaps:     284     648

MM-Stress (kbar):        4.91        4.91       17.70       -0.00        0.00        0.00

siesta: E_KS(eV) =             -209.9435

siesta: E_KS - E_eggbox =      -209.9435

siesta: Atomic forces (eV/Ang):
     1   -0.000000   -0.000000    0.000011
     2   -0.120808   -0.000011   -0.294911
     3    0.120813    0.000011    0.294910
     4    0.060394   -0.104628   -0.294911
     5   -0.060397    0.104633    0.294909
     6    0.060372    0.104567   -0.294972
     7   -0.060374   -0.104571    0.294970
     8    0.120808    0.000011   -0.294911
     9   -0.120813   -0.000011    0.294910
    10   -0.060394    0.104628   -0.294911
    11    0.060397   -0.104633    0.294909
    12   -0.060372   -0.104567   -0.294972
    13    0.060374    0.104571    0.294970
----------------------------------------
   Tot    0.000000   -0.000000   -0.000000
----------------------------------------
   Max    0.294972
   Res    0.176787    sqrt( Sum f_i^2 / 3N )
----------------------------------------
   Max    0.294972    constrained

Stress tensor Voigt[x,y,z,yz,xz,xy] (kbar):     -867.81     -867.82      174.26        0.00       -0.00       -0.01
(Free)E + p*V (eV/cell)     -156.7027
Target enthalpy (eV/cell)     -209.9806

siesta: Eigenvalues (eV):
  ik is       eps
   1  1  -19.1172  -13.3731  -11.9960  -11.3606  -11.1074  -10.6595  -10.5549  -10.1874   -9.9396   -9.9395
          -9.5633   -7.1990   -3.2931   -3.2931   -3.1011   -3.1011   -2.8582   -2.8581   -2.7023   -2.7023
   -0.7073   -0.7073   -0.4537   -0.4537   -0.2450   -0.2450    1.0682    1.0683    5.4092   11.3966
   11.3967   16.3593   16.3593   17.9524   17.9524   20.2061   20.2061   21.0274   21.0274   23.8293
   23.8293   24.1346   24.1348   25.6576   26.0732   28.5602   28.5602   34.6501   39.2943   39.2943
   40.7162   40.7162   47.8113   48.0648   51.1761   51.5506   53.1982
   2  1  -18.8967  -13.0643  -12.0876  -11.5709  -11.2651  -10.7160  -10.6835  -10.2682  -10.2123   -9.9204
          -8.1449   -7.6087   -7.0249   -5.9408   -4.5557   -4.5174   -3.2909   -2.8232   -2.4751   -0.9824
   -0.1556    0.4775    0.5302    1.0125    2.4110    2.5276    2.5792    2.9601    3.0937    5.1893
    9.2473   10.8744   11.1383   13.1729   13.6463   14.1402   15.0221   15.1614   15.7564   17.0311
   18.4480   19.0844   19.3887   20.0354   20.6639   23.1555   25.7399   25.8746   26.5600   27.4755
   30.9220   53.9957   54.0116   54.3655   54.5723   54.6983   57.6497
   3  1  -18.8967  -13.0643  -12.0876  -11.5709  -11.2651  -10.7160  -10.6835  -10.2682  -10.2123   -9.9204
          -8.1449   -7.6087   -7.0249   -5.9408   -4.5557   -4.5174   -3.2909   -2.8232   -2.4751   -0.9824
   -0.1556    0.4775    0.5302    1.0125    2.4110    2.5276    2.5792    2.9601    3.0937    5.1893
    9.2473   10.8744   11.1383   13.1729   13.6463   14.1402   15.0221   15.1614   15.7564   17.0311
   18.4480   19.0844   19.3887   20.0354   20.6639   23.1555   25.7399   25.8746   26.5600   27.4755
   30.9220   53.9957   54.0116   54.3655   54.5723   54.6983   57.6497
   4  1  -18.8967  -13.0643  -12.0877  -11.5709  -11.2651  -10.7160  -10.6835  -10.2682  -10.2123   -9.9204
          -8.1450   -7.6087   -7.0248   -5.9408   -4.5557   -4.5174   -3.2909   -2.8232   -2.4751   -0.9824
   -0.1556    0.4775    0.5302    1.0126    2.4110    2.5276    2.5792    2.9601    3.0936    5.1893
    9.2475   10.8744   11.1383   13.1728   13.6463   14.1402   15.0220   15.1614   15.7564   17.0311
   18.4480   19.0843   19.3888   20.0355   20.6637   23.1555   25.7399   25.8745   26.5600   27.4754
   30.9220   53.9957   54.0116   54.3656   54.5723   54.6983   57.6499
   5  1  -19.1231  -13.3807  -11.8243  -11.4372  -10.9510  -10.7203  -10.3834  -10.3702   -9.9419   -9.9418
          -9.2038   -7.3581   -3.2921   -3.2921   -3.1151   -3.1151   -2.9431   -2.9431   -2.5713   -2.5713
   -0.6908   -0.6908   -0.4315   -0.4315   -0.1963   -0.1963    0.9921    0.9921    5.7402   12.2955
   12.2956   14.7852   14.7852   17.8938   17.8938   19.8799   19.8799   22.5645   22.5645   22.9121
   22.9121   25.1922   25.1923   25.7526   25.7706   27.9942   27.9942   39.1804   39.1805   40.5839
   40.5839   42.7719   43.2642   49.3962   49.5517   49.7754   49.7985
   6  1  -18.8973  -13.0498  -12.1215  -11.5500  -11.4200  -10.6902  -10.6627  -10.3656  -10.2147   -9.8733
          -8.2704   -7.1449   -6.5779   -6.3678   -4.7737   -4.0711   -3.5731   -2.3365   -2.1778   -1.8124
    0.0353    0.4234    0.7405    0.8172    2.6651    2.6995    2.7814    2.8298    3.8750    3.8838
   10.0905   10.8517   11.8895   12.3376   14.4982   14.6559   15.5055   15.5407   15.6759   15.8639
   16.0865   17.1064   18.8472   20.3081   23.1585   24.0908   24.7809   26.1894   26.3552   27.6872
   30.2919   54.5286   54.5882   54.5991   54.6681   56.1557   56.1769
   7  1  -18.8973  -13.0498  -12.1215  -11.5500  -11.4200  -10.6902  -10.6627  -10.3656  -10.2147   -9.8733
          -8.2704   -7.1449   -6.5779   -6.3678   -4.7737   -4.0711   -3.5731   -2.3365   -2.1778   -1.8124
    0.0353    0.4234    0.7405    0.8172    2.6651    2.6995    2.7814    2.8298    3.8750    3.8838
   10.0905   10.8517   11.8895   12.3376   14.4982   14.6559   15.5055   15.5407   15.6759   15.8639
   16.0865   17.1064   18.8472   20.3081   23.1585   24.0908   24.7809   26.1894   26.3552   27.6872
   30.2919   54.5287   54.5882   54.5991   54.6681   56.1557   56.1769
   8  1  -18.8973  -13.0498  -12.1215  -11.5500  -11.4200  -10.6902  -10.6627  -10.3656  -10.2147   -9.8732
          -8.2704   -7.1449   -6.5778   -6.3678   -4.7737   -4.0711   -3.5731   -2.3366   -2.1778   -1.8124
    0.0353    0.4234    0.7405    0.8172    2.6651    2.6995    2.7814    2.8298    3.8750    3.8838
   10.0907   10.8517   11.8895   12.3376   14.4982   14.6559   15.5054   15.5407   15.6758   15.8639
   16.0865   17.1064   18.8472   20.3082   23.1583   24.0908   24.7808   26.1893   26.3552   27.6871
   30.2919   54.5286   54.5882   54.5991   54.6680   56.1559   56.1771
siesta: Fermi energy =     -10.238796 eV

siesta: Program's energy decomposition (eV):
siesta: Ebs     =      -197.111019
siesta: Eions   =       380.620085
siesta: Ena     =       125.883538
siesta: Ekin    =       157.392834
siesta: Enl     =        33.374117
siesta: Eso     =         0.000000
siesta: Edftu   =         0.000000
siesta: DEna    =         3.411600
siesta: DUscf   =         3.045113
siesta: DUext   =         0.000000
siesta: Exc     =      -147.562097
siesta: eta*DQ  =         0.000000
siesta: Emadel  =         0.000000
siesta: Emeta   =         0.000000
siesta: Emolmec =        -4.868533
siesta: Ekinion =         0.000000
siesta: Eharris =      -209.943519
siesta: Etot    =      -209.943512
siesta: FreeEng =      -209.980608

siesta: Final energy (eV):
siesta:  Band Struct. =    -197.111019
siesta:       Kinetic =     157.392834
siesta:       Hartree =      80.055733
siesta:       Edftu   =       0.000000
siesta:       Eso     =       0.000000
siesta:    Ext. field =       0.000000
siesta:   Exch.-corr. =    -147.562097
siesta:  Ion-electron =    -363.027072
siesta:       Ion-ion =      68.065624
siesta:       Ekinion =       0.000000
siesta:         Total =    -209.943512
siesta:         Fermi =     -10.238796

siesta: Atomic forces (eV/Ang):
siesta:      1   -0.000000   -0.000000    0.000011
siesta:      2   -0.120808   -0.000011   -0.294911
siesta:      3    0.120813    0.000011    0.294910
siesta:      4    0.060394   -0.104628   -0.294911
siesta:      5   -0.060397    0.104633    0.294909
siesta:      6    0.060372    0.104567   -0.294972
siesta:      7   -0.060374   -0.104571    0.294970
siesta:      8    0.120808    0.000011   -0.294911
siesta:      9   -0.120813   -0.000011    0.294910
siesta:     10   -0.060394    0.104628   -0.294911
siesta:     11    0.060397   -0.104633    0.294909
siesta:     12   -0.060372   -0.104567   -0.294972
siesta:     13    0.060374    0.104571    0.294970
siesta: ----------------------------------------
siesta:    Tot    0.000000   -0.000000   -0.000000

siesta: Stress tensor (static) (eV/Ang**3):
siesta:    -0.541637   -0.000004   -0.000000
siesta:    -0.000004   -0.541642   -0.000000
siesta:    -0.000000    0.000000    0.108764

siesta: Cell volume =        164.013559 Ang**3

siesta: Pressure (static):
siesta:                Solid            Molecule  Units
siesta:           0.00353791          0.00331147  Ry/Bohr**3
siesta:           0.32483842          0.30404818  eV/Ang**3
siesta:         520.45415020        487.14416074  kBar
(Free)E+ p_basis*V_orbitals  =        -177.810487
(Free)Eharris+ p_basis*V_orbitals  =        -177.810494

cite: Please see "LiC12_scf.bib" for an exhaustive BiBTeX file.
cite: Please clearly indicate Siesta version in published work: 4.1.5
cite: This calculation has made use of the following articles
cite: which are encouraged to be cited in a published work.
        Primary SIESTA paper
          DOI: www.doi.org/10.1088/0953-8984/14/11/302

>> End of run:   9-NOV-2022  10:58:16
Job completed
