Siesta Version  : 4.1.5
Architecture    : x86_64-unknown-linux-gnu--unknown
Compiler version: GNU Fortran (GCC) 11.3.0
Compiler flags  : mpif90 -g -O2 -fallow-argument-mismatch
PP flags        : -DMPI -DFC_HAVE_FLUSH -DFC_HAVE_ABORT
Libraries       :  -I/global/software/sl-7.x86_64/modules/intel/2020.4.304/mkl/include  /globall/software/sl-7.x86_64/modules/intel/2020.4.304/mkl/lib/intel64/libmkl_scalapack_lp64.a -Wl,--start-group /global/software/sl-7.x86_64/modules/intel/2020.4.304/mkl/lib/intel64/libmkl_intel_lp64.a /global/software/sl-7.x86_64/modules/intel/2020.4.304/mkl/lib/intel64/libmkl_sequential.a /global/software/sl-7.x86_64/modules/intel/2020.4.304/mkl/lib/intel64/libmkl_core.a /global/software/sl-7.x86_64/modules/intel/2020.4.304/mkl/lib/intel64/libmkl_blacs_openmpi_lp64.a -Wl,--end-group -lpthread -lm -ldl
PARALLEL version

* Running on 12 nodes in parallel
>> Start of run:   9-NOV-2022   9:17:51

                           ***********************       
                           *  WELCOME TO SIESTA  *       
                           ***********************       

reinit: Reading from standard input
reinit: Dumped input in INPUT_TMP.38021
************************** Dump of input data file ****************************
SystemName LiC12_scf
SystemLabel LiC12_scf
NumberOfAtoms   13
NumberOfSpecies 2
%block ChemicalSpeciesLabel
1  3   Li-gga
2  6   C-gga
%endblock ChemicalSpeciesLabel
PAO.BasisSize  SZP
PAO.EnergyShift  10 meV
%block PS.Lmax
C-gga   2
Li-gga  2
%endblock PS.Lmax
LatticeConstant 1.000000 Ang
%block LatticeVectors
	4.2686000000	0.0000000000	0.0000000000
	-2.1343000000	3.6967160386	0.0000000000
	0.0000000000	0.0000000000	5.7587780000
%endblock LatticeVectors
AtomicCoordinatesFormat Ang
%block AtomicCoordinatesAndAtomicSpecies
	0.00000000	0.00000000	0.00000000	2
	1.42144380	0.00000000	1.43969450	1
	2.84715620	0.00000000	4.31908350	1
	-0.71072190	1.23100644	1.43969450	1
	-1.42357810	2.46570960	4.31908350	1
	1.42357810	2.46570960	1.43969450	1
	0.71072190	1.23100644	4.31908350	1
	2.84715620	0.00000000	1.43969450	1
	1.42144380	0.00000000	4.31908350	1
	-1.42357810	2.46570960	1.43969450	1
	-0.71072190	1.23100644	4.31908350	1
	0.71072190	1.23100644	1.43969450	1
	1.42357810	2.46570960	4.31908350	1
%endblock AtomicCoordinatesAndAtomicSpecies
Kgrid_NoTRS  T
%block kgrid_MonkhorstPack
2       0       0       0.0
0       2       0       0.0
0       0       2       0.0
%endblock kgrid_MonkhorstPack
AtomCoorFormatOut Ang
BlockSize 1
#ProcessorY 12
Diag.ParallelOverK   T
Diag.DivideAndConquer F
MeshCutoff   300 Ry
SCF.FreeE.Tolerance 1E-3 eV
SCF.EDM.Tolerance   5E-3 eV
DM.Tolerance  1E-3
DM.Require.Energy.Convergence T
DM.NumberPulay 4
XC.Functional GGA
XC.Authors    PBE
UseSaveData        F
MD.TypeOfRun       CG
MD.VariableCell    F
MD.NumCGsteps      00
MD.MaxCGDispl      0.200000 Bohr
MD.MaxStressTol    1.000000 GPa
MD.MaxForceTol     0.010000 eV/Ang
WriteMDHistory T
WriteCoorStep T
WriteForces T
WriteCoorStep    T
WriteEigenValues T
WriteDM    F
MM.UnitsDistance Ang  # what this program prints out DO NOT CHANGE
MM.UnitsEnergy    eV  # what this program prints out DO NOT CHANGE
MM.Grimme.S6     0.75 # Grimme-paper for PBE (correct for your functional)
MM.Grimme.D     20.   # Grimme-paper (correct for your functional)
%block MM.Potentials
  1   1 Grimme     16.69      1.650 # Li, 10.1002/jcc.20495
  1   2 Grimme     17.40      2.277 # Li / C
  2   2 Grimme     18.14      2.904 # C, 10.1002/jcc.20495
%endblock MM.Potentials
#%block ProjectedDensityOfStates
# -200.0  120.0  0.4  12800  eV
#%endblock ProjectedDensityOfStates
************************** End of input data file *****************************

reinit: -----------------------------------------------------------------------
reinit: System Name: LiC12_scf
reinit: -----------------------------------------------------------------------
reinit: System Label: LiC12_scf
reinit: -----------------------------------------------------------------------
Reading two-body potentials
Grimme - two-body potential between 1 and 1
Grimme - two-body potential between 1 and 2
Grimme - two-body potential between 2 and 2

initatom: Reading input for the pseudopotentials and atomic orbitals ----------
Species number:   1 Atomic number:    3 Label: Li-gga
Species number:   2 Atomic number:    6 Label: C-gga

Ground state valence configuration:   2s01
Reading pseudopotential information in formatted form from Li-gga.psf

Valence configuration for pseudopotential generation:
2s( 1.00) rc: 2.28
2p( 0.00) rc: 2.28
3d( 0.00) rc: 2.59
4f( 0.00) rc: 2.59
Ground state valence configuration:   2s02  2p02
Reading pseudopotential information in formatted form from C-gga.psf

Valence configuration for pseudopotential generation:
2s( 2.00) rc: 1.56
2p( 2.00) rc: 1.56
3d( 0.00) rc: 1.56
4f( 0.00) rc: 1.56
relmxkb: Read Max KB Ang. Momentum=    2 for species C-gga
relmxkb: Read Max KB Ang. Momentum=    2 for species Li-gga

<basis_specs>
===============================================================================
Li-gga               Z=   3    Mass=  6.9400        Charge= 0.17977+309
Lmxo=0 Lmxkb= 2    BasisType=split      Semic=F
L=0  Nsemic=0  Cnfigmx=2
          i=1  nzeta=1  polorb=1  (2s)
            splnorm:   0.15000    
               vcte:    0.0000    
               rinn:    0.0000    
               qcoe:    0.0000    
               qyuk:    0.0000    
               qwid:   0.10000E-01
                rcs:    0.0000    
            lambdas:    1.0000    
-------------------------------------------------------------------------------
L=0  Nkbl=1  erefs: 0.17977+309
L=1  Nkbl=1  erefs: 0.17977+309
L=2  Nkbl=1  erefs: 0.17977+309
===============================================================================
</basis_specs>

atom: Called for Li-gga                (Z =   3)

read_vps: Pseudopotential generation method:
read_vps: ATM 3.2.2 Troullier-Martins                       
Valence charge for ps generation:    1.00000

read_vps: Pseudopotential includes a core correction:
read_vps: Pseudo-core for xc-correction

xc_check: Exchange-correlation functional:
xc_check: GGA Perdew, Burke & Ernzerhof 1996
V l=0 = -2*Zval/r beyond r=  2.2278
V l=1 = -2*Zval/r beyond r=  2.2278
V l=2 = -2*Zval/r beyond r=  2.5245
All V_l potentials equal beyond r=  2.4622
This should be close to max(r_c) in ps generation
All pots = -2*Zval/r beyond r=  2.5245

VLOCAL1: 99.0% of the norm of Vloc inside      7.160 Ry
VLOCAL1: 99.9% of the norm of Vloc inside     16.318 Ry
atom: Maximum radius for 4*pi*r*r*local-pseudopot. charge    2.86079
atom: Maximum radius for r*vlocal+2*Zval:    2.43160
GHOST: No ghost state for L =  0
GHOST: No ghost state for L =  1
GHOST: No ghost state for L =  2

KBgen: Kleinman-Bylander projectors: 
   l= 0   rc=  2.654023   el= -0.211234   Ekb=  1.742119   kbcos=  0.228463
   l= 1   rc=  2.721230   el= -0.080095   Ekb= -1.122375   kbcos= -0.147941
   l= 2   rc=  2.825246   el=  0.002001   Ekb= -0.207076   kbcos= -0.031965

KBgen: Total number of Kleinman-Bylander projectors:    9
atom: -------------------------------------------------------------------------

atom: SANKEY-TYPE ORBITALS:

SPLIT: Orbitals with angular momentum L= 0

SPLIT: Basis orbitals for state 2s

SPLIT: PAO cut-off radius determined from an
SPLIT: energy shift=  0.000735 Ry

   izeta = 1
                 lambda =    1.000000
                     rc =   11.897381
                 energy =   -0.210580
                kinetic =    0.143382
    potential(screened) =   -0.353962
       potential(ionic) =   -0.533453

POLgen: Perturbative polarization orbital with L=  1

POLgen: Polarization orbital for state 2s

   izeta = 1
                     rc =   11.897381
                 energy =   -0.027011
                kinetic =    0.282985
    potential(screened) =   -0.309997
       potential(ionic) =   -0.490997
atom: Total number of Sankey-type orbitals:  4

atm_pop: Valence configuration (for local Pseudopot. screening):
 2s( 1.00)                                                            
Vna: chval, zval:    1.00000   1.00000

Vna:  Cut-off radius for the neutral-atom potential:  11.897381
comcore: Pseudo-core radius Rcore=  3.450946

atom: _________________________________________________________________________

<basis_specs>
===============================================================================
C-gga                Z=   6    Mass=  12.010        Charge= 0.17977+309
Lmxo=1 Lmxkb= 2    BasisType=split      Semic=F
L=0  Nsemic=0  Cnfigmx=2
          i=1  nzeta=1  polorb=0  (2s)
            splnorm:   0.15000    
               vcte:    0.0000    
               rinn:    0.0000    
               qcoe:    0.0000    
               qyuk:    0.0000    
               qwid:   0.10000E-01
                rcs:    0.0000    
            lambdas:    1.0000    
L=1  Nsemic=0  Cnfigmx=2
          i=1  nzeta=1  polorb=1  (2p)
            splnorm:   0.15000    
               vcte:    0.0000    
               rinn:    0.0000    
               qcoe:    0.0000    
               qyuk:    0.0000    
               qwid:   0.10000E-01
                rcs:    0.0000    
            lambdas:    1.0000    
-------------------------------------------------------------------------------
L=0  Nkbl=1  erefs: 0.17977+309
L=1  Nkbl=1  erefs: 0.17977+309
L=2  Nkbl=1  erefs: 0.17977+309
===============================================================================
</basis_specs>

atom: Called for C-gga                 (Z =   6)

read_vps: Pseudopotential generation method:
read_vps: ATM 3.2.2 Troullier-Martins                       
Valence charge for ps generation:    4.00000

xc_check: Exchange-correlation functional:
xc_check: GGA Perdew, Burke & Ernzerhof 1996
V l=0 = -2*Zval/r beyond r=  1.5227
V l=1 = -2*Zval/r beyond r=  1.5227
V l=2 = -2*Zval/r beyond r=  1.5227
All V_l potentials equal beyond r=  1.4851
This should be close to max(r_c) in ps generation
All pots = -2*Zval/r beyond r=  1.5227

VLOCAL1: 99.0% of the norm of Vloc inside     19.682 Ry
VLOCAL1: 99.9% of the norm of Vloc inside     44.856 Ry
atom: Maximum radius for 4*pi*r*r*local-pseudopot. charge    1.79142
atom: Maximum radius for r*vlocal+2*Zval:    1.54183
GHOST: No ghost state for L =  0
GHOST: No ghost state for L =  1
GHOST: No ghost state for L =  2

KBgen: Kleinman-Bylander projectors: 
   l= 0   rc=  1.661951   el= -1.010689   Ekb=  5.289847   kbcos=  0.316429
   l= 1   rc=  1.661951   el= -0.388490   Ekb= -4.102504   kbcos= -0.351025
   l= 2   rc=  1.747182   el=  0.001971   Ekb= -1.006005   kbcos= -0.008530

KBgen: Total number of Kleinman-Bylander projectors:    9
atom: -------------------------------------------------------------------------

atom: SANKEY-TYPE ORBITALS:

SPLIT: Orbitals with angular momentum L= 0

SPLIT: Basis orbitals for state 2s

SPLIT: PAO cut-off radius determined from an
SPLIT: energy shift=  0.000735 Ry

   izeta = 1
                 lambda =    1.000000
                     rc =    5.948690
                 energy =   -1.010099
                kinetic =    0.827121
    potential(screened) =   -1.837220
       potential(ionic) =   -5.392783

SPLIT: Orbitals with angular momentum L= 1

SPLIT: Basis orbitals for state 2p

SPLIT: PAO cut-off radius determined from an
SPLIT: energy shift=  0.000735 Ry

   izeta = 1
                 lambda =    1.000000
                     rc =    7.638387
                 energy =   -0.387843
                kinetic =    2.314739
    potential(screened) =   -2.702582
       potential(ionic) =   -6.092371

POLgen: Perturbative polarization orbital with L=  2

POLgen: Polarization orbital for state 2p

   izeta = 1
                     rc =    7.638387
                 energy =    0.921402
                kinetic =    1.955040
    potential(screened) =   -1.033637
       potential(ionic) =   -3.679558
atom: Total number of Sankey-type orbitals:  9

atm_pop: Valence configuration (for local Pseudopot. screening):
 2s( 2.00)                                                            
 2p( 2.00)                                                            
Vna: chval, zval:    4.00000   4.00000

Vna:  Cut-off radius for the neutral-atom potential:   7.638387

atom: _________________________________________________________________________

prinput: Basis input ----------------------------------------------------------

PAO.BasisType split     

%block ChemicalSpeciesLabel
    1    3 Li-gga                  # Species index, atomic number, species label
    2    6 C-gga                   # Species index, atomic number, species label
%endblock ChemicalSpeciesLabel

%block PAO.Basis                 # Define Basis set
Li-gga                1                    # Species label, number of l-shells
 n=2   0   1 P   1                   # n, l, Nzeta, Polarization, NzetaPol
  11.897   
   1.000   
C-gga                 2                    # Species label, number of l-shells
 n=2   0   1                         # n, l, Nzeta 
   5.949   
   1.000   
 n=2   1   1 P   1                   # n, l, Nzeta, Polarization, NzetaPol
   7.638   
   1.000   
%endblock PAO.Basis

prinput: ----------------------------------------------------------------------

coor:   Atomic-coordinates input format  =     Cartesian coordinates
coor:                                          (in Angstroms)

siesta: Atomic coordinates (Bohr) and species
siesta:      0.00000   0.00000   0.00000  2        1
siesta:      2.68614   0.00000   2.72063  1        2
siesta:      5.38035   0.00000   8.16189  1        3
siesta:     -1.34307   2.32627   2.72063  1        4
siesta:     -2.69017   4.65952   8.16189  1        5
siesta:      2.69017   4.65952   2.72063  1        6
siesta:      1.34307   2.32627   8.16189  1        7
siesta:      5.38035   0.00000   2.72063  1        8
siesta:      2.68614   0.00000   8.16189  1        9
siesta:     -2.69017   4.65952   2.72063  1       10
siesta:     -1.34307   2.32627   8.16189  1       11
siesta:      1.34307   2.32627   2.72063  1       12
siesta:      2.69017   4.65952   8.16189  1       13

siesta: System type = bulk      

initatomlists: Number of atoms, orbitals, and projectors:     13    57   117

siesta: ******************** Simulation parameters ****************************
siesta:
siesta: The following are some of the parameters of the simulation.
siesta: A complete list of the parameters used, including default values,
siesta: can be found in file out.fdf
siesta:
redata: Spin configuration                          = none
redata: Number of spin components                   = 1
redata: Time-Reversal Symmetry                      = T
redata: Spin spiral                                 = F
redata: Long output                                 =   F
redata: Number of Atomic Species                    =        2
redata: Charge density info will appear in .RHO file
redata: Write Mulliken Pop.                         = NO
redata: Matel table size (NRTAB)                    =     1024
redata: Mesh Cutoff                                 =   300.0000 Ry
redata: Net charge of the system                    =     0.0000 |e|
redata: Min. number of SCF Iter                     =        0
redata: Max. number of SCF Iter                     =     1000
redata: SCF convergence failure will abort job
redata: SCF mix quantity                            = Hamiltonian
redata: Mix DM or H after convergence               =   F
redata: Recompute H after scf cycle                 =   F
redata: Mix DM in first SCF step                    =   T
redata: Write Pulay info on disk                    =   F
redata: New DM Occupancy tolerance                  = 0.000000000001
redata: No kicks to SCF
redata: DM Mixing Weight for Kicks                  =     0.5000
redata: Require Harris convergence for SCF          =   F
redata: Harris energy tolerance for SCF             =     0.000100 eV
redata: Require DM convergence for SCF              =   T
redata: DM tolerance for SCF                        =     0.001000
redata: Require EDM convergence for SCF             =   F
redata: EDM tolerance for SCF                       =     0.005000 eV
redata: Require H convergence for SCF               =   T
redata: Hamiltonian tolerance for SCF               =     0.001000 eV
redata: Require (free) Energy convergence for SCF   =   T
redata: (free) Energy tolerance for SCF             =     0.001000 eV
redata: Using Saved Data (generic)                  =   F
redata: Use continuation files for DM               =   F
redata: Neglect nonoverlap interactions             =   F
redata: Method of Calculation                       = Diagonalization
redata: Electronic Temperature                      =   299.9869 K
redata: Fix the spin of the system                  =   F
redata: Dynamics option                             = Single-point calculation
mix.SCF: Pulay mixing                            = Pulay
mix.SCF:    Variant                              = stable
mix.SCF:    History steps                        = 4
mix.SCF:    Linear mixing weight                 =     0.250000
mix.SCF:    Mixing weight                        =     0.250000
mix.SCF:    SVD condition                        = 0.1000E-07
redata: ***********************************************************************

%block SCF.Mixers
  Pulay
%endblock SCF.Mixers

%block SCF.Mixer.Pulay
  # Mixing method
  method pulay
  variant stable

  # Mixing options
  weight 0.2500
  weight.linear 0.2500
  history 4
%endblock SCF.Mixer.Pulay

DM_history_depth set to one: no extrapolation allowed by default for geometry relaxation
Size of DM history Fstack: 1
Total number of electrons:    16.000000
Total ionic charge:    16.000000

* ProcessorY, Blocksize:    3   1


* Orbital distribution balance (max,min):     5     4

k-point displ. along   1 input, could be:     0.00    0.50
k-point displ. along   2 input, could be:     0.00    0.50
k-point displ. along   3 input, could be:     0.00    0.50
 Kpoints in:            8 . Kpoints trimmed:            8

siesta: k-grid: Number of k-points =     8
siesta: k-grid: Cutoff (effective) =     4.269 Ang
siesta: k-grid: Supercell and displacements
siesta: k-grid:    2   0   0      0.000
siesta: k-grid:    0   2   0      0.000
siesta: k-grid:    0   0   2      0.000

diag: Algorithm                                     = Expert
diag: Parallel over k                               =   T
diag: Use parallel 2D distribution                  =   T
diag: Parallel block-size                           = 1
diag: Parallel distribution                         =     3 x     4
diag: Used triangular part                          = Lower
diag: Absolute tolerance                            =  0.100E-15
diag: Orthogonalization factor                      =  0.100E-05
diag: Memory factor                                 =  1.0000

superc: Internal auxiliary supercell:     9 x     9 x     5  =     405
superc: Number of atoms, orbitals, and projectors:   5265  23085  47385


ts: **************************************************************
ts: Save H and S matrices                           =    F
ts: Save DM and EDM matrices                        =    F
ts: Only save the overlap matrix S                  =    F
ts: **************************************************************

************************ Begin: TS CHECKS AND WARNINGS ************************
************************ End: TS CHECKS AND WARNINGS **************************


                     ====================================
                        Single-point calculation
                     ====================================

outcoor: Atomic coordinates (Ang):                          
    0.00000000    0.00000000    0.00000000   2       1  C-gga
    1.42144380    0.00000000    1.43969450   1       2  Li-gga
    2.84715620    0.00000000    4.31908350   1       3  Li-gga
   -0.71072190    1.23100644    1.43969450   1       4  Li-gga
   -1.42357810    2.46570960    4.31908350   1       5  Li-gga
    1.42357810    2.46570960    1.43969450   1       6  Li-gga
    0.71072190    1.23100644    4.31908350   1       7  Li-gga
    2.84715620    0.00000000    1.43969450   1       8  Li-gga
    1.42144380    0.00000000    4.31908350   1       9  Li-gga
   -1.42357810    2.46570960    1.43969450   1      10  Li-gga
   -0.71072190    1.23100644    4.31908350   1      11  Li-gga
    0.71072190    1.23100644    1.43969450   1      12  Li-gga
    1.42357810    2.46570960    4.31908350   1      13  Li-gga

superc: Internal auxiliary supercell:     9 x     9 x     5  =     405
superc: Number of atoms, orbitals, and projectors:   5265  23085  47385

outcell: Unit cell vectors (Ang):
        4.268600    0.000000    0.000000
       -2.134300    3.696716    0.000000
        0.000000    0.000000    5.758778

outcell: Cell vector modules (Ang)   :    4.268600    4.268600    5.758778
outcell: Cell angles (23,13,12) (deg):     90.0000     90.0000    120.0000
outcell: Cell volume (Ang**3)        :     90.8724
<dSpData1D:S at geom step 0
  <sparsity:sparsity for geom step 0
    nrows_g=57 nrows=5 sparsity=10.8658 nnzs=35303, refcount: 7>
  <dData1D:(new from dSpData1D) n=35303, refcount: 1>
refcount: 1>
new_DM -- step:     1
Initializing Density Matrix...
DM filled with atomic data:
<dSpData2D:DM initialized from atoms
  <sparsity:sparsity for geom step 0
    nrows_g=57 nrows=5 sparsity=10.8658 nnzs=35303, refcount: 8>
  <dData2D:DM n=35303 m=1, refcount: 1>
refcount: 1>
No. of atoms with KB's overlaping orbs in proc 0. Max # of overlaps:     450    1145
New grid distribution:   1
           1       1:   20    1:    7    1:    8
           2       1:   20    1:    7    9:   16
           3       1:   20    1:    7   17:   23
           4       1:   20    1:    7   24:   30
           5       1:   20    8:   14    1:    8
           6       1:   20    8:   14    9:   16
           7       1:   20    8:   14   17:   23
           8       1:   20    8:   14   24:   30
           9       1:   20   15:   20    1:    8
          10       1:   20   15:   20    9:   16
          11       1:   20   15:   20   17:   23
          12       1:   20   15:   20   24:   30

InitMesh: MESH =    40 x    40 x    60 =       96000
InitMesh: (bp) =    20 x    20 x    30 =       12000
InitMesh: Mesh cutoff (required, used) =   300.000   300.015 Ry
ExtMesh (bp) on 0 =   160 x   147 x   140 =     3292800
New grid distribution:   2
           1       1:    7    1:   10    1:   15
           2       8:   20    1:   10    8:   15
           3       1:    7    1:   10   16:   30
           4       8:   20    1:   10    1:    7
           5       8:   20   11:   20    1:    7
           6       8:   20    1:   10   16:   22
           7       1:    7   11:   20   16:   30
           8       8:   20    1:   10   23:   30
           9       1:    7   11:   20    1:   15
          10       8:   20   11:   20    8:   15
          11       8:   20   11:   20   16:   23
          12       8:   20   11:   20   24:   30
New grid distribution:   3
           1       1:    7    1:   10    1:   15
           2       8:   20   11:   20    1:    8
           3       1:    7    1:   10   16:   30
           4       8:   20    1:   10    9:   15
           5       8:   20    1:   10    1:    8
           6       8:   20   11:   20    9:   15
           7       1:    7   11:   20   16:   30
           8       8:   20   11:   20   24:   30
           9       1:    7   11:   20    1:   15
          10       8:   20    1:   10   16:   23
          11       8:   20   11:   20   16:   23
          12       8:   20    1:   10   24:   30
Setting up quadratic distribution...
ExtMesh (bp) on 0 =   147 x   150 x   147 =     3241350
PhiOnMesh: Number of (b)points on node 0 =                 1050
PhiOnMesh: nlist on node 0 =               627146

stepf: Fermi-Dirac step function

siesta: Program's energy decomposition (eV):
siesta: Ebs     =      -223.940564
siesta: Eions   =       380.620085
siesta: Ena     =        97.563376
siesta: Ekin    =       244.543970
siesta: Enl     =        -3.039929
siesta: Eso     =         0.000000
siesta: Edftu   =         0.000000
siesta: DEna    =       -15.060108
siesta: DUscf   =        16.521473
siesta: DUext   =         0.000000
siesta: Exc     =      -174.278085
siesta: eta*DQ  =         0.000000
siesta: Emadel  =         0.000000
siesta: Emeta   =         0.000000
siesta: Emolmec =        -6.338603
siesta: Ekinion =         0.000000
siesta: Eharris =      -187.342945
siesta: Etot    =      -220.707991
siesta: FreeEng =      -220.711474

        iscf     Eharris(eV)        E_KS(eV)     FreeEng(eV)     dDmax    Ef(eV) dHmax(eV)
   scf:    1     -187.342945     -220.707991     -220.711474  1.473260-13.483969 13.348366
timer: Routine,Calls,Time,% = IterSCF        1      11.433  52.27
   scf:    2     -233.352519     -229.937571     -229.938025  0.686262-13.524156  1.023087
   scf:    3     -230.030206     -229.995500     -229.995962  0.041550-13.557627  0.201984
   scf:    4     -230.008441     -230.004262     -230.004734  0.025747-13.587198  0.152923
   scf:    5     -230.006164     -230.006236     -230.006712  0.021944-13.591808  0.083477
   scf:    6     -230.006633     -230.006541     -230.007019  0.003368-13.595941  0.005348
   scf:    7     -230.006548     -230.006545     -230.007023  0.000605-13.596516  0.004579
   scf:    8     -230.006550     -230.006548     -230.007027  0.001440-13.598012  0.000247
   scf:    9     -230.006548     -230.006548     -230.007027  0.000084-13.597983  0.000103

SCF Convergence by FreeE+DM+H criterion
|FreeE_i-FreeE_(i-1)| (eV) <     0.00100000
max |DM_out - DM_in|         :     0.0000843806
max |H_out - H_in|      (eV) :     0.0001026739
SCF cycle converged after 9 iterations

Using DM_out to compute the final energy and forces
No. of atoms with KB's overlaping orbs in proc 0. Max # of overlaps:     450    1145

MM-Stress (kbar):       26.80       26.80       89.08        0.00       -0.00       -0.00

siesta: E_KS(eV) =             -230.0065

siesta: E_KS - E_eggbox =      -230.0065

siesta: Atomic forces (eV/Ang):
     1    0.000000    0.000000    0.000000
     2    0.722106   -0.000018    0.022137
     3   -0.722106    0.000018   -0.022137
     4   -0.361069    0.625353    0.022137
     5    0.361069   -0.625353   -0.022137
     6   -0.361061   -0.625376    0.022106
     7    0.361061    0.625376   -0.022106
     8   -0.722106    0.000018    0.022137
     9    0.722106   -0.000018   -0.022137
    10    0.361069   -0.625353    0.022137
    11   -0.361069    0.625353   -0.022137
    12    0.361061    0.625376    0.022106
    13   -0.361061   -0.625376   -0.022106
----------------------------------------
   Tot    0.000000   -0.000000    0.000000
----------------------------------------
   Max    0.722106
   Res    0.400743    sqrt( Sum f_i^2 / 3N )
----------------------------------------
   Max    0.722106    constrained

Stress tensor Voigt[x,y,z,yz,xz,xy] (kbar):    -1344.38    -1344.39      578.69       -0.00        0.00       -0.01
(Free)E + p*V (eV/cell)     -190.1142
Target enthalpy (eV/cell)     -230.0070

siesta: Eigenvalues (eV):
  ik is       eps
   1  1  -24.6620  -19.2032  -18.3065  -16.8959  -15.6585  -15.6583  -15.5138  -13.9459  -12.9294  -10.3333
          -9.5835   -9.5835   -9.2016   -9.2016   -8.8255   -8.0995   -8.0995   -4.2448   -4.2448   -3.4814
   -3.4814   -1.1010    2.7174    2.7179    5.9122    5.9122    8.3544    8.3544    9.7802   13.2873
   13.2874   17.7466   17.7467   19.2988   19.2989   21.6398   22.4916   28.0428   28.0429   29.6670
   29.6681   29.7530   30.2047   30.2047   30.8568   30.8568   35.0976   35.0981   38.7003   38.7005
   42.4601   46.1094   46.5985   47.4360   47.6280   67.7660   67.7662
   2  1  -24.5910  -18.5822  -18.3460  -17.5384  -17.3605  -16.1833  -16.1057  -13.7633  -13.4326  -11.5012
         -11.1545  -10.9549   -8.7217   -6.3820   -5.8151   -5.7223   -4.7686   -3.7894   -2.7103   -1.2216
   -0.6949   -0.2663    0.0876    0.1779    0.4888    1.3179    1.3181    2.6914    3.0739    3.6419
    8.4622    9.8727   10.3826   13.9574   15.6544   16.6168   18.1037   18.1227   21.0200   22.1304
   22.8520   24.5948   25.1388   25.5583   28.9856   30.2832   30.6147   32.5797   34.6252   40.5043
   45.2455   46.0461   47.1086   56.9506   58.4583   58.5789   65.5547
   3  1  -24.5910  -18.5822  -18.3460  -17.5384  -17.3605  -16.1833  -16.1057  -13.7633  -13.4326  -11.5012
         -11.1545  -10.9549   -8.7217   -6.3820   -5.8151   -5.7223   -4.7686   -3.7894   -2.7103   -1.2216
   -0.6949   -0.2663    0.0876    0.1779    0.4888    1.3179    1.3181    2.6914    3.0739    3.6419
    8.4622    9.8727   10.3826   13.9574   15.6544   16.6168   18.1037   18.1227   21.0200   22.1304
   22.8520   24.5948   25.1388   25.5583   28.9856   30.2832   30.6147   32.5797   34.6252   40.5043
   45.2455   46.0461   47.1086   56.9506   58.4583   58.5789   65.5547
   4  1  -24.5910  -18.5822  -18.3460  -17.5384  -17.3605  -16.1833  -16.1058  -13.7633  -13.4326  -11.5012
         -11.1545  -10.9548   -8.7217   -6.3820   -5.8152   -5.7223   -4.7686   -3.7894   -2.7102   -1.2216
   -0.6949   -0.2665    0.0876    0.1780    0.4888    1.3179    1.3181    2.6916    3.0739    3.6419
    8.4621    9.8727   10.3824   13.9575   15.6548   16.6167   18.1037   18.1228   21.0203   22.1303
   22.8519   24.5946   25.1388   25.5584   28.9856   30.2831   30.6138   32.5798   34.6251   40.5043
   45.2456   46.0460   47.1085   56.9509   58.4582   58.5789   65.5546
   5  1  -24.7578  -19.2585  -18.1874  -16.6852  -15.6368  -15.6366  -14.9050  -14.6525  -13.3152  -11.6457
          -9.3016   -9.3015   -9.1246   -9.1246   -8.8287   -8.8287   -5.8791   -4.3743   -1.4316   -1.4315
   -1.3678   -1.3678    0.0673    0.0674    0.4928    0.4928    4.6308    4.6313   12.3807   12.3808
   14.4115   14.4115   17.5252   22.3303   22.3677   22.3678   22.4274   26.0061   26.0061   26.1167
   26.1167   26.4224   26.4225   31.0157   31.0158   40.3624   40.3640   44.2025   44.3100   44.4126
   44.4128   44.4549   44.4722   44.5512   44.5806   45.1882   45.1889
   6  1  -24.5939  -18.9015  -18.5189  -17.5402  -16.9288  -16.1318  -15.7579  -14.4483  -13.1143  -11.6689
         -11.6231  -10.9278   -8.0755   -7.5604   -6.7879   -5.5696   -3.5610   -3.3464   -3.2638   -2.8783
   -2.6413   -2.2955   -1.8742   -1.8392   -1.1380   -0.7932    2.9021    4.0689    4.8043    4.8271
   13.3303   14.0503   14.2205   16.7984   17.2227   17.7520   19.5012   20.8204   21.0608   21.0904
   22.2261   23.1544   23.3128   23.6592   24.7619   24.8190   25.4369   26.2957   27.0755   40.5221
   45.9615   49.4230   51.1271   52.0889   53.5067   53.6134   54.4306
   7  1  -24.5939  -18.9015  -18.5189  -17.5402  -16.9288  -16.1318  -15.7579  -14.4483  -13.1143  -11.6689
         -11.6231  -10.9278   -8.0755   -7.5604   -6.7879   -5.5696   -3.5610   -3.3464   -3.2638   -2.8783
   -2.6413   -2.2955   -1.8742   -1.8392   -1.1380   -0.7932    2.9021    4.0689    4.8043    4.8271
   13.3303   14.0504   14.2205   16.7984   17.2227   17.7520   19.5012   20.8204   21.0608   21.0904
   22.2261   23.1544   23.3128   23.6592   24.7619   24.8190   25.4369   26.2957   27.0755   40.5221
   45.9615   49.4230   51.1271   52.0889   53.5067   53.6134   54.4307
   8  1  -24.5939  -18.9015  -18.5189  -17.5402  -16.9288  -16.1319  -15.7579  -14.4483  -13.1143  -11.6689
         -11.6231  -10.9278   -8.0754   -7.5604   -6.7879   -5.5697   -3.5610   -3.3464   -3.2638   -2.8783
   -2.6413   -2.2955   -1.8742   -1.8392   -1.1380   -0.7932    2.9021    4.0689    4.8046    4.8268
   13.3302   14.0504   14.2205   16.7984   17.2227   17.7522   19.5012   20.8203   21.0613   21.0904
   22.2260   23.1544   23.3129   23.6591   24.7619   24.8189   25.4368   26.2958   27.0753   40.5213
   45.9614   49.4230   51.1270   52.0888   53.5069   53.6135   54.4305
siesta: Fermi energy =     -13.597983 eV

siesta: Program's energy decomposition (eV):
siesta: Ebs     =      -283.859643
siesta: Eions   =       380.620085
siesta: Ena     =        97.563376
siesta: Ekin    =       202.527760
siesta: Enl     =        10.258995
siesta: Eso     =         0.000000
siesta: Edftu   =         0.000000
siesta: DEna    =         9.012103
siesta: DUscf   =         3.307186
siesta: DUext   =         0.000000
siesta: Exc     =      -165.717278
siesta: eta*DQ  =         0.000000
siesta: Emadel  =         0.000000
siesta: Emeta   =         0.000000
siesta: Emolmec =        -6.338603
siesta: Ekinion =         0.000000
siesta: Eharris =      -230.006548
siesta: Etot    =      -230.006548
siesta: FreeEng =      -230.007027

siesta: Final energy (eV):
siesta:  Band Struct. =    -283.859643
siesta:       Kinetic =     202.527760
siesta:       Hartree =      74.822821
siesta:       Edftu   =       0.000000
siesta:       Eso     =       0.000000
siesta:    Ext. field =       0.000000
siesta:   Exch.-corr. =    -165.717278
siesta:  Ion-electron =    -460.103362
siesta:       Ion-ion =     124.802115
siesta:       Ekinion =       0.000000
siesta:         Total =    -230.006548
siesta:         Fermi =     -13.597983

siesta: Atomic forces (eV/Ang):
siesta:      1    0.000000    0.000000    0.000000
siesta:      2    0.722106   -0.000018    0.022137
siesta:      3   -0.722106    0.000018   -0.022137
siesta:      4   -0.361069    0.625353    0.022137
siesta:      5    0.361069   -0.625353   -0.022137
siesta:      6   -0.361061   -0.625376    0.022106
siesta:      7    0.361061    0.625376   -0.022106
siesta:      8   -0.722106    0.000018    0.022137
siesta:      9    0.722106   -0.000018   -0.022137
siesta:     10    0.361069   -0.625353    0.022137
siesta:     11   -0.361069    0.625353   -0.022137
siesta:     12    0.361061    0.625376    0.022106
siesta:     13   -0.361061   -0.625376   -0.022106
siesta: ----------------------------------------
siesta:    Tot    0.000000   -0.000000    0.000000

siesta: Stress tensor (static) (eV/Ang**3):
siesta:    -0.839086   -0.000007    0.000000
siesta:    -0.000007   -0.839093   -0.000000
siesta:     0.000000   -0.000000    0.361184

siesta: Cell volume =         90.872377 Ang**3

siesta: Pressure (static):
siesta:                Solid            Molecule  Units
siesta:           0.00478125          0.00504331  Ry/Bohr**3
siesta:           0.43899838          0.46305926  eV/Ang**3
siesta:         703.36054186        741.91073975  kBar
(Free)E+ p_basis*V_orbitals  =        -197.836906
(Free)Eharris+ p_basis*V_orbitals  =        -197.836906

cite: Please see "LiC12_scf.bib" for an exhaustive BiBTeX file.
cite: Please clearly indicate Siesta version in published work: 4.1.5
cite: This calculation has made use of the following articles
cite: which are encouraged to be cited in a published work.
        Primary SIESTA paper
          DOI: www.doi.org/10.1088/0953-8984/14/11/302

>> End of run:   9-NOV-2022   9:19:41
Job completed
