Siesta Version  : 4.1.5
Architecture    : x86_64-unknown-linux-gnu--unknown
Compiler version: GNU Fortran (GCC) 11.3.0
Compiler flags  : mpif90 -g -O2 -fallow-argument-mismatch
PP flags        : -DMPI -DFC_HAVE_FLUSH -DFC_HAVE_ABORT
Libraries       :  -I/global/software/sl-7.x86_64/modules/intel/2020.4.304/mkl/include  /globall/software/sl-7.x86_64/modules/intel/2020.4.304/mkl/lib/intel64/libmkl_scalapack_lp64.a -Wl,--start-group /global/software/sl-7.x86_64/modules/intel/2020.4.304/mkl/lib/intel64/libmkl_intel_lp64.a /global/software/sl-7.x86_64/modules/intel/2020.4.304/mkl/lib/intel64/libmkl_sequential.a /global/software/sl-7.x86_64/modules/intel/2020.4.304/mkl/lib/intel64/libmkl_core.a /global/software/sl-7.x86_64/modules/intel/2020.4.304/mkl/lib/intel64/libmkl_blacs_openmpi_lp64.a -Wl,--end-group -lpthread -lm -ldl
PARALLEL version

* Running on 12 nodes in parallel
>> Start of run:   9-NOV-2022   9:12:39

                           ***********************       
                           *  WELCOME TO SIESTA  *       
                           ***********************       

reinit: Reading from standard input
reinit: Dumped input in INPUT_TMP.26528
************************** Dump of input data file ****************************
SystemName LiC12_scf
SystemLabel LiC12_scf
NumberOfAtoms   13
NumberOfSpecies 2
%block ChemicalSpeciesLabel
1  3   Li-gga
2  6   C-gga
%endblock ChemicalSpeciesLabel
PAO.BasisSize  SZP
PAO.EnergyShift  10 meV
%block PS.Lmax
C-gga   2
Li-gga  2
%endblock PS.Lmax
LatticeConstant 1.000000 Ang
%block LatticeVectors
	4.2686000000	0.0000000000	0.0000000000
	-2.1343000000	3.6967160386	0.0000000000
	0.0000000000	0.0000000000	6.1801520000
%endblock LatticeVectors
AtomicCoordinatesFormat Ang
%block AtomicCoordinatesAndAtomicSpecies
	0.00000000	0.00000000	0.00000000	2
	1.42144380	0.00000000	1.54503800	1
	2.84715620	0.00000000	4.63511400	1
	-0.71072190	1.23100644	1.54503800	1
	-1.42357810	2.46570960	4.63511400	1
	1.42357810	2.46570960	1.54503800	1
	0.71072190	1.23100644	4.63511400	1
	2.84715620	0.00000000	1.54503800	1
	1.42144380	0.00000000	4.63511400	1
	-1.42357810	2.46570960	1.54503800	1
	-0.71072190	1.23100644	4.63511400	1
	0.71072190	1.23100644	1.54503800	1
	1.42357810	2.46570960	4.63511400	1
%endblock AtomicCoordinatesAndAtomicSpecies
Kgrid_NoTRS  T
%block kgrid_MonkhorstPack
2       0       0       0.0
0       2       0       0.0
0       0       2       0.0
%endblock kgrid_MonkhorstPack
AtomCoorFormatOut Ang
BlockSize 1
#ProcessorY 12
Diag.ParallelOverK   T
Diag.DivideAndConquer F
MeshCutoff   300 Ry
SCF.FreeE.Tolerance 1E-3 eV
SCF.EDM.Tolerance   5E-3 eV
DM.Tolerance  1E-3
DM.Require.Energy.Convergence T
DM.NumberPulay 4
XC.Functional GGA
XC.Authors    PBE
UseSaveData        F
MD.TypeOfRun       CG
MD.VariableCell    F
MD.NumCGsteps      00
MD.MaxCGDispl      0.200000 Bohr
MD.MaxStressTol    1.000000 GPa
MD.MaxForceTol     0.010000 eV/Ang
WriteMDHistory T
WriteCoorStep T
WriteForces T
WriteCoorStep    T
WriteEigenValues T
WriteDM    F
MM.UnitsDistance Ang  # what this program prints out DO NOT CHANGE
MM.UnitsEnergy    eV  # what this program prints out DO NOT CHANGE
MM.Grimme.S6     0.75 # Grimme-paper for PBE (correct for your functional)
MM.Grimme.D     20.   # Grimme-paper (correct for your functional)
%block MM.Potentials
  1   1 Grimme     16.69      1.650 # Li, 10.1002/jcc.20495
  1   2 Grimme     17.40      2.277 # Li / C
  2   2 Grimme     18.14      2.904 # C, 10.1002/jcc.20495
%endblock MM.Potentials
#%block ProjectedDensityOfStates
# -200.0  120.0  0.4  12800  eV
#%endblock ProjectedDensityOfStates
************************** End of input data file *****************************

reinit: -----------------------------------------------------------------------
reinit: System Name: LiC12_scf
reinit: -----------------------------------------------------------------------
reinit: System Label: LiC12_scf
reinit: -----------------------------------------------------------------------
Reading two-body potentials
Grimme - two-body potential between 1 and 1
Grimme - two-body potential between 1 and 2
Grimme - two-body potential between 2 and 2

initatom: Reading input for the pseudopotentials and atomic orbitals ----------
Species number:   1 Atomic number:    3 Label: Li-gga
Species number:   2 Atomic number:    6 Label: C-gga

Ground state valence configuration:   2s01
Reading pseudopotential information in formatted form from Li-gga.psf

Valence configuration for pseudopotential generation:
2s( 1.00) rc: 2.28
2p( 0.00) rc: 2.28
3d( 0.00) rc: 2.59
4f( 0.00) rc: 2.59
Ground state valence configuration:   2s02  2p02
Reading pseudopotential information in formatted form from C-gga.psf

Valence configuration for pseudopotential generation:
2s( 2.00) rc: 1.56
2p( 2.00) rc: 1.56
3d( 0.00) rc: 1.56
4f( 0.00) rc: 1.56
relmxkb: Read Max KB Ang. Momentum=    2 for species C-gga
relmxkb: Read Max KB Ang. Momentum=    2 for species Li-gga

<basis_specs>
===============================================================================
Li-gga               Z=   3    Mass=  6.9400        Charge= 0.17977+309
Lmxo=0 Lmxkb= 2    BasisType=split      Semic=F
L=0  Nsemic=0  Cnfigmx=2
          i=1  nzeta=1  polorb=1  (2s)
            splnorm:   0.15000    
               vcte:    0.0000    
               rinn:    0.0000    
               qcoe:    0.0000    
               qyuk:    0.0000    
               qwid:   0.10000E-01
                rcs:    0.0000    
            lambdas:    1.0000    
-------------------------------------------------------------------------------
L=0  Nkbl=1  erefs: 0.17977+309
L=1  Nkbl=1  erefs: 0.17977+309
L=2  Nkbl=1  erefs: 0.17977+309
===============================================================================
</basis_specs>

atom: Called for Li-gga                (Z =   3)

read_vps: Pseudopotential generation method:
read_vps: ATM 3.2.2 Troullier-Martins                       
Valence charge for ps generation:    1.00000

read_vps: Pseudopotential includes a core correction:
read_vps: Pseudo-core for xc-correction

xc_check: Exchange-correlation functional:
xc_check: GGA Perdew, Burke & Ernzerhof 1996
V l=0 = -2*Zval/r beyond r=  2.2278
V l=1 = -2*Zval/r beyond r=  2.2278
V l=2 = -2*Zval/r beyond r=  2.5245
All V_l potentials equal beyond r=  2.4622
This should be close to max(r_c) in ps generation
All pots = -2*Zval/r beyond r=  2.5245

VLOCAL1: 99.0% of the norm of Vloc inside      7.160 Ry
VLOCAL1: 99.9% of the norm of Vloc inside     16.318 Ry
atom: Maximum radius for 4*pi*r*r*local-pseudopot. charge    2.86079
atom: Maximum radius for r*vlocal+2*Zval:    2.43160
GHOST: No ghost state for L =  0
GHOST: No ghost state for L =  1
GHOST: No ghost state for L =  2

KBgen: Kleinman-Bylander projectors: 
   l= 0   rc=  2.654023   el= -0.211234   Ekb=  1.742119   kbcos=  0.228463
   l= 1   rc=  2.721230   el= -0.080095   Ekb= -1.122375   kbcos= -0.147941
   l= 2   rc=  2.825246   el=  0.002001   Ekb= -0.207076   kbcos= -0.031965

KBgen: Total number of Kleinman-Bylander projectors:    9
atom: -------------------------------------------------------------------------

atom: SANKEY-TYPE ORBITALS:

SPLIT: Orbitals with angular momentum L= 0

SPLIT: Basis orbitals for state 2s

SPLIT: PAO cut-off radius determined from an
SPLIT: energy shift=  0.000735 Ry

   izeta = 1
                 lambda =    1.000000
                     rc =   11.897381
                 energy =   -0.210580
                kinetic =    0.143382
    potential(screened) =   -0.353962
       potential(ionic) =   -0.533453

POLgen: Perturbative polarization orbital with L=  1

POLgen: Polarization orbital for state 2s

   izeta = 1
                     rc =   11.897381
                 energy =   -0.027011
                kinetic =    0.282985
    potential(screened) =   -0.309997
       potential(ionic) =   -0.490997
atom: Total number of Sankey-type orbitals:  4

atm_pop: Valence configuration (for local Pseudopot. screening):
 2s( 1.00)                                                            
Vna: chval, zval:    1.00000   1.00000

Vna:  Cut-off radius for the neutral-atom potential:  11.897381
comcore: Pseudo-core radius Rcore=  3.450946

atom: _________________________________________________________________________

<basis_specs>
===============================================================================
C-gga                Z=   6    Mass=  12.010        Charge= 0.17977+309
Lmxo=1 Lmxkb= 2    BasisType=split      Semic=F
L=0  Nsemic=0  Cnfigmx=2
          i=1  nzeta=1  polorb=0  (2s)
            splnorm:   0.15000    
               vcte:    0.0000    
               rinn:    0.0000    
               qcoe:    0.0000    
               qyuk:    0.0000    
               qwid:   0.10000E-01
                rcs:    0.0000    
            lambdas:    1.0000    
L=1  Nsemic=0  Cnfigmx=2
          i=1  nzeta=1  polorb=1  (2p)
            splnorm:   0.15000    
               vcte:    0.0000    
               rinn:    0.0000    
               qcoe:    0.0000    
               qyuk:    0.0000    
               qwid:   0.10000E-01
                rcs:    0.0000    
            lambdas:    1.0000    
-------------------------------------------------------------------------------
L=0  Nkbl=1  erefs: 0.17977+309
L=1  Nkbl=1  erefs: 0.17977+309
L=2  Nkbl=1  erefs: 0.17977+309
===============================================================================
</basis_specs>

atom: Called for C-gga                 (Z =   6)

read_vps: Pseudopotential generation method:
read_vps: ATM 3.2.2 Troullier-Martins                       
Valence charge for ps generation:    4.00000

xc_check: Exchange-correlation functional:
xc_check: GGA Perdew, Burke & Ernzerhof 1996
V l=0 = -2*Zval/r beyond r=  1.5227
V l=1 = -2*Zval/r beyond r=  1.5227
V l=2 = -2*Zval/r beyond r=  1.5227
All V_l potentials equal beyond r=  1.4851
This should be close to max(r_c) in ps generation
All pots = -2*Zval/r beyond r=  1.5227

VLOCAL1: 99.0% of the norm of Vloc inside     19.682 Ry
VLOCAL1: 99.9% of the norm of Vloc inside     44.856 Ry
atom: Maximum radius for 4*pi*r*r*local-pseudopot. charge    1.79142
atom: Maximum radius for r*vlocal+2*Zval:    1.54183
GHOST: No ghost state for L =  0
GHOST: No ghost state for L =  1
GHOST: No ghost state for L =  2

KBgen: Kleinman-Bylander projectors: 
   l= 0   rc=  1.661951   el= -1.010689   Ekb=  5.289847   kbcos=  0.316429
   l= 1   rc=  1.661951   el= -0.388490   Ekb= -4.102504   kbcos= -0.351025
   l= 2   rc=  1.747182   el=  0.001971   Ekb= -1.006005   kbcos= -0.008530

KBgen: Total number of Kleinman-Bylander projectors:    9
atom: -------------------------------------------------------------------------

atom: SANKEY-TYPE ORBITALS:

SPLIT: Orbitals with angular momentum L= 0

SPLIT: Basis orbitals for state 2s

SPLIT: PAO cut-off radius determined from an
SPLIT: energy shift=  0.000735 Ry

   izeta = 1
                 lambda =    1.000000
                     rc =    5.948690
                 energy =   -1.010099
                kinetic =    0.827121
    potential(screened) =   -1.837220
       potential(ionic) =   -5.392783

SPLIT: Orbitals with angular momentum L= 1

SPLIT: Basis orbitals for state 2p

SPLIT: PAO cut-off radius determined from an
SPLIT: energy shift=  0.000735 Ry

   izeta = 1
                 lambda =    1.000000
                     rc =    7.638387
                 energy =   -0.387843
                kinetic =    2.314739
    potential(screened) =   -2.702582
       potential(ionic) =   -6.092371

POLgen: Perturbative polarization orbital with L=  2

POLgen: Polarization orbital for state 2p

   izeta = 1
                     rc =    7.638387
                 energy =    0.921402
                kinetic =    1.955040
    potential(screened) =   -1.033637
       potential(ionic) =   -3.679558
atom: Total number of Sankey-type orbitals:  9

atm_pop: Valence configuration (for local Pseudopot. screening):
 2s( 2.00)                                                            
 2p( 2.00)                                                            
Vna: chval, zval:    4.00000   4.00000

Vna:  Cut-off radius for the neutral-atom potential:   7.638387

atom: _________________________________________________________________________

prinput: Basis input ----------------------------------------------------------

PAO.BasisType split     

%block ChemicalSpeciesLabel
    1    3 Li-gga                  # Species index, atomic number, species label
    2    6 C-gga                   # Species index, atomic number, species label
%endblock ChemicalSpeciesLabel

%block PAO.Basis                 # Define Basis set
Li-gga                1                    # Species label, number of l-shells
 n=2   0   1 P   1                   # n, l, Nzeta, Polarization, NzetaPol
  11.897   
   1.000   
C-gga                 2                    # Species label, number of l-shells
 n=2   0   1                         # n, l, Nzeta 
   5.949   
   1.000   
 n=2   1   1 P   1                   # n, l, Nzeta, Polarization, NzetaPol
   7.638   
   1.000   
%endblock PAO.Basis

prinput: ----------------------------------------------------------------------

coor:   Atomic-coordinates input format  =     Cartesian coordinates
coor:                                          (in Angstroms)

siesta: Atomic coordinates (Bohr) and species
siesta:      0.00000   0.00000   0.00000  2        1
siesta:      2.68614   0.00000   2.91970  1        2
siesta:      5.38035   0.00000   8.75910  1        3
siesta:     -1.34307   2.32627   2.91970  1        4
siesta:     -2.69017   4.65952   8.75910  1        5
siesta:      2.69017   4.65952   2.91970  1        6
siesta:      1.34307   2.32627   8.75910  1        7
siesta:      5.38035   0.00000   2.91970  1        8
siesta:      2.68614   0.00000   8.75910  1        9
siesta:     -2.69017   4.65952   2.91970  1       10
siesta:     -1.34307   2.32627   8.75910  1       11
siesta:      1.34307   2.32627   2.91970  1       12
siesta:      2.69017   4.65952   8.75910  1       13

siesta: System type = bulk      

initatomlists: Number of atoms, orbitals, and projectors:     13    57   117

siesta: ******************** Simulation parameters ****************************
siesta:
siesta: The following are some of the parameters of the simulation.
siesta: A complete list of the parameters used, including default values,
siesta: can be found in file out.fdf
siesta:
redata: Spin configuration                          = none
redata: Number of spin components                   = 1
redata: Time-Reversal Symmetry                      = T
redata: Spin spiral                                 = F
redata: Long output                                 =   F
redata: Number of Atomic Species                    =        2
redata: Charge density info will appear in .RHO file
redata: Write Mulliken Pop.                         = NO
redata: Matel table size (NRTAB)                    =     1024
redata: Mesh Cutoff                                 =   300.0000 Ry
redata: Net charge of the system                    =     0.0000 |e|
redata: Min. number of SCF Iter                     =        0
redata: Max. number of SCF Iter                     =     1000
redata: SCF convergence failure will abort job
redata: SCF mix quantity                            = Hamiltonian
redata: Mix DM or H after convergence               =   F
redata: Recompute H after scf cycle                 =   F
redata: Mix DM in first SCF step                    =   T
redata: Write Pulay info on disk                    =   F
redata: New DM Occupancy tolerance                  = 0.000000000001
redata: No kicks to SCF
redata: DM Mixing Weight for Kicks                  =     0.5000
redata: Require Harris convergence for SCF          =   F
redata: Harris energy tolerance for SCF             =     0.000100 eV
redata: Require DM convergence for SCF              =   T
redata: DM tolerance for SCF                        =     0.001000
redata: Require EDM convergence for SCF             =   F
redata: EDM tolerance for SCF                       =     0.005000 eV
redata: Require H convergence for SCF               =   T
redata: Hamiltonian tolerance for SCF               =     0.001000 eV
redata: Require (free) Energy convergence for SCF   =   T
redata: (free) Energy tolerance for SCF             =     0.001000 eV
redata: Using Saved Data (generic)                  =   F
redata: Use continuation files for DM               =   F
redata: Neglect nonoverlap interactions             =   F
redata: Method of Calculation                       = Diagonalization
redata: Electronic Temperature                      =   299.9869 K
redata: Fix the spin of the system                  =   F
redata: Dynamics option                             = Single-point calculation
mix.SCF: Pulay mixing                            = Pulay
mix.SCF:    Variant                              = stable
mix.SCF:    History steps                        = 4
mix.SCF:    Linear mixing weight                 =     0.250000
mix.SCF:    Mixing weight                        =     0.250000
mix.SCF:    SVD condition                        = 0.1000E-07
redata: ***********************************************************************

%block SCF.Mixers
  Pulay
%endblock SCF.Mixers

%block SCF.Mixer.Pulay
  # Mixing method
  method pulay
  variant stable

  # Mixing options
  weight 0.2500
  weight.linear 0.2500
  history 4
%endblock SCF.Mixer.Pulay

DM_history_depth set to one: no extrapolation allowed by default for geometry relaxation
Size of DM history Fstack: 1
Total number of electrons:    16.000000
Total ionic charge:    16.000000

* ProcessorY, Blocksize:    3   1


* Orbital distribution balance (max,min):     5     4

k-point displ. along   1 input, could be:     0.00    0.50
k-point displ. along   2 input, could be:     0.00    0.50
k-point displ. along   3 input, could be:     0.00    0.50
 Kpoints in:            8 . Kpoints trimmed:            8

siesta: k-grid: Number of k-points =     8
siesta: k-grid: Cutoff (effective) =     4.269 Ang
siesta: k-grid: Supercell and displacements
siesta: k-grid:    2   0   0      0.000
siesta: k-grid:    0   2   0      0.000
siesta: k-grid:    0   0   2      0.000

diag: Algorithm                                     = Expert
diag: Parallel over k                               =   T
diag: Use parallel 2D distribution                  =   T
diag: Parallel block-size                           = 1
diag: Parallel distribution                         =     3 x     4
diag: Used triangular part                          = Lower
diag: Absolute tolerance                            =  0.100E-15
diag: Orthogonalization factor                      =  0.100E-05
diag: Memory factor                                 =  1.0000

superc: Internal auxiliary supercell:     9 x     9 x     5  =     405
superc: Number of atoms, orbitals, and projectors:   5265  23085  47385


ts: **************************************************************
ts: Save H and S matrices                           =    F
ts: Save DM and EDM matrices                        =    F
ts: Only save the overlap matrix S                  =    F
ts: **************************************************************

************************ Begin: TS CHECKS AND WARNINGS ************************
************************ End: TS CHECKS AND WARNINGS **************************


                     ====================================
                        Single-point calculation
                     ====================================

outcoor: Atomic coordinates (Ang):                          
    0.00000000    0.00000000    0.00000000   2       1  C-gga
    1.42144380    0.00000000    1.54503800   1       2  Li-gga
    2.84715620    0.00000000    4.63511400   1       3  Li-gga
   -0.71072190    1.23100644    1.54503800   1       4  Li-gga
   -1.42357810    2.46570960    4.63511400   1       5  Li-gga
    1.42357810    2.46570960    1.54503800   1       6  Li-gga
    0.71072190    1.23100644    4.63511400   1       7  Li-gga
    2.84715620    0.00000000    1.54503800   1       8  Li-gga
    1.42144380    0.00000000    4.63511400   1       9  Li-gga
   -1.42357810    2.46570960    1.54503800   1      10  Li-gga
   -0.71072190    1.23100644    4.63511400   1      11  Li-gga
    0.71072190    1.23100644    1.54503800   1      12  Li-gga
    1.42357810    2.46570960    4.63511400   1      13  Li-gga

superc: Internal auxiliary supercell:     9 x     9 x     5  =     405
superc: Number of atoms, orbitals, and projectors:   5265  23085  47385

outcell: Unit cell vectors (Ang):
        4.268600    0.000000    0.000000
       -2.134300    3.696716    0.000000
        0.000000    0.000000    6.180152

outcell: Cell vector modules (Ang)   :    4.268600    4.268600    6.180152
outcell: Cell angles (23,13,12) (deg):     90.0000     90.0000    120.0000
outcell: Cell volume (Ang**3)        :     97.5216
<dSpData1D:S at geom step 0
  <sparsity:sparsity for geom step 0
    nrows_g=57 nrows=5 sparsity=10.0163 nnzs=32543, refcount: 7>
  <dData1D:(new from dSpData1D) n=32543, refcount: 1>
refcount: 1>
new_DM -- step:     1
Initializing Density Matrix...
DM filled with atomic data:
<dSpData2D:DM initialized from atoms
  <sparsity:sparsity for geom step 0
    nrows_g=57 nrows=5 sparsity=10.0163 nnzs=32543, refcount: 8>
  <dData2D:DM n=32543 m=1, refcount: 1>
refcount: 1>
No. of atoms with KB's overlaping orbs in proc 0. Max # of overlaps:     416    1048
New grid distribution:   1
           1       1:   20    1:    7    1:    9
           2       1:   20    1:    7   10:   18
           3       1:   20    1:    7   19:   27
           4       1:   20    1:    7   28:   36
           5       1:   20    8:   14    1:    9
           6       1:   20    8:   14   10:   18
           7       1:   20    8:   14   19:   27
           8       1:   20    8:   14   28:   36
           9       1:   20   15:   20    1:    9
          10       1:   20   15:   20   10:   18
          11       1:   20   15:   20   19:   27
          12       1:   20   15:   20   28:   36

InitMesh: MESH =    40 x    40 x    72 =      115200
InitMesh: (bp) =    20 x    20 x    36 =       14400
InitMesh: Mesh cutoff (required, used) =   300.000   323.586 Ry
ExtMesh (bp) on 0 =   160 x   147 x   157 =     3692640
New grid distribution:   2
           1       1:    7    1:   10    1:   18
           2       8:   20   11:   20   19:   27
           3       1:    7    1:   10   19:   36
           4       8:   20    1:   10    1:    9
           5       8:   20   11:   20    1:    9
           6       8:   20    1:   10   10:   18
           7       1:    7   11:   20   19:   36
           8       8:   20    1:   10   28:   36
           9       1:    7   11:   20    1:   18
          10       8:   20    1:   10   19:   27
          11       8:   20   11:   20   10:   18
          12       8:   20   11:   20   28:   36
New grid distribution:   3
           1       1:    7    1:   10    1:   18
           2       8:   20   11:   20   19:   27
           3       1:    7    1:   10   19:   36
           4       8:   20    1:   10    1:    9
           5       8:   20   11:   20    1:    9
           6       8:   20    1:   10   10:   18
           7       1:    7   11:   20   19:   36
           8       8:   20    1:   10   28:   36
           9       1:    7   11:   20    1:   18
          10       8:   20    1:   10   19:   27
          11       8:   20   11:   20   10:   18
          12       8:   20   11:   20   28:   36
Setting up quadratic distribution...
ExtMesh (bp) on 0 =   147 x   150 x   166 =     3660300
PhiOnMesh: Number of (b)points on node 0 =                 1260
PhiOnMesh: nlist on node 0 =               700476

stepf: Fermi-Dirac step function

siesta: Program's energy decomposition (eV):
siesta: Ebs     =      -214.457775
siesta: Eions   =       380.620085
siesta: Ena     =       102.256372
siesta: Ekin    =       230.781185
siesta: Enl     =         0.238651
siesta: Eso     =         0.000000
siesta: Edftu   =         0.000000
siesta: DEna    =        -9.522406
siesta: DUscf   =        13.301267
siesta: DUext   =         0.000000
siesta: Exc     =      -170.069350
siesta: eta*DQ  =         0.000000
siesta: Emadel  =         0.000000
siesta: Emeta   =         0.000000
siesta: Emolmec =        -6.052058
siesta: Ekinion =         0.000000
siesta: Eharris =      -190.104269
siesta: Etot    =      -219.686423
siesta: FreeEng =      -219.712800

        iscf     Eharris(eV)        E_KS(eV)     FreeEng(eV)     dDmax    Ef(eV) dHmax(eV)
   scf:    1     -190.104269     -219.686423     -219.712800  1.416280-13.080887 12.155512
timer: Routine,Calls,Time,% = IterSCF        1      11.355  52.96
   scf:    2     -230.173181     -227.276340     -227.287821  0.502283-13.257891  0.850339
   scf:    3     -227.344445     -227.319120     -227.330752  0.034657-13.292847  0.131794
   scf:    4     -227.334369     -227.328738     -227.340467  0.037646-13.340795  0.159273
   scf:    5     -227.330923     -227.329996     -227.341730  0.004049-13.339890  0.067669
   scf:    6     -227.330442     -227.330319     -227.342098  0.005008-13.341566  0.006913
   scf:    7     -227.330311     -227.330315     -227.342104  0.000638-13.342172  0.005443
   scf:    8     -227.330277     -227.330297     -227.342109  0.001401-13.343539  0.000253
   scf:    9     -227.330294     -227.330295     -227.342109  0.000032-13.343452  0.000175

SCF Convergence by FreeE+DM+H criterion
|FreeE_i-FreeE_(i-1)| (eV) <     0.00100000
max |DM_out - DM_in|         :     0.0000323729
max |H_out - H_in|      (eV) :     0.0001753391
SCF cycle converged after 9 iterations

Using DM_out to compute the final energy and forces
No. of atoms with KB's overlaping orbs in proc 0. Max # of overlaps:     416    1048

MM-Stress (kbar):       16.28       16.28       51.08        0.00        0.00       -0.00

siesta: E_KS(eV) =             -227.3303

siesta: E_KS - E_eggbox =      -227.3303

siesta: Atomic forces (eV/Ang):
     1   -0.000000    0.000000    0.000000
     2    0.607830   -0.000036   -0.121272
     3   -0.607830    0.000003    0.121272
     4   -0.303917    0.526395   -0.121272
     5    0.303946   -0.526378    0.121272
     6   -0.303945   -0.526415   -0.121304
     7    0.303916    0.526431    0.121304
     8   -0.607830    0.000003   -0.121272
     9    0.607830   -0.000036    0.121272
    10    0.303946   -0.526378   -0.121272
    11   -0.303917    0.526395    0.121272
    12    0.303916    0.526431   -0.121304
    13   -0.303945   -0.526415    0.121304
----------------------------------------
   Tot    0.000000   -0.000000    0.000000
----------------------------------------
   Max    0.607830
   Res    0.343815    sqrt( Sum f_i^2 / 3N )
----------------------------------------
   Max    0.607830    constrained

Stress tensor Voigt[x,y,z,yz,xz,xy] (kbar):    -1325.30    -1325.32      684.53       -0.00        0.00       -0.01
(Free)E + p*V (eV/cell)     -187.4518
Target enthalpy (eV/cell)     -227.3421

siesta: Eigenvalues (eV):
  ik is       eps
   1  1  -23.4618  -18.1238  -17.4612  -15.6818  -14.3228  -14.2903  -14.2901  -13.4578  -12.8638  -11.2556
          -8.5405   -8.4379   -8.4378   -7.9022   -7.9022   -6.5085   -6.5085   -4.1262   -4.1261   -3.4311
   -3.4310   -2.0947    3.3074    3.3079    5.0343    5.0343    7.1425    7.1425    8.5840   14.9612
   14.9613   16.9712   16.9712   18.7808   18.7810   22.0390   22.0391   22.5913   22.7740   23.3921
   26.8411   26.8412   28.9915   28.9916   31.0443   31.0454   35.8958   35.8959   37.2079   37.2083
   38.7797   45.1418   45.6040   46.9533   47.1295   62.6236   62.6239
   2  1  -23.3542  -17.5231  -17.3887  -16.4317  -16.1467  -14.9875  -14.7674  -13.4051  -13.2831  -10.3063
         -10.0877   -9.8206   -9.7289   -7.3810   -5.5115   -4.8719   -4.6116   -2.7104   -1.9799   -1.2436
   -1.2000   -1.1944   -0.1226    0.2939    0.2993    0.6114    1.5911    1.6672    2.5515    5.5612
    8.6308    8.7935    9.8885   10.9706   15.9378   16.2736   17.4298   18.3187   21.4590   22.3968
   22.4609   23.2624   24.7212   25.1891   26.0192   26.7195   29.7072   30.7406   31.5214   31.5368
   46.4974   46.7812   48.2654   58.5306   58.6886   59.7959   63.6082
   3  1  -23.3542  -17.5231  -17.3887  -16.4317  -16.1467  -14.9875  -14.7674  -13.4051  -13.2831  -10.3063
         -10.0877   -9.8206   -9.7289   -7.3810   -5.5115   -4.8719   -4.6116   -2.7104   -1.9799   -1.2436
   -1.2000   -1.1944   -0.1226    0.2939    0.2993    0.6114    1.5911    1.6672    2.5515    5.5612
    8.6308    8.7935    9.8885   10.9706   15.9378   16.2736   17.4298   18.3187   21.4590   22.3968
   22.4609   23.2624   24.7212   25.1891   26.0192   26.7195   29.7072   30.7406   31.5214   31.5368
   46.4974   46.7812   48.2654   58.5306   58.6886   59.7959   63.6081
   4  1  -23.3542  -17.5231  -17.3887  -16.4317  -16.1467  -14.9875  -14.7675  -13.4051  -13.2831  -10.3063
         -10.0877   -9.8205   -9.7289   -7.3810   -5.5115   -4.8719   -4.6117   -2.7105   -1.9798   -1.2436
   -1.2000   -1.1944   -0.1226    0.2939    0.2993    0.6112    1.5911    1.6672    2.5517    5.5612
    8.6309    8.7935    9.8885   10.9705   15.9377   16.2738   17.4299   18.3187   21.4594   22.3968
   22.4609   23.2624   24.7210   25.1890   26.0192   26.7195   29.7071   30.7407   31.5205   31.5368
   46.4974   46.7813   48.2653   58.5305   58.6887   59.7961   63.6080
   5  1  -23.5622  -18.1725  -17.2609  -15.6449  -14.3292  -14.3290  -14.1576  -13.9156  -12.9922  -11.7371
          -8.2582   -8.2582   -8.0776   -8.0776   -7.7234   -7.7234   -6.6206   -4.3870   -2.2809   -2.2809
   -2.2294   -2.2293   -1.2282   -1.2282   -0.7770   -0.7770    4.1799    4.1805   14.7945   14.7946
   16.2393   17.4485   17.4485   21.0168   21.0169   22.5986   22.6572   23.5676   23.5677   23.6537
   23.6538   24.5544   24.5545   32.2861   32.2862   39.3768   39.3781   43.9239   43.9245   44.7978
   44.7980   45.9301   46.0538   46.2522   46.3042   50.7864   50.8236
   6  1  -23.3618  -17.9316  -17.2664  -16.4271  -15.8507  -14.8087  -14.8042  -13.7002  -12.5141  -11.6947
         -10.6982  -10.4808   -7.3955   -7.3791   -6.5318   -4.6271   -3.8900   -3.2365   -2.6296   -2.6059
   -2.0669   -1.2457   -1.0231   -0.9111   -0.0176    0.6976    1.9525    3.3806    4.3507    4.4870
   12.0932   12.9193   13.5813   15.2514   17.3531   17.8611   18.3047   18.8265   20.1086   20.9989
   22.0573   22.1014   23.7369   24.3853   24.5865   24.6235   24.7025   25.6054   26.6936   40.5374
   46.8906   49.5285   51.7337   52.0301   52.0928   52.9626   53.4014
   7  1  -23.3618  -17.9316  -17.2664  -16.4271  -15.8507  -14.8087  -14.8042  -13.7002  -12.5141  -11.6947
         -10.6982  -10.4808   -7.3955   -7.3791   -6.5318   -4.6271   -3.8900   -3.2365   -2.6296   -2.6059
   -2.0669   -1.2457   -1.0231   -0.9111   -0.0176    0.6976    1.9525    3.3806    4.3507    4.4870
   12.0932   12.9193   13.5813   15.2514   17.3531   17.8611   18.3047   18.8265   20.1086   20.9989
   22.0573   22.1014   23.7369   24.3853   24.5865   24.6235   24.7025   25.6054   26.6936   40.5374
   46.8906   49.5285   51.7337   52.0301   52.0929   52.9626   53.4014
   8  1  -23.3618  -17.9316  -17.2663  -16.4271  -15.8507  -14.8089  -14.8041  -13.7002  -12.5141  -11.6947
         -10.6982  -10.4808   -7.3955   -7.3790   -6.5318   -4.6272   -3.8900   -3.2366   -2.6296   -2.6059
   -2.0669   -1.2457   -1.0231   -0.9111   -0.0176    0.6976    1.9525    3.3806    4.3504    4.4872
   12.0931   12.9192   13.5813   15.2514   17.3531   17.8613   18.3047   18.8264   20.1086   20.9988
   22.0573   22.1020   23.7368   24.3853   24.5864   24.6236   24.7026   25.6053   26.6935   40.5366
   46.8905   49.5285   51.7336   52.0301   52.0927   52.9627   53.4014
siesta: Fermi energy =     -13.343452 eV

siesta: Program's energy decomposition (eV):
siesta: Ebs     =      -266.722290
siesta: Eions   =       380.620085
siesta: Ena     =       102.256372
siesta: Ekin    =       194.693784
siesta: Enl     =        11.467128
siesta: Eso     =         0.000000
siesta: Edftu   =         0.000000
siesta: DEna    =        10.662411
siesta: DUscf   =         2.903578
siesta: DUext   =         0.000000
siesta: Exc     =      -162.641426
siesta: eta*DQ  =         0.000000
siesta: Emadel  =         0.000000
siesta: Emeta   =         0.000000
siesta: Emolmec =        -6.052058
siesta: Ekinion =         0.000000
siesta: Eharris =      -227.330294
siesta: Etot    =      -227.330295
siesta: FreeEng =      -227.342109

siesta: Final energy (eV):
siesta:  Band Struct. =    -266.722290
siesta:       Kinetic =     194.693784
siesta:       Hartree =      74.970414
siesta:       Edftu   =       0.000000
siesta:       Eso     =       0.000000
siesta:    Ext. field =       0.000000
siesta:   Exch.-corr. =    -162.641426
siesta:  Ion-electron =    -439.351176
siesta:       Ion-ion =     111.050167
siesta:       Ekinion =       0.000000
siesta:         Total =    -227.330295
siesta:         Fermi =     -13.343452

siesta: Atomic forces (eV/Ang):
siesta:      1   -0.000000    0.000000    0.000000
siesta:      2    0.607830   -0.000036   -0.121272
siesta:      3   -0.607830    0.000003    0.121272
siesta:      4   -0.303917    0.526395   -0.121272
siesta:      5    0.303946   -0.526378    0.121272
siesta:      6   -0.303945   -0.526415   -0.121304
siesta:      7    0.303916    0.526431    0.121304
siesta:      8   -0.607830    0.000003   -0.121272
siesta:      9    0.607830   -0.000036    0.121272
siesta:     10    0.303946   -0.526378   -0.121272
siesta:     11   -0.303917    0.526395    0.121272
siesta:     12    0.303916    0.526431   -0.121304
siesta:     13   -0.303945   -0.526415    0.121304
siesta: ----------------------------------------
siesta:    Tot    0.000000   -0.000000    0.000000

siesta: Stress tensor (static) (eV/Ang**3):
siesta:    -0.827181   -0.000006    0.000000
siesta:    -0.000006   -0.827188   -0.000000
siesta:     0.000000   -0.000000    0.427246

siesta: Cell volume =         97.521575 Ang**3

siesta: Pressure (static):
siesta:                Solid            Molecule  Units
siesta:           0.00445498          0.00456484  Ry/Bohr**3
siesta:           0.40904108          0.41912771  eV/Ang**3
siesta:         655.36315037        671.52387994  kBar
(Free)E+ p_basis*V_orbitals  =        -195.171988
(Free)Eharris+ p_basis*V_orbitals  =        -195.171987

cite: Please see "LiC12_scf.bib" for an exhaustive BiBTeX file.
cite: Please clearly indicate Siesta version in published work: 4.1.5
cite: This calculation has made use of the following articles
cite: which are encouraged to be cited in a published work.
        Primary SIESTA paper
          DOI: www.doi.org/10.1088/0953-8984/14/11/302

>> End of run:   9-NOV-2022   9:14:21
Job completed
