Siesta Version  : 4.1.5
Architecture    : x86_64-unknown-linux-gnu--unknown
Compiler version: GNU Fortran (GCC) 11.3.0
Compiler flags  : mpif90 -g -O2 -fallow-argument-mismatch
PP flags        : -DMPI -DFC_HAVE_FLUSH -DFC_HAVE_ABORT
Libraries       :  -I/global/software/sl-7.x86_64/modules/intel/2020.4.304/mkl/include  /globall/software/sl-7.x86_64/modules/intel/2020.4.304/mkl/lib/intel64/libmkl_scalapack_lp64.a -Wl,--start-group /global/software/sl-7.x86_64/modules/intel/2020.4.304/mkl/lib/intel64/libmkl_intel_lp64.a /global/software/sl-7.x86_64/modules/intel/2020.4.304/mkl/lib/intel64/libmkl_sequential.a /global/software/sl-7.x86_64/modules/intel/2020.4.304/mkl/lib/intel64/libmkl_core.a /global/software/sl-7.x86_64/modules/intel/2020.4.304/mkl/lib/intel64/libmkl_blacs_openmpi_lp64.a -Wl,--end-group -lpthread -lm -ldl
PARALLEL version

* Running on 12 nodes in parallel
>> Start of run:   9-NOV-2022   9:34:51

                           ***********************       
                           *  WELCOME TO SIESTA  *       
                           ***********************       

reinit: Reading from standard input
reinit: Dumped input in INPUT_TMP.58460
************************** Dump of input data file ****************************
SystemName LiC12_scf
SystemLabel LiC12_scf
NumberOfAtoms   13
NumberOfSpecies 2
%block ChemicalSpeciesLabel
1  3   Li-gga
2  6   C-gga
%endblock ChemicalSpeciesLabel
PAO.BasisSize  SZP
PAO.EnergyShift  10 meV
%block PS.Lmax
C-gga   2
Li-gga  2
%endblock PS.Lmax
LatticeConstant 1.000000 Ang
%block LatticeVectors
	4.2686000000	0.0000000000	0.0000000000
	-2.1343000000	3.6967160386	0.0000000000
	0.0000000000	0.0000000000	4.6351140000
%endblock LatticeVectors
AtomicCoordinatesFormat Ang
%block AtomicCoordinatesAndAtomicSpecies
	0.00000000	0.00000000	0.00000000	2
	1.42144380	0.00000000	1.15877850	1
	2.84715620	0.00000000	3.47633550	1
	-0.71072190	1.23100644	1.15877850	1
	-1.42357810	2.46570960	3.47633550	1
	1.42357810	2.46570960	1.15877850	1
	0.71072190	1.23100644	3.47633550	1
	2.84715620	0.00000000	1.15877850	1
	1.42144380	0.00000000	3.47633550	1
	-1.42357810	2.46570960	1.15877850	1
	-0.71072190	1.23100644	3.47633550	1
	0.71072190	1.23100644	1.15877850	1
	1.42357810	2.46570960	3.47633550	1
%endblock AtomicCoordinatesAndAtomicSpecies
Kgrid_NoTRS  T
%block kgrid_MonkhorstPack
2       0       0       0.0
0       2       0       0.0
0       0       2       0.0
%endblock kgrid_MonkhorstPack
AtomCoorFormatOut Ang
BlockSize 1
#ProcessorY 12
Diag.ParallelOverK   T
Diag.DivideAndConquer F
MeshCutoff   300 Ry
SCF.FreeE.Tolerance 1E-3 eV
SCF.EDM.Tolerance   5E-3 eV
DM.Tolerance  1E-3
DM.Require.Energy.Convergence T
DM.NumberPulay 4
XC.Functional GGA
XC.Authors    PBE
UseSaveData        F
MD.TypeOfRun       CG
MD.VariableCell    F
MD.NumCGsteps      00
MD.MaxCGDispl      0.200000 Bohr
MD.MaxStressTol    1.000000 GPa
MD.MaxForceTol     0.010000 eV/Ang
WriteMDHistory T
WriteCoorStep T
WriteForces T
WriteCoorStep    T
WriteEigenValues T
WriteDM    F
MM.UnitsDistance Ang  # what this program prints out DO NOT CHANGE
MM.UnitsEnergy    eV  # what this program prints out DO NOT CHANGE
MM.Grimme.S6     0.75 # Grimme-paper for PBE (correct for your functional)
MM.Grimme.D     20.   # Grimme-paper (correct for your functional)
%block MM.Potentials
  1   1 Grimme     16.69      1.650 # Li, 10.1002/jcc.20495
  1   2 Grimme     17.40      2.277 # Li / C
  2   2 Grimme     18.14      2.904 # C, 10.1002/jcc.20495
%endblock MM.Potentials
#%block ProjectedDensityOfStates
# -200.0  120.0  0.4  12800  eV
#%endblock ProjectedDensityOfStates
************************** End of input data file *****************************

reinit: -----------------------------------------------------------------------
reinit: System Name: LiC12_scf
reinit: -----------------------------------------------------------------------
reinit: System Label: LiC12_scf
reinit: -----------------------------------------------------------------------
Reading two-body potentials
Grimme - two-body potential between 1 and 1
Grimme - two-body potential between 1 and 2
Grimme - two-body potential between 2 and 2

initatom: Reading input for the pseudopotentials and atomic orbitals ----------
Species number:   1 Atomic number:    3 Label: Li-gga
Species number:   2 Atomic number:    6 Label: C-gga

Ground state valence configuration:   2s01
Reading pseudopotential information in formatted form from Li-gga.psf

Valence configuration for pseudopotential generation:
2s( 1.00) rc: 2.28
2p( 0.00) rc: 2.28
3d( 0.00) rc: 2.59
4f( 0.00) rc: 2.59
Ground state valence configuration:   2s02  2p02
Reading pseudopotential information in formatted form from C-gga.psf

Valence configuration for pseudopotential generation:
2s( 2.00) rc: 1.56
2p( 2.00) rc: 1.56
3d( 0.00) rc: 1.56
4f( 0.00) rc: 1.56
relmxkb: Read Max KB Ang. Momentum=    2 for species C-gga
relmxkb: Read Max KB Ang. Momentum=    2 for species Li-gga

<basis_specs>
===============================================================================
Li-gga               Z=   3    Mass=  6.9400        Charge= 0.17977+309
Lmxo=0 Lmxkb= 2    BasisType=split      Semic=F
L=0  Nsemic=0  Cnfigmx=2
          i=1  nzeta=1  polorb=1  (2s)
            splnorm:   0.15000    
               vcte:    0.0000    
               rinn:    0.0000    
               qcoe:    0.0000    
               qyuk:    0.0000    
               qwid:   0.10000E-01
                rcs:    0.0000    
            lambdas:    1.0000    
-------------------------------------------------------------------------------
L=0  Nkbl=1  erefs: 0.17977+309
L=1  Nkbl=1  erefs: 0.17977+309
L=2  Nkbl=1  erefs: 0.17977+309
===============================================================================
</basis_specs>

atom: Called for Li-gga                (Z =   3)

read_vps: Pseudopotential generation method:
read_vps: ATM 3.2.2 Troullier-Martins                       
Valence charge for ps generation:    1.00000

read_vps: Pseudopotential includes a core correction:
read_vps: Pseudo-core for xc-correction

xc_check: Exchange-correlation functional:
xc_check: GGA Perdew, Burke & Ernzerhof 1996
V l=0 = -2*Zval/r beyond r=  2.2278
V l=1 = -2*Zval/r beyond r=  2.2278
V l=2 = -2*Zval/r beyond r=  2.5245
All V_l potentials equal beyond r=  2.4622
This should be close to max(r_c) in ps generation
All pots = -2*Zval/r beyond r=  2.5245

VLOCAL1: 99.0% of the norm of Vloc inside      7.160 Ry
VLOCAL1: 99.9% of the norm of Vloc inside     16.318 Ry
atom: Maximum radius for 4*pi*r*r*local-pseudopot. charge    2.86079
atom: Maximum radius for r*vlocal+2*Zval:    2.43160
GHOST: No ghost state for L =  0
GHOST: No ghost state for L =  1
GHOST: No ghost state for L =  2

KBgen: Kleinman-Bylander projectors: 
   l= 0   rc=  2.654023   el= -0.211234   Ekb=  1.742119   kbcos=  0.228463
   l= 1   rc=  2.721230   el= -0.080095   Ekb= -1.122375   kbcos= -0.147941
   l= 2   rc=  2.825246   el=  0.002001   Ekb= -0.207076   kbcos= -0.031965

KBgen: Total number of Kleinman-Bylander projectors:    9
atom: -------------------------------------------------------------------------

atom: SANKEY-TYPE ORBITALS:

SPLIT: Orbitals with angular momentum L= 0

SPLIT: Basis orbitals for state 2s

SPLIT: PAO cut-off radius determined from an
SPLIT: energy shift=  0.000735 Ry

   izeta = 1
                 lambda =    1.000000
                     rc =   11.897381
                 energy =   -0.210580
                kinetic =    0.143382
    potential(screened) =   -0.353962
       potential(ionic) =   -0.533453

POLgen: Perturbative polarization orbital with L=  1

POLgen: Polarization orbital for state 2s

   izeta = 1
                     rc =   11.897381
                 energy =   -0.027011
                kinetic =    0.282985
    potential(screened) =   -0.309997
       potential(ionic) =   -0.490997
atom: Total number of Sankey-type orbitals:  4

atm_pop: Valence configuration (for local Pseudopot. screening):
 2s( 1.00)                                                            
Vna: chval, zval:    1.00000   1.00000

Vna:  Cut-off radius for the neutral-atom potential:  11.897381
comcore: Pseudo-core radius Rcore=  3.450946

atom: _________________________________________________________________________

<basis_specs>
===============================================================================
C-gga                Z=   6    Mass=  12.010        Charge= 0.17977+309
Lmxo=1 Lmxkb= 2    BasisType=split      Semic=F
L=0  Nsemic=0  Cnfigmx=2
          i=1  nzeta=1  polorb=0  (2s)
            splnorm:   0.15000    
               vcte:    0.0000    
               rinn:    0.0000    
               qcoe:    0.0000    
               qyuk:    0.0000    
               qwid:   0.10000E-01
                rcs:    0.0000    
            lambdas:    1.0000    
L=1  Nsemic=0  Cnfigmx=2
          i=1  nzeta=1  polorb=1  (2p)
            splnorm:   0.15000    
               vcte:    0.0000    
               rinn:    0.0000    
               qcoe:    0.0000    
               qyuk:    0.0000    
               qwid:   0.10000E-01
                rcs:    0.0000    
            lambdas:    1.0000    
-------------------------------------------------------------------------------
L=0  Nkbl=1  erefs: 0.17977+309
L=1  Nkbl=1  erefs: 0.17977+309
L=2  Nkbl=1  erefs: 0.17977+309
===============================================================================
</basis_specs>

atom: Called for C-gga                 (Z =   6)

read_vps: Pseudopotential generation method:
read_vps: ATM 3.2.2 Troullier-Martins                       
Valence charge for ps generation:    4.00000

xc_check: Exchange-correlation functional:
xc_check: GGA Perdew, Burke & Ernzerhof 1996
V l=0 = -2*Zval/r beyond r=  1.5227
V l=1 = -2*Zval/r beyond r=  1.5227
V l=2 = -2*Zval/r beyond r=  1.5227
All V_l potentials equal beyond r=  1.4851
This should be close to max(r_c) in ps generation
All pots = -2*Zval/r beyond r=  1.5227

VLOCAL1: 99.0% of the norm of Vloc inside     19.682 Ry
VLOCAL1: 99.9% of the norm of Vloc inside     44.856 Ry
atom: Maximum radius for 4*pi*r*r*local-pseudopot. charge    1.79142
atom: Maximum radius for r*vlocal+2*Zval:    1.54183
GHOST: No ghost state for L =  0
GHOST: No ghost state for L =  1
GHOST: No ghost state for L =  2

KBgen: Kleinman-Bylander projectors: 
   l= 0   rc=  1.661951   el= -1.010689   Ekb=  5.289847   kbcos=  0.316429
   l= 1   rc=  1.661951   el= -0.388490   Ekb= -4.102504   kbcos= -0.351025
   l= 2   rc=  1.747182   el=  0.001971   Ekb= -1.006005   kbcos= -0.008530

KBgen: Total number of Kleinman-Bylander projectors:    9
atom: -------------------------------------------------------------------------

atom: SANKEY-TYPE ORBITALS:

SPLIT: Orbitals with angular momentum L= 0

SPLIT: Basis orbitals for state 2s

SPLIT: PAO cut-off radius determined from an
SPLIT: energy shift=  0.000735 Ry

   izeta = 1
                 lambda =    1.000000
                     rc =    5.948690
                 energy =   -1.010099
                kinetic =    0.827121
    potential(screened) =   -1.837220
       potential(ionic) =   -5.392783

SPLIT: Orbitals with angular momentum L= 1

SPLIT: Basis orbitals for state 2p

SPLIT: PAO cut-off radius determined from an
SPLIT: energy shift=  0.000735 Ry

   izeta = 1
                 lambda =    1.000000
                     rc =    7.638387
                 energy =   -0.387843
                kinetic =    2.314739
    potential(screened) =   -2.702582
       potential(ionic) =   -6.092371

POLgen: Perturbative polarization orbital with L=  2

POLgen: Polarization orbital for state 2p

   izeta = 1
                     rc =    7.638387
                 energy =    0.921402
                kinetic =    1.955040
    potential(screened) =   -1.033637
       potential(ionic) =   -3.679558
atom: Total number of Sankey-type orbitals:  9

atm_pop: Valence configuration (for local Pseudopot. screening):
 2s( 2.00)                                                            
 2p( 2.00)                                                            
Vna: chval, zval:    4.00000   4.00000

Vna:  Cut-off radius for the neutral-atom potential:   7.638387

atom: _________________________________________________________________________

prinput: Basis input ----------------------------------------------------------

PAO.BasisType split     

%block ChemicalSpeciesLabel
    1    3 Li-gga                  # Species index, atomic number, species label
    2    6 C-gga                   # Species index, atomic number, species label
%endblock ChemicalSpeciesLabel

%block PAO.Basis                 # Define Basis set
Li-gga                1                    # Species label, number of l-shells
 n=2   0   1 P   1                   # n, l, Nzeta, Polarization, NzetaPol
  11.897   
   1.000   
C-gga                 2                    # Species label, number of l-shells
 n=2   0   1                         # n, l, Nzeta 
   5.949   
   1.000   
 n=2   1   1 P   1                   # n, l, Nzeta, Polarization, NzetaPol
   7.638   
   1.000   
%endblock PAO.Basis

prinput: ----------------------------------------------------------------------

coor:   Atomic-coordinates input format  =     Cartesian coordinates
coor:                                          (in Angstroms)

siesta: Atomic coordinates (Bohr) and species
siesta:      0.00000   0.00000   0.00000  2        1
siesta:      2.68614   0.00000   2.18977  1        2
siesta:      5.38035   0.00000   6.56932  1        3
siesta:     -1.34307   2.32627   2.18977  1        4
siesta:     -2.69017   4.65952   6.56932  1        5
siesta:      2.69017   4.65952   2.18977  1        6
siesta:      1.34307   2.32627   6.56932  1        7
siesta:      5.38035   0.00000   2.18977  1        8
siesta:      2.68614   0.00000   6.56932  1        9
siesta:     -2.69017   4.65952   2.18977  1       10
siesta:     -1.34307   2.32627   6.56932  1       11
siesta:      1.34307   2.32627   2.18977  1       12
siesta:      2.69017   4.65952   6.56932  1       13

siesta: System type = bulk      

initatomlists: Number of atoms, orbitals, and projectors:     13    57   117

siesta: ******************** Simulation parameters ****************************
siesta:
siesta: The following are some of the parameters of the simulation.
siesta: A complete list of the parameters used, including default values,
siesta: can be found in file out.fdf
siesta:
redata: Spin configuration                          = none
redata: Number of spin components                   = 1
redata: Time-Reversal Symmetry                      = T
redata: Spin spiral                                 = F
redata: Long output                                 =   F
redata: Number of Atomic Species                    =        2
redata: Charge density info will appear in .RHO file
redata: Write Mulliken Pop.                         = NO
redata: Matel table size (NRTAB)                    =     1024
redata: Mesh Cutoff                                 =   300.0000 Ry
redata: Net charge of the system                    =     0.0000 |e|
redata: Min. number of SCF Iter                     =        0
redata: Max. number of SCF Iter                     =     1000
redata: SCF convergence failure will abort job
redata: SCF mix quantity                            = Hamiltonian
redata: Mix DM or H after convergence               =   F
redata: Recompute H after scf cycle                 =   F
redata: Mix DM in first SCF step                    =   T
redata: Write Pulay info on disk                    =   F
redata: New DM Occupancy tolerance                  = 0.000000000001
redata: No kicks to SCF
redata: DM Mixing Weight for Kicks                  =     0.5000
redata: Require Harris convergence for SCF          =   F
redata: Harris energy tolerance for SCF             =     0.000100 eV
redata: Require DM convergence for SCF              =   T
redata: DM tolerance for SCF                        =     0.001000
redata: Require EDM convergence for SCF             =   F
redata: EDM tolerance for SCF                       =     0.005000 eV
redata: Require H convergence for SCF               =   T
redata: Hamiltonian tolerance for SCF               =     0.001000 eV
redata: Require (free) Energy convergence for SCF   =   T
redata: (free) Energy tolerance for SCF             =     0.001000 eV
redata: Using Saved Data (generic)                  =   F
redata: Use continuation files for DM               =   F
redata: Neglect nonoverlap interactions             =   F
redata: Method of Calculation                       = Diagonalization
redata: Electronic Temperature                      =   299.9869 K
redata: Fix the spin of the system                  =   F
redata: Dynamics option                             = Single-point calculation
mix.SCF: Pulay mixing                            = Pulay
mix.SCF:    Variant                              = stable
mix.SCF:    History steps                        = 4
mix.SCF:    Linear mixing weight                 =     0.250000
mix.SCF:    Mixing weight                        =     0.250000
mix.SCF:    SVD condition                        = 0.1000E-07
redata: ***********************************************************************

%block SCF.Mixers
  Pulay
%endblock SCF.Mixers

%block SCF.Mixer.Pulay
  # Mixing method
  method pulay
  variant stable

  # Mixing options
  weight 0.2500
  weight.linear 0.2500
  history 4
%endblock SCF.Mixer.Pulay

DM_history_depth set to one: no extrapolation allowed by default for geometry relaxation
Size of DM history Fstack: 1
Total number of electrons:    16.000000
Total ionic charge:    16.000000

* ProcessorY, Blocksize:    3   1


* Orbital distribution balance (max,min):     5     4

k-point displ. along   1 input, could be:     0.00    0.50
k-point displ. along   2 input, could be:     0.00    0.50
k-point displ. along   3 input, could be:     0.00    0.50
 Kpoints in:            8 . Kpoints trimmed:            8

siesta: k-grid: Number of k-points =     8
siesta: k-grid: Cutoff (effective) =     4.269 Ang
siesta: k-grid: Supercell and displacements
siesta: k-grid:    2   0   0      0.000
siesta: k-grid:    0   2   0      0.000
siesta: k-grid:    0   0   2      0.000

diag: Algorithm                                     = Expert
diag: Parallel over k                               =   T
diag: Use parallel 2D distribution                  =   T
diag: Parallel block-size                           = 1
diag: Parallel distribution                         =     3 x     4
diag: Used triangular part                          = Lower
diag: Absolute tolerance                            =  0.100E-15
diag: Orthogonalization factor                      =  0.100E-05
diag: Memory factor                                 =  1.0000

superc: Internal auxiliary supercell:     9 x     9 x     7  =     567
superc: Number of atoms, orbitals, and projectors:   7371  32319  66339


ts: **************************************************************
ts: Save H and S matrices                           =    F
ts: Save DM and EDM matrices                        =    F
ts: Only save the overlap matrix S                  =    F
ts: **************************************************************

************************ Begin: TS CHECKS AND WARNINGS ************************
************************ End: TS CHECKS AND WARNINGS **************************


                     ====================================
                        Single-point calculation
                     ====================================

outcoor: Atomic coordinates (Ang):                          
    0.00000000    0.00000000    0.00000000   2       1  C-gga
    1.42144380    0.00000000    1.15877850   1       2  Li-gga
    2.84715620    0.00000000    3.47633550   1       3  Li-gga
   -0.71072190    1.23100644    1.15877850   1       4  Li-gga
   -1.42357810    2.46570960    3.47633550   1       5  Li-gga
    1.42357810    2.46570960    1.15877850   1       6  Li-gga
    0.71072190    1.23100644    3.47633550   1       7  Li-gga
    2.84715620    0.00000000    1.15877850   1       8  Li-gga
    1.42144380    0.00000000    3.47633550   1       9  Li-gga
   -1.42357810    2.46570960    1.15877850   1      10  Li-gga
   -0.71072190    1.23100644    3.47633550   1      11  Li-gga
    0.71072190    1.23100644    1.15877850   1      12  Li-gga
    1.42357810    2.46570960    3.47633550   1      13  Li-gga

superc: Internal auxiliary supercell:     9 x     9 x     7  =     567
superc: Number of atoms, orbitals, and projectors:   7371  32319  66339

outcell: Unit cell vectors (Ang):
        4.268600    0.000000    0.000000
       -2.134300    3.696716    0.000000
        0.000000    0.000000    4.635114

outcell: Cell vector modules (Ang)   :    4.268600    4.268600    4.635114
outcell: Cell angles (23,13,12) (deg):     90.0000     90.0000    120.0000
outcell: Cell volume (Ang**3)        :     73.1412
<dSpData1D:S at geom step 0
  <sparsity:sparsity for geom step 0
    nrows_g=57 nrows=5 sparsity=14.1370 nnzs=45931, refcount: 7>
  <dData1D:(new from dSpData1D) n=45931, refcount: 1>
refcount: 1>
new_DM -- step:     1
Initializing Density Matrix...
DM filled with atomic data:
<dSpData2D:DM initialized from atoms
  <sparsity:sparsity for geom step 0
    nrows_g=57 nrows=5 sparsity=14.1370 nnzs=45931, refcount: 8>
  <dData2D:DM n=45931 m=1, refcount: 1>
refcount: 1>
No. of atoms with KB's overlaping orbs in proc 0. Max # of overlaps:     548    1386
New grid distribution:   1
           1       1:   20    1:    7    1:    7
           2       1:   20    1:    7    8:   13
           3       1:   20    1:    7   14:   19
           4       1:   20    1:    7   20:   25
           5       1:   20    8:   14    1:    7
           6       1:   20    8:   14    8:   13
           7       1:   20    8:   14   14:   19
           8       1:   20    8:   14   20:   25
           9       1:   20   15:   20    1:    7
          10       1:   20   15:   20    8:   13
          11       1:   20   15:   20   14:   19
          12       1:   20   15:   20   20:   25

InitMesh: MESH =    40 x    40 x    50 =       80000
InitMesh: (bp) =    20 x    20 x    25 =       10000
InitMesh: Mesh cutoff (required, used) =   300.000   321.604 Ry
ExtMesh (bp) on 0 =   160 x   147 x   143 =     3363360
New grid distribution:   2
           1       8:   20    1:   10    1:    7
           2       1:    7    1:   10    1:   13
           3       8:   20    1:   10    8:   13
           4       8:   20    1:   10   20:   25
           5       8:   20   11:   20    1:    7
           6       8:   20   11:   20   14:   19
           7       1:    7    1:   10   14:   25
           8       8:   20    1:   10   14:   19
           9       1:    7   11:   20    1:   13
          10       8:   20   11:   20    8:   13
          11       1:    7   11:   20   14:   25
          12       8:   20   11:   20   20:   25
New grid distribution:   3
           1       8:   20    1:   10    1:    7
           2       1:    7    1:   10    1:   13
           3       8:   20    1:   10    8:   13
           4       8:   20    1:   10   20:   25
           5       8:   20   11:   20    1:    7
           6       8:   20   11:   20   14:   19
           7       1:    7    1:   10   14:   25
           8       8:   20    1:   10   14:   19
           9       1:    7   11:   20    1:   13
          10       8:   20   11:   20    8:   13
          11       1:    7   11:   20   14:   25
          12       8:   20   11:   20   20:   25
Setting up quadratic distribution...
ExtMesh (bp) on 0 =   153 x   150 x   143 =     3281850
PhiOnMesh: Number of (b)points on node 0 =                  910
PhiOnMesh: nlist on node 0 =               676067

stepf: Fermi-Dirac step function

siesta: Program's energy decomposition (eV):
siesta: Ebs     =      -262.582122
siesta: Eions   =       380.620085
siesta: Ena     =        83.893526
siesta: Ekin    =       286.141794
siesta: Enl     =        -8.452172
siesta: Eso     =         0.000000
siesta: Edftu   =         0.000000
siesta: DEna    =       -32.140254
siesta: DUscf   =        27.250116
siesta: DUext   =         0.000000
siesta: Exc     =      -187.176208
siesta: eta*DQ  =         0.000000
siesta: Emadel  =         0.000000
siesta: Emeta   =         0.000000
siesta: Emolmec =        -8.343895
siesta: Ekinion =         0.000000
siesta: Eharris =      -176.294863
siesta: Etot    =      -219.447180
siesta: FreeEng =      -219.464494

        iscf     Eharris(eV)        E_KS(eV)     FreeEng(eV)     dDmax    Ef(eV) dHmax(eV)
   scf:    1     -176.294863     -219.447180     -219.464494  2.187630-17.398212 16.222917
timer: Routine,Calls,Time,% = IterSCF        1      16.617  55.93
   scf:    2     -240.694752     -232.411335     -232.423678  0.715746-15.859025  4.785479
   scf:    3     -233.669259     -233.675560     -233.689397  0.290248-15.801926  0.781127
   scf:    4     -232.441764     -233.320687     -233.335936  0.216367-15.504699  2.419438
   scf:    5     -233.755675     -233.729438     -233.743051  0.196282-15.609378  0.292855
   scf:    6     -233.732568     -233.735197     -233.748837  0.046941-15.491308  0.159329
   scf:    7     -233.736791     -233.736042     -233.749656  0.003179-15.497283  0.108066
   scf:    8     -233.737277     -233.736893     -233.750454  0.007442-15.522498  0.002807
   scf:    9     -233.736893     -233.736893     -233.750456  0.000982-15.523074  0.000712

SCF Convergence by FreeE+DM+H criterion
|FreeE_i-FreeE_(i-1)| (eV) <     0.00100000
max |DM_out - DM_in|         :     0.0009822111
max |H_out - H_in|      (eV) :     0.0007115346
SCF cycle converged after 9 iterations

Using DM_out to compute the final energy and forces
No. of atoms with KB's overlaping orbs in proc 0. Max # of overlaps:     548    1386

MM-Stress (kbar):       85.22       85.22      319.62       -0.00        0.00       -0.00

siesta: E_KS(eV) =             -233.7369

siesta: E_KS - E_eggbox =      -233.7369

siesta: Atomic forces (eV/Ang):
     1    0.000000    0.000000    0.000000
     2    0.269426   -0.000018    0.233810
     3   -0.269426    0.000018   -0.233810
     4   -0.134728    0.233321    0.233810
     5    0.134728   -0.233321   -0.233810
     6   -0.134718   -0.233338    0.233781
     7    0.134718    0.233338   -0.233781
     8   -0.269426    0.000018    0.233810
     9    0.269426   -0.000018   -0.233810
    10    0.134728   -0.233321    0.233810
    11   -0.134728    0.233321   -0.233810
    12    0.134718    0.233338    0.233781
    13   -0.134718   -0.233338   -0.233781
----------------------------------------
   Tot    0.000000    0.000000    0.000000
----------------------------------------
   Max    0.269426
   Res    0.197877    sqrt( Sum f_i^2 / 3N )
----------------------------------------
   Max    0.269426    constrained

Stress tensor Voigt[x,y,z,yz,xz,xy] (kbar):    -1599.59    -1599.61       -4.53       -0.00        0.00       -0.02
(Free)E + p*V (eV/cell)     -184.9998
Target enthalpy (eV/cell)     -233.7505

siesta: Eigenvalues (eV):
  ik is       eps
   1  1  -27.9990  -22.9706  -21.1020  -20.4438  -20.1092  -19.4799  -19.4797  -15.3503  -13.4916  -13.4916
         -13.4439  -13.0828  -13.0828  -12.5520  -12.5520   -9.9308   -5.2877   -3.8373   -3.8373   -3.0047
   -3.0047    0.2046    0.2052    2.3054    2.3054    4.5871   12.8058   18.5144   18.5146   18.5316
   18.9390   18.9391   20.6431   20.6432   20.9656   24.8056   24.8060   25.3322   25.3334   32.7391
   32.7392   34.3830   34.3831   36.9101   41.9413   42.1388   44.0833   44.3225   54.9787   54.9787
   61.7126   61.7127   78.3717   78.3719   83.0822  150.8308  150.8308
   2  1  -27.9873  -22.4790  -21.6183  -21.4654  -20.6200  -20.4010  -19.9814  -15.5036  -15.2083  -14.9184
         -14.8651  -14.0430  -10.3470  -10.2007   -7.9237   -7.6535   -4.1236   -3.8523   -2.4918   -2.4790
   -0.3087   -0.2767    1.1926    1.3643    1.6211    2.8292    3.1374    4.5632    9.1347   11.2248
   12.0643   12.2383   15.0585   15.2355   15.4383   18.5923   18.8224   19.7305   20.4569   20.5917
   21.9048   23.3625   24.5212   25.2978   27.4845   29.9856   31.0948   37.5744   39.2503   43.3265
   45.6657   46.5971   49.9580   50.7893   52.6300   56.6405   63.5552
   3  1  -27.9873  -22.4790  -21.6183  -21.4654  -20.6200  -20.4010  -19.9814  -15.5036  -15.2083  -14.9184
         -14.8651  -14.0430  -10.3470  -10.2007   -7.9237   -7.6535   -4.1236   -3.8523   -2.4918   -2.4790
   -0.3087   -0.2767    1.1926    1.3643    1.6211    2.8292    3.1374    4.5632    9.1347   11.2248
   12.0643   12.2383   15.0585   15.2355   15.4383   18.5923   18.8224   19.7305   20.4569   20.5917
   21.9048   23.3625   24.5212   25.2978   27.4845   29.9856   31.0948   37.5744   39.2503   43.3265
   45.6657   46.5971   49.9580   50.7893   52.6299   56.6405   63.5552
   4  1  -27.9873  -22.4790  -21.6182  -21.4654  -20.6200  -20.4010  -19.9815  -15.5036  -15.2081  -14.9184
         -14.8651  -14.0430  -10.3470  -10.2007   -7.9237   -7.6535   -4.1237   -3.8523   -2.4918   -2.4792
   -0.3087   -0.2763    1.1926    1.3642    1.6211    2.8292    3.1373    4.5632    9.1347   11.2244
   12.0644   12.2387   15.0585   15.2356   15.4383   18.5922   18.8227   19.7304   20.4569   20.5917
   21.9048   23.3625   24.5211   25.2975   27.4846   29.9848   31.0948   37.5745   39.2502   43.3266
   45.6656   46.5969   49.9582   50.7893   52.6299   56.6407   63.5550
   5  1  -27.7537  -22.0744  -21.3694  -20.5374  -19.5153  -19.5151  -18.6689  -18.4655  -14.4024  -13.3382
         -13.3382  -13.3218  -13.3218  -13.1100  -13.1100  -10.9621   -3.4600   -2.0436   -0.7406   -0.7401
    2.0087    2.0087    4.7791    4.7791    5.4700    5.4700    7.2026    7.2027   10.1222   10.1224
   13.4290   13.4290   18.9953   19.0761   20.8998   24.6164   24.6166   28.4485   28.4489   29.7827
   29.7828   32.4270   32.4271   32.7726   32.7726   37.1931   37.2489   42.5431   42.8554   42.8750
   43.0175   47.2722   47.2736   48.8264   48.8266   49.5612   49.5621
   6  1  -27.9329  -22.3949  -22.2685  -21.4870  -20.4279  -19.9107  -19.7963  -16.5695  -16.4302  -15.4112
         -12.1979  -11.9534  -10.0836   -8.5136   -7.1493   -6.9193   -6.6843   -6.4362   -6.3150   -4.6606
   -3.7707   -3.6561   -3.6335   -3.1664    0.1191    1.1590    4.3668    5.5960    8.0663    8.4302
   13.4169   13.6750   16.0986   16.3679   16.7373   18.0392   19.2011   19.2251   20.1143   24.2926
   24.3893   25.2155   25.5889   25.7939   26.4928   28.3792   31.6237   36.9858   39.1635   39.9978
   45.5140   47.2234   47.2545   48.0026   48.6675   48.9299   68.9572
   7  1  -27.9329  -22.3949  -22.2685  -21.4870  -20.4279  -19.9107  -19.7963  -16.5695  -16.4302  -15.4112
         -12.1979  -11.9534  -10.0836   -8.5136   -7.1493   -6.9193   -6.6843   -6.4362   -6.3150   -4.6606
   -3.7707   -3.6561   -3.6335   -3.1664    0.1191    1.1590    4.3668    5.5960    8.0663    8.4302
   13.4169   13.6750   16.0986   16.3679   16.7373   18.0392   19.2011   19.2251   20.1143   24.2926
   24.3893   25.2155   25.5889   25.7939   26.4928   28.3792   31.6237   36.9858   39.1635   39.9979
   45.5140   47.2234   47.2545   48.0026   48.6675   48.9299   68.9572
   8  1  -27.9329  -22.3948  -22.2685  -21.4870  -20.4279  -19.9109  -19.7963  -16.5695  -16.4301  -15.4112
         -12.1979  -11.9534  -10.0837   -8.5135   -7.1493   -6.9194   -6.6843   -6.4362   -6.3150   -4.6606
   -3.7707   -3.6561   -3.6335   -3.1664    0.1191    1.1589    4.3668    5.5955    8.0663    8.4307
   13.4172   13.6750   16.0985   16.3675   16.7374   18.0394   19.2011   19.2251   20.1142   24.2926
   24.3890   25.2157   25.5888   25.7938   26.4929   28.3797   31.6235   36.9857   39.1634   39.9973
   45.5139   47.2234   47.2544   48.0028   48.6675   48.9298   68.9570
siesta: Fermi energy =     -15.523074 eV

siesta: Program's energy decomposition (eV):
siesta: Ebs     =      -340.070008
siesta: Eions   =       380.620085
siesta: Ena     =        83.893526
siesta: Ekin    =       230.008373
siesta: Enl     =         9.645891
siesta: Eso     =         0.000000
siesta: Edftu   =         0.000000
siesta: DEna    =         2.437362
siesta: DUscf   =         5.455531
siesta: DUext   =         0.000000
siesta: Exc     =      -176.213596
siesta: eta*DQ  =         0.000000
siesta: Emadel  =         0.000000
siesta: Emeta   =         0.000000
siesta: Emolmec =        -8.343895
siesta: Ekinion =         0.000000
siesta: Eharris =      -233.736893
siesta: Etot    =      -233.736893
siesta: FreeEng =      -233.750456

siesta: Final energy (eV):
siesta:  Band Struct. =    -340.070008
siesta:       Kinetic =     230.008373
siesta:       Hartree =      78.047663
siesta:       Edftu   =       0.000000
siesta:       Eso     =       0.000000
siesta:    Ext. field =       0.000000
siesta:   Exch.-corr. =    -176.213596
siesta:  Ion-electron =    -537.174834
siesta:       Ion-ion =     179.939396
siesta:       Ekinion =       0.000000
siesta:         Total =    -233.736893
siesta:         Fermi =     -15.523074

siesta: Atomic forces (eV/Ang):
siesta:      1    0.000000    0.000000    0.000000
siesta:      2    0.269426   -0.000018    0.233810
siesta:      3   -0.269426    0.000018   -0.233810
siesta:      4   -0.134728    0.233321    0.233810
siesta:      5    0.134728   -0.233321   -0.233810
siesta:      6   -0.134718   -0.233338    0.233781
siesta:      7    0.134718    0.233338   -0.233781
siesta:      8   -0.269426    0.000018    0.233810
siesta:      9    0.269426   -0.000018   -0.233810
siesta:     10    0.134728   -0.233321    0.233810
siesta:     11   -0.134728    0.233321   -0.233810
siesta:     12    0.134718    0.233338    0.233781
siesta:     13   -0.134718   -0.233338   -0.233781
siesta: ----------------------------------------
siesta:    Tot    0.000000    0.000000    0.000000

siesta: Stress tensor (static) (eV/Ang**3):
siesta:    -0.998374   -0.000010    0.000000
siesta:    -0.000010   -0.998386   -0.000000
siesta:     0.000000   -0.000000   -0.002825

siesta: Cell volume =         73.141182 Ang**3

siesta: Pressure (static):
siesta:                Solid            Molecule  Units
siesta:           0.00725934          0.00753511  Ry/Bohr**3
siesta:           0.66652823          0.69184842  eV/Ang**3
siesta:        1067.90750580       1108.47534649  kBar
(Free)E+ p_basis*V_orbitals  =        -201.580335
(Free)Eharris+ p_basis*V_orbitals  =        -201.580335

cite: Please see "LiC12_scf.bib" for an exhaustive BiBTeX file.
cite: Please clearly indicate Siesta version in published work: 4.1.5
cite: This calculation has made use of the following articles
cite: which are encouraged to be cited in a published work.
        Primary SIESTA paper
          DOI: www.doi.org/10.1088/0953-8984/14/11/302

>> End of run:   9-NOV-2022   9:37:28
Job completed
