Siesta Version  : 4.1.5
Architecture    : x86_64-unknown-linux-gnu--unknown
Compiler version: GNU Fortran (GCC) 11.3.0
Compiler flags  : mpif90 -g -O2 -fallow-argument-mismatch
PP flags        : -DMPI -DFC_HAVE_FLUSH -DFC_HAVE_ABORT
Libraries       :  -I/global/software/sl-7.x86_64/modules/intel/2020.4.304/mkl/include  /globall/software/sl-7.x86_64/modules/intel/2020.4.304/mkl/lib/intel64/libmkl_scalapack_lp64.a -Wl,--start-group /global/software/sl-7.x86_64/modules/intel/2020.4.304/mkl/lib/intel64/libmkl_intel_lp64.a /global/software/sl-7.x86_64/modules/intel/2020.4.304/mkl/lib/intel64/libmkl_sequential.a /global/software/sl-7.x86_64/modules/intel/2020.4.304/mkl/lib/intel64/libmkl_core.a /global/software/sl-7.x86_64/modules/intel/2020.4.304/mkl/lib/intel64/libmkl_blacs_openmpi_lp64.a -Wl,--end-group -lpthread -lm -ldl
PARALLEL version

* Running on 12 nodes in parallel
>> Start of run:   9-NOV-2022  10:46:34

                           ***********************       
                           *  WELCOME TO SIESTA  *       
                           ***********************       

reinit: Reading from standard input
reinit: Dumped input in INPUT_TMP.61515
************************** Dump of input data file ****************************
SystemName LiC12_scf
SystemLabel LiC12_scf
NumberOfAtoms   13
NumberOfSpecies 2
%block ChemicalSpeciesLabel
1  3   Li-gga
2  6   C-gga
%endblock ChemicalSpeciesLabel
PAO.BasisSize  SZP
PAO.EnergyShift  10 meV
%block PS.Lmax
C-gga   2
Li-gga  2
%endblock PS.Lmax
LatticeConstant 1.000000 Ang
%block LatticeVectors
	4.2686000000	0.0000000000	0.0000000000
	-2.1343000000	3.6967160386	0.0000000000
	0.0000000000	0.0000000000	9.5511440000
%endblock LatticeVectors
AtomicCoordinatesFormat Ang
%block AtomicCoordinatesAndAtomicSpecies
	0.00000000	0.00000000	0.00000000	2
	1.42144380	0.00000000	2.38778600	1
	2.84715620	0.00000000	7.16335800	1
	-0.71072190	1.23100644	2.38778600	1
	-1.42357810	2.46570960	7.16335800	1
	1.42357810	2.46570960	2.38778600	1
	0.71072190	1.23100644	7.16335800	1
	2.84715620	0.00000000	2.38778600	1
	1.42144380	0.00000000	7.16335800	1
	-1.42357810	2.46570960	2.38778600	1
	-0.71072190	1.23100644	7.16335800	1
	0.71072190	1.23100644	2.38778600	1
	1.42357810	2.46570960	7.16335800	1
%endblock AtomicCoordinatesAndAtomicSpecies
Kgrid_NoTRS  T
%block kgrid_MonkhorstPack
2       0       0       0.0
0       2       0       0.0
0       0       2       0.0
%endblock kgrid_MonkhorstPack
AtomCoorFormatOut Ang
BlockSize 1
#ProcessorY 12
Diag.ParallelOverK   T
Diag.DivideAndConquer F
MeshCutoff   300 Ry
SCF.FreeE.Tolerance 1E-3 eV
SCF.EDM.Tolerance   5E-3 eV
DM.Tolerance  1E-3
DM.Require.Energy.Convergence T
DM.NumberPulay 4
XC.Functional GGA
XC.Authors    PBE
UseSaveData        F
MD.TypeOfRun       CG
MD.VariableCell    F
MD.NumCGsteps      00
MD.MaxCGDispl      0.200000 Bohr
MD.MaxStressTol    1.000000 GPa
MD.MaxForceTol     0.010000 eV/Ang
WriteMDHistory T
WriteCoorStep T
WriteForces T
WriteCoorStep    T
WriteEigenValues T
WriteDM    F
MM.UnitsDistance Ang  # what this program prints out DO NOT CHANGE
MM.UnitsEnergy    eV  # what this program prints out DO NOT CHANGE
MM.Grimme.S6     0.75 # Grimme-paper for PBE (correct for your functional)
MM.Grimme.D     20.   # Grimme-paper (correct for your functional)
%block MM.Potentials
  1   1 Grimme     16.69      1.650 # Li, 10.1002/jcc.20495
  1   2 Grimme     17.40      2.277 # Li / C
  2   2 Grimme     18.14      2.904 # C, 10.1002/jcc.20495
%endblock MM.Potentials
#%block ProjectedDensityOfStates
# -200.0  120.0  0.4  12800  eV
#%endblock ProjectedDensityOfStates
************************** End of input data file *****************************

reinit: -----------------------------------------------------------------------
reinit: System Name: LiC12_scf
reinit: -----------------------------------------------------------------------
reinit: System Label: LiC12_scf
reinit: -----------------------------------------------------------------------
Reading two-body potentials
Grimme - two-body potential between 1 and 1
Grimme - two-body potential between 1 and 2
Grimme - two-body potential between 2 and 2

initatom: Reading input for the pseudopotentials and atomic orbitals ----------
Species number:   1 Atomic number:    3 Label: Li-gga
Species number:   2 Atomic number:    6 Label: C-gga

Ground state valence configuration:   2s01
Reading pseudopotential information in formatted form from Li-gga.psf

Valence configuration for pseudopotential generation:
2s( 1.00) rc: 2.28
2p( 0.00) rc: 2.28
3d( 0.00) rc: 2.59
4f( 0.00) rc: 2.59
Ground state valence configuration:   2s02  2p02
Reading pseudopotential information in formatted form from C-gga.psf

Valence configuration for pseudopotential generation:
2s( 2.00) rc: 1.56
2p( 2.00) rc: 1.56
3d( 0.00) rc: 1.56
4f( 0.00) rc: 1.56
relmxkb: Read Max KB Ang. Momentum=    2 for species C-gga
relmxkb: Read Max KB Ang. Momentum=    2 for species Li-gga

<basis_specs>
===============================================================================
Li-gga               Z=   3    Mass=  6.9400        Charge= 0.17977+309
Lmxo=0 Lmxkb= 2    BasisType=split      Semic=F
L=0  Nsemic=0  Cnfigmx=2
          i=1  nzeta=1  polorb=1  (2s)
            splnorm:   0.15000    
               vcte:    0.0000    
               rinn:    0.0000    
               qcoe:    0.0000    
               qyuk:    0.0000    
               qwid:   0.10000E-01
                rcs:    0.0000    
            lambdas:    1.0000    
-------------------------------------------------------------------------------
L=0  Nkbl=1  erefs: 0.17977+309
L=1  Nkbl=1  erefs: 0.17977+309
L=2  Nkbl=1  erefs: 0.17977+309
===============================================================================
</basis_specs>

atom: Called for Li-gga                (Z =   3)

read_vps: Pseudopotential generation method:
read_vps: ATM 3.2.2 Troullier-Martins                       
Valence charge for ps generation:    1.00000

read_vps: Pseudopotential includes a core correction:
read_vps: Pseudo-core for xc-correction

xc_check: Exchange-correlation functional:
xc_check: GGA Perdew, Burke & Ernzerhof 1996
V l=0 = -2*Zval/r beyond r=  2.2278
V l=1 = -2*Zval/r beyond r=  2.2278
V l=2 = -2*Zval/r beyond r=  2.5245
All V_l potentials equal beyond r=  2.4622
This should be close to max(r_c) in ps generation
All pots = -2*Zval/r beyond r=  2.5245

VLOCAL1: 99.0% of the norm of Vloc inside      7.160 Ry
VLOCAL1: 99.9% of the norm of Vloc inside     16.318 Ry
atom: Maximum radius for 4*pi*r*r*local-pseudopot. charge    2.86079
atom: Maximum radius for r*vlocal+2*Zval:    2.43160
GHOST: No ghost state for L =  0
GHOST: No ghost state for L =  1
GHOST: No ghost state for L =  2

KBgen: Kleinman-Bylander projectors: 
   l= 0   rc=  2.654023   el= -0.211234   Ekb=  1.742119   kbcos=  0.228463
   l= 1   rc=  2.721230   el= -0.080095   Ekb= -1.122375   kbcos= -0.147941
   l= 2   rc=  2.825246   el=  0.002001   Ekb= -0.207076   kbcos= -0.031965

KBgen: Total number of Kleinman-Bylander projectors:    9
atom: -------------------------------------------------------------------------

atom: SANKEY-TYPE ORBITALS:

SPLIT: Orbitals with angular momentum L= 0

SPLIT: Basis orbitals for state 2s

SPLIT: PAO cut-off radius determined from an
SPLIT: energy shift=  0.000735 Ry

   izeta = 1
                 lambda =    1.000000
                     rc =   11.897381
                 energy =   -0.210580
                kinetic =    0.143382
    potential(screened) =   -0.353962
       potential(ionic) =   -0.533453

POLgen: Perturbative polarization orbital with L=  1

POLgen: Polarization orbital for state 2s

   izeta = 1
                     rc =   11.897381
                 energy =   -0.027011
                kinetic =    0.282985
    potential(screened) =   -0.309997
       potential(ionic) =   -0.490997
atom: Total number of Sankey-type orbitals:  4

atm_pop: Valence configuration (for local Pseudopot. screening):
 2s( 1.00)                                                            
Vna: chval, zval:    1.00000   1.00000

Vna:  Cut-off radius for the neutral-atom potential:  11.897381
comcore: Pseudo-core radius Rcore=  3.450946

atom: _________________________________________________________________________

<basis_specs>
===============================================================================
C-gga                Z=   6    Mass=  12.010        Charge= 0.17977+309
Lmxo=1 Lmxkb= 2    BasisType=split      Semic=F
L=0  Nsemic=0  Cnfigmx=2
          i=1  nzeta=1  polorb=0  (2s)
            splnorm:   0.15000    
               vcte:    0.0000    
               rinn:    0.0000    
               qcoe:    0.0000    
               qyuk:    0.0000    
               qwid:   0.10000E-01
                rcs:    0.0000    
            lambdas:    1.0000    
L=1  Nsemic=0  Cnfigmx=2
          i=1  nzeta=1  polorb=1  (2p)
            splnorm:   0.15000    
               vcte:    0.0000    
               rinn:    0.0000    
               qcoe:    0.0000    
               qyuk:    0.0000    
               qwid:   0.10000E-01
                rcs:    0.0000    
            lambdas:    1.0000    
-------------------------------------------------------------------------------
L=0  Nkbl=1  erefs: 0.17977+309
L=1  Nkbl=1  erefs: 0.17977+309
L=2  Nkbl=1  erefs: 0.17977+309
===============================================================================
</basis_specs>

atom: Called for C-gga                 (Z =   6)

read_vps: Pseudopotential generation method:
read_vps: ATM 3.2.2 Troullier-Martins                       
Valence charge for ps generation:    4.00000

xc_check: Exchange-correlation functional:
xc_check: GGA Perdew, Burke & Ernzerhof 1996
V l=0 = -2*Zval/r beyond r=  1.5227
V l=1 = -2*Zval/r beyond r=  1.5227
V l=2 = -2*Zval/r beyond r=  1.5227
All V_l potentials equal beyond r=  1.4851
This should be close to max(r_c) in ps generation
All pots = -2*Zval/r beyond r=  1.5227

VLOCAL1: 99.0% of the norm of Vloc inside     19.682 Ry
VLOCAL1: 99.9% of the norm of Vloc inside     44.856 Ry
atom: Maximum radius for 4*pi*r*r*local-pseudopot. charge    1.79142
atom: Maximum radius for r*vlocal+2*Zval:    1.54183
GHOST: No ghost state for L =  0
GHOST: No ghost state for L =  1
GHOST: No ghost state for L =  2

KBgen: Kleinman-Bylander projectors: 
   l= 0   rc=  1.661951   el= -1.010689   Ekb=  5.289847   kbcos=  0.316429
   l= 1   rc=  1.661951   el= -0.388490   Ekb= -4.102504   kbcos= -0.351025
   l= 2   rc=  1.747182   el=  0.001971   Ekb= -1.006005   kbcos= -0.008530

KBgen: Total number of Kleinman-Bylander projectors:    9
atom: -------------------------------------------------------------------------

atom: SANKEY-TYPE ORBITALS:

SPLIT: Orbitals with angular momentum L= 0

SPLIT: Basis orbitals for state 2s

SPLIT: PAO cut-off radius determined from an
SPLIT: energy shift=  0.000735 Ry

   izeta = 1
                 lambda =    1.000000
                     rc =    5.948690
                 energy =   -1.010099
                kinetic =    0.827121
    potential(screened) =   -1.837220
       potential(ionic) =   -5.392783

SPLIT: Orbitals with angular momentum L= 1

SPLIT: Basis orbitals for state 2p

SPLIT: PAO cut-off radius determined from an
SPLIT: energy shift=  0.000735 Ry

   izeta = 1
                 lambda =    1.000000
                     rc =    7.638387
                 energy =   -0.387843
                kinetic =    2.314739
    potential(screened) =   -2.702582
       potential(ionic) =   -6.092371

POLgen: Perturbative polarization orbital with L=  2

POLgen: Polarization orbital for state 2p

   izeta = 1
                     rc =    7.638387
                 energy =    0.921402
                kinetic =    1.955040
    potential(screened) =   -1.033637
       potential(ionic) =   -3.679558
atom: Total number of Sankey-type orbitals:  9

atm_pop: Valence configuration (for local Pseudopot. screening):
 2s( 2.00)                                                            
 2p( 2.00)                                                            
Vna: chval, zval:    4.00000   4.00000

Vna:  Cut-off radius for the neutral-atom potential:   7.638387

atom: _________________________________________________________________________

prinput: Basis input ----------------------------------------------------------

PAO.BasisType split     

%block ChemicalSpeciesLabel
    1    3 Li-gga                  # Species index, atomic number, species label
    2    6 C-gga                   # Species index, atomic number, species label
%endblock ChemicalSpeciesLabel

%block PAO.Basis                 # Define Basis set
Li-gga                1                    # Species label, number of l-shells
 n=2   0   1 P   1                   # n, l, Nzeta, Polarization, NzetaPol
  11.897   
   1.000   
C-gga                 2                    # Species label, number of l-shells
 n=2   0   1                         # n, l, Nzeta 
   5.949   
   1.000   
 n=2   1   1 P   1                   # n, l, Nzeta, Polarization, NzetaPol
   7.638   
   1.000   
%endblock PAO.Basis

prinput: ----------------------------------------------------------------------

coor:   Atomic-coordinates input format  =     Cartesian coordinates
coor:                                          (in Angstroms)

siesta: Atomic coordinates (Bohr) and species
siesta:      0.00000   0.00000   0.00000  2        1
siesta:      2.68614   0.00000   4.51226  1        2
siesta:      5.38035   0.00000  13.53679  1        3
siesta:     -1.34307   2.32627   4.51226  1        4
siesta:     -2.69017   4.65952  13.53679  1        5
siesta:      2.69017   4.65952   4.51226  1        6
siesta:      1.34307   2.32627  13.53679  1        7
siesta:      5.38035   0.00000   4.51226  1        8
siesta:      2.68614   0.00000  13.53679  1        9
siesta:     -2.69017   4.65952   4.51226  1       10
siesta:     -1.34307   2.32627  13.53679  1       11
siesta:      1.34307   2.32627   4.51226  1       12
siesta:      2.69017   4.65952  13.53679  1       13

siesta: System type = bulk      

initatomlists: Number of atoms, orbitals, and projectors:     13    57   117

siesta: ******************** Simulation parameters ****************************
siesta:
siesta: The following are some of the parameters of the simulation.
siesta: A complete list of the parameters used, including default values,
siesta: can be found in file out.fdf
siesta:
redata: Spin configuration                          = none
redata: Number of spin components                   = 1
redata: Time-Reversal Symmetry                      = T
redata: Spin spiral                                 = F
redata: Long output                                 =   F
redata: Number of Atomic Species                    =        2
redata: Charge density info will appear in .RHO file
redata: Write Mulliken Pop.                         = NO
redata: Matel table size (NRTAB)                    =     1024
redata: Mesh Cutoff                                 =   300.0000 Ry
redata: Net charge of the system                    =     0.0000 |e|
redata: Min. number of SCF Iter                     =        0
redata: Max. number of SCF Iter                     =     1000
redata: SCF convergence failure will abort job
redata: SCF mix quantity                            = Hamiltonian
redata: Mix DM or H after convergence               =   F
redata: Recompute H after scf cycle                 =   F
redata: Mix DM in first SCF step                    =   T
redata: Write Pulay info on disk                    =   F
redata: New DM Occupancy tolerance                  = 0.000000000001
redata: No kicks to SCF
redata: DM Mixing Weight for Kicks                  =     0.5000
redata: Require Harris convergence for SCF          =   F
redata: Harris energy tolerance for SCF             =     0.000100 eV
redata: Require DM convergence for SCF              =   T
redata: DM tolerance for SCF                        =     0.001000
redata: Require EDM convergence for SCF             =   F
redata: EDM tolerance for SCF                       =     0.005000 eV
redata: Require H convergence for SCF               =   T
redata: Hamiltonian tolerance for SCF               =     0.001000 eV
redata: Require (free) Energy convergence for SCF   =   T
redata: (free) Energy tolerance for SCF             =     0.001000 eV
redata: Using Saved Data (generic)                  =   F
redata: Use continuation files for DM               =   F
redata: Neglect nonoverlap interactions             =   F
redata: Method of Calculation                       = Diagonalization
redata: Electronic Temperature                      =   299.9869 K
redata: Fix the spin of the system                  =   F
redata: Dynamics option                             = Single-point calculation
mix.SCF: Pulay mixing                            = Pulay
mix.SCF:    Variant                              = stable
mix.SCF:    History steps                        = 4
mix.SCF:    Linear mixing weight                 =     0.250000
mix.SCF:    Mixing weight                        =     0.250000
mix.SCF:    SVD condition                        = 0.1000E-07
redata: ***********************************************************************

%block SCF.Mixers
  Pulay
%endblock SCF.Mixers

%block SCF.Mixer.Pulay
  # Mixing method
  method pulay
  variant stable

  # Mixing options
  weight 0.2500
  weight.linear 0.2500
  history 4
%endblock SCF.Mixer.Pulay

DM_history_depth set to one: no extrapolation allowed by default for geometry relaxation
Size of DM history Fstack: 1
Total number of electrons:    16.000000
Total ionic charge:    16.000000

* ProcessorY, Blocksize:    3   1


* Orbital distribution balance (max,min):     5     4

k-point displ. along   1 input, could be:     0.00    0.50
k-point displ. along   2 input, could be:     0.00    0.50
k-point displ. along   3 input, could be:     0.00    0.50
 Kpoints in:            8 . Kpoints trimmed:            8

siesta: k-grid: Number of k-points =     8
siesta: k-grid: Cutoff (effective) =     4.269 Ang
siesta: k-grid: Supercell and displacements
siesta: k-grid:    2   0   0      0.000
siesta: k-grid:    0   2   0      0.000
siesta: k-grid:    0   0   2      0.000

diag: Algorithm                                     = Expert
diag: Parallel over k                               =   T
diag: Use parallel 2D distribution                  =   T
diag: Parallel block-size                           = 1
diag: Parallel distribution                         =     3 x     4
diag: Used triangular part                          = Lower
diag: Absolute tolerance                            =  0.100E-15
diag: Orthogonalization factor                      =  0.100E-05
diag: Memory factor                                 =  1.0000

superc: Internal auxiliary supercell:     9 x     9 x     3  =     243
superc: Number of atoms, orbitals, and projectors:   3159  13851  28431


ts: **************************************************************
ts: Save H and S matrices                           =    F
ts: Save DM and EDM matrices                        =    F
ts: Only save the overlap matrix S                  =    F
ts: **************************************************************

************************ Begin: TS CHECKS AND WARNINGS ************************
************************ End: TS CHECKS AND WARNINGS **************************


                     ====================================
                        Single-point calculation
                     ====================================

outcoor: Atomic coordinates (Ang):                          
    0.00000000    0.00000000    0.00000000   2       1  C-gga
    1.42144380    0.00000000    2.38778600   1       2  Li-gga
    2.84715620    0.00000000    7.16335800   1       3  Li-gga
   -0.71072190    1.23100644    2.38778600   1       4  Li-gga
   -1.42357810    2.46570960    7.16335800   1       5  Li-gga
    1.42357810    2.46570960    2.38778600   1       6  Li-gga
    0.71072190    1.23100644    7.16335800   1       7  Li-gga
    2.84715620    0.00000000    2.38778600   1       8  Li-gga
    1.42144380    0.00000000    7.16335800   1       9  Li-gga
   -1.42357810    2.46570960    2.38778600   1      10  Li-gga
   -0.71072190    1.23100644    7.16335800   1      11  Li-gga
    0.71072190    1.23100644    2.38778600   1      12  Li-gga
    1.42357810    2.46570960    7.16335800   1      13  Li-gga

superc: Internal auxiliary supercell:     9 x     9 x     3  =     243
superc: Number of atoms, orbitals, and projectors:   3159  13851  28431

outcell: Unit cell vectors (Ang):
        4.268600    0.000000    0.000000
       -2.134300    3.696716    0.000000
        0.000000    0.000000    9.551144

outcell: Cell vector modules (Ang)   :    4.268600    4.268600    9.551144
outcell: Cell angles (23,13,12) (deg):     90.0000     90.0000    120.0000
outcell: Cell volume (Ang**3)        :    150.7152
<dSpData1D:S at geom step 0
  <sparsity:sparsity for geom step 0
    nrows_g=57 nrows=5 sparsity=5.8704 nnzs=19073, refcount: 7>
  <dData1D:(new from dSpData1D) n=19073, refcount: 1>
refcount: 1>
new_DM -- step:     1
Initializing Density Matrix...
DM filled with atomic data:
<dSpData2D:DM initialized from atoms
  <sparsity:sparsity for geom step 0
    nrows_g=57 nrows=5 sparsity=5.8704 nnzs=19073, refcount: 8>
  <dData2D:DM n=19073 m=1, refcount: 1>
refcount: 1>
No. of atoms with KB's overlaping orbs in proc 0. Max # of overlaps:     284     648
New grid distribution:   1
           1       1:   20    1:    7    1:   13
           2       1:   20    1:    7   14:   26
           3       1:   20    1:    7   27:   38
           4       1:   20    1:    7   39:   50
           5       1:   20    8:   14    1:   13
           6       1:   20    8:   14   14:   26
           7       1:   20    8:   14   27:   38
           8       1:   20    8:   14   39:   50
           9       1:   20   15:   20    1:   13
          10       1:   20   15:   20   14:   26
          11       1:   20   15:   20   27:   38
          12       1:   20   15:   20   39:   50

InitMesh: MESH =    40 x    40 x   100 =      160000
InitMesh: (bp) =    20 x    20 x    50 =       20000
InitMesh: Mesh cutoff (required, used) =   300.000   302.964 Ry
ExtMesh (bp) on 0 =   160 x   147 x   145 =     3410400
New grid distribution:   2
           1       1:   10    8:   20   26:   38
           2       1:   20    1:    7   13:   25
           3       1:   10    8:   20    1:   12
           4       1:   20    1:    7   39:   50
           5       1:   20    1:    7   26:   38
           6      11:   20    8:   20   13:   25
           7       1:   20    1:    7    1:   12
           8      11:   20    8:   20   39:   50
           9      11:   20    8:   20    1:   12
          10       1:   10    8:   20   13:   25
          11      11:   20    8:   20   26:   38
          12       1:   10    8:   20   39:   50
New grid distribution:   3
           1      11:   20    8:   20    1:   13
           2       1:   20    1:    7   14:   25
           3       1:   20    1:    7   26:   38
           4      11:   20    8:   20   14:   25
           5       1:   20    1:    7    1:   13
           6       1:   20    1:    7   39:   50
           7      11:   20    8:   20   26:   38
           8       1:   10    8:   20   39:   50
           9       1:   10    8:   20    1:   13
          10       1:   10    8:   20   14:   25
          11       1:   10    8:   20   26:   38
          12      11:   20    8:   20   39:   50
Setting up quadratic distribution...
ExtMesh (bp) on 0 =   150 x   153 x   145 =     3327750
PhiOnMesh: Number of (b)points on node 0 =                 1690
PhiOnMesh: nlist on node 0 =               597321

stepf: Fermi-Dirac step function

siesta: Program's energy decomposition (eV):
siesta: Ebs     =      -229.099342
siesta: Eions   =       380.620085
siesta: Ena     =       123.811597
siesta: Ekin    =       133.379266
siesta: Enl     =        40.142922
siesta: Eso     =         0.000000
siesta: Edftu   =         0.000000
siesta: DEna    =        14.995559
siesta: DUscf   =        14.795138
siesta: DUext   =         0.000000
siesta: Exc     =      -144.546262
siesta: eta*DQ  =         0.000000
siesta: Emadel  =         0.000000
siesta: Emeta   =         0.000000
siesta: Emolmec =        -5.047406
siesta: Ekinion =         0.000000
siesta: Eharris =      -176.770101
siesta: Etot    =      -203.089271
siesta: FreeEng =      -203.090109

        iscf     Eharris(eV)        E_KS(eV)     FreeEng(eV)     dDmax    Ef(eV) dHmax(eV)
   scf:    1     -176.770101     -203.089271     -203.090109  1.656529-10.129613 14.217694
timer: Routine,Calls,Time,% = IterSCF        1       6.282  51.77
   scf:    2      -47.514173     -167.565799     -167.591835  1.198938-11.029609 29.692488
   scf:    3     -195.170681     -210.092683     -210.114709  1.021498-10.618509  5.278327
   scf:    4     -108.530566     -181.224347     -181.277902  1.170407-10.874143 25.835428
   scf:    5     -158.975835     -203.413321     -203.413916  1.330228-10.191610 13.916341
   scf:    6     -208.108200     -205.852818     -205.853054  0.078326-10.276821 11.487659
   scf:    7     -212.123659     -211.531763     -211.586185  0.299305-10.660999  0.597573
   scf:    8     -209.878100     -211.053698     -211.109488  0.167402-10.684828  3.117630
   scf:    9     -204.748878     -208.507433     -208.539032  0.210377-10.678716  7.870423
   scf:   10     -210.603711     -209.777645     -209.820794  0.197259-10.717091  5.798307
   scf:   11     -210.941925     -210.401435     -210.447053  0.052147-10.714708  4.518173
   scf:   12     -208.263304     -209.438367     -209.481333  0.092674-10.719297  6.446501
   scf:   13     -210.991647     -210.265338     -210.316560  0.052747-10.695327  5.092463
   scf:   14     -210.073731     -211.436556     -211.491178  0.297679-10.663489  1.935713
   scf:   15     -211.062577     -211.525244     -211.585780  0.144717-10.696474  1.351927
   scf:   16     -211.654478     -211.610478     -211.670847  0.036821-10.703545  0.470295
   scf:   17     -211.614860     -211.622461     -211.681978  0.026833-10.695558  0.148315
   scf:   18     -211.616187     -211.621563     -211.681737  0.014652-10.711046  0.162065
   scf:   19     -211.614347     -211.621359     -211.680916  0.015758-10.707979  0.206186
   scf:   20     -211.623484     -211.622588     -211.682291  0.003687-10.709463  0.124893
   scf:   21     -211.623041     -211.622833     -211.682584  0.001336-10.710697  0.098528
   scf:   22     -211.623226     -211.623054     -211.682845  0.001261-10.710619  0.069052
   scf:   23     -211.623209     -211.623136     -211.682929  0.000702-10.711130  0.056207
   scf:   24     -211.623107     -211.623121     -211.682914  0.000123-10.711084  0.058758
   scf:   25     -211.622709     -211.623139     -211.683029  0.003768-10.710411  0.035596
   scf:   26     -211.623274     -211.623234     -211.683093  0.001363-10.710406  0.002638
   scf:   27     -211.623235     -211.623235     -211.683093  0.000103-10.710352  0.000195

SCF Convergence by FreeE+DM+H criterion
|FreeE_i-FreeE_(i-1)| (eV) <     0.00100000
max |DM_out - DM_in|         :     0.0001033326
max |H_out - H_in|      (eV) :     0.0001951260
SCF cycle converged after 27 iterations

Using DM_out to compute the final energy and forces
No. of atoms with KB's overlaping orbs in proc 0. Max # of overlaps:     284     648

MM-Stress (kbar):        7.42        7.42       25.63       -0.00        0.00       -0.00

siesta: E_KS(eV) =             -211.6232

siesta: E_KS - E_eggbox =      -211.6232

siesta: Atomic forces (eV/Ang):
     1   -0.000000    0.000000    0.000045
     2   -0.108206    0.000002   -0.378402
     3    0.108210   -0.000002    0.378394
     4    0.054104   -0.093708   -0.378402
     5   -0.054106    0.093712    0.378394
     6    0.054067    0.093646   -0.378482
     7   -0.054069   -0.093650    0.378474
     8    0.108206   -0.000002   -0.378402
     9   -0.108210    0.000002    0.378394
    10   -0.054104    0.093708   -0.378402
    11    0.054106   -0.093712    0.378394
    12   -0.054067   -0.093646   -0.378482
    13    0.054069    0.093650    0.378474
----------------------------------------
   Tot    0.000000    0.000000   -0.000000
----------------------------------------
   Max    0.378482
   Res    0.218322    sqrt( Sum f_i^2 / 3N )
----------------------------------------
   Max    0.378482    constrained

Stress tensor Voigt[x,y,z,yz,xz,xy] (kbar):     -937.25     -937.26      245.17       -0.00       -0.00       -0.01
(Free)E + p*V (eV/cell)     -160.5934
Target enthalpy (eV/cell)     -211.6831

siesta: Eigenvalues (eV):
  ik is       eps
   1  1  -19.6381  -14.0063  -12.5409  -11.6821  -11.3870  -11.1152  -10.7802  -10.7346  -10.4005  -10.4005
          -9.5824   -6.7092   -3.7630   -3.7630   -3.4679   -3.4679   -3.1082   -3.1082   -3.0091   -3.0090
   -1.4624   -1.4624   -0.2758   -0.2758    0.3145    0.3145    0.7573    0.7574    5.2831   11.6434
   11.6436   17.5518   17.5518   17.9918   17.9918   18.8184   18.8185   21.4527   21.4528   24.8622
   24.8622   25.4654   25.4936   25.6781   25.6785   31.0111   31.0112   37.2545   38.7429   38.7430
   42.0248   42.0248   49.3127   49.3250   49.5828   49.6651   61.8294
   2  1  -19.4069  -13.8035  -12.7454  -11.9012  -11.5823  -11.0997  -11.0356  -10.7444  -10.7134  -10.1172
          -8.4655   -7.6804   -7.0252   -5.5915   -4.9540   -4.7902   -3.4060   -3.0593   -2.3561   -0.8038
   -0.3905    0.1659    0.3170    0.9709    2.0280    2.2009    2.4891    2.8192    3.2543    3.7204
    9.8905   10.0360   11.8458   12.1480   14.4608   14.7605   14.9999   15.0641   15.8278   17.4219
   19.6087   19.8644   20.1710   20.4636   21.6118   24.5975   25.6872   25.7276   26.2002   28.1979
   35.1810   53.7068   53.7490   54.3932   54.6876   55.5492   56.1785
   3  1  -19.4069  -13.8035  -12.7454  -11.9012  -11.5823  -11.0997  -11.0356  -10.7444  -10.7134  -10.1172
          -8.4655   -7.6804   -7.0252   -5.5915   -4.9540   -4.7902   -3.4060   -3.0593   -2.3561   -0.8038
   -0.3905    0.1659    0.3170    0.9709    2.0280    2.2009    2.4891    2.8192    3.2543    3.7204
    9.8905   10.0360   11.8458   12.1480   14.4608   14.7605   14.9999   15.0641   15.8278   17.4219
   19.6087   19.8644   20.1710   20.4636   21.6118   24.5975   25.6872   25.7276   26.2002   28.1979
   35.1810   53.7068   53.7490   54.3932   54.6876   55.5492   56.1785
   4  1  -19.4069  -13.8035  -12.7454  -11.9012  -11.5823  -11.0997  -11.0355  -10.7444  -10.7134  -10.1172
          -8.4656   -7.6804   -7.0251   -5.5915   -4.9540   -4.7902   -3.4060   -3.0593   -2.3562   -0.8038
   -0.3906    0.1659    0.3171    0.9710    2.0280    2.2009    2.4891    2.8192    3.2543    3.7204
    9.8904   10.0362   11.8458   12.1480   14.4608   14.7605   14.9999   15.0640   15.8279   17.4220
   19.6086   19.8645   20.1712   20.4636   21.6116   24.5975   25.6872   25.7275   26.2002   28.1978
   35.1810   53.7067   53.7490   54.3932   54.6876   55.5494   56.1787
   5  1  -19.6499  -13.9786  -12.1746  -11.9579  -11.3550  -11.0582  -10.7616  -10.7414  -10.4014  -10.4013
          -9.0946   -6.9186   -3.6960   -3.6960   -3.5628   -3.5628   -3.3205   -3.3204   -2.6396   -2.6395
   -1.1293   -1.1293   -0.7769   -0.7769   -0.5499   -0.5499    1.4997    1.4998    5.9852   13.8553
   13.8555   15.2337   15.2337   18.2647   18.2647   20.3950   20.3951   21.7526   21.7526   22.2256
   22.2256   25.4778   25.4796   26.7590   26.7593   30.3355   30.3355   38.9808   38.9808   41.9788
   41.9789   41.9877   42.6013   48.7743   48.8930   49.1302   49.1451
   6  1  -19.4072  -13.8029  -12.7356  -11.9608  -11.5842  -11.1599  -11.0159  -10.7204  -10.6907  -10.2112
          -8.8088   -7.0453   -6.4127   -6.1488   -5.1834   -4.1759   -3.9766   -2.2038   -2.1372   -1.9955
   -0.3671    0.0553    0.4400    0.7182    2.1802    2.3419    2.4851    2.5642    3.5267    3.6039
   11.3019   11.4485   11.7915   12.4051   14.3059   15.1337   15.2106   15.2357   15.2807   15.3490
   16.8096   17.6137   18.7578   20.4476   24.5883   24.7005   24.9469   26.0538   26.3139   27.9003
   34.7503   53.9192   53.9572   54.0112   54.0523   55.3646   55.4039
   7  1  -19.4072  -13.8029  -12.7356  -11.9608  -11.5842  -11.1599  -11.0159  -10.7204  -10.6907  -10.2112
          -8.8088   -7.0453   -6.4127   -6.1488   -5.1834   -4.1759   -3.9766   -2.2038   -2.1372   -1.9955
   -0.3671    0.0553    0.4400    0.7182    2.1802    2.3419    2.4851    2.5642    3.5267    3.6039
   11.3019   11.4485   11.7915   12.4051   14.3059   15.1337   15.2106   15.2357   15.2807   15.3490
   16.8096   17.6137   18.7578   20.4476   24.5883   24.7005   24.9469   26.0538   26.3139   27.9003
   34.7503   53.9192   53.9572   54.0112   54.0523   55.3646   55.4039
   8  1  -19.4072  -13.8029  -12.7356  -11.9608  -11.5842  -11.1599  -11.0159  -10.7204  -10.6907  -10.2111
          -8.8088   -7.0453   -6.4127   -6.1488   -5.1834   -4.1759   -3.9766   -2.2038   -2.1373   -1.9955
   -0.3672    0.0553    0.4401    0.7182    2.1802    2.3419    2.4851    2.5642    3.5267    3.6039
   11.3019   11.4487   11.7914   12.4051   14.3059   15.1337   15.2106   15.2356   15.2807   15.3490
   16.8097   17.6137   18.7578   20.4477   24.5882   24.7004   24.9469   26.0537   26.3138   27.9001
   34.7502   53.9192   53.9572   54.0112   54.0522   55.3647   55.4040
siesta: Fermi energy =     -10.710352 eV

siesta: Program's energy decomposition (eV):
siesta: Ebs     =      -204.400728
siesta: Eions   =       380.620085
siesta: Ena     =       123.811597
siesta: Ekin    =       161.006779
siesta: Enl     =        30.869847
siesta: Eso     =         0.000000
siesta: Edftu   =         0.000000
siesta: DEna    =         4.697883
siesta: DUscf   =         2.611565
siesta: DUext   =         0.000000
siesta: Exc     =      -148.953414
siesta: eta*DQ  =         0.000000
siesta: Emadel  =         0.000000
siesta: Emeta   =         0.000000
siesta: Emolmec =        -5.047406
siesta: Ekinion =         0.000000
siesta: Eharris =      -211.623235
siesta: Etot    =      -211.623235
siesta: FreeEng =      -211.683093

siesta: Final energy (eV):
siesta:  Band Struct. =    -204.400728
siesta:       Kinetic =     161.006779
siesta:       Hartree =      74.915500
siesta:       Edftu   =       0.000000
siesta:       Eso     =       0.000000
siesta:    Ext. field =       0.000000
siesta:   Exch.-corr. =    -148.953414
siesta:  Ion-electron =    -361.721201
siesta:       Ion-ion =      68.176507
siesta:       Ekinion =       0.000000
siesta:         Total =    -211.623235
siesta:         Fermi =     -10.710352

siesta: Atomic forces (eV/Ang):
siesta:      1   -0.000000    0.000000    0.000045
siesta:      2   -0.108206    0.000002   -0.378402
siesta:      3    0.108210   -0.000002    0.378394
siesta:      4    0.054104   -0.093708   -0.378402
siesta:      5   -0.054106    0.093712    0.378394
siesta:      6    0.054067    0.093646   -0.378482
siesta:      7   -0.054069   -0.093650    0.378474
siesta:      8    0.108206   -0.000002   -0.378402
siesta:      9   -0.108210    0.000002    0.378394
siesta:     10   -0.054104    0.093708   -0.378402
siesta:     11    0.054106   -0.093712    0.378394
siesta:     12   -0.054067   -0.093646   -0.378482
siesta:     13    0.054069    0.093650    0.378474
siesta: ----------------------------------------
siesta:    Tot    0.000000    0.000000   -0.000000

siesta: Stress tensor (static) (eV/Ang**3):
siesta:    -0.584979   -0.000006   -0.000000
siesta:    -0.000006   -0.584986    0.000000
siesta:    -0.000000   -0.000000    0.153019

siesta: Cell volume =        150.715162 Ang**3

siesta: Pressure (static):
siesta:                Solid            Molecule  Units
siesta:           0.00369195          0.00340847  Ry/Bohr**3
siesta:           0.33898196          0.31295409  eV/Ang**3
siesta:         543.11484556        501.41314703  kBar
(Free)E+ p_basis*V_orbitals  =        -179.512972
(Free)Eharris+ p_basis*V_orbitals  =        -179.512973

cite: Please see "LiC12_scf.bib" for an exhaustive BiBTeX file.
cite: Please clearly indicate Siesta version in published work: 4.1.5
cite: This calculation has made use of the following articles
cite: which are encouraged to be cited in a published work.
        Primary SIESTA paper
          DOI: www.doi.org/10.1088/0953-8984/14/11/302

>> End of run:   9-NOV-2022  10:48:32
Job completed
