Siesta Version  : 4.1.5
Architecture    : x86_64-unknown-linux-gnu--unknown
Compiler version: GNU Fortran (GCC) 11.3.0
Compiler flags  : mpif90 -g -O2 -fallow-argument-mismatch
PP flags        : -DMPI -DFC_HAVE_FLUSH -DFC_HAVE_ABORT
Libraries       :  -I/global/software/sl-7.x86_64/modules/intel/2020.4.304/mkl/include  /globall/software/sl-7.x86_64/modules/intel/2020.4.304/mkl/lib/intel64/libmkl_scalapack_lp64.a -Wl,--start-group /global/software/sl-7.x86_64/modules/intel/2020.4.304/mkl/lib/intel64/libmkl_intel_lp64.a /global/software/sl-7.x86_64/modules/intel/2020.4.304/mkl/lib/intel64/libmkl_sequential.a /global/software/sl-7.x86_64/modules/intel/2020.4.304/mkl/lib/intel64/libmkl_core.a /global/software/sl-7.x86_64/modules/intel/2020.4.304/mkl/lib/intel64/libmkl_blacs_openmpi_lp64.a -Wl,--end-group -lpthread -lm -ldl
PARALLEL version

* Running on 12 nodes in parallel
>> Start of run:   9-NOV-2022  10:55:25

                           ***********************       
                           *  WELCOME TO SIESTA  *       
                           ***********************       

reinit: Reading from standard input
reinit: Dumped input in INPUT_TMP.92264
************************** Dump of input data file ****************************
SystemName LiC12_scf
SystemLabel LiC12_scf
NumberOfAtoms   13
NumberOfSpecies 2
%block ChemicalSpeciesLabel
1  3   Li-gga
2  6   C-gga
%endblock ChemicalSpeciesLabel
PAO.BasisSize  SZP
PAO.EnergyShift  10 meV
%block PS.Lmax
C-gga   2
Li-gga  2
%endblock PS.Lmax
LatticeConstant 1.000000 Ang
%block LatticeVectors
	4.2686000000	0.0000000000	0.0000000000
	-2.1343000000	3.6967160386	0.0000000000
	0.0000000000	0.0000000000	10.2534340000
%endblock LatticeVectors
AtomicCoordinatesFormat Ang
%block AtomicCoordinatesAndAtomicSpecies
	0.00000000	0.00000000	0.00000000	2
	1.42144380	0.00000000	2.56335850	1
	2.84715620	0.00000000	7.69007550	1
	-0.71072190	1.23100644	2.56335850	1
	-1.42357810	2.46570960	7.69007550	1
	1.42357810	2.46570960	2.56335850	1
	0.71072190	1.23100644	7.69007550	1
	2.84715620	0.00000000	2.56335850	1
	1.42144380	0.00000000	7.69007550	1
	-1.42357810	2.46570960	2.56335850	1
	-0.71072190	1.23100644	7.69007550	1
	0.71072190	1.23100644	2.56335850	1
	1.42357810	2.46570960	7.69007550	1
%endblock AtomicCoordinatesAndAtomicSpecies
Kgrid_NoTRS  T
%block kgrid_MonkhorstPack
2       0       0       0.0
0       2       0       0.0
0       0       2       0.0
%endblock kgrid_MonkhorstPack
AtomCoorFormatOut Ang
BlockSize 1
#ProcessorY 12
Diag.ParallelOverK   T
Diag.DivideAndConquer F
MeshCutoff   300 Ry
SCF.FreeE.Tolerance 1E-3 eV
SCF.EDM.Tolerance   5E-3 eV
DM.Tolerance  1E-3
DM.Require.Energy.Convergence T
DM.NumberPulay 4
XC.Functional GGA
XC.Authors    PBE
UseSaveData        F
MD.TypeOfRun       CG
MD.VariableCell    F
MD.NumCGsteps      00
MD.MaxCGDispl      0.200000 Bohr
MD.MaxStressTol    1.000000 GPa
MD.MaxForceTol     0.010000 eV/Ang
WriteMDHistory T
WriteCoorStep T
WriteForces T
WriteCoorStep    T
WriteEigenValues T
WriteDM    F
MM.UnitsDistance Ang  # what this program prints out DO NOT CHANGE
MM.UnitsEnergy    eV  # what this program prints out DO NOT CHANGE
MM.Grimme.S6     0.75 # Grimme-paper for PBE (correct for your functional)
MM.Grimme.D     20.   # Grimme-paper (correct for your functional)
%block MM.Potentials
  1   1 Grimme     16.69      1.650 # Li, 10.1002/jcc.20495
  1   2 Grimme     17.40      2.277 # Li / C
  2   2 Grimme     18.14      2.904 # C, 10.1002/jcc.20495
%endblock MM.Potentials
#%block ProjectedDensityOfStates
# -200.0  120.0  0.4  12800  eV
#%endblock ProjectedDensityOfStates
************************** End of input data file *****************************

reinit: -----------------------------------------------------------------------
reinit: System Name: LiC12_scf
reinit: -----------------------------------------------------------------------
reinit: System Label: LiC12_scf
reinit: -----------------------------------------------------------------------
Reading two-body potentials
Grimme - two-body potential between 1 and 1
Grimme - two-body potential between 1 and 2
Grimme - two-body potential between 2 and 2

initatom: Reading input for the pseudopotentials and atomic orbitals ----------
Species number:   1 Atomic number:    3 Label: Li-gga
Species number:   2 Atomic number:    6 Label: C-gga

Ground state valence configuration:   2s01
Reading pseudopotential information in formatted form from Li-gga.psf

Valence configuration for pseudopotential generation:
2s( 1.00) rc: 2.28
2p( 0.00) rc: 2.28
3d( 0.00) rc: 2.59
4f( 0.00) rc: 2.59
Ground state valence configuration:   2s02  2p02
Reading pseudopotential information in formatted form from C-gga.psf

Valence configuration for pseudopotential generation:
2s( 2.00) rc: 1.56
2p( 2.00) rc: 1.56
3d( 0.00) rc: 1.56
4f( 0.00) rc: 1.56
relmxkb: Read Max KB Ang. Momentum=    2 for species C-gga
relmxkb: Read Max KB Ang. Momentum=    2 for species Li-gga

<basis_specs>
===============================================================================
Li-gga               Z=   3    Mass=  6.9400        Charge= 0.17977+309
Lmxo=0 Lmxkb= 2    BasisType=split      Semic=F
L=0  Nsemic=0  Cnfigmx=2
          i=1  nzeta=1  polorb=1  (2s)
            splnorm:   0.15000    
               vcte:    0.0000    
               rinn:    0.0000    
               qcoe:    0.0000    
               qyuk:    0.0000    
               qwid:   0.10000E-01
                rcs:    0.0000    
            lambdas:    1.0000    
-------------------------------------------------------------------------------
L=0  Nkbl=1  erefs: 0.17977+309
L=1  Nkbl=1  erefs: 0.17977+309
L=2  Nkbl=1  erefs: 0.17977+309
===============================================================================
</basis_specs>

atom: Called for Li-gga                (Z =   3)

read_vps: Pseudopotential generation method:
read_vps: ATM 3.2.2 Troullier-Martins                       
Valence charge for ps generation:    1.00000

read_vps: Pseudopotential includes a core correction:
read_vps: Pseudo-core for xc-correction

xc_check: Exchange-correlation functional:
xc_check: GGA Perdew, Burke & Ernzerhof 1996
V l=0 = -2*Zval/r beyond r=  2.2278
V l=1 = -2*Zval/r beyond r=  2.2278
V l=2 = -2*Zval/r beyond r=  2.5245
All V_l potentials equal beyond r=  2.4622
This should be close to max(r_c) in ps generation
All pots = -2*Zval/r beyond r=  2.5245

VLOCAL1: 99.0% of the norm of Vloc inside      7.160 Ry
VLOCAL1: 99.9% of the norm of Vloc inside     16.318 Ry
atom: Maximum radius for 4*pi*r*r*local-pseudopot. charge    2.86079
atom: Maximum radius for r*vlocal+2*Zval:    2.43160
GHOST: No ghost state for L =  0
GHOST: No ghost state for L =  1
GHOST: No ghost state for L =  2

KBgen: Kleinman-Bylander projectors: 
   l= 0   rc=  2.654023   el= -0.211234   Ekb=  1.742119   kbcos=  0.228463
   l= 1   rc=  2.721230   el= -0.080095   Ekb= -1.122375   kbcos= -0.147941
   l= 2   rc=  2.825246   el=  0.002001   Ekb= -0.207076   kbcos= -0.031965

KBgen: Total number of Kleinman-Bylander projectors:    9
atom: -------------------------------------------------------------------------

atom: SANKEY-TYPE ORBITALS:

SPLIT: Orbitals with angular momentum L= 0

SPLIT: Basis orbitals for state 2s

SPLIT: PAO cut-off radius determined from an
SPLIT: energy shift=  0.000735 Ry

   izeta = 1
                 lambda =    1.000000
                     rc =   11.897381
                 energy =   -0.210580
                kinetic =    0.143382
    potential(screened) =   -0.353962
       potential(ionic) =   -0.533453

POLgen: Perturbative polarization orbital with L=  1

POLgen: Polarization orbital for state 2s

   izeta = 1
                     rc =   11.897381
                 energy =   -0.027011
                kinetic =    0.282985
    potential(screened) =   -0.309997
       potential(ionic) =   -0.490997
atom: Total number of Sankey-type orbitals:  4

atm_pop: Valence configuration (for local Pseudopot. screening):
 2s( 1.00)                                                            
Vna: chval, zval:    1.00000   1.00000

Vna:  Cut-off radius for the neutral-atom potential:  11.897381
comcore: Pseudo-core radius Rcore=  3.450946

atom: _________________________________________________________________________

<basis_specs>
===============================================================================
C-gga                Z=   6    Mass=  12.010        Charge= 0.17977+309
Lmxo=1 Lmxkb= 2    BasisType=split      Semic=F
L=0  Nsemic=0  Cnfigmx=2
          i=1  nzeta=1  polorb=0  (2s)
            splnorm:   0.15000    
               vcte:    0.0000    
               rinn:    0.0000    
               qcoe:    0.0000    
               qyuk:    0.0000    
               qwid:   0.10000E-01
                rcs:    0.0000    
            lambdas:    1.0000    
L=1  Nsemic=0  Cnfigmx=2
          i=1  nzeta=1  polorb=1  (2p)
            splnorm:   0.15000    
               vcte:    0.0000    
               rinn:    0.0000    
               qcoe:    0.0000    
               qyuk:    0.0000    
               qwid:   0.10000E-01
                rcs:    0.0000    
            lambdas:    1.0000    
-------------------------------------------------------------------------------
L=0  Nkbl=1  erefs: 0.17977+309
L=1  Nkbl=1  erefs: 0.17977+309
L=2  Nkbl=1  erefs: 0.17977+309
===============================================================================
</basis_specs>

atom: Called for C-gga                 (Z =   6)

read_vps: Pseudopotential generation method:
read_vps: ATM 3.2.2 Troullier-Martins                       
Valence charge for ps generation:    4.00000

xc_check: Exchange-correlation functional:
xc_check: GGA Perdew, Burke & Ernzerhof 1996
V l=0 = -2*Zval/r beyond r=  1.5227
V l=1 = -2*Zval/r beyond r=  1.5227
V l=2 = -2*Zval/r beyond r=  1.5227
All V_l potentials equal beyond r=  1.4851
This should be close to max(r_c) in ps generation
All pots = -2*Zval/r beyond r=  1.5227

VLOCAL1: 99.0% of the norm of Vloc inside     19.682 Ry
VLOCAL1: 99.9% of the norm of Vloc inside     44.856 Ry
atom: Maximum radius for 4*pi*r*r*local-pseudopot. charge    1.79142
atom: Maximum radius for r*vlocal+2*Zval:    1.54183
GHOST: No ghost state for L =  0
GHOST: No ghost state for L =  1
GHOST: No ghost state for L =  2

KBgen: Kleinman-Bylander projectors: 
   l= 0   rc=  1.661951   el= -1.010689   Ekb=  5.289847   kbcos=  0.316429
   l= 1   rc=  1.661951   el= -0.388490   Ekb= -4.102504   kbcos= -0.351025
   l= 2   rc=  1.747182   el=  0.001971   Ekb= -1.006005   kbcos= -0.008530

KBgen: Total number of Kleinman-Bylander projectors:    9
atom: -------------------------------------------------------------------------

atom: SANKEY-TYPE ORBITALS:

SPLIT: Orbitals with angular momentum L= 0

SPLIT: Basis orbitals for state 2s

SPLIT: PAO cut-off radius determined from an
SPLIT: energy shift=  0.000735 Ry

   izeta = 1
                 lambda =    1.000000
                     rc =    5.948690
                 energy =   -1.010099
                kinetic =    0.827121
    potential(screened) =   -1.837220
       potential(ionic) =   -5.392783

SPLIT: Orbitals with angular momentum L= 1

SPLIT: Basis orbitals for state 2p

SPLIT: PAO cut-off radius determined from an
SPLIT: energy shift=  0.000735 Ry

   izeta = 1
                 lambda =    1.000000
                     rc =    7.638387
                 energy =   -0.387843
                kinetic =    2.314739
    potential(screened) =   -2.702582
       potential(ionic) =   -6.092371

POLgen: Perturbative polarization orbital with L=  2

POLgen: Polarization orbital for state 2p

   izeta = 1
                     rc =    7.638387
                 energy =    0.921402
                kinetic =    1.955040
    potential(screened) =   -1.033637
       potential(ionic) =   -3.679558
atom: Total number of Sankey-type orbitals:  9

atm_pop: Valence configuration (for local Pseudopot. screening):
 2s( 2.00)                                                            
 2p( 2.00)                                                            
Vna: chval, zval:    4.00000   4.00000

Vna:  Cut-off radius for the neutral-atom potential:   7.638387

atom: _________________________________________________________________________

prinput: Basis input ----------------------------------------------------------

PAO.BasisType split     

%block ChemicalSpeciesLabel
    1    3 Li-gga                  # Species index, atomic number, species label
    2    6 C-gga                   # Species index, atomic number, species label
%endblock ChemicalSpeciesLabel

%block PAO.Basis                 # Define Basis set
Li-gga                1                    # Species label, number of l-shells
 n=2   0   1 P   1                   # n, l, Nzeta, Polarization, NzetaPol
  11.897   
   1.000   
C-gga                 2                    # Species label, number of l-shells
 n=2   0   1                         # n, l, Nzeta 
   5.949   
   1.000   
 n=2   1   1 P   1                   # n, l, Nzeta, Polarization, NzetaPol
   7.638   
   1.000   
%endblock PAO.Basis

prinput: ----------------------------------------------------------------------

coor:   Atomic-coordinates input format  =     Cartesian coordinates
coor:                                          (in Angstroms)

siesta: Atomic coordinates (Bohr) and species
siesta:      0.00000   0.00000   0.00000  2        1
siesta:      2.68614   0.00000   4.84405  1        2
siesta:      5.38035   0.00000  14.53214  1        3
siesta:     -1.34307   2.32627   4.84405  1        4
siesta:     -2.69017   4.65952  14.53214  1        5
siesta:      2.69017   4.65952   4.84405  1        6
siesta:      1.34307   2.32627  14.53214  1        7
siesta:      5.38035   0.00000   4.84405  1        8
siesta:      2.68614   0.00000  14.53214  1        9
siesta:     -2.69017   4.65952   4.84405  1       10
siesta:     -1.34307   2.32627  14.53214  1       11
siesta:      1.34307   2.32627   4.84405  1       12
siesta:      2.69017   4.65952  14.53214  1       13

siesta: System type = bulk      

initatomlists: Number of atoms, orbitals, and projectors:     13    57   117

siesta: ******************** Simulation parameters ****************************
siesta:
siesta: The following are some of the parameters of the simulation.
siesta: A complete list of the parameters used, including default values,
siesta: can be found in file out.fdf
siesta:
redata: Spin configuration                          = none
redata: Number of spin components                   = 1
redata: Time-Reversal Symmetry                      = T
redata: Spin spiral                                 = F
redata: Long output                                 =   F
redata: Number of Atomic Species                    =        2
redata: Charge density info will appear in .RHO file
redata: Write Mulliken Pop.                         = NO
redata: Matel table size (NRTAB)                    =     1024
redata: Mesh Cutoff                                 =   300.0000 Ry
redata: Net charge of the system                    =     0.0000 |e|
redata: Min. number of SCF Iter                     =        0
redata: Max. number of SCF Iter                     =     1000
redata: SCF convergence failure will abort job
redata: SCF mix quantity                            = Hamiltonian
redata: Mix DM or H after convergence               =   F
redata: Recompute H after scf cycle                 =   F
redata: Mix DM in first SCF step                    =   T
redata: Write Pulay info on disk                    =   F
redata: New DM Occupancy tolerance                  = 0.000000000001
redata: No kicks to SCF
redata: DM Mixing Weight for Kicks                  =     0.5000
redata: Require Harris convergence for SCF          =   F
redata: Harris energy tolerance for SCF             =     0.000100 eV
redata: Require DM convergence for SCF              =   T
redata: DM tolerance for SCF                        =     0.001000
redata: Require EDM convergence for SCF             =   F
redata: EDM tolerance for SCF                       =     0.005000 eV
redata: Require H convergence for SCF               =   T
redata: Hamiltonian tolerance for SCF               =     0.001000 eV
redata: Require (free) Energy convergence for SCF   =   T
redata: (free) Energy tolerance for SCF             =     0.001000 eV
redata: Using Saved Data (generic)                  =   F
redata: Use continuation files for DM               =   F
redata: Neglect nonoverlap interactions             =   F
redata: Method of Calculation                       = Diagonalization
redata: Electronic Temperature                      =   299.9869 K
redata: Fix the spin of the system                  =   F
redata: Dynamics option                             = Single-point calculation
mix.SCF: Pulay mixing                            = Pulay
mix.SCF:    Variant                              = stable
mix.SCF:    History steps                        = 4
mix.SCF:    Linear mixing weight                 =     0.250000
mix.SCF:    Mixing weight                        =     0.250000
mix.SCF:    SVD condition                        = 0.1000E-07
redata: ***********************************************************************

%block SCF.Mixers
  Pulay
%endblock SCF.Mixers

%block SCF.Mixer.Pulay
  # Mixing method
  method pulay
  variant stable

  # Mixing options
  weight 0.2500
  weight.linear 0.2500
  history 4
%endblock SCF.Mixer.Pulay

DM_history_depth set to one: no extrapolation allowed by default for geometry relaxation
Size of DM history Fstack: 1
Total number of electrons:    16.000000
Total ionic charge:    16.000000

* ProcessorY, Blocksize:    3   1


* Orbital distribution balance (max,min):     5     4

k-point displ. along   1 input, could be:     0.00    0.50
k-point displ. along   2 input, could be:     0.00    0.50
k-point displ. along   3 input, could be:     0.00    0.50
 Kpoints in:            8 . Kpoints trimmed:            8

siesta: k-grid: Number of k-points =     8
siesta: k-grid: Cutoff (effective) =     4.269 Ang
siesta: k-grid: Supercell and displacements
siesta: k-grid:    2   0   0      0.000
siesta: k-grid:    0   2   0      0.000
siesta: k-grid:    0   0   2      0.000

diag: Algorithm                                     = Expert
diag: Parallel over k                               =   T
diag: Use parallel 2D distribution                  =   T
diag: Parallel block-size                           = 1
diag: Parallel distribution                         =     3 x     4
diag: Used triangular part                          = Lower
diag: Absolute tolerance                            =  0.100E-15
diag: Orthogonalization factor                      =  0.100E-05
diag: Memory factor                                 =  1.0000

superc: Internal auxiliary supercell:     9 x     9 x     3  =     243
superc: Number of atoms, orbitals, and projectors:   3159  13851  28431


ts: **************************************************************
ts: Save H and S matrices                           =    F
ts: Save DM and EDM matrices                        =    F
ts: Only save the overlap matrix S                  =    F
ts: **************************************************************

************************ Begin: TS CHECKS AND WARNINGS ************************
************************ End: TS CHECKS AND WARNINGS **************************


                     ====================================
                        Single-point calculation
                     ====================================

outcoor: Atomic coordinates (Ang):                          
    0.00000000    0.00000000    0.00000000   2       1  C-gga
    1.42144380    0.00000000    2.56335850   1       2  Li-gga
    2.84715620    0.00000000    7.69007550   1       3  Li-gga
   -0.71072190    1.23100644    2.56335850   1       4  Li-gga
   -1.42357810    2.46570960    7.69007550   1       5  Li-gga
    1.42357810    2.46570960    2.56335850   1       6  Li-gga
    0.71072190    1.23100644    7.69007550   1       7  Li-gga
    2.84715620    0.00000000    2.56335850   1       8  Li-gga
    1.42144380    0.00000000    7.69007550   1       9  Li-gga
   -1.42357810    2.46570960    2.56335850   1      10  Li-gga
   -0.71072190    1.23100644    7.69007550   1      11  Li-gga
    0.71072190    1.23100644    2.56335850   1      12  Li-gga
    1.42357810    2.46570960    7.69007550   1      13  Li-gga

superc: Internal auxiliary supercell:     9 x     9 x     3  =     243
superc: Number of atoms, orbitals, and projectors:   3159  13851  28431

outcell: Unit cell vectors (Ang):
        4.268600    0.000000    0.000000
       -2.134300    3.696716    0.000000
        0.000000    0.000000   10.253434

outcell: Cell vector modules (Ang)   :    4.268600    4.268600   10.253434
outcell: Cell angles (23,13,12) (deg):     90.0000     90.0000    120.0000
outcell: Cell volume (Ang**3)        :    161.7972
<dSpData1D:S at geom step 0
  <sparsity:sparsity for geom step 0
    nrows_g=57 nrows=5 sparsity=5.8704 nnzs=19073, refcount: 7>
  <dData1D:(new from dSpData1D) n=19073, refcount: 1>
refcount: 1>
new_DM -- step:     1
Initializing Density Matrix...
DM filled with atomic data:
<dSpData2D:DM initialized from atoms
  <sparsity:sparsity for geom step 0
    nrows_g=57 nrows=5 sparsity=5.8704 nnzs=19073, refcount: 8>
  <dData2D:DM n=19073 m=1, refcount: 1>
refcount: 1>
No. of atoms with KB's overlaping orbs in proc 0. Max # of overlaps:     284     648
New grid distribution:   1
           1       1:   20    1:    7    1:   14
           2       1:   20    1:    7   15:   28
           3       1:   20    1:    7   29:   41
           4       1:   20    1:    7   42:   54
           5       1:   20    8:   14    1:   14
           6       1:   20    8:   14   15:   28
           7       1:   20    8:   14   29:   41
           8       1:   20    8:   14   42:   54
           9       1:   20   15:   20    1:   14
          10       1:   20   15:   20   15:   28
          11       1:   20   15:   20   29:   41
          12       1:   20   15:   20   42:   54

InitMesh: MESH =    40 x    40 x   108 =      172800
InitMesh: (bp) =    20 x    20 x    54 =       21600
InitMesh: Mesh cutoff (required, used) =   300.000   306.627 Ry
ExtMesh (bp) on 0 =   160 x   147 x   150 =     3528000
New grid distribution:   2
           1       1:   20    1:    7    1:   13
           2       1:   10    8:   20    1:   13
           3       1:   20    1:    7   28:   41
           4       1:   20    1:    7   42:   54
           5       1:   20    1:    7   14:   27
           6       1:   10    8:   20   14:   27
           7      11:   20    8:   20   28:   41
           8      11:   20    8:   20   42:   54
           9      11:   20    8:   20    1:   13
          10      11:   20    8:   20   14:   27
          11       1:   10    8:   20   28:   41
          12       1:   10    8:   20   42:   54
New grid distribution:   3
           1       1:   10    8:   20   15:   27
           2       1:   20    1:    7   15:   27
           3       1:   20    1:    7   28:   41
           4       1:   20    1:    7   42:   54
           5       1:   20    1:    7    1:   14
           6       1:   10    8:   20    1:   14
           7      11:   20    8:   20   28:   41
           8       1:   10    8:   20   42:   54
           9      11:   20    8:   20    1:   14
          10      11:   20    8:   20   15:   27
          11       1:   10    8:   20   28:   41
          12      11:   20    8:   20   42:   54
Setting up quadratic distribution...
ExtMesh (bp) on 0 =   160 x   147 x   149 =     3504480
PhiOnMesh: Number of (b)points on node 0 =                 1820
PhiOnMesh: nlist on node 0 =               629548

stepf: Fermi-Dirac step function

siesta: Program's energy decomposition (eV):
siesta: Ebs     =      -221.386235
siesta: Eions   =       380.620085
siesta: Ena     =       125.592053
siesta: Ekin    =       129.746761
siesta: Enl     =        42.539644
siesta: Eso     =         0.000000
siesta: Edftu   =         0.000000
siesta: DEna    =        13.429526
siesta: DUscf   =        18.371432
siesta: DUext   =         0.000000
siesta: Exc     =      -143.330448
siesta: eta*DQ  =         0.000000
siesta: Emadel  =         0.000000
siesta: Emeta   =         0.000000
siesta: Emolmec =        -4.893873
siesta: Ekinion =         0.000000
siesta: Eharris =      -168.553335
siesta: Etot    =      -199.164989
siesta: FreeEng =      -199.191472

        iscf     Eharris(eV)        E_KS(eV)     FreeEng(eV)     dDmax    Ef(eV) dHmax(eV)
   scf:    1     -168.553335     -199.164989     -199.191472  1.631501 -9.650383 16.487508
timer: Routine,Calls,Time,% = IterSCF        1       5.970  50.67
   scf:    2        4.395461     -152.204039     -152.221892  1.367590-10.916012 35.071750
   scf:    3     -191.209051     -208.554056     -208.554983  1.135953-10.055317  5.976175
   scf:    4      -75.757839     -170.098522     -170.147084  1.303622-10.636757 30.192128
   scf:    5     -202.777513     -209.792959     -209.816699  1.206676-10.322414  2.686176
   scf:    6     -110.867292     -179.063930     -179.114595  1.087823-10.478515 26.057940
   scf:    7     -204.219807     -209.872994     -209.901960  1.055796-10.270622  2.572711
   scf:    8     -209.834705     -209.854216     -209.883060  0.005137-10.269907  2.658315
   scf:    9     -209.770563     -210.132158     -210.176054  0.160258-10.300172  0.977499
   scf:   10     -210.204677     -210.182846     -210.224349  0.036405-10.300804  0.237099
   scf:   11     -210.187611     -210.185694     -210.226795  0.006059-10.305881  0.112292
   scf:   12     -210.186906     -210.186403     -210.227294  0.002584-10.306575  0.051142
   scf:   13     -210.186749     -210.186636     -210.227415  0.002880-10.307991  0.007837
   scf:   14     -210.186531     -210.186587     -210.227418  0.000627-10.308335  0.004198
   scf:   15     -210.186601     -210.186594     -210.227419  0.000099-10.308374  0.002123
   scf:   16     -210.186592     -210.186593     -210.227418  0.000017-10.308363  0.002308
   scf:   17     -210.186596     -210.186595     -210.227419  0.000110-10.308504  0.001072
   scf:   18     -210.186604     -210.186600     -210.227419  0.000066-10.308483  0.000327

SCF Convergence by FreeE+DM+H criterion
|FreeE_i-FreeE_(i-1)| (eV) <     0.00100000
max |DM_out - DM_in|         :     0.0000659769
max |H_out - H_in|      (eV) :     0.0003271755
SCF cycle converged after 18 iterations

Using DM_out to compute the final energy and forces
No. of atoms with KB's overlaping orbs in proc 0. Max # of overlaps:     284     648

MM-Stress (kbar):        5.25        5.25       18.84        0.00        0.00       -0.00

siesta: E_KS(eV) =             -210.1866

siesta: E_KS - E_eggbox =      -210.1866

siesta: Atomic forces (eV/Ang):
     1    0.000000   -0.000000   -0.000000
     2   -0.128042   -0.000010   -0.308975
     3    0.128042    0.000010    0.308975
     4    0.064012   -0.110893   -0.308975
     5   -0.064012    0.110893    0.308975
     6    0.063988    0.110831   -0.309040
     7   -0.063988   -0.110831    0.309040
     8    0.128042    0.000010   -0.308975
     9   -0.128042   -0.000010    0.308975
    10   -0.064012    0.110893   -0.308975
    11    0.064012   -0.110893    0.308975
    12   -0.063988   -0.110831   -0.309040
    13    0.063988    0.110831    0.309040
----------------------------------------
   Tot    0.000000    0.000000    0.000000
----------------------------------------
   Max    0.309040
   Res    0.185529    sqrt( Sum f_i^2 / 3N )
----------------------------------------
   Max    0.309040    constrained

Stress tensor Voigt[x,y,z,yz,xz,xy] (kbar):     -878.27     -878.28      182.64       -0.00       -0.00       -0.01
(Free)E + p*V (eV/cell)     -157.2470
Target enthalpy (eV/cell)     -210.2274

siesta: Eigenvalues (eV):
  ik is       eps
   1  1  -19.1945  -13.4713  -12.0658  -11.4067  -11.1528  -10.7224  -10.5918  -10.2554  -10.0068  -10.0067
          -9.5833   -7.1220   -3.3619   -3.3619   -3.1572   -3.1572   -2.8863   -2.8863   -2.7461   -2.7460
   -0.6972   -0.6972   -0.5820   -0.5820   -0.2222   -0.2222    1.0403    1.0403    5.3739   11.4573
   11.4575   16.5770   16.5770   17.9218   17.9219   20.3576   20.3576   20.4365   20.4365   24.1323
   24.1324   24.3227   24.3229   25.6294   26.0017   28.9240   28.9240   34.7302   39.4760   39.4760
   40.6437   40.6438   47.8032   48.0520   50.7890   51.1640   55.4698
   2  1  -18.9716  -13.1797  -12.1881  -11.6205  -11.3029  -10.7669  -10.7417  -10.3301  -10.2865   -9.9482
          -8.1966   -7.6257   -7.0234   -5.8878   -4.5951   -4.5720   -3.3351   -2.8624   -2.4424   -0.9601
   -0.2067    0.4427    0.4961    1.0225    2.3057    2.4766    2.5937    2.9171    3.0775    5.0196
    9.3837   10.5911   11.2168   12.8083   13.8665   14.1205   15.0212   15.1269   15.8823   17.0790
   18.8385   19.4656   19.6052   20.0473   20.6917   23.3732   25.7733   25.8633   26.4876   27.5515
   31.6222   53.8035   53.8602   54.4156   54.5538   54.6979   57.2605
   3  1  -18.9716  -13.1797  -12.1881  -11.6205  -11.3029  -10.7669  -10.7417  -10.3301  -10.2865   -9.9482
          -8.1966   -7.6257   -7.0234   -5.8878   -4.5951   -4.5720   -3.3351   -2.8624   -2.4424   -0.9601
   -0.2067    0.4427    0.4961    1.0225    2.3057    2.4766    2.5937    2.9171    3.0775    5.0196
    9.3837   10.5911   11.2168   12.8083   13.8665   14.1205   15.0212   15.1269   15.8823   17.0790
   18.8385   19.4656   19.6052   20.0473   20.6917   23.3732   25.7733   25.8633   26.4876   27.5515
   31.6222   53.8035   53.8602   54.4156   54.5538   54.6979   57.2605
   4  1  -18.9716  -13.1797  -12.1881  -11.6205  -11.3029  -10.7668  -10.7417  -10.3301  -10.2866   -9.9482
          -8.1966   -7.6256   -7.0233   -5.8878   -4.5951   -4.5720   -3.3351   -2.8624   -2.4424   -0.9601
   -0.2067    0.4427    0.4961    1.0225    2.3057    2.4766    2.5937    2.9171    3.0775    5.0196
    9.3840   10.5910   11.2168   12.8082   13.8665   14.1205   15.0211   15.1268   15.8823   17.0790
   18.8385   19.4656   19.6052   20.0474   20.6915   23.3731   25.7732   25.8633   26.4876   27.5514
   31.6222   53.8035   53.8602   54.4158   54.5538   54.6978   57.2606
   5  1  -19.2011  -13.4748  -11.8412  -11.5420  -11.0122  -10.7721  -10.4359  -10.4215  -10.0091  -10.0091
          -9.1899   -7.2938   -3.3542   -3.3542   -3.1784   -3.1784   -2.9962   -2.9962   -2.5828   -2.5828
   -0.7605   -0.7605   -0.4920   -0.4919   -0.2547   -0.2547    1.0536    1.0537    5.7526   12.4957
   12.4959   14.8494   14.8494   17.9104   17.9105   19.9502   19.9503   22.4919   22.4919   22.8552
   22.8552   25.4592   25.4594   25.7167   25.7334   28.3546   28.3546   39.1608   39.1609   40.7527
   40.7527   42.7382   43.2500   49.4747   49.6349   49.8566   49.8802
   6  1  -18.9722  -13.1668  -12.2154  -11.6085  -11.4413  -10.7554  -10.7149  -10.4094  -10.2895   -9.9191
          -8.3498   -7.1296   -6.5502   -6.3325   -4.8319   -4.0849   -3.6362   -2.3077   -2.1965   -1.8403
   -0.0266    0.3666    0.6915    0.7977    2.6288    2.6414    2.7559    2.7934    3.8225    3.8229
   10.3231   10.9513   11.8284   12.3525   14.4968   14.8929   15.4420   15.5147   15.5949   15.7789
   15.9708   17.1748   18.8262   20.3375   23.4198   24.2693   24.7810   26.1712   26.3522   27.7176
   30.9044   54.5236   54.5913   54.5973   54.6589   56.1848   56.1978
   7  1  -18.9722  -13.1668  -12.2154  -11.6085  -11.4413  -10.7554  -10.7149  -10.4094  -10.2895   -9.9191
          -8.3498   -7.1296   -6.5502   -6.3325   -4.8319   -4.0849   -3.6362   -2.3077   -2.1965   -1.8403
   -0.0266    0.3666    0.6915    0.7977    2.6288    2.6414    2.7559    2.7934    3.8225    3.8229
   10.3231   10.9513   11.8284   12.3525   14.4968   14.8929   15.4420   15.5147   15.5949   15.7789
   15.9708   17.1748   18.8262   20.3375   23.4198   24.2693   24.7810   26.1712   26.3522   27.7176
   30.9044   54.5236   54.5913   54.5973   54.6589   56.1848   56.1978
   8  1  -18.9722  -13.1668  -12.2155  -11.6085  -11.4413  -10.7554  -10.7148  -10.4094  -10.2895   -9.9191
          -8.3498   -7.1296   -6.5501   -6.3324   -4.8319   -4.0849   -3.6362   -2.3077   -2.1965   -1.8403
   -0.0266    0.3666    0.6915    0.7977    2.6288    2.6414    2.7559    2.7934    3.8225    3.8229
   10.3233   10.9513   11.8284   12.3525   14.4968   14.8929   15.4419   15.5147   15.5948   15.7789
   15.9708   17.1747   18.8263   20.3376   23.4197   24.2693   24.7810   26.1712   26.3522   27.7175
   30.9044   54.5236   54.5913   54.5972   54.6589   56.1849   56.1980
siesta: Fermi energy =     -10.308483 eV

siesta: Program's energy decomposition (eV):
siesta: Ebs     =      -198.175488
siesta: Eions   =       380.620085
siesta: Ena     =       125.592053
siesta: Ekin    =       157.896802
siesta: Enl     =        33.086076
siesta: Eso     =         0.000000
siesta: Edftu   =         0.000000
siesta: DEna    =         3.545395
siesta: DUscf   =         2.985670
siesta: DUext   =         0.000000
siesta: Exc     =      -147.778638
siesta: eta*DQ  =         0.000000
siesta: Emadel  =         0.000000
siesta: Emeta   =         0.000000
siesta: Emolmec =        -4.893873
siesta: Ekinion =         0.000000
siesta: Eharris =      -210.186604
siesta: Etot    =      -210.186600
siesta: FreeEng =      -210.227419

siesta: Final energy (eV):
siesta:  Band Struct. =    -198.175488
siesta:       Kinetic =     157.896802
siesta:       Hartree =      79.126700
siesta:       Edftu   =       0.000000
siesta:       Eso     =       0.000000
siesta:    Ext. field =       0.000000
siesta:   Exch.-corr. =    -147.778638
siesta:  Ion-electron =    -362.439704
siesta:       Ion-ion =      67.902113
siesta:       Ekinion =       0.000000
siesta:         Total =    -210.186600
siesta:         Fermi =     -10.308483

siesta: Atomic forces (eV/Ang):
siesta:      1    0.000000   -0.000000   -0.000000
siesta:      2   -0.128042   -0.000010   -0.308975
siesta:      3    0.128042    0.000010    0.308975
siesta:      4    0.064012   -0.110893   -0.308975
siesta:      5   -0.064012    0.110893    0.308975
siesta:      6    0.063988    0.110831   -0.309040
siesta:      7   -0.063988   -0.110831    0.309040
siesta:      8    0.128042    0.000010   -0.308975
siesta:      9   -0.128042   -0.000010    0.308975
siesta:     10   -0.064012    0.110893   -0.308975
siesta:     11    0.064012   -0.110893    0.308975
siesta:     12   -0.063988   -0.110831   -0.309040
siesta:     13    0.063988    0.110831    0.309040
siesta: ----------------------------------------
siesta:    Tot    0.000000    0.000000    0.000000

siesta: Stress tensor (static) (eV/Ang**3):
siesta:    -0.548168   -0.000004   -0.000000
siesta:    -0.000004   -0.548173    0.000000
siesta:    -0.000000   -0.000000    0.113991

siesta: Cell volume =        161.797159 Ang**3

siesta: Pressure (static):
siesta:                Solid            Molecule  Units
siesta:           0.00356634          0.00332850  Ry/Bohr**3
siesta:           0.32744960          0.30561168  eV/Ang**3
siesta:         524.63776233        489.64918123  kBar
(Free)E+ p_basis*V_orbitals  =        -178.057298
(Free)Eharris+ p_basis*V_orbitals  =        -178.057302

cite: Please see "LiC12_scf.bib" for an exhaustive BiBTeX file.
cite: Please clearly indicate Siesta version in published work: 4.1.5
cite: This calculation has made use of the following articles
cite: which are encouraged to be cited in a published work.
        Primary SIESTA paper
          DOI: www.doi.org/10.1088/0953-8984/14/11/302

>> End of run:   9-NOV-2022  10:56:51
Job completed
