Siesta Version  : 4.1.5
Architecture    : x86_64-unknown-linux-gnu--unknown
Compiler version: GNU Fortran (GCC) 11.3.0
Compiler flags  : mpif90 -g -O2 -fallow-argument-mismatch
PP flags        : -DMPI -DFC_HAVE_FLUSH -DFC_HAVE_ABORT
Libraries       :  -I/global/software/sl-7.x86_64/modules/intel/2020.4.304/mkl/include  /globall/software/sl-7.x86_64/modules/intel/2020.4.304/mkl/lib/intel64/libmkl_scalapack_lp64.a -Wl,--start-group /global/software/sl-7.x86_64/modules/intel/2020.4.304/mkl/lib/intel64/libmkl_intel_lp64.a /global/software/sl-7.x86_64/modules/intel/2020.4.304/mkl/lib/intel64/libmkl_sequential.a /global/software/sl-7.x86_64/modules/intel/2020.4.304/mkl/lib/intel64/libmkl_core.a /global/software/sl-7.x86_64/modules/intel/2020.4.304/mkl/lib/intel64/libmkl_blacs_openmpi_lp64.a -Wl,--end-group -lpthread -lm -ldl
PARALLEL version

* Running on 12 nodes in parallel
>> Start of run:   9-NOV-2022  10:21:11

                           ***********************       
                           *  WELCOME TO SIESTA  *       
                           ***********************       

reinit: Reading from standard input
reinit: Dumped input in INPUT_TMP.38939
************************** Dump of input data file ****************************
SystemName LiC12_scf
SystemLabel LiC12_scf
NumberOfAtoms   13
NumberOfSpecies 2
%block ChemicalSpeciesLabel
1  3   Li-gga
2  6   C-gga
%endblock ChemicalSpeciesLabel
PAO.BasisSize  SZP
PAO.EnergyShift  10 meV
%block PS.Lmax
C-gga   2
Li-gga  2
%endblock PS.Lmax
LatticeConstant 1.000000 Ang
%block LatticeVectors
	4.2686000000	0.0000000000	0.0000000000
	-2.1343000000	3.6967160386	0.0000000000
	0.0000000000	0.0000000000	7.0229000000
%endblock LatticeVectors
AtomicCoordinatesFormat Ang
%block AtomicCoordinatesAndAtomicSpecies
	0.00000000	0.00000000	0.00000000	2
	1.42144380	0.00000000	1.75572500	1
	2.84715620	0.00000000	5.26717500	1
	-0.71072190	1.23100644	1.75572500	1
	-1.42357810	2.46570960	5.26717500	1
	1.42357810	2.46570960	1.75572500	1
	0.71072190	1.23100644	5.26717500	1
	2.84715620	0.00000000	1.75572500	1
	1.42144380	0.00000000	5.26717500	1
	-1.42357810	2.46570960	1.75572500	1
	-0.71072190	1.23100644	5.26717500	1
	0.71072190	1.23100644	1.75572500	1
	1.42357810	2.46570960	5.26717500	1
%endblock AtomicCoordinatesAndAtomicSpecies
Kgrid_NoTRS  T
%block kgrid_MonkhorstPack
2       0       0       0.0
0       2       0       0.0
0       0       2       0.0
%endblock kgrid_MonkhorstPack
AtomCoorFormatOut Ang
BlockSize 1
#ProcessorY 12
Diag.ParallelOverK   T
Diag.DivideAndConquer F
MeshCutoff   300 Ry
SCF.FreeE.Tolerance 1E-3 eV
SCF.EDM.Tolerance   5E-3 eV
DM.Tolerance  1E-3
DM.Require.Energy.Convergence T
DM.NumberPulay 4
XC.Functional GGA
XC.Authors    PBE
UseSaveData        F
MD.TypeOfRun       CG
MD.VariableCell    F
MD.NumCGsteps      00
MD.MaxCGDispl      0.200000 Bohr
MD.MaxStressTol    1.000000 GPa
MD.MaxForceTol     0.010000 eV/Ang
WriteMDHistory T
WriteCoorStep T
WriteForces T
WriteCoorStep    T
WriteEigenValues T
WriteDM    F
MM.UnitsDistance Ang  # what this program prints out DO NOT CHANGE
MM.UnitsEnergy    eV  # what this program prints out DO NOT CHANGE
MM.Grimme.S6     0.75 # Grimme-paper for PBE (correct for your functional)
MM.Grimme.D     20.   # Grimme-paper (correct for your functional)
%block MM.Potentials
  1   1 Grimme     16.69      1.650 # Li, 10.1002/jcc.20495
  1   2 Grimme     17.40      2.277 # Li / C
  2   2 Grimme     18.14      2.904 # C, 10.1002/jcc.20495
%endblock MM.Potentials
#%block ProjectedDensityOfStates
# -200.0  120.0  0.4  12800  eV
#%endblock ProjectedDensityOfStates
************************** End of input data file *****************************

reinit: -----------------------------------------------------------------------
reinit: System Name: LiC12_scf
reinit: -----------------------------------------------------------------------
reinit: System Label: LiC12_scf
reinit: -----------------------------------------------------------------------
Reading two-body potentials
Grimme - two-body potential between 1 and 1
Grimme - two-body potential between 1 and 2
Grimme - two-body potential between 2 and 2

initatom: Reading input for the pseudopotentials and atomic orbitals ----------
Species number:   1 Atomic number:    3 Label: Li-gga
Species number:   2 Atomic number:    6 Label: C-gga

Ground state valence configuration:   2s01
Reading pseudopotential information in formatted form from Li-gga.psf

Valence configuration for pseudopotential generation:
2s( 1.00) rc: 2.28
2p( 0.00) rc: 2.28
3d( 0.00) rc: 2.59
4f( 0.00) rc: 2.59
Ground state valence configuration:   2s02  2p02
Reading pseudopotential information in formatted form from C-gga.psf

Valence configuration for pseudopotential generation:
2s( 2.00) rc: 1.56
2p( 2.00) rc: 1.56
3d( 0.00) rc: 1.56
4f( 0.00) rc: 1.56
relmxkb: Read Max KB Ang. Momentum=    2 for species C-gga
relmxkb: Read Max KB Ang. Momentum=    2 for species Li-gga

<basis_specs>
===============================================================================
Li-gga               Z=   3    Mass=  6.9400        Charge= 0.17977+309
Lmxo=0 Lmxkb= 2    BasisType=split      Semic=F
L=0  Nsemic=0  Cnfigmx=2
          i=1  nzeta=1  polorb=1  (2s)
            splnorm:   0.15000    
               vcte:    0.0000    
               rinn:    0.0000    
               qcoe:    0.0000    
               qyuk:    0.0000    
               qwid:   0.10000E-01
                rcs:    0.0000    
            lambdas:    1.0000    
-------------------------------------------------------------------------------
L=0  Nkbl=1  erefs: 0.17977+309
L=1  Nkbl=1  erefs: 0.17977+309
L=2  Nkbl=1  erefs: 0.17977+309
===============================================================================
</basis_specs>

atom: Called for Li-gga                (Z =   3)

read_vps: Pseudopotential generation method:
read_vps: ATM 3.2.2 Troullier-Martins                       
Valence charge for ps generation:    1.00000

read_vps: Pseudopotential includes a core correction:
read_vps: Pseudo-core for xc-correction

xc_check: Exchange-correlation functional:
xc_check: GGA Perdew, Burke & Ernzerhof 1996
V l=0 = -2*Zval/r beyond r=  2.2278
V l=1 = -2*Zval/r beyond r=  2.2278
V l=2 = -2*Zval/r beyond r=  2.5245
All V_l potentials equal beyond r=  2.4622
This should be close to max(r_c) in ps generation
All pots = -2*Zval/r beyond r=  2.5245

VLOCAL1: 99.0% of the norm of Vloc inside      7.160 Ry
VLOCAL1: 99.9% of the norm of Vloc inside     16.318 Ry
atom: Maximum radius for 4*pi*r*r*local-pseudopot. charge    2.86079
atom: Maximum radius for r*vlocal+2*Zval:    2.43160
GHOST: No ghost state for L =  0
GHOST: No ghost state for L =  1
GHOST: No ghost state for L =  2

KBgen: Kleinman-Bylander projectors: 
   l= 0   rc=  2.654023   el= -0.211234   Ekb=  1.742119   kbcos=  0.228463
   l= 1   rc=  2.721230   el= -0.080095   Ekb= -1.122375   kbcos= -0.147941
   l= 2   rc=  2.825246   el=  0.002001   Ekb= -0.207076   kbcos= -0.031965

KBgen: Total number of Kleinman-Bylander projectors:    9
atom: -------------------------------------------------------------------------

atom: SANKEY-TYPE ORBITALS:

SPLIT: Orbitals with angular momentum L= 0

SPLIT: Basis orbitals for state 2s

SPLIT: PAO cut-off radius determined from an
SPLIT: energy shift=  0.000735 Ry

   izeta = 1
                 lambda =    1.000000
                     rc =   11.897381
                 energy =   -0.210580
                kinetic =    0.143382
    potential(screened) =   -0.353962
       potential(ionic) =   -0.533453

POLgen: Perturbative polarization orbital with L=  1

POLgen: Polarization orbital for state 2s

   izeta = 1
                     rc =   11.897381
                 energy =   -0.027011
                kinetic =    0.282985
    potential(screened) =   -0.309997
       potential(ionic) =   -0.490997
atom: Total number of Sankey-type orbitals:  4

atm_pop: Valence configuration (for local Pseudopot. screening):
 2s( 1.00)                                                            
Vna: chval, zval:    1.00000   1.00000

Vna:  Cut-off radius for the neutral-atom potential:  11.897381
comcore: Pseudo-core radius Rcore=  3.450946

atom: _________________________________________________________________________

<basis_specs>
===============================================================================
C-gga                Z=   6    Mass=  12.010        Charge= 0.17977+309
Lmxo=1 Lmxkb= 2    BasisType=split      Semic=F
L=0  Nsemic=0  Cnfigmx=2
          i=1  nzeta=1  polorb=0  (2s)
            splnorm:   0.15000    
               vcte:    0.0000    
               rinn:    0.0000    
               qcoe:    0.0000    
               qyuk:    0.0000    
               qwid:   0.10000E-01
                rcs:    0.0000    
            lambdas:    1.0000    
L=1  Nsemic=0  Cnfigmx=2
          i=1  nzeta=1  polorb=1  (2p)
            splnorm:   0.15000    
               vcte:    0.0000    
               rinn:    0.0000    
               qcoe:    0.0000    
               qyuk:    0.0000    
               qwid:   0.10000E-01
                rcs:    0.0000    
            lambdas:    1.0000    
-------------------------------------------------------------------------------
L=0  Nkbl=1  erefs: 0.17977+309
L=1  Nkbl=1  erefs: 0.17977+309
L=2  Nkbl=1  erefs: 0.17977+309
===============================================================================
</basis_specs>

atom: Called for C-gga                 (Z =   6)

read_vps: Pseudopotential generation method:
read_vps: ATM 3.2.2 Troullier-Martins                       
Valence charge for ps generation:    4.00000

xc_check: Exchange-correlation functional:
xc_check: GGA Perdew, Burke & Ernzerhof 1996
V l=0 = -2*Zval/r beyond r=  1.5227
V l=1 = -2*Zval/r beyond r=  1.5227
V l=2 = -2*Zval/r beyond r=  1.5227
All V_l potentials equal beyond r=  1.4851
This should be close to max(r_c) in ps generation
All pots = -2*Zval/r beyond r=  1.5227

VLOCAL1: 99.0% of the norm of Vloc inside     19.682 Ry
VLOCAL1: 99.9% of the norm of Vloc inside     44.856 Ry
atom: Maximum radius for 4*pi*r*r*local-pseudopot. charge    1.79142
atom: Maximum radius for r*vlocal+2*Zval:    1.54183
GHOST: No ghost state for L =  0
GHOST: No ghost state for L =  1
GHOST: No ghost state for L =  2

KBgen: Kleinman-Bylander projectors: 
   l= 0   rc=  1.661951   el= -1.010689   Ekb=  5.289847   kbcos=  0.316429
   l= 1   rc=  1.661951   el= -0.388490   Ekb= -4.102504   kbcos= -0.351025
   l= 2   rc=  1.747182   el=  0.001971   Ekb= -1.006005   kbcos= -0.008530

KBgen: Total number of Kleinman-Bylander projectors:    9
atom: -------------------------------------------------------------------------

atom: SANKEY-TYPE ORBITALS:

SPLIT: Orbitals with angular momentum L= 0

SPLIT: Basis orbitals for state 2s

SPLIT: PAO cut-off radius determined from an
SPLIT: energy shift=  0.000735 Ry

   izeta = 1
                 lambda =    1.000000
                     rc =    5.948690
                 energy =   -1.010099
                kinetic =    0.827121
    potential(screened) =   -1.837220
       potential(ionic) =   -5.392783

SPLIT: Orbitals with angular momentum L= 1

SPLIT: Basis orbitals for state 2p

SPLIT: PAO cut-off radius determined from an
SPLIT: energy shift=  0.000735 Ry

   izeta = 1
                 lambda =    1.000000
                     rc =    7.638387
                 energy =   -0.387843
                kinetic =    2.314739
    potential(screened) =   -2.702582
       potential(ionic) =   -6.092371

POLgen: Perturbative polarization orbital with L=  2

POLgen: Polarization orbital for state 2p

   izeta = 1
                     rc =    7.638387
                 energy =    0.921402
                kinetic =    1.955040
    potential(screened) =   -1.033637
       potential(ionic) =   -3.679558
atom: Total number of Sankey-type orbitals:  9

atm_pop: Valence configuration (for local Pseudopot. screening):
 2s( 2.00)                                                            
 2p( 2.00)                                                            
Vna: chval, zval:    4.00000   4.00000

Vna:  Cut-off radius for the neutral-atom potential:   7.638387

atom: _________________________________________________________________________

prinput: Basis input ----------------------------------------------------------

PAO.BasisType split     

%block ChemicalSpeciesLabel
    1    3 Li-gga                  # Species index, atomic number, species label
    2    6 C-gga                   # Species index, atomic number, species label
%endblock ChemicalSpeciesLabel

%block PAO.Basis                 # Define Basis set
Li-gga                1                    # Species label, number of l-shells
 n=2   0   1 P   1                   # n, l, Nzeta, Polarization, NzetaPol
  11.897   
   1.000   
C-gga                 2                    # Species label, number of l-shells
 n=2   0   1                         # n, l, Nzeta 
   5.949   
   1.000   
 n=2   1   1 P   1                   # n, l, Nzeta, Polarization, NzetaPol
   7.638   
   1.000   
%endblock PAO.Basis

prinput: ----------------------------------------------------------------------

coor:   Atomic-coordinates input format  =     Cartesian coordinates
coor:                                          (in Angstroms)

siesta: Atomic coordinates (Bohr) and species
siesta:      0.00000   0.00000   0.00000  2        1
siesta:      2.68614   0.00000   3.31784  1        2
siesta:      5.38035   0.00000   9.95352  1        3
siesta:     -1.34307   2.32627   3.31784  1        4
siesta:     -2.69017   4.65952   9.95352  1        5
siesta:      2.69017   4.65952   3.31784  1        6
siesta:      1.34307   2.32627   9.95352  1        7
siesta:      5.38035   0.00000   3.31784  1        8
siesta:      2.68614   0.00000   9.95352  1        9
siesta:     -2.69017   4.65952   3.31784  1       10
siesta:     -1.34307   2.32627   9.95352  1       11
siesta:      1.34307   2.32627   3.31784  1       12
siesta:      2.69017   4.65952   9.95352  1       13

siesta: System type = bulk      

initatomlists: Number of atoms, orbitals, and projectors:     13    57   117

siesta: ******************** Simulation parameters ****************************
siesta:
siesta: The following are some of the parameters of the simulation.
siesta: A complete list of the parameters used, including default values,
siesta: can be found in file out.fdf
siesta:
redata: Spin configuration                          = none
redata: Number of spin components                   = 1
redata: Time-Reversal Symmetry                      = T
redata: Spin spiral                                 = F
redata: Long output                                 =   F
redata: Number of Atomic Species                    =        2
redata: Charge density info will appear in .RHO file
redata: Write Mulliken Pop.                         = NO
redata: Matel table size (NRTAB)                    =     1024
redata: Mesh Cutoff                                 =   300.0000 Ry
redata: Net charge of the system                    =     0.0000 |e|
redata: Min. number of SCF Iter                     =        0
redata: Max. number of SCF Iter                     =     1000
redata: SCF convergence failure will abort job
redata: SCF mix quantity                            = Hamiltonian
redata: Mix DM or H after convergence               =   F
redata: Recompute H after scf cycle                 =   F
redata: Mix DM in first SCF step                    =   T
redata: Write Pulay info on disk                    =   F
redata: New DM Occupancy tolerance                  = 0.000000000001
redata: No kicks to SCF
redata: DM Mixing Weight for Kicks                  =     0.5000
redata: Require Harris convergence for SCF          =   F
redata: Harris energy tolerance for SCF             =     0.000100 eV
redata: Require DM convergence for SCF              =   T
redata: DM tolerance for SCF                        =     0.001000
redata: Require EDM convergence for SCF             =   F
redata: EDM tolerance for SCF                       =     0.005000 eV
redata: Require H convergence for SCF               =   T
redata: Hamiltonian tolerance for SCF               =     0.001000 eV
redata: Require (free) Energy convergence for SCF   =   T
redata: (free) Energy tolerance for SCF             =     0.001000 eV
redata: Using Saved Data (generic)                  =   F
redata: Use continuation files for DM               =   F
redata: Neglect nonoverlap interactions             =   F
redata: Method of Calculation                       = Diagonalization
redata: Electronic Temperature                      =   299.9869 K
redata: Fix the spin of the system                  =   F
redata: Dynamics option                             = Single-point calculation
mix.SCF: Pulay mixing                            = Pulay
mix.SCF:    Variant                              = stable
mix.SCF:    History steps                        = 4
mix.SCF:    Linear mixing weight                 =     0.250000
mix.SCF:    Mixing weight                        =     0.250000
mix.SCF:    SVD condition                        = 0.1000E-07
redata: ***********************************************************************

%block SCF.Mixers
  Pulay
%endblock SCF.Mixers

%block SCF.Mixer.Pulay
  # Mixing method
  method pulay
  variant stable

  # Mixing options
  weight 0.2500
  weight.linear 0.2500
  history 4
%endblock SCF.Mixer.Pulay

DM_history_depth set to one: no extrapolation allowed by default for geometry relaxation
Size of DM history Fstack: 1
Total number of electrons:    16.000000
Total ionic charge:    16.000000

* ProcessorY, Blocksize:    3   1


* Orbital distribution balance (max,min):     5     4

k-point displ. along   1 input, could be:     0.00    0.50
k-point displ. along   2 input, could be:     0.00    0.50
k-point displ. along   3 input, could be:     0.00    0.50
 Kpoints in:            8 . Kpoints trimmed:            8

siesta: k-grid: Number of k-points =     8
siesta: k-grid: Cutoff (effective) =     4.269 Ang
siesta: k-grid: Supercell and displacements
siesta: k-grid:    2   0   0      0.000
siesta: k-grid:    0   2   0      0.000
siesta: k-grid:    0   0   2      0.000

diag: Algorithm                                     = Expert
diag: Parallel over k                               =   T
diag: Use parallel 2D distribution                  =   T
diag: Parallel block-size                           = 1
diag: Parallel distribution                         =     3 x     4
diag: Used triangular part                          = Lower
diag: Absolute tolerance                            =  0.100E-15
diag: Orthogonalization factor                      =  0.100E-05
diag: Memory factor                                 =  1.0000

superc: Internal auxiliary supercell:     9 x     9 x     5  =     405
superc: Number of atoms, orbitals, and projectors:   5265  23085  47385


ts: **************************************************************
ts: Save H and S matrices                           =    F
ts: Save DM and EDM matrices                        =    F
ts: Only save the overlap matrix S                  =    F
ts: **************************************************************

************************ Begin: TS CHECKS AND WARNINGS ************************
************************ End: TS CHECKS AND WARNINGS **************************


                     ====================================
                        Single-point calculation
                     ====================================

outcoor: Atomic coordinates (Ang):                          
    0.00000000    0.00000000    0.00000000   2       1  C-gga
    1.42144380    0.00000000    1.75572500   1       2  Li-gga
    2.84715620    0.00000000    5.26717500   1       3  Li-gga
   -0.71072190    1.23100644    1.75572500   1       4  Li-gga
   -1.42357810    2.46570960    5.26717500   1       5  Li-gga
    1.42357810    2.46570960    1.75572500   1       6  Li-gga
    0.71072190    1.23100644    5.26717500   1       7  Li-gga
    2.84715620    0.00000000    1.75572500   1       8  Li-gga
    1.42144380    0.00000000    5.26717500   1       9  Li-gga
   -1.42357810    2.46570960    1.75572500   1      10  Li-gga
   -0.71072190    1.23100644    5.26717500   1      11  Li-gga
    0.71072190    1.23100644    1.75572500   1      12  Li-gga
    1.42357810    2.46570960    5.26717500   1      13  Li-gga

superc: Internal auxiliary supercell:     9 x     9 x     5  =     405
superc: Number of atoms, orbitals, and projectors:   5265  23085  47385

outcell: Unit cell vectors (Ang):
        4.268600    0.000000    0.000000
       -2.134300    3.696716    0.000000
        0.000000    0.000000    7.022900

outcell: Cell vector modules (Ang)   :    4.268600    4.268600    7.022900
outcell: Cell angles (23,13,12) (deg):     90.0000     90.0000    120.0000
outcell: Cell volume (Ang**3)        :    110.8200
<dSpData1D:S at geom step 0
  <sparsity:sparsity for geom step 0
    nrows_g=57 nrows=5 sparsity=8.9212 nnzs=28985, refcount: 7>
  <dData1D:(new from dSpData1D) n=28985, refcount: 1>
refcount: 1>
new_DM -- step:     1
Initializing Density Matrix...
DM filled with atomic data:
<dSpData2D:DM initialized from atoms
  <sparsity:sparsity for geom step 0
    nrows_g=57 nrows=5 sparsity=8.9212 nnzs=28985, refcount: 8>
  <dData2D:DM n=28985 m=1, refcount: 1>
refcount: 1>
No. of atoms with KB's overlaping orbs in proc 0. Max # of overlaps:     372     920
New grid distribution:   1
           1       1:   20    1:    7    1:   10
           2       1:   20    1:    7   11:   20
           3       1:   20    1:    7   21:   30
           4       1:   20    1:    7   31:   40
           5       1:   20    8:   14    1:   10
           6       1:   20    8:   14   11:   20
           7       1:   20    8:   14   21:   30
           8       1:   20    8:   14   31:   40
           9       1:   20   15:   20    1:   10
          10       1:   20   15:   20   11:   20
          11       1:   20   15:   20   21:   30
          12       1:   20   15:   20   31:   40

InitMesh: MESH =    40 x    40 x    80 =      128000
InitMesh: (bp) =    20 x    20 x    40 =       16000
InitMesh: Mesh cutoff (required, used) =   300.000   323.586 Ry
ExtMesh (bp) on 0 =   160 x   147 x   154 =     3622080
New grid distribution:   2
           1       1:   20    1:    7    1:   10
           2       1:   10    8:   20   11:   20
           3       1:   20    1:    7   21:   30
           4      11:   20    8:   20    1:   10
           5       1:   20    1:    7   11:   20
           6       1:   10    8:   20    1:   10
           7      11:   20    8:   20   21:   30
           8      11:   20    8:   20   31:   40
           9       1:   20    1:    7   31:   40
          10      11:   20    8:   20   11:   20
          11       1:   10    8:   20   21:   30
          12       1:   10    8:   20   31:   40
New grid distribution:   3
           1       1:   20    1:    7    1:   10
           2       1:   10    8:   20   11:   20
           3       1:   20    1:    7   21:   30
           4      11:   20    8:   20    1:   10
           5       1:   20    1:    7   11:   20
           6       1:   10    8:   20    1:   10
           7      11:   20    8:   20   21:   30
           8      11:   20    8:   20   31:   40
           9       1:   20    1:    7   31:   40
          10      11:   20    8:   20   11:   20
          11       1:   10    8:   20   21:   30
          12       1:   10    8:   20   31:   40
Setting up quadratic distribution...
ExtMesh (bp) on 0 =   160 x   147 x   154 =     3622080
PhiOnMesh: Number of (b)points on node 0 =                 1400
PhiOnMesh: nlist on node 0 =               694679

stepf: Fermi-Dirac step function

siesta: Program's energy decomposition (eV):
siesta: Ebs     =      -199.646306
siesta: Eions   =       380.620085
siesta: Ena     =       110.285795
siesta: Ekin    =       203.657492
siesta: Enl     =        10.692888
siesta: Eso     =         0.000000
siesta: Edftu   =         0.000000
siesta: DEna    =        -1.412448
siesta: DUscf   =         9.046866
siesta: DUext   =         0.000000
siesta: Exc     =      -162.684041
siesta: eta*DQ  =         0.000000
siesta: Emadel  =         0.000000
siesta: Emeta   =         0.000000
siesta: Emolmec =        -5.799811
siesta: Ekinion =         0.000000
siesta: Eharris =      -193.564360
siesta: Etot    =      -216.833343
siesta: FreeEng =      -216.847039

        iscf     Eharris(eV)        E_KS(eV)     FreeEng(eV)     dDmax    Ef(eV) dHmax(eV)
   scf:    1     -193.564360     -216.833343     -216.847039  1.384089-12.574734  9.841383
timer: Routine,Calls,Time,% = IterSCF        1      10.044  54.19
   scf:    2     -205.342450     -218.309353     -218.318106  0.580188-12.465145  7.384498
   scf:    3     -216.510434     -220.954011     -220.972434  0.411097-12.546986  3.894168
   scf:    4     -210.580955     -218.913762     -218.928297  0.403681-12.477528  6.842907
   scf:    5     -222.516890     -221.084718     -221.127218  0.137280-12.500276  3.216335
   scf:    6     -219.871900     -221.425503     -221.454477  0.233328-12.535615  2.439055
   scf:    7     -221.366470     -221.396277     -221.425151  0.004422-12.534024  2.565037
   scf:    8     -211.510874     -218.963737     -218.980067  0.376869-12.495652  6.867887
   scf:    9     -220.849471     -221.701239     -221.735754  0.319862-12.546786  0.980920
   scf:   10     -221.745136     -221.724861     -221.761407  0.008970-12.544154  0.751224
   scf:   11     -220.812980     -221.500839     -221.544969  0.115119-12.525054  1.982269
   scf:   12     -220.777810     -221.571493     -221.601299  0.161892-12.553309  1.789663
   scf:   13     -221.818577     -221.727807     -221.764349  0.044771-12.548806  0.724237
   scf:   14     -221.762565     -221.756821     -221.796683  0.025941-12.544210  0.106716
   scf:   15     -221.755854     -221.756860     -221.797359  0.005350-12.543412  0.023817
   scf:   16     -221.756792     -221.756827     -221.797345  0.000196-12.543545  0.028813
   scf:   17     -221.757123     -221.757009     -221.797396  0.001406-12.543794  0.004356
   scf:   18     -221.756943     -221.756977     -221.797397  0.000297-12.543728  0.002446
   scf:   19     -221.756989     -221.756983     -221.797397  0.000052-12.543718  0.001138
   scf:   20     -221.756967     -221.756975     -221.797397  0.000095-12.543696  0.001800
   scf:   21     -221.756986     -221.756981     -221.797397  0.000065-12.543706  0.000188

SCF Convergence by FreeE+DM+H criterion
|FreeE_i-FreeE_(i-1)| (eV) <     0.00100000
max |DM_out - DM_in|         :     0.0000646428
max |H_out - H_in|      (eV) :     0.0001884739
SCF cycle converged after 21 iterations

Using DM_out to compute the final energy and forces
No. of atoms with KB's overlaping orbs in proc 0. Max # of overlaps:     372     920

MM-Stress (kbar):        9.01        9.01       19.72       -0.00        0.00        0.00

siesta: E_KS(eV) =             -221.7570

siesta: E_KS - E_eggbox =      -221.7570

siesta: Atomic forces (eV/Ang):
     1   -0.000000    0.000000    0.000010
     2    0.047654    0.000017   -0.354841
     3   -0.047651   -0.000017    0.354840
     4   -0.023812    0.041278   -0.354841
     5    0.023811   -0.041276    0.354839
     6   -0.023894   -0.041386   -0.354925
     7    0.023893    0.041384    0.354923
     8   -0.047654   -0.000017   -0.354841
     9    0.047651    0.000017    0.354840
    10    0.023812   -0.041278   -0.354841
    11   -0.023811    0.041276    0.354839
    12    0.023894    0.041386   -0.354925
    13   -0.023893   -0.041384    0.354923
----------------------------------------
   Tot    0.000000    0.000000    0.000000
----------------------------------------
   Max    0.354925
   Res    0.198616    sqrt( Sum f_i^2 / 3N )
----------------------------------------
   Max    0.354925    constrained

Stress tensor Voigt[x,y,z,yz,xz,xy] (kbar):    -1256.38    -1256.40      595.04       -0.00        0.00       -0.02
(Free)E + p*V (eV/cell)     -177.5824
Target enthalpy (eV/cell)     -221.7974

siesta: Eigenvalues (eV):
  ik is       eps
   1  1  -21.9052  -16.4225  -16.2099  -13.8792  -12.6114  -12.5894  -12.5767  -12.5766  -12.5002  -11.7840
          -8.6235   -6.5427   -6.5426   -6.2316   -6.2316   -4.8818   -4.8818   -4.1872   -4.1872   -3.6267
   -3.4407   -3.4407    0.6456    0.6456    1.8723    1.8723    2.6471    2.6475    6.8152   13.8341
   13.8342   17.4801   17.4802   17.8399   17.8399   19.1167   19.1168   23.4768   23.7141   23.7141
   23.9730   26.1111   26.1112   31.0520   32.7955   32.7966   33.1619   33.1620   37.5645   37.5648
   45.4931   45.8269   48.0117   48.5864   49.8420   53.9844   53.9846
   2  1  -21.7584  -16.5103  -15.5733  -14.6627  -14.0384  -13.2482  -13.0371  -12.8435  -12.6746  -10.4695
          -8.7110   -8.4858   -8.2674   -8.0733   -5.0742   -4.3706   -3.0680   -3.0145   -2.6508   -1.7106
   -0.9604   -0.7590   -0.6793    0.0856    1.2289    2.1413    2.1571    2.2015    2.4844    4.8981
    7.8849    8.5247    9.6311   10.8815   14.8524   15.3001   18.2075   18.2819   18.7975   19.9342
   21.4478   21.6538   22.5260   23.2188   24.0213   25.4294   25.6066   25.8798   29.6539   32.2769
   47.7749   49.3763   49.9805   52.6939   57.0297   57.7741   58.8604
   3  1  -21.7584  -16.5103  -15.5733  -14.6627  -14.0384  -13.2482  -13.0371  -12.8435  -12.6746  -10.4695
          -8.7110   -8.4858   -8.2674   -8.0733   -5.0742   -4.3706   -3.0680   -3.0145   -2.6508   -1.7106
   -0.9604   -0.7590   -0.6793    0.0856    1.2289    2.1413    2.1571    2.2015    2.4844    4.8981
    7.8849    8.5247    9.6311   10.8815   14.8524   15.3001   18.2075   18.2819   18.7975   19.9342
   21.4478   21.6538   22.5260   23.2188   24.0213   25.4294   25.6066   25.8798   29.6539   32.2769
   47.7749   49.3763   49.9805   52.6939   57.0297   57.7741   58.8604
   4  1  -21.7584  -16.5103  -15.5733  -14.6627  -14.0384  -13.2482  -13.0371  -12.8435  -12.6745  -10.4695
          -8.7110   -8.4858   -8.2673   -8.0733   -5.0741   -4.3706   -3.0681   -3.0144   -2.6507   -1.7106
   -0.9604   -0.7590   -0.6792    0.0856    1.2287    2.1413    2.1572    2.2015    2.4844    4.8981
    7.8848    8.5247    9.6311   10.8814   14.8525   15.2999   18.2076   18.2819   18.7975   19.9342
   21.4478   21.6543   22.5261   23.2187   24.0212   25.4293   25.6065   25.8797   29.6540   32.2762
   47.7749   49.3762   49.9806   52.6937   57.0296   57.7740   58.8606
   5  1  -22.0004  -16.5347  -15.9074  -14.0354  -12.7049  -12.5832  -12.5718  -12.5718  -12.5015  -12.1058
          -7.7420   -6.4735   -6.4735   -6.0945   -6.0944   -5.9420   -5.9419   -4.9139   -2.5657   -2.5657
   -1.9346   -1.9346   -0.9220   -0.9220   -0.5863   -0.5863    4.6409    4.6413   11.9270   17.1343
   17.1344   19.3538   19.3538   19.5960   19.5960   21.9431   21.9432   22.2759   22.2760   23.5339
   23.6136   23.6137   23.6368   33.4846   33.4846   35.2991   35.3002   40.5191   40.6534   42.1430
   42.1433   47.2678   47.4730   47.7708   47.8360   47.8371   47.8373
   6  1  -21.7660  -16.6561  -15.4366  -14.5212  -14.0756  -13.2515  -13.0221  -12.5271  -12.0089  -11.7919
         -10.3576   -8.4429   -6.8896   -6.5689   -5.9601   -4.2273   -3.8964   -2.2703   -2.0530   -1.7457
   -1.5915   -0.0347    0.0482    0.2510    0.2789    0.6906    0.9110    1.6252    3.1037    3.4334
   11.8421   12.6874   13.5191   14.8473   15.5016   16.5598   17.3119   18.1049   18.6477   19.0423
   19.6099   21.1383   22.4268   23.1364   24.1313   25.0641   25.3545   25.9365   25.9750   38.6647
   48.9578   50.9100   51.0375   52.0845   53.0126   53.1417   53.8618
   7  1  -21.7660  -16.6561  -15.4366  -14.5212  -14.0756  -13.2515  -13.0221  -12.5271  -12.0089  -11.7919
         -10.3576   -8.4429   -6.8896   -6.5689   -5.9601   -4.2273   -3.8964   -2.2703   -2.0530   -1.7457
   -1.5915   -0.0347    0.0482    0.2510    0.2789    0.6906    0.9110    1.6252    3.1037    3.4334
   11.8421   12.6874   13.5191   14.8473   15.5016   16.5598   17.3119   18.1049   18.6477   19.0423
   19.6099   21.1383   22.4268   23.1364   24.1313   25.0641   25.3545   25.9365   25.9750   38.6647
   48.9578   50.9100   51.0375   52.0845   53.0126   53.1417   53.8618
   8  1  -21.7660  -16.6561  -15.4366  -14.5212  -14.0756  -13.2514  -13.0222  -12.5271  -12.0089  -11.7919
         -10.3576   -8.4429   -6.8895   -6.5687   -5.9601   -4.2273   -3.8964   -2.2704   -2.0530   -1.7457
   -1.5915   -0.0347    0.0482    0.2510    0.2789    0.6907    0.9110    1.6252    3.1039    3.4331
   11.8420   12.6873   13.5191   14.8472   15.5016   16.5598   17.3119   18.1048   18.6478   19.0422
   19.6099   21.1385   22.4267   23.1369   24.1313   25.0640   25.3545   25.9365   25.9750   38.6639
   48.9577   50.9100   51.0375   52.0845   53.0127   53.1418   53.8616
siesta: Fermi energy =     -12.543706 eV

siesta: Program's energy decomposition (eV):
siesta: Ebs     =      -241.707333
siesta: Eions   =       380.620085
siesta: Ena     =       110.285795
siesta: Ekin    =       180.620527
siesta: Enl     =        18.410494
siesta: Eso     =         0.000000
siesta: Edftu   =         0.000000
siesta: DEna    =        10.685109
siesta: DUscf   =         2.172017
siesta: DUext   =         0.000000
siesta: Exc     =      -157.511027
siesta: eta*DQ  =         0.000000
siesta: Emadel  =         0.000000
siesta: Emeta   =         0.000000
siesta: Emolmec =        -5.799811
siesta: Ekinion =         0.000000
siesta: Eharris =      -221.756986
siesta: Etot    =      -221.756981
siesta: FreeEng =      -221.797397

siesta: Final energy (eV):
siesta:  Band Struct. =    -241.707333
siesta:       Kinetic =     180.620527
siesta:       Hartree =      72.975293
siesta:       Edftu   =       0.000000
siesta:       Eso     =       0.000000
siesta:    Ext. field =       0.000000
siesta:   Exch.-corr. =    -157.511027
siesta:  Ion-electron =    -403.115517
siesta:       Ion-ion =      91.073554
siesta:       Ekinion =       0.000000
siesta:         Total =    -221.756981
siesta:         Fermi =     -12.543706

siesta: Atomic forces (eV/Ang):
siesta:      1   -0.000000    0.000000    0.000010
siesta:      2    0.047654    0.000017   -0.354841
siesta:      3   -0.047651   -0.000017    0.354840
siesta:      4   -0.023812    0.041278   -0.354841
siesta:      5    0.023811   -0.041276    0.354839
siesta:      6   -0.023894   -0.041386   -0.354925
siesta:      7    0.023893    0.041384    0.354923
siesta:      8   -0.047654   -0.000017   -0.354841
siesta:      9    0.047651    0.000017    0.354840
siesta:     10    0.023812   -0.041278   -0.354841
siesta:     11   -0.023811    0.041276    0.354839
siesta:     12    0.023894    0.041386   -0.354925
siesta:     13   -0.023893   -0.041384    0.354923
siesta: ----------------------------------------
siesta:    Tot    0.000000    0.000000    0.000000

siesta: Stress tensor (static) (eV/Ang**3):
siesta:    -0.784160   -0.000013    0.000000
siesta:    -0.000013   -0.784174   -0.000000
siesta:     0.000000   -0.000000    0.371391

siesta: Cell volume =        110.819972 Ang**3

siesta: Pressure (static):
siesta:                Solid            Molecule  Units
siesta:           0.00434541          0.00411385  Ry/Bohr**3
siesta:           0.39898084          0.37771945  eV/Ang**3
siesta:         639.24468788        605.17982407  kBar
(Free)E+ p_basis*V_orbitals  =        -189.627276
(Free)Eharris+ p_basis*V_orbitals  =        -189.627282

cite: Please see "LiC12_scf.bib" for an exhaustive BiBTeX file.
cite: Please clearly indicate Siesta version in published work: 4.1.5
cite: This calculation has made use of the following articles
cite: which are encouraged to be cited in a published work.
        Primary SIESTA paper
          DOI: www.doi.org/10.1088/0953-8984/14/11/302

>> End of run:   9-NOV-2022  10:23:56
Job completed
