Siesta Version  : 4.1.5
Architecture    : x86_64-unknown-linux-gnu--unknown
Compiler version: GNU Fortran (GCC) 11.3.0
Compiler flags  : mpif90 -g -O2 -fallow-argument-mismatch
PP flags        : -DMPI -DFC_HAVE_FLUSH -DFC_HAVE_ABORT
Libraries       :  -I/global/software/sl-7.x86_64/modules/intel/2020.4.304/mkl/include  /globall/software/sl-7.x86_64/modules/intel/2020.4.304/mkl/lib/intel64/libmkl_scalapack_lp64.a -Wl,--start-group /global/software/sl-7.x86_64/modules/intel/2020.4.304/mkl/lib/intel64/libmkl_intel_lp64.a /global/software/sl-7.x86_64/modules/intel/2020.4.304/mkl/lib/intel64/libmkl_sequential.a /global/software/sl-7.x86_64/modules/intel/2020.4.304/mkl/lib/intel64/libmkl_core.a /global/software/sl-7.x86_64/modules/intel/2020.4.304/mkl/lib/intel64/libmkl_blacs_openmpi_lp64.a -Wl,--end-group -lpthread -lm -ldl
PARALLEL version

* Running on 12 nodes in parallel
>> Start of run:   9-NOV-2022  10:58:17

                           ***********************       
                           *  WELCOME TO SIESTA  *       
                           ***********************       

reinit: Reading from standard input
reinit: Dumped input in INPUT_TMP.64415
************************** Dump of input data file ****************************
SystemName LiC12_scf
SystemLabel LiC12_scf
NumberOfAtoms   13
NumberOfSpecies 2
%block ChemicalSpeciesLabel
1  3   Li-gga
2  6   C-gga
%endblock ChemicalSpeciesLabel
PAO.BasisSize  SZP
PAO.EnergyShift  10 meV
%block PS.Lmax
C-gga   2
Li-gga  2
%endblock PS.Lmax
LatticeConstant 1.000000 Ang
%block LatticeVectors
	4.2686000000	0.0000000000	0.0000000000
	-2.1343000000	3.6967160386	0.0000000000
	0.0000000000	0.0000000000	9.8320600000
%endblock LatticeVectors
AtomicCoordinatesFormat Ang
%block AtomicCoordinatesAndAtomicSpecies
	0.00000000	0.00000000	0.00000000	2
	1.42144380	0.00000000	2.45801500	1
	2.84715620	0.00000000	7.37404500	1
	-0.71072190	1.23100644	2.45801500	1
	-1.42357810	2.46570960	7.37404500	1
	1.42357810	2.46570960	2.45801500	1
	0.71072190	1.23100644	7.37404500	1
	2.84715620	0.00000000	2.45801500	1
	1.42144380	0.00000000	7.37404500	1
	-1.42357810	2.46570960	2.45801500	1
	-0.71072190	1.23100644	7.37404500	1
	0.71072190	1.23100644	2.45801500	1
	1.42357810	2.46570960	7.37404500	1
%endblock AtomicCoordinatesAndAtomicSpecies
Kgrid_NoTRS  T
%block kgrid_MonkhorstPack
2       0       0       0.0
0       2       0       0.0
0       0       2       0.0
%endblock kgrid_MonkhorstPack
AtomCoorFormatOut Ang
BlockSize 1
#ProcessorY 12
Diag.ParallelOverK   T
Diag.DivideAndConquer F
MeshCutoff   300 Ry
SCF.FreeE.Tolerance 1E-3 eV
SCF.EDM.Tolerance   5E-3 eV
DM.Tolerance  1E-3
DM.Require.Energy.Convergence T
DM.NumberPulay 4
XC.Functional GGA
XC.Authors    PBE
UseSaveData        F
MD.TypeOfRun       CG
MD.VariableCell    F
MD.NumCGsteps      00
MD.MaxCGDispl      0.200000 Bohr
MD.MaxStressTol    1.000000 GPa
MD.MaxForceTol     0.010000 eV/Ang
WriteMDHistory T
WriteCoorStep T
WriteForces T
WriteCoorStep    T
WriteEigenValues T
WriteDM    F
MM.UnitsDistance Ang  # what this program prints out DO NOT CHANGE
MM.UnitsEnergy    eV  # what this program prints out DO NOT CHANGE
MM.Grimme.S6     0.75 # Grimme-paper for PBE (correct for your functional)
MM.Grimme.D     20.   # Grimme-paper (correct for your functional)
%block MM.Potentials
  1   1 Grimme     16.69      1.650 # Li, 10.1002/jcc.20495
  1   2 Grimme     17.40      2.277 # Li / C
  2   2 Grimme     18.14      2.904 # C, 10.1002/jcc.20495
%endblock MM.Potentials
#%block ProjectedDensityOfStates
# -200.0  120.0  0.4  12800  eV
#%endblock ProjectedDensityOfStates
************************** End of input data file *****************************

reinit: -----------------------------------------------------------------------
reinit: System Name: LiC12_scf
reinit: -----------------------------------------------------------------------
reinit: System Label: LiC12_scf
reinit: -----------------------------------------------------------------------
Reading two-body potentials
Grimme - two-body potential between 1 and 1
Grimme - two-body potential between 1 and 2
Grimme - two-body potential between 2 and 2

initatom: Reading input for the pseudopotentials and atomic orbitals ----------
Species number:   1 Atomic number:    3 Label: Li-gga
Species number:   2 Atomic number:    6 Label: C-gga

Ground state valence configuration:   2s01
Reading pseudopotential information in formatted form from Li-gga.psf

Valence configuration for pseudopotential generation:
2s( 1.00) rc: 2.28
2p( 0.00) rc: 2.28
3d( 0.00) rc: 2.59
4f( 0.00) rc: 2.59
Ground state valence configuration:   2s02  2p02
Reading pseudopotential information in formatted form from C-gga.psf

Valence configuration for pseudopotential generation:
2s( 2.00) rc: 1.56
2p( 2.00) rc: 1.56
3d( 0.00) rc: 1.56
4f( 0.00) rc: 1.56
relmxkb: Read Max KB Ang. Momentum=    2 for species C-gga
relmxkb: Read Max KB Ang. Momentum=    2 for species Li-gga

<basis_specs>
===============================================================================
Li-gga               Z=   3    Mass=  6.9400        Charge= 0.17977+309
Lmxo=0 Lmxkb= 2    BasisType=split      Semic=F
L=0  Nsemic=0  Cnfigmx=2
          i=1  nzeta=1  polorb=1  (2s)
            splnorm:   0.15000    
               vcte:    0.0000    
               rinn:    0.0000    
               qcoe:    0.0000    
               qyuk:    0.0000    
               qwid:   0.10000E-01
                rcs:    0.0000    
            lambdas:    1.0000    
-------------------------------------------------------------------------------
L=0  Nkbl=1  erefs: 0.17977+309
L=1  Nkbl=1  erefs: 0.17977+309
L=2  Nkbl=1  erefs: 0.17977+309
===============================================================================
</basis_specs>

atom: Called for Li-gga                (Z =   3)

read_vps: Pseudopotential generation method:
read_vps: ATM 3.2.2 Troullier-Martins                       
Valence charge for ps generation:    1.00000

read_vps: Pseudopotential includes a core correction:
read_vps: Pseudo-core for xc-correction

xc_check: Exchange-correlation functional:
xc_check: GGA Perdew, Burke & Ernzerhof 1996
V l=0 = -2*Zval/r beyond r=  2.2278
V l=1 = -2*Zval/r beyond r=  2.2278
V l=2 = -2*Zval/r beyond r=  2.5245
All V_l potentials equal beyond r=  2.4622
This should be close to max(r_c) in ps generation
All pots = -2*Zval/r beyond r=  2.5245

VLOCAL1: 99.0% of the norm of Vloc inside      7.160 Ry
VLOCAL1: 99.9% of the norm of Vloc inside     16.318 Ry
atom: Maximum radius for 4*pi*r*r*local-pseudopot. charge    2.86079
atom: Maximum radius for r*vlocal+2*Zval:    2.43160
GHOST: No ghost state for L =  0
GHOST: No ghost state for L =  1
GHOST: No ghost state for L =  2

KBgen: Kleinman-Bylander projectors: 
   l= 0   rc=  2.654023   el= -0.211234   Ekb=  1.742119   kbcos=  0.228463
   l= 1   rc=  2.721230   el= -0.080095   Ekb= -1.122375   kbcos= -0.147941
   l= 2   rc=  2.825246   el=  0.002001   Ekb= -0.207076   kbcos= -0.031965

KBgen: Total number of Kleinman-Bylander projectors:    9
atom: -------------------------------------------------------------------------

atom: SANKEY-TYPE ORBITALS:

SPLIT: Orbitals with angular momentum L= 0

SPLIT: Basis orbitals for state 2s

SPLIT: PAO cut-off radius determined from an
SPLIT: energy shift=  0.000735 Ry

   izeta = 1
                 lambda =    1.000000
                     rc =   11.897381
                 energy =   -0.210580
                kinetic =    0.143382
    potential(screened) =   -0.353962
       potential(ionic) =   -0.533453

POLgen: Perturbative polarization orbital with L=  1

POLgen: Polarization orbital for state 2s

   izeta = 1
                     rc =   11.897381
                 energy =   -0.027011
                kinetic =    0.282985
    potential(screened) =   -0.309997
       potential(ionic) =   -0.490997
atom: Total number of Sankey-type orbitals:  4

atm_pop: Valence configuration (for local Pseudopot. screening):
 2s( 1.00)                                                            
Vna: chval, zval:    1.00000   1.00000

Vna:  Cut-off radius for the neutral-atom potential:  11.897381
comcore: Pseudo-core radius Rcore=  3.450946

atom: _________________________________________________________________________

<basis_specs>
===============================================================================
C-gga                Z=   6    Mass=  12.010        Charge= 0.17977+309
Lmxo=1 Lmxkb= 2    BasisType=split      Semic=F
L=0  Nsemic=0  Cnfigmx=2
          i=1  nzeta=1  polorb=0  (2s)
            splnorm:   0.15000    
               vcte:    0.0000    
               rinn:    0.0000    
               qcoe:    0.0000    
               qyuk:    0.0000    
               qwid:   0.10000E-01
                rcs:    0.0000    
            lambdas:    1.0000    
L=1  Nsemic=0  Cnfigmx=2
          i=1  nzeta=1  polorb=1  (2p)
            splnorm:   0.15000    
               vcte:    0.0000    
               rinn:    0.0000    
               qcoe:    0.0000    
               qyuk:    0.0000    
               qwid:   0.10000E-01
                rcs:    0.0000    
            lambdas:    1.0000    
-------------------------------------------------------------------------------
L=0  Nkbl=1  erefs: 0.17977+309
L=1  Nkbl=1  erefs: 0.17977+309
L=2  Nkbl=1  erefs: 0.17977+309
===============================================================================
</basis_specs>

atom: Called for C-gga                 (Z =   6)

read_vps: Pseudopotential generation method:
read_vps: ATM 3.2.2 Troullier-Martins                       
Valence charge for ps generation:    4.00000

xc_check: Exchange-correlation functional:
xc_check: GGA Perdew, Burke & Ernzerhof 1996
V l=0 = -2*Zval/r beyond r=  1.5227
V l=1 = -2*Zval/r beyond r=  1.5227
V l=2 = -2*Zval/r beyond r=  1.5227
All V_l potentials equal beyond r=  1.4851
This should be close to max(r_c) in ps generation
All pots = -2*Zval/r beyond r=  1.5227

VLOCAL1: 99.0% of the norm of Vloc inside     19.682 Ry
VLOCAL1: 99.9% of the norm of Vloc inside     44.856 Ry
atom: Maximum radius for 4*pi*r*r*local-pseudopot. charge    1.79142
atom: Maximum radius for r*vlocal+2*Zval:    1.54183
GHOST: No ghost state for L =  0
GHOST: No ghost state for L =  1
GHOST: No ghost state for L =  2

KBgen: Kleinman-Bylander projectors: 
   l= 0   rc=  1.661951   el= -1.010689   Ekb=  5.289847   kbcos=  0.316429
   l= 1   rc=  1.661951   el= -0.388490   Ekb= -4.102504   kbcos= -0.351025
   l= 2   rc=  1.747182   el=  0.001971   Ekb= -1.006005   kbcos= -0.008530

KBgen: Total number of Kleinman-Bylander projectors:    9
atom: -------------------------------------------------------------------------

atom: SANKEY-TYPE ORBITALS:

SPLIT: Orbitals with angular momentum L= 0

SPLIT: Basis orbitals for state 2s

SPLIT: PAO cut-off radius determined from an
SPLIT: energy shift=  0.000735 Ry

   izeta = 1
                 lambda =    1.000000
                     rc =    5.948690
                 energy =   -1.010099
                kinetic =    0.827121
    potential(screened) =   -1.837220
       potential(ionic) =   -5.392783

SPLIT: Orbitals with angular momentum L= 1

SPLIT: Basis orbitals for state 2p

SPLIT: PAO cut-off radius determined from an
SPLIT: energy shift=  0.000735 Ry

   izeta = 1
                 lambda =    1.000000
                     rc =    7.638387
                 energy =   -0.387843
                kinetic =    2.314739
    potential(screened) =   -2.702582
       potential(ionic) =   -6.092371

POLgen: Perturbative polarization orbital with L=  2

POLgen: Polarization orbital for state 2p

   izeta = 1
                     rc =    7.638387
                 energy =    0.921402
                kinetic =    1.955040
    potential(screened) =   -1.033637
       potential(ionic) =   -3.679558
atom: Total number of Sankey-type orbitals:  9

atm_pop: Valence configuration (for local Pseudopot. screening):
 2s( 2.00)                                                            
 2p( 2.00)                                                            
Vna: chval, zval:    4.00000   4.00000

Vna:  Cut-off radius for the neutral-atom potential:   7.638387

atom: _________________________________________________________________________

prinput: Basis input ----------------------------------------------------------

PAO.BasisType split     

%block ChemicalSpeciesLabel
    1    3 Li-gga                  # Species index, atomic number, species label
    2    6 C-gga                   # Species index, atomic number, species label
%endblock ChemicalSpeciesLabel

%block PAO.Basis                 # Define Basis set
Li-gga                1                    # Species label, number of l-shells
 n=2   0   1 P   1                   # n, l, Nzeta, Polarization, NzetaPol
  11.897   
   1.000   
C-gga                 2                    # Species label, number of l-shells
 n=2   0   1                         # n, l, Nzeta 
   5.949   
   1.000   
 n=2   1   1 P   1                   # n, l, Nzeta, Polarization, NzetaPol
   7.638   
   1.000   
%endblock PAO.Basis

prinput: ----------------------------------------------------------------------

coor:   Atomic-coordinates input format  =     Cartesian coordinates
coor:                                          (in Angstroms)

siesta: Atomic coordinates (Bohr) and species
siesta:      0.00000   0.00000   0.00000  2        1
siesta:      2.68614   0.00000   4.64498  1        2
siesta:      5.38035   0.00000  13.93493  1        3
siesta:     -1.34307   2.32627   4.64498  1        4
siesta:     -2.69017   4.65952  13.93493  1        5
siesta:      2.69017   4.65952   4.64498  1        6
siesta:      1.34307   2.32627  13.93493  1        7
siesta:      5.38035   0.00000   4.64498  1        8
siesta:      2.68614   0.00000  13.93493  1        9
siesta:     -2.69017   4.65952   4.64498  1       10
siesta:     -1.34307   2.32627  13.93493  1       11
siesta:      1.34307   2.32627   4.64498  1       12
siesta:      2.69017   4.65952  13.93493  1       13

siesta: System type = bulk      

initatomlists: Number of atoms, orbitals, and projectors:     13    57   117

siesta: ******************** Simulation parameters ****************************
siesta:
siesta: The following are some of the parameters of the simulation.
siesta: A complete list of the parameters used, including default values,
siesta: can be found in file out.fdf
siesta:
redata: Spin configuration                          = none
redata: Number of spin components                   = 1
redata: Time-Reversal Symmetry                      = T
redata: Spin spiral                                 = F
redata: Long output                                 =   F
redata: Number of Atomic Species                    =        2
redata: Charge density info will appear in .RHO file
redata: Write Mulliken Pop.                         = NO
redata: Matel table size (NRTAB)                    =     1024
redata: Mesh Cutoff                                 =   300.0000 Ry
redata: Net charge of the system                    =     0.0000 |e|
redata: Min. number of SCF Iter                     =        0
redata: Max. number of SCF Iter                     =     1000
redata: SCF convergence failure will abort job
redata: SCF mix quantity                            = Hamiltonian
redata: Mix DM or H after convergence               =   F
redata: Recompute H after scf cycle                 =   F
redata: Mix DM in first SCF step                    =   T
redata: Write Pulay info on disk                    =   F
redata: New DM Occupancy tolerance                  = 0.000000000001
redata: No kicks to SCF
redata: DM Mixing Weight for Kicks                  =     0.5000
redata: Require Harris convergence for SCF          =   F
redata: Harris energy tolerance for SCF             =     0.000100 eV
redata: Require DM convergence for SCF              =   T
redata: DM tolerance for SCF                        =     0.001000
redata: Require EDM convergence for SCF             =   F
redata: EDM tolerance for SCF                       =     0.005000 eV
redata: Require H convergence for SCF               =   T
redata: Hamiltonian tolerance for SCF               =     0.001000 eV
redata: Require (free) Energy convergence for SCF   =   T
redata: (free) Energy tolerance for SCF             =     0.001000 eV
redata: Using Saved Data (generic)                  =   F
redata: Use continuation files for DM               =   F
redata: Neglect nonoverlap interactions             =   F
redata: Method of Calculation                       = Diagonalization
redata: Electronic Temperature                      =   299.9869 K
redata: Fix the spin of the system                  =   F
redata: Dynamics option                             = Single-point calculation
mix.SCF: Pulay mixing                            = Pulay
mix.SCF:    Variant                              = stable
mix.SCF:    History steps                        = 4
mix.SCF:    Linear mixing weight                 =     0.250000
mix.SCF:    Mixing weight                        =     0.250000
mix.SCF:    SVD condition                        = 0.1000E-07
redata: ***********************************************************************

%block SCF.Mixers
  Pulay
%endblock SCF.Mixers

%block SCF.Mixer.Pulay
  # Mixing method
  method pulay
  variant stable

  # Mixing options
  weight 0.2500
  weight.linear 0.2500
  history 4
%endblock SCF.Mixer.Pulay

DM_history_depth set to one: no extrapolation allowed by default for geometry relaxation
Size of DM history Fstack: 1
Total number of electrons:    16.000000
Total ionic charge:    16.000000

* ProcessorY, Blocksize:    3   1


* Orbital distribution balance (max,min):     5     4

k-point displ. along   1 input, could be:     0.00    0.50
k-point displ. along   2 input, could be:     0.00    0.50
k-point displ. along   3 input, could be:     0.00    0.50
 Kpoints in:            8 . Kpoints trimmed:            8

siesta: k-grid: Number of k-points =     8
siesta: k-grid: Cutoff (effective) =     4.269 Ang
siesta: k-grid: Supercell and displacements
siesta: k-grid:    2   0   0      0.000
siesta: k-grid:    0   2   0      0.000
siesta: k-grid:    0   0   2      0.000

diag: Algorithm                                     = Expert
diag: Parallel over k                               =   T
diag: Use parallel 2D distribution                  =   T
diag: Parallel block-size                           = 1
diag: Parallel distribution                         =     3 x     4
diag: Used triangular part                          = Lower
diag: Absolute tolerance                            =  0.100E-15
diag: Orthogonalization factor                      =  0.100E-05
diag: Memory factor                                 =  1.0000

superc: Internal auxiliary supercell:     9 x     9 x     3  =     243
superc: Number of atoms, orbitals, and projectors:   3159  13851  28431


ts: **************************************************************
ts: Save H and S matrices                           =    F
ts: Save DM and EDM matrices                        =    F
ts: Only save the overlap matrix S                  =    F
ts: **************************************************************

************************ Begin: TS CHECKS AND WARNINGS ************************
************************ End: TS CHECKS AND WARNINGS **************************


                     ====================================
                        Single-point calculation
                     ====================================

outcoor: Atomic coordinates (Ang):                          
    0.00000000    0.00000000    0.00000000   2       1  C-gga
    1.42144380    0.00000000    2.45801500   1       2  Li-gga
    2.84715620    0.00000000    7.37404500   1       3  Li-gga
   -0.71072190    1.23100644    2.45801500   1       4  Li-gga
   -1.42357810    2.46570960    7.37404500   1       5  Li-gga
    1.42357810    2.46570960    2.45801500   1       6  Li-gga
    0.71072190    1.23100644    7.37404500   1       7  Li-gga
    2.84715620    0.00000000    2.45801500   1       8  Li-gga
    1.42144380    0.00000000    7.37404500   1       9  Li-gga
   -1.42357810    2.46570960    2.45801500   1      10  Li-gga
   -0.71072190    1.23100644    7.37404500   1      11  Li-gga
    0.71072190    1.23100644    2.45801500   1      12  Li-gga
    1.42357810    2.46570960    7.37404500   1      13  Li-gga

superc: Internal auxiliary supercell:     9 x     9 x     3  =     243
superc: Number of atoms, orbitals, and projectors:   3159  13851  28431

outcell: Unit cell vectors (Ang):
        4.268600    0.000000    0.000000
       -2.134300    3.696716    0.000000
        0.000000    0.000000    9.832060

outcell: Cell vector modules (Ang)   :    4.268600    4.268600    9.832060
outcell: Cell angles (23,13,12) (deg):     90.0000     90.0000    120.0000
outcell: Cell volume (Ang**3)        :    155.1480
<dSpData1D:S at geom step 0
  <sparsity:sparsity for geom step 0
    nrows_g=57 nrows=5 sparsity=5.8704 nnzs=19073, refcount: 7>
  <dData1D:(new from dSpData1D) n=19073, refcount: 1>
refcount: 1>
new_DM -- step:     1
Initializing Density Matrix...
DM filled with atomic data:
<dSpData2D:DM initialized from atoms
  <sparsity:sparsity for geom step 0
    nrows_g=57 nrows=5 sparsity=5.8704 nnzs=19073, refcount: 8>
  <dData2D:DM n=19073 m=1, refcount: 1>
refcount: 1>
No. of atoms with KB's overlaping orbs in proc 0. Max # of overlaps:     284     648
New grid distribution:   1
           1       1:   20    1:    7    1:   14
           2       1:   20    1:    7   15:   28
           3       1:   20    1:    7   29:   41
           4       1:   20    1:    7   42:   54
           5       1:   20    8:   14    1:   14
           6       1:   20    8:   14   15:   28
           7       1:   20    8:   14   29:   41
           8       1:   20    8:   14   42:   54
           9       1:   20   15:   20    1:   14
          10       1:   20   15:   20   15:   28
          11       1:   20   15:   20   29:   41
          12       1:   20   15:   20   42:   54

InitMesh: MESH =    40 x    40 x   108 =      172800
InitMesh: (bp) =    20 x    20 x    54 =       21600
InitMesh: Mesh cutoff (required, used) =   300.000   323.586 Ry
ExtMesh (bp) on 0 =   160 x   147 x   154 =     3622080
New grid distribution:   2
           1       1:   20    1:    7    1:   13
           2       1:   10    8:   20    1:   13
           3       1:   20    1:    7   28:   41
           4       1:   20    1:    7   42:   54
           5       1:   20    1:    7   14:   27
           6       1:   10    8:   20   14:   27
           7      11:   20    8:   20   28:   41
           8      11:   20    8:   20   42:   54
           9      11:   20    8:   20    1:   13
          10      11:   20    8:   20   14:   27
          11       1:   10    8:   20   28:   41
          12       1:   10    8:   20   42:   54
New grid distribution:   3
           1       1:   10    8:   20   15:   27
           2       1:   20    1:    7   15:   27
           3       1:   20    1:    7   28:   41
           4       1:   20    1:    7   42:   54
           5       1:   20    1:    7    1:   14
           6       1:   10    8:   20    1:   14
           7      11:   20    8:   20   28:   41
           8       1:   10    8:   20   42:   54
           9      11:   20    8:   20    1:   14
          10      11:   20    8:   20   15:   27
          11       1:   10    8:   20   28:   41
          12      11:   20    8:   20   42:   54
Setting up quadratic distribution...
ExtMesh (bp) on 0 =   160 x   147 x   153 =     3598560
PhiOnMesh: Number of (b)points on node 0 =                 1820
PhiOnMesh: nlist on node 0 =               654001

stepf: Fermi-Dirac step function

siesta: Program's energy decomposition (eV):
siesta: Ebs     =      -226.304523
siesta: Eions   =       380.620085
siesta: Ena     =       124.593851
siesta: Ekin    =       131.208412
siesta: Enl     =        41.094238
siesta: Eso     =         0.000000
siesta: Edftu   =         0.000000
siesta: DEna    =        14.913888
siesta: DUscf   =        15.797675
siesta: DUext   =         0.000000
siesta: Exc     =      -143.850104
siesta: eta*DQ  =         0.000000
siesta: Emadel  =         0.000000
siesta: Emeta   =         0.000000
siesta: Emolmec =        -4.980342
siesta: Ekinion =         0.000000
siesta: Eharris =      -174.553608
siesta: Etot    =      -201.842467
siesta: FreeEng =      -201.850851

        iscf     Eharris(eV)        E_KS(eV)     FreeEng(eV)     dDmax    Ef(eV) dHmax(eV)
   scf:    1     -174.553608     -201.842467     -201.850851  1.638805 -9.934113 14.963543
timer: Routine,Calls,Time,% = IterSCF        1       6.389  49.62
   scf:    2      -32.413458     -162.871578     -162.890850  1.237271-10.973689 31.345618
   scf:    3     -191.057886     -209.153098     -209.157224  1.071400-10.362921  6.125607
   scf:    4      -94.032151     -176.752736     -176.803131  1.216072-10.776626 27.619081
   scf:    5     -165.546680     -204.633699     -204.634597  1.317698-10.090066 12.348150
   scf:    6     -208.042055     -206.400391     -206.400742  0.068095-10.156546 10.366760
   scf:    7     -211.157125     -210.931978     -210.986249  0.263444-10.510807  0.250132
   scf:    8     -210.908519     -210.940853     -210.995561  0.031962-10.497168  0.940255
   scf:    9     -209.223107     -210.289314     -210.327907  0.126517-10.492408  3.796999
   scf:   10     -194.962596     -206.774877     -206.810797  0.523849-10.572275  9.328999
   scf:   11     -211.800570     -210.933122     -210.992460  0.307469-10.533066  1.009750
   scf:   12     -210.968678     -210.951818     -211.010932  0.008529-10.533194  0.822046
   scf:   13     -210.982159     -210.990038     -211.047408  0.041358-10.538594  0.099645
   scf:   14     -210.986416     -210.988544     -211.045658  0.005025-10.538295  0.213809
   scf:   15     -210.990077     -210.990387     -211.048026  0.009348-10.539001  0.008312
   scf:   16     -210.990340     -210.990366     -211.048030  0.000425-10.538981  0.001549
   scf:   17     -210.990368     -210.990367     -211.048030  0.000066-10.538885  0.000906

SCF Convergence by FreeE+DM+H criterion
|FreeE_i-FreeE_(i-1)| (eV) <     0.00100000
max |DM_out - DM_in|         :     0.0000657787
max |H_out - H_in|      (eV) :     0.0009062671
SCF cycle converged after 17 iterations

Using DM_out to compute the final energy and forces
No. of atoms with KB's overlaping orbs in proc 0. Max # of overlaps:     284     648

MM-Stress (kbar):        6.46        6.46       22.71       -0.00        0.00        0.00

siesta: E_KS(eV) =             -210.9904

siesta: E_KS - E_eggbox =      -210.9904

siesta: Atomic forces (eV/Ang):
     1    0.000000   -0.000000   -0.000256
     2   -0.135465   -0.000002   -0.355219
     3    0.135412    0.000002    0.355262
     4    0.067731   -0.117317   -0.355219
     5   -0.067705    0.117271    0.355262
     6    0.067698    0.117257   -0.355298
     7   -0.067672   -0.117211    0.355340
     8    0.135465    0.000002   -0.355219
     9   -0.135412   -0.000002    0.355262
    10   -0.067731    0.117317   -0.355219
    11    0.067705   -0.117271    0.355262
    12   -0.067698   -0.117257   -0.355298
    13    0.067672    0.117211    0.355340
----------------------------------------
   Tot    0.000000    0.000000    0.000000
----------------------------------------
   Max    0.355340
   Res    0.210897    sqrt( Sum f_i^2 / 3N )
----------------------------------------
   Max    0.355340    constrained

Stress tensor Voigt[x,y,z,yz,xz,xy] (kbar):     -912.30     -912.31      214.57       -0.00       -0.00       -0.01
(Free)E + p*V (eV/cell)     -159.0786
Target enthalpy (eV/cell)     -211.0480

siesta: Eigenvalues (eV):
  ik is       eps
   1  1  -19.4491  -13.7834  -12.3239  -11.5615  -11.2872  -10.9458  -10.6985  -10.5152  -10.2308  -10.2307
          -9.6046   -6.8817   -3.5890   -3.5889   -3.3368   -3.3368   -2.9978   -2.9977   -2.8941   -2.8941
   -1.0823   -1.0823   -0.5033   -0.5033    0.0304    0.0304    0.8681    0.8681    5.3006   11.5914
   11.5916   17.3652   17.3652   17.7466   17.7467   19.0366   19.0366   20.9484   20.9484   24.7849
   24.7850   25.0622   25.0625   25.5170   25.7548   30.1330   30.1330   36.1630   39.4444   39.4445
   40.6862   40.6862   48.8491   49.0927   49.6235   50.0002   59.5554
   2  1  -19.2202  -13.5450  -12.5110  -11.7808  -11.4495  -10.9412  -10.9222  -10.5555  -10.5310  -10.0450
          -8.3603   -7.6633   -7.0195   -5.7198   -4.7767   -4.7119   -3.4005   -2.9792   -2.3781   -0.8920
   -0.3219    0.3323    0.3654    1.0140    2.0924    2.2668    2.7111    2.9660    3.1459    4.0886
    9.7853   10.0628   11.5287   12.2486   14.2190   14.5285   14.7941   15.1772   16.0090   17.3051
   19.4268   19.7092   20.1194   20.3412   21.1285   24.0748   25.7601   25.7911   26.3201   27.8672
   33.7119   53.7833   53.7988   54.6106   54.8225   55.5229   56.3961
   3  1  -19.2202  -13.5450  -12.5110  -11.7808  -11.4495  -10.9412  -10.9222  -10.5555  -10.5310  -10.0450
          -8.3603   -7.6633   -7.0195   -5.7198   -4.7767   -4.7119   -3.4005   -2.9792   -2.3781   -0.8920
   -0.3219    0.3323    0.3654    1.0140    2.0924    2.2668    2.7111    2.9660    3.1459    4.0886
    9.7853   10.0628   11.5287   12.2486   14.2190   14.5285   14.7941   15.1772   16.0090   17.3051
   19.4268   19.7092   20.1194   20.3412   21.1285   24.0748   25.7601   25.7911   26.3201   27.8672
   33.7119   53.7833   53.7988   54.6106   54.8225   55.5229   56.3961
   4  1  -19.2202  -13.5450  -12.5110  -11.7808  -11.4495  -10.9412  -10.9222  -10.5555  -10.5311  -10.0450
          -8.3603   -7.6633   -7.0195   -5.7198   -4.7767   -4.7119   -3.4005   -2.9792   -2.3782   -0.8920
   -0.3219    0.3323    0.3654    1.0140    2.0924    2.2668    2.7111    2.9660    3.1459    4.0886
    9.7856   10.0628   11.5287   12.2486   14.2190   14.5285   14.7940   15.1771   16.0090   17.3051
   19.4267   19.7093   20.1196   20.3412   21.1283   24.0747   25.7600   25.7911   26.3201   27.8671
   33.7119   53.7832   53.7988   54.6106   54.8224   55.5230   56.3963
   5  1  -19.4584  -13.7705  -11.9015  -11.8986  -11.2107  -10.9372  -10.6153  -10.5971  -10.2327  -10.2326
          -9.1383   -7.0793   -3.5517   -3.5517   -3.3951   -3.3951   -3.1766   -3.1766   -2.6165   -2.6165
   -0.9774   -0.9774   -0.6647   -0.6647   -0.4302   -0.4302    1.2939    1.2939    5.8534   13.2368
   13.2370   15.0591   15.0591   18.0645   18.0646   20.1964   20.1965   22.1123   22.1123   22.5379
   22.5379   25.5817   25.5913   26.2437   26.2440   29.5541   29.5541   39.2224   39.2225   41.5439
   41.5439   42.6604   43.2403   49.1639   49.3091   49.5373   49.5561
   6  1  -19.2206  -13.5390  -12.5168  -11.8057  -11.5173  -10.9802  -10.8865  -10.5648  -10.5363  -10.0804
          -8.6129   -7.0798   -6.4659   -6.2224   -5.0274   -4.1340   -3.8411   -2.2177   -2.2127   -1.9257
   -0.2268    0.1840    0.5396    0.7432    2.4038    2.4902    2.6458    2.6582    3.6636    3.7019
   11.0232   11.2016   11.7569   12.3924   14.4317   15.2848   15.3295   15.3407   15.3825   15.5175
   16.1239   17.4271   18.7746   20.4105   24.2133   24.7177   24.7363   26.1235   26.3506   27.7856
   33.1103   54.1343   54.2292   54.2301   54.2303   55.6340   55.6549
   7  1  -19.2206  -13.5390  -12.5168  -11.8057  -11.5173  -10.9802  -10.8865  -10.5648  -10.5363  -10.0804
          -8.6129   -7.0798   -6.4659   -6.2224   -5.0274   -4.1340   -3.8411   -2.2177   -2.2127   -1.9257
   -0.2268    0.1840    0.5396    0.7432    2.4038    2.4902    2.6458    2.6582    3.6636    3.7019
   11.0232   11.2016   11.7569   12.3924   14.4317   15.2848   15.3295   15.3407   15.3825   15.5175
   16.1239   17.4271   18.7746   20.4105   24.2133   24.7177   24.7363   26.1235   26.3506   27.7856
   33.1103   54.1343   54.2292   54.2301   54.2303   55.6340   55.6549
   8  1  -19.2206  -13.5390  -12.5168  -11.8058  -11.5173  -10.9802  -10.8865  -10.5648  -10.5363  -10.0804
          -8.6129   -7.0798   -6.4659   -6.2224   -5.0274   -4.1340   -3.8411   -2.2176   -2.2127   -1.9257
   -0.2269    0.1840    0.5396    0.7432    2.4038    2.4902    2.6458    2.6582    3.6636    3.7019
   11.0234   11.2016   11.7568   12.3924   14.4317   15.2848   15.3294   15.3408   15.3825   15.5175
   16.1240   17.4271   18.7746   20.4106   24.2132   24.7177   24.7363   26.1234   26.3505   27.7854
   33.1103   54.1343   54.2292   54.2300   54.2303   55.6342   55.6551
siesta: Fermi energy =     -10.538885 eV

siesta: Program's energy decomposition (eV):
siesta: Ebs     =      -201.690959
siesta: Eions   =       380.620085
siesta: Ena     =       124.593851
siesta: Ekin    =       159.673838
siesta: Enl     =        31.932582
siesta: Eso     =         0.000000
siesta: Edftu   =         0.000000
siesta: DEna    =         4.101839
siesta: DUscf   =         2.778045
siesta: DUext   =         0.000000
siesta: Exc     =      -148.470094
siesta: eta*DQ  =         0.000000
siesta: Emadel  =         0.000000
siesta: Emeta   =         0.000000
siesta: Emolmec =        -4.980342
siesta: Ekinion =         0.000000
siesta: Eharris =      -210.990368
siesta: Etot    =      -210.990367
siesta: FreeEng =      -211.048030

siesta: Final energy (eV):
siesta:  Band Struct. =    -201.690959
siesta:       Kinetic =     159.673838
siesta:       Hartree =      76.527053
siesta:       Edftu   =       0.000000
siesta:       Eso     =       0.000000
siesta:    Ext. field =       0.000000
siesta:   Exch.-corr. =    -148.470094
siesta:  Ion-electron =    -361.577154
siesta:       Ion-ion =      67.836332
siesta:       Ekinion =       0.000000
siesta:         Total =    -210.990367
siesta:         Fermi =     -10.538885

siesta: Atomic forces (eV/Ang):
siesta:      1    0.000000   -0.000000   -0.000256
siesta:      2   -0.135465   -0.000002   -0.355219
siesta:      3    0.135412    0.000002    0.355262
siesta:      4    0.067731   -0.117317   -0.355219
siesta:      5   -0.067705    0.117271    0.355262
siesta:      6    0.067698    0.117257   -0.355298
siesta:      7   -0.067672   -0.117211    0.355340
siesta:      8    0.135465    0.000002   -0.355219
siesta:      9   -0.135412   -0.000002    0.355262
siesta:     10   -0.067731    0.117317   -0.355219
siesta:     11    0.067705   -0.117271    0.355262
siesta:     12   -0.067698   -0.117257   -0.355298
siesta:     13    0.067672    0.117211    0.355340
siesta: ----------------------------------------
siesta:    Tot    0.000000    0.000000    0.000000

siesta: Stress tensor (static) (eV/Ang**3):
siesta:    -0.569408   -0.000005   -0.000000
siesta:    -0.000005   -0.569415    0.000000
siesta:    -0.000000   -0.000000    0.133922

siesta: Cell volume =        155.147961 Ang**3

siesta: Pressure (static):
siesta:                Solid            Molecule  Units
siesta:           0.00364822          0.00337588  Ry/Bohr**3
siesta:           0.33496702          0.30996154  eV/Ang**3
siesta:         536.68213429        496.61849797  kBar
(Free)E+ p_basis*V_orbitals  =        -178.877909
(Free)Eharris+ p_basis*V_orbitals  =        -178.877910

cite: Please see "LiC12_scf.bib" for an exhaustive BiBTeX file.
cite: Please clearly indicate Siesta version in published work: 4.1.5
cite: This calculation has made use of the following articles
cite: which are encouraged to be cited in a published work.
        Primary SIESTA paper
          DOI: www.doi.org/10.1088/0953-8984/14/11/302

>> End of run:   9-NOV-2022  10:59:44
Job completed
