Siesta Version  : 4.1.5
Architecture    : x86_64-unknown-linux-gnu--unknown
Compiler version: GNU Fortran (GCC) 11.3.0
Compiler flags  : mpif90 -g -O2 -fallow-argument-mismatch
PP flags        : -DMPI -DFC_HAVE_FLUSH -DFC_HAVE_ABORT
Libraries       :  -I/global/software/sl-7.x86_64/modules/intel/2020.4.304/mkl/include  /globall/software/sl-7.x86_64/modules/intel/2020.4.304/mkl/lib/intel64/libmkl_scalapack_lp64.a -Wl,--start-group /global/software/sl-7.x86_64/modules/intel/2020.4.304/mkl/lib/intel64/libmkl_intel_lp64.a /global/software/sl-7.x86_64/modules/intel/2020.4.304/mkl/lib/intel64/libmkl_sequential.a /global/software/sl-7.x86_64/modules/intel/2020.4.304/mkl/lib/intel64/libmkl_core.a /global/software/sl-7.x86_64/modules/intel/2020.4.304/mkl/lib/intel64/libmkl_blacs_openmpi_lp64.a -Wl,--end-group -lpthread -lm -ldl
PARALLEL version

* Running on 4 nodes in parallel
>> Start of run:   9-NOV-2022  16:37:51

                           ***********************       
                           *  WELCOME TO SIESTA  *       
                           ***********************       

reinit: Reading from standard input
reinit: Dumped input in INPUT_TMP.38317
************************** Dump of input data file ****************************
SystemName LiC6_scf
SystemLabel LiC6_scf
NumberOfAtoms   7
NumberOfSpecies 2
%block ChemicalSpeciesLabel
1  3   Li-gga
2  6   C-gga
%endblock ChemicalSpeciesLabel
PAO.BasisSize  SZ
PAO.EnergyShift  10 meV
%block PS.Lmax
C-gga   2
Li-gga  2
%endblock PS.Lmax
LatticeConstant 1.000000 Ang
%block LatticeVectors
	4.3161300000	0.0000000000	0.0000000000
	-2.1580650000	3.7378782260	0.0000000000
	0.0000000000	0.0000000000	3.4038712000
%endblock LatticeVectors
AtomicCoordinatesFormat Ang
%block AtomicCoordinatesAndAtomicSpecies
	0.00000000	0.00000000	0.00000000	2
	-0.70288177	1.21742694	1.70193560	1
	-1.45518323	2.52045129	1.70193560	1
	1.45518323	2.52045129	1.70193560	1
	0.70288177	1.21742694	1.70193560	1
	1.40576354	0.00000000	1.70193560	1
	2.91036646	0.00000000	1.70193560	1
%endblock AtomicCoordinatesAndAtomicSpecies
Kgrid_NoTRS  T
%block kgrid_MonkhorstPack
4       0       0       0.0
0       4       0       0.0
0       0       4       0.0
%endblock kgrid_MonkhorstPack
AtomCoorFormatOut Ang
BlockSize 1
#ProcessorY 12
Diag.ParallelOverK   T
Diag.DivideAndConquer F
MeshCutoff   300 Ry
SCF.FreeE.Tolerance 1E-3 eV
SCF.EDM.Tolerance   5E-3 eV
DM.Tolerance  1E-3
DM.Require.Energy.Convergence T
DM.NumberPulay 4
XC.Functional GGA
XC.Authors    PBE
UseSaveData        F
MD.TypeOfRun       CG
MD.VariableCell    F
MD.NumCGsteps      00
MD.MaxCGDispl      0.200000 Bohr
MD.MaxStressTol    1.000000 GPa
MD.MaxForceTol     0.010000 eV/Ang
WriteMDHistory T
WriteCoorStep T
WriteForces T
WriteCoorStep    T
WriteEigenValues T
WriteDM    F
MM.UnitsDistance Ang  # what this program prints out DO NOT CHANGE
MM.UnitsEnergy    eV  # what this program prints out DO NOT CHANGE
MM.Grimme.S6     0.75 # Grimme-paper for PBE (correct for your functional)
MM.Grimme.D     20.   # Grimme-paper (correct for your functional)
%block MM.Potentials
  1   1 Grimme     16.69      1.650 # Li, 10.1002/jcc.20495
  1   2 Grimme     17.40      2.277 # Li / C
  2   2 Grimme     18.14      2.904 # C, 10.1002/jcc.20495
%endblock MM.Potentials
#%block ProjectedDensityOfStates
# -200.0  120.0  0.4  12800  eV
#%endblock ProjectedDensityOfStates
************************** End of input data file *****************************

reinit: -----------------------------------------------------------------------
reinit: System Name: LiC6_scf
reinit: -----------------------------------------------------------------------
reinit: System Label: LiC6_scf
reinit: -----------------------------------------------------------------------
Reading two-body potentials
Grimme - two-body potential between 1 and 1
Grimme - two-body potential between 1 and 2
Grimme - two-body potential between 2 and 2

initatom: Reading input for the pseudopotentials and atomic orbitals ----------
Species number:   1 Atomic number:    3 Label: Li-gga
Species number:   2 Atomic number:    6 Label: C-gga

Ground state valence configuration:   2s01
Reading pseudopotential information in formatted form from Li-gga.psf

Valence configuration for pseudopotential generation:
2s( 1.00) rc: 2.28
2p( 0.00) rc: 2.28
3d( 0.00) rc: 2.59
4f( 0.00) rc: 2.59
Ground state valence configuration:   2s02  2p02
Reading pseudopotential information in formatted form from C-gga.psf

Valence configuration for pseudopotential generation:
2s( 2.00) rc: 1.56
2p( 2.00) rc: 1.56
3d( 0.00) rc: 1.56
4f( 0.00) rc: 1.56
relmxkb: Read Max KB Ang. Momentum=    2 for species C-gga
relmxkb: Read Max KB Ang. Momentum=    2 for species Li-gga

<basis_specs>
===============================================================================
Li-gga               Z=   3    Mass=  6.9400        Charge= 0.17977+309
Lmxo=0 Lmxkb= 2    BasisType=split      Semic=F
L=0  Nsemic=0  Cnfigmx=2
          i=1  nzeta=1  polorb=0  (2s)
            splnorm:   0.15000    
               vcte:    0.0000    
               rinn:    0.0000    
               qcoe:    0.0000    
               qyuk:    0.0000    
               qwid:   0.10000E-01
                rcs:    0.0000    
            lambdas:    1.0000    
-------------------------------------------------------------------------------
L=0  Nkbl=1  erefs: 0.17977+309
L=1  Nkbl=1  erefs: 0.17977+309
L=2  Nkbl=1  erefs: 0.17977+309
===============================================================================
</basis_specs>

atom: Called for Li-gga                (Z =   3)

read_vps: Pseudopotential generation method:
read_vps: ATM 3.2.2 Troullier-Martins                       
Valence charge for ps generation:    1.00000

read_vps: Pseudopotential includes a core correction:
read_vps: Pseudo-core for xc-correction

xc_check: Exchange-correlation functional:
xc_check: GGA Perdew, Burke & Ernzerhof 1996
V l=0 = -2*Zval/r beyond r=  2.2278
V l=1 = -2*Zval/r beyond r=  2.2278
V l=2 = -2*Zval/r beyond r=  2.5245
All V_l potentials equal beyond r=  2.4622
This should be close to max(r_c) in ps generation
All pots = -2*Zval/r beyond r=  2.5245

VLOCAL1: 99.0% of the norm of Vloc inside      7.160 Ry
VLOCAL1: 99.9% of the norm of Vloc inside     16.318 Ry
atom: Maximum radius for 4*pi*r*r*local-pseudopot. charge    2.86079
atom: Maximum radius for r*vlocal+2*Zval:    2.43160
GHOST: No ghost state for L =  0
GHOST: No ghost state for L =  1
GHOST: No ghost state for L =  2

KBgen: Kleinman-Bylander projectors: 
   l= 0   rc=  2.654023   el= -0.211234   Ekb=  1.742119   kbcos=  0.228463
   l= 1   rc=  2.721230   el= -0.080095   Ekb= -1.122375   kbcos= -0.147941
   l= 2   rc=  2.825246   el=  0.002001   Ekb= -0.207076   kbcos= -0.031965

KBgen: Total number of Kleinman-Bylander projectors:    9
atom: -------------------------------------------------------------------------

atom: SANKEY-TYPE ORBITALS:

SPLIT: Orbitals with angular momentum L= 0

SPLIT: Basis orbitals for state 2s

SPLIT: PAO cut-off radius determined from an
SPLIT: energy shift=  0.000735 Ry

   izeta = 1
                 lambda =    1.000000
                     rc =   11.897381
                 energy =   -0.210580
                kinetic =    0.143382
    potential(screened) =   -0.353962
       potential(ionic) =   -0.533453
atom: Total number of Sankey-type orbitals:  1

atm_pop: Valence configuration (for local Pseudopot. screening):
 2s( 1.00)                                                            
Vna: chval, zval:    1.00000   1.00000

Vna:  Cut-off radius for the neutral-atom potential:  11.897381
comcore: Pseudo-core radius Rcore=  3.450946

atom: _________________________________________________________________________

<basis_specs>
===============================================================================
C-gga                Z=   6    Mass=  12.010        Charge= 0.17977+309
Lmxo=1 Lmxkb= 2    BasisType=split      Semic=F
L=0  Nsemic=0  Cnfigmx=2
          i=1  nzeta=1  polorb=0  (2s)
            splnorm:   0.15000    
               vcte:    0.0000    
               rinn:    0.0000    
               qcoe:    0.0000    
               qyuk:    0.0000    
               qwid:   0.10000E-01
                rcs:    0.0000    
            lambdas:    1.0000    
L=1  Nsemic=0  Cnfigmx=2
          i=1  nzeta=1  polorb=0  (2p)
            splnorm:   0.15000    
               vcte:    0.0000    
               rinn:    0.0000    
               qcoe:    0.0000    
               qyuk:    0.0000    
               qwid:   0.10000E-01
                rcs:    0.0000    
            lambdas:    1.0000    
-------------------------------------------------------------------------------
L=0  Nkbl=1  erefs: 0.17977+309
L=1  Nkbl=1  erefs: 0.17977+309
L=2  Nkbl=1  erefs: 0.17977+309
===============================================================================
</basis_specs>

atom: Called for C-gga                 (Z =   6)

read_vps: Pseudopotential generation method:
read_vps: ATM 3.2.2 Troullier-Martins                       
Valence charge for ps generation:    4.00000

xc_check: Exchange-correlation functional:
xc_check: GGA Perdew, Burke & Ernzerhof 1996
V l=0 = -2*Zval/r beyond r=  1.5227
V l=1 = -2*Zval/r beyond r=  1.5227
V l=2 = -2*Zval/r beyond r=  1.5227
All V_l potentials equal beyond r=  1.4851
This should be close to max(r_c) in ps generation
All pots = -2*Zval/r beyond r=  1.5227

VLOCAL1: 99.0% of the norm of Vloc inside     19.682 Ry
VLOCAL1: 99.9% of the norm of Vloc inside     44.856 Ry
atom: Maximum radius for 4*pi*r*r*local-pseudopot. charge    1.79142
atom: Maximum radius for r*vlocal+2*Zval:    1.54183
GHOST: No ghost state for L =  0
GHOST: No ghost state for L =  1
GHOST: No ghost state for L =  2

KBgen: Kleinman-Bylander projectors: 
   l= 0   rc=  1.661951   el= -1.010689   Ekb=  5.289847   kbcos=  0.316429
   l= 1   rc=  1.661951   el= -0.388490   Ekb= -4.102504   kbcos= -0.351025
   l= 2   rc=  1.747182   el=  0.001971   Ekb= -1.006005   kbcos= -0.008530

KBgen: Total number of Kleinman-Bylander projectors:    9
atom: -------------------------------------------------------------------------

atom: SANKEY-TYPE ORBITALS:

SPLIT: Orbitals with angular momentum L= 0

SPLIT: Basis orbitals for state 2s

SPLIT: PAO cut-off radius determined from an
SPLIT: energy shift=  0.000735 Ry

   izeta = 1
                 lambda =    1.000000
                     rc =    5.948690
                 energy =   -1.010099
                kinetic =    0.827121
    potential(screened) =   -1.837220
       potential(ionic) =   -5.392783

SPLIT: Orbitals with angular momentum L= 1

SPLIT: Basis orbitals for state 2p

SPLIT: PAO cut-off radius determined from an
SPLIT: energy shift=  0.000735 Ry

   izeta = 1
                 lambda =    1.000000
                     rc =    7.638387
                 energy =   -0.387843
                kinetic =    2.314739
    potential(screened) =   -2.702582
       potential(ionic) =   -6.092371
atom: Total number of Sankey-type orbitals:  4

atm_pop: Valence configuration (for local Pseudopot. screening):
 2s( 2.00)                                                            
 2p( 2.00)                                                            
Vna: chval, zval:    4.00000   4.00000

Vna:  Cut-off radius for the neutral-atom potential:   7.638387

atom: _________________________________________________________________________

prinput: Basis input ----------------------------------------------------------

PAO.BasisType split     

%block ChemicalSpeciesLabel
    1    3 Li-gga                  # Species index, atomic number, species label
    2    6 C-gga                   # Species index, atomic number, species label
%endblock ChemicalSpeciesLabel

%block PAO.Basis                 # Define Basis set
Li-gga                1                    # Species label, number of l-shells
 n=2   0   1                         # n, l, Nzeta 
  11.897   
   1.000   
C-gga                 2                    # Species label, number of l-shells
 n=2   0   1                         # n, l, Nzeta 
   5.949   
   1.000   
 n=2   1   1                         # n, l, Nzeta 
   7.638   
   1.000   
%endblock PAO.Basis

prinput: ----------------------------------------------------------------------

coor:   Atomic-coordinates input format  =     Cartesian coordinates
coor:                                          (in Angstroms)

siesta: Atomic coordinates (Bohr) and species
siesta:      0.00000   0.00000   0.00000  2        1
siesta:     -1.32825   2.30060   3.21619  1        2
siesta:     -2.74990   4.76296   3.21619  1        3
siesta:      2.74990   4.76296   3.21619  1        4
siesta:      1.32825   2.30060   3.21619  1        5
siesta:      2.65651   0.00000   3.21619  1        6
siesta:      5.49980   0.00000   3.21619  1        7

siesta: System type = bulk      

initatomlists: Number of atoms, orbitals, and projectors:      7    10    63

siesta: ******************** Simulation parameters ****************************
siesta:
siesta: The following are some of the parameters of the simulation.
siesta: A complete list of the parameters used, including default values,
siesta: can be found in file out.fdf
siesta:
redata: Spin configuration                          = none
redata: Number of spin components                   = 1
redata: Time-Reversal Symmetry                      = T
redata: Spin spiral                                 = F
redata: Long output                                 =   F
redata: Number of Atomic Species                    =        2
redata: Charge density info will appear in .RHO file
redata: Write Mulliken Pop.                         = NO
redata: Matel table size (NRTAB)                    =     1024
redata: Mesh Cutoff                                 =   300.0000 Ry
redata: Net charge of the system                    =     0.0000 |e|
redata: Min. number of SCF Iter                     =        0
redata: Max. number of SCF Iter                     =     1000
redata: SCF convergence failure will abort job
redata: SCF mix quantity                            = Hamiltonian
redata: Mix DM or H after convergence               =   F
redata: Recompute H after scf cycle                 =   F
redata: Mix DM in first SCF step                    =   T
redata: Write Pulay info on disk                    =   F
redata: New DM Occupancy tolerance                  = 0.000000000001
redata: No kicks to SCF
redata: DM Mixing Weight for Kicks                  =     0.5000
redata: Require Harris convergence for SCF          =   F
redata: Harris energy tolerance for SCF             =     0.000100 eV
redata: Require DM convergence for SCF              =   T
redata: DM tolerance for SCF                        =     0.001000
redata: Require EDM convergence for SCF             =   F
redata: EDM tolerance for SCF                       =     0.005000 eV
redata: Require H convergence for SCF               =   T
redata: Hamiltonian tolerance for SCF               =     0.001000 eV
redata: Require (free) Energy convergence for SCF   =   T
redata: (free) Energy tolerance for SCF             =     0.001000 eV
redata: Using Saved Data (generic)                  =   F
redata: Use continuation files for DM               =   F
redata: Neglect nonoverlap interactions             =   F
redata: Method of Calculation                       = Diagonalization
redata: Electronic Temperature                      =   299.9869 K
redata: Fix the spin of the system                  =   F
redata: Dynamics option                             = Single-point calculation
mix.SCF: Pulay mixing                            = Pulay
mix.SCF:    Variant                              = stable
mix.SCF:    History steps                        = 4
mix.SCF:    Linear mixing weight                 =     0.250000
mix.SCF:    Mixing weight                        =     0.250000
mix.SCF:    SVD condition                        = 0.1000E-07
redata: ***********************************************************************

%block SCF.Mixers
  Pulay
%endblock SCF.Mixers

%block SCF.Mixer.Pulay
  # Mixing method
  method pulay
  variant stable

  # Mixing options
  weight 0.2500
  weight.linear 0.2500
  history 4
%endblock SCF.Mixer.Pulay

DM_history_depth set to one: no extrapolation allowed by default for geometry relaxation
Size of DM history Fstack: 1
Total number of electrons:    10.000000
Total ionic charge:    10.000000

* ProcessorY, Blocksize:    2   1


* Orbital distribution balance (max,min):     3     2

k-point displ. along   1 input, could be:     0.00    0.50
k-point displ. along   2 input, could be:     0.00    0.50
k-point displ. along   3 input, could be:     0.00    0.50
 Kpoints in:           48 . Kpoints trimmed:           44

siesta: k-grid: Number of k-points =    44
siesta: k-grid: Cutoff (effective) =     6.808 Ang
siesta: k-grid: Supercell and displacements
siesta: k-grid:    4   0   0      0.000
siesta: k-grid:    0   4   0      0.000
siesta: k-grid:    0   0   4      0.000

diag: Algorithm                                     = Expert
diag: Parallel over k                               =   T
diag: Use parallel 2D distribution                  =   T
diag: Parallel block-size                           = 1
diag: Parallel distribution                         =     2 x     2
diag: Used triangular part                          = Lower
diag: Absolute tolerance                            =  0.100E-15
diag: Orthogonalization factor                      =  0.100E-05
diag: Memory factor                                 =  1.0000

superc: Internal auxiliary supercell:     9 x     9 x     9  =     729
superc: Number of atoms, orbitals, and projectors:   5103   7290  45927


ts: **************************************************************
ts: Save H and S matrices                           =    F
ts: Save DM and EDM matrices                        =    F
ts: Only save the overlap matrix S                  =    F
ts: **************************************************************

************************ Begin: TS CHECKS AND WARNINGS ************************
************************ End: TS CHECKS AND WARNINGS **************************


                     ====================================
                        Single-point calculation
                     ====================================

outcoor: Atomic coordinates (Ang):                          
    0.00000000    0.00000000    0.00000000   2       1  C-gga
   -0.70288177    1.21742694    1.70193560   1       2  Li-gga
   -1.45518323    2.52045129    1.70193560   1       3  Li-gga
    1.45518323    2.52045129    1.70193560   1       4  Li-gga
    0.70288177    1.21742694    1.70193560   1       5  Li-gga
    1.40576354    0.00000000    1.70193560   1       6  Li-gga
    2.91036646    0.00000000    1.70193560   1       7  Li-gga

superc: Internal auxiliary supercell:     9 x     9 x     9  =     729
superc: Number of atoms, orbitals, and projectors:   5103   7290  45927

outcell: Unit cell vectors (Ang):
        4.316130    0.000000    0.000000
       -2.158065    3.737878    0.000000
        0.000000    0.000000    3.403871

outcell: Cell vector modules (Ang)   :    4.316130    4.316130    3.403871
outcell: Cell angles (23,13,12) (deg):     90.0000     90.0000    120.0000
outcell: Cell volume (Ang**3)        :     54.9152
<dSpData1D:S at geom step 0
  <sparsity:sparsity for geom step 0
    nrows_g=10 nrows=3 sparsity=50.2400 nnzs=5024, refcount: 7>
  <dData1D:(new from dSpData1D) n=5024, refcount: 1>
refcount: 1>
new_DM -- step:     1
Initializing Density Matrix...
DM filled with atomic data:
<dSpData2D:DM initialized from atoms
  <sparsity:sparsity for geom step 0
    nrows_g=10 nrows=3 sparsity=50.2400 nnzs=5024, refcount: 8>
  <dData2D:DM n=5024 m=1, refcount: 1>
refcount: 1>
No. of atoms with KB's overlaping orbs in proc 0. Max # of overlaps:     301     265
New grid distribution:   1
           1       1:   20    1:   10    1:    9
           2       1:   20    1:   10   10:   18
           3       1:   20   11:   20    1:    9
           4       1:   20   11:   20   10:   18

InitMesh: MESH =    40 x    40 x    36 =       57600
InitMesh: (bp) =    20 x    20 x    18 =        7200
InitMesh: Mesh cutoff (required, used) =   300.000   309.144 Ry
ExtMesh (bp) on 0 =   156 x   146 x   145 =     3302520
New grid distribution:   2
           1       1:   10    1:   10    1:   18
           2      11:   20    1:   10    1:   18
           3       1:   10   11:   20    1:   18
           4      11:   20   11:   20    1:   18
New grid distribution:   3
           1       1:   10    1:   10    1:   18
           2      11:   20    1:   10    1:   18
           3       1:   10   11:   20    1:   18
           4      11:   20   11:   20    1:   18
Setting up quadratic distribution...
ExtMesh (bp) on 0 =   146 x   146 x   154 =     3282664
PhiOnMesh: Number of (b)points on node 0 =                 1800
PhiOnMesh: nlist on node 0 =               244470

stepf: Fermi-Dirac step function

siesta: Program's energy decomposition (eV):
siesta: Ebs     =       -59.911681
siesta: Eions   =       321.344870
siesta: Ena     =        83.903996
siesta: Ekin    =       215.647790
siesta: Enl     =        -4.629635
siesta: Eso     =         0.000000
siesta: Edftu   =         0.000000
siesta: DEna    =       -39.534932
siesta: DUscf   =        25.749586
siesta: DUext   =         0.000000
siesta: Exc     =      -119.190955
siesta: eta*DQ  =         0.000000
siesta: Emadel  =         0.000000
siesta: Emeta   =         0.000000
siesta: Emolmec =        -3.317221
siesta: Ekinion =         0.000000
siesta: Eharris =      -105.903106
siesta: Etot    =      -162.716240
siesta: FreeEng =      -162.727309

        iscf     Eharris(eV)        E_KS(eV)     FreeEng(eV)     dDmax    Ef(eV) dHmax(eV)
   scf:    1     -105.903106     -162.716240     -162.727309  1.669962-10.600194 15.596302
timer: Routine,Calls,Time,% = IterSCF        1       0.972  20.72
   scf:    2     -182.362386     -174.161345     -174.165315  1.838486 -8.309984  5.643614
   scf:    3     -176.690995     -175.798041     -175.801470  1.599269 -6.526488  0.572427
   scf:    4     -175.747714     -175.796169     -175.801895  0.574991 -6.235739  0.548087
   scf:    5     -175.820290     -175.810343     -175.816653  0.175607 -6.361360  0.194577
   scf:    6     -175.812934     -175.814141     -175.818787  0.203882 -6.424909  0.114231
   scf:    7     -175.814427     -175.814296     -175.819109  0.013438 -6.420357  0.091427
   scf:    8     -175.814221     -175.814365     -175.819664  0.040452 -6.409029  0.026058
   scf:    9     -175.814060     -175.814231     -175.819714  0.017177 -6.404365  0.001090
   scf:   10     -175.814276     -175.814254     -175.819713  0.002378 -6.405149  0.002794
   scf:   11     -175.814215     -175.814235     -175.819714  0.001928 -6.404633  0.000247
   scf:   12     -175.814238     -175.814236     -175.819714  0.000166 -6.404685  0.000046

SCF Convergence by FreeE+DM+H criterion
|FreeE_i-FreeE_(i-1)| (eV) <     0.00100000
max |DM_out - DM_in|         :     0.0001664285
max |H_out - H_in|      (eV) :     0.0000460605
SCF cycle converged after 12 iterations

Using DM_out to compute the final energy and forces
No. of atoms with KB's overlaping orbs in proc 0. Max # of overlaps:     301     265

MM-Stress (kbar):      -17.23      -17.23       -1.53        0.00       -0.00       -0.00

siesta: E_KS(eV) =             -175.8142

siesta: E_KS - E_eggbox =      -175.8142

siesta: Atomic forces (eV/Ang):
     1    0.000000    0.000000    0.000000
     2    0.180019   -0.311737   -0.000000
     3   -0.180020    0.311737   -0.000000
     4    0.180022    0.311808   -0.000000
     5   -0.180022   -0.311808   -0.000000
     6   -0.359982    0.000033   -0.000000
     7    0.359982   -0.000033   -0.000000
----------------------------------------
   Tot   -0.000000   -0.000000   -0.000000
----------------------------------------
   Max    0.359982
   Res    0.192430    sqrt( Sum f_i^2 / 3N )
----------------------------------------
   Max    0.359982    constrained

Stress tensor Voigt[x,y,z,yz,xz,xy] (kbar):    -1765.12    -1765.16      462.29        0.00       -0.00       -0.04
(Free)E + p*V (eV/cell)     -140.7679
Target enthalpy (eV/cell)     -175.8197

siesta: Eigenvalues (eV):
  ik is       eps
   1  1  -19.1323  -15.5919  -14.5975   -8.8177   -5.9066   -5.8681   -2.2953   17.8563   18.3463   19.5618
   2  1  -19.4252  -14.6929  -11.0052   -9.5831   -8.9680   -5.6352    0.9382    6.0202   21.1441   21.5669
   3  1  -19.4252  -14.6929  -11.0052   -9.5831   -8.9680   -5.6350    0.9379    6.0202   21.1441   21.5669
   4  1  -19.1323  -15.5919  -14.5974   -8.8177   -5.9068   -5.8680   -2.2952   17.8563   18.3463   19.5618
   5  1  -19.4252  -14.6929  -11.0052   -9.5831   -8.9680   -5.6352    0.9382    6.0202   21.1441   21.5669
   6  1  -19.6630  -10.5337   -9.9198   -9.9198   -9.1162   -1.2238   -1.2237   15.9361   15.9365   23.1704
   7  1  -19.1067  -15.9971  -11.5466  -10.6403   -8.8176   -4.7380    1.2500    3.1224   17.9354   18.3504
   8  1  -19.1323  -15.5919  -14.5974   -8.8177   -5.9068   -5.8680   -2.2952   17.8563   18.3463   19.5618
   9  1  -19.1323  -15.5919  -14.5974   -8.8177   -5.9068   -5.8680   -2.2952   17.8563   18.3463   19.5618
  10  1  -19.1067  -15.9971  -11.5466  -10.6403   -8.8176   -4.7380    1.2500    3.1224   17.9354   18.3504
  11  1  -19.1323  -15.5919  -14.5974   -8.8177   -5.9068   -5.8680   -2.2952   17.8563   18.3463   19.5618
  12  1  -19.1067  -15.9971  -11.5465  -10.6402   -8.8176   -4.7378    1.2497    3.1224   17.9353   18.3505
  13  1  -18.6475  -15.0405  -14.0916  -11.4042   -6.4580   -6.2686   -1.0159   17.7930   18.4303   18.9958
  14  1  -18.9533  -14.2513  -11.5219  -10.5580   -8.1006   -6.0578    0.9103    8.3307   19.3614   21.4940
  15  1  -18.9533  -14.2513  -11.5219  -10.5580   -8.1005   -6.0577    0.9101    8.3308   19.3614   21.4940
  16  1  -18.6475  -15.0406  -14.0916  -11.4042   -6.4582   -6.2684   -1.0159   17.7931   18.4303   18.9958
  17  1  -18.9533  -14.2513  -11.5219  -10.5580   -8.1006   -6.0578    0.9103    8.3307   19.3614   21.4940
  18  1  -19.1931  -11.8344   -9.3989   -9.3989   -9.0344    2.5171    2.5171   17.8355   17.8358   23.0066
  19  1  -18.9533  -14.2513  -11.5219  -10.5580   -8.1006   -6.0578    0.9103    8.3307   19.3614   21.4940
  20  1  -18.6173  -15.4251  -11.4896  -11.1038   -9.3466   -6.0190    0.2356    6.3510   17.4139   17.7052
  21  1  -18.9533  -14.2513  -11.5219  -10.5580   -8.1005   -6.0577    0.9101    8.3308   19.3614   21.4940
  22  1  -18.9533  -14.2513  -11.5219  -10.5580   -8.1006   -6.0578    0.9103    8.3307   19.3614   21.4940
  23  1  -18.6475  -15.0405  -14.0916  -11.4042   -6.4580   -6.2686   -1.0159   17.7930   18.4303   18.9958
  24  1  -18.6475  -15.0406  -14.0916  -11.4042   -6.4582   -6.2684   -1.0159   17.7931   18.4303   18.9958
  25  1  -18.6475  -15.0406  -14.0916  -11.4042   -6.4582   -6.2684   -1.0159   17.7931   18.4303   18.9958
  26  1  -18.6173  -15.4251  -11.4896  -11.1038   -9.3466   -6.0190    0.2356    6.3510   17.4139   17.7052
  27  1  -18.6475  -15.0406  -14.0916  -11.4042   -6.4582   -6.2684   -1.0159   17.7931   18.4303   18.9958
  28  1  -18.6173  -15.4252  -11.4896  -11.1038   -9.3466   -6.0188    0.2353    6.3511   17.4138   17.7053
  29  1  -17.0648  -14.5051  -12.6923  -12.0130  -10.1388   -9.2754    2.3873   17.9698   18.4146   18.8914
  30  1  -17.2042  -14.5071  -11.9032   -9.4690   -8.5480   -4.4725   -0.0883   12.6471   18.3909   21.5696
  31  1  -17.2042  -14.5071  -11.9033   -9.4689   -8.5481   -4.4725   -0.0883   12.6471   18.3909   21.5696
  32  1  -17.0648  -14.5051  -12.6923  -12.0129  -10.1387   -9.2755    2.3873   17.9698   18.4147   18.8914
  33  1  -17.2042  -14.5071  -11.9032   -9.4690   -8.5480   -4.4725   -0.0883   12.6471   18.3909   21.5696
  34  1  -17.3047  -14.5474   -8.2950   -8.2948   -6.4985   22.7077   22.7538   22.7539   24.0051   24.0052
  35  1  -17.2042  -14.5071  -11.9032   -9.4690   -8.5480   -4.4725   -0.0883   12.6471   18.3909   21.5696
  36  1  -17.0564  -14.4894  -12.9895  -10.5561   -8.7914   -6.3982   -3.3399   11.1861   16.7037   16.8380
  37  1  -17.2042  -14.5071  -11.9033   -9.4689   -8.5481   -4.4725   -0.0883   12.6471   18.3909   21.5696
  38  1  -17.2042  -14.5071  -11.9032   -9.4690   -8.5480   -4.4725   -0.0883   12.6471   18.3909   21.5696
  39  1  -17.0648  -14.5051  -12.6923  -12.0130  -10.1388   -9.2754    2.3873   17.9698   18.4146   18.8914
  40  1  -17.0648  -14.5051  -12.6923  -12.0129  -10.1387   -9.2755    2.3873   17.9698   18.4147   18.8914
  41  1  -17.0648  -14.5051  -12.6923  -12.0129  -10.1387   -9.2755    2.3873   17.9698   18.4147   18.8914
  42  1  -17.0564  -14.4894  -12.9895  -10.5561   -8.7914   -6.3982   -3.3399   11.1861   16.7037   16.8380
  43  1  -17.0648  -14.5051  -12.6923  -12.0129  -10.1387   -9.2755    2.3873   17.9698   18.4147   18.8914
  44  1  -17.0564  -14.4894  -12.9895  -10.5560   -8.7915   -6.3982   -3.3399   11.1861   16.7036   16.8380
siesta: Fermi energy =      -6.404685 eV

siesta: Program's energy decomposition (eV):
siesta: Ebs     =      -128.772408
siesta: Eions   =       321.344870
siesta: Ena     =        83.903996
siesta: Ekin    =       169.980092
siesta: Enl     =        13.034628
siesta: Eso     =         0.000000
siesta: Edftu   =         0.000000
siesta: DEna    =       -14.742793
siesta: DUscf   =         4.562297
siesta: DUext   =         0.000000
siesta: Exc     =      -107.890366
siesta: eta*DQ  =         0.000000
siesta: Emadel  =         0.000000
siesta: Emeta   =         0.000000
siesta: Emolmec =        -3.317221
siesta: Ekinion =         0.000000
siesta: Eharris =      -175.814238
siesta: Etot    =      -175.814236
siesta: FreeEng =      -175.819714

siesta: Final energy (eV):
siesta:  Band Struct. =    -128.772408
siesta:       Kinetic =     169.980092
siesta:       Hartree =      72.555143
siesta:       Edftu   =       0.000000
siesta:       Eso     =       0.000000
siesta:    Ext. field =       0.000000
siesta:   Exch.-corr. =    -107.890366
siesta:  Ion-electron =    -323.768792
siesta:       Ion-ion =      16.626908
siesta:       Ekinion =       0.000000
siesta:         Total =    -175.814236
siesta:         Fermi =      -6.404685

siesta: Atomic forces (eV/Ang):
siesta:      1    0.000000    0.000000    0.000000
siesta:      2    0.180019   -0.311737   -0.000000
siesta:      3   -0.180020    0.311737   -0.000000
siesta:      4    0.180022    0.311808   -0.000000
siesta:      5   -0.180022   -0.311808   -0.000000
siesta:      6   -0.359982    0.000033   -0.000000
siesta:      7    0.359982   -0.000033   -0.000000
siesta: ----------------------------------------
siesta:    Tot   -0.000000   -0.000000   -0.000000

siesta: Stress tensor (static) (eV/Ang**3):
siesta:    -1.101691   -0.000023   -0.000000
siesta:    -0.000023   -1.101717    0.000000
siesta:    -0.000000    0.000000    0.288539

siesta: Cell volume =         54.915227 Ang**3

siesta: Pressure (static):
siesta:                Solid            Molecule  Units
siesta:           0.00695179          0.00684436  Ry/Bohr**3
siesta:           0.63828956          0.62842598  eV/Ang**3
siesta:        1022.66367864       1006.86029688  kBar
(Free)E+ p_basis*V_orbitals  =        -167.482198
(Free)Eharris+ p_basis*V_orbitals  =        -167.482200

cite: Please see "LiC6_scf.bib" for an exhaustive BiBTeX file.
cite: Please clearly indicate Siesta version in published work: 4.1.5
cite: This calculation has made use of the following articles
cite: which are encouraged to be cited in a published work.
        Primary SIESTA paper
          DOI: www.doi.org/10.1088/0953-8984/14/11/302

>> End of run:   9-NOV-2022  16:38:04
Job completed
