Siesta Version  : 4.1.5
Architecture    : x86_64-unknown-linux-gnu--unknown
Compiler version: GNU Fortran (GCC) 11.3.0
Compiler flags  : mpif90 -g -O2 -fallow-argument-mismatch
PP flags        : -DMPI -DFC_HAVE_FLUSH -DFC_HAVE_ABORT
Libraries       :  -I/global/software/sl-7.x86_64/modules/intel/2020.4.304/mkl/include  /globall/software/sl-7.x86_64/modules/intel/2020.4.304/mkl/lib/intel64/libmkl_scalapack_lp64.a -Wl,--start-group /global/software/sl-7.x86_64/modules/intel/2020.4.304/mkl/lib/intel64/libmkl_intel_lp64.a /global/software/sl-7.x86_64/modules/intel/2020.4.304/mkl/lib/intel64/libmkl_sequential.a /global/software/sl-7.x86_64/modules/intel/2020.4.304/mkl/lib/intel64/libmkl_core.a /global/software/sl-7.x86_64/modules/intel/2020.4.304/mkl/lib/intel64/libmkl_blacs_openmpi_lp64.a -Wl,--end-group -lpthread -lm -ldl
PARALLEL version

* Running on 4 nodes in parallel
>> Start of run:   9-NOV-2022  16:41:12

                           ***********************       
                           *  WELCOME TO SIESTA  *       
                           ***********************       

reinit: Reading from standard input
reinit: Dumped input in INPUT_TMP.39681
************************** Dump of input data file ****************************
SystemName LiC6_scf
SystemLabel LiC6_scf
NumberOfAtoms   7
NumberOfSpecies 2
%block ChemicalSpeciesLabel
1  3   Li-gga
2  6   C-gga
%endblock ChemicalSpeciesLabel
PAO.BasisSize  SZ
PAO.EnergyShift  10 meV
%block PS.Lmax
C-gga   2
Li-gga  2
%endblock PS.Lmax
LatticeConstant 1.000000 Ang
%block LatticeVectors
	4.3161300000	0.0000000000	0.0000000000
	-2.1580650000	3.7378782260	0.0000000000
	0.0000000000	0.0000000000	2.3679104000
%endblock LatticeVectors
AtomicCoordinatesFormat Ang
%block AtomicCoordinatesAndAtomicSpecies
	0.00000000	0.00000000	0.00000000	2
	-0.70288177	1.21742694	1.18395520	1
	-1.45518323	2.52045129	1.18395520	1
	1.45518323	2.52045129	1.18395520	1
	0.70288177	1.21742694	1.18395520	1
	1.40576354	0.00000000	1.18395520	1
	2.91036646	0.00000000	1.18395520	1
%endblock AtomicCoordinatesAndAtomicSpecies
Kgrid_NoTRS  T
%block kgrid_MonkhorstPack
4       0       0       0.0
0       4       0       0.0
0       0       4       0.0
%endblock kgrid_MonkhorstPack
AtomCoorFormatOut Ang
BlockSize 1
#ProcessorY 12
Diag.ParallelOverK   T
Diag.DivideAndConquer F
MeshCutoff   300 Ry
SCF.FreeE.Tolerance 1E-3 eV
SCF.EDM.Tolerance   5E-3 eV
DM.Tolerance  1E-3
DM.Require.Energy.Convergence T
DM.NumberPulay 4
XC.Functional GGA
XC.Authors    PBE
UseSaveData        F
MD.TypeOfRun       CG
MD.VariableCell    F
MD.NumCGsteps      00
MD.MaxCGDispl      0.200000 Bohr
MD.MaxStressTol    1.000000 GPa
MD.MaxForceTol     0.010000 eV/Ang
WriteMDHistory T
WriteCoorStep T
WriteForces T
WriteCoorStep    T
WriteEigenValues T
WriteDM    F
MM.UnitsDistance Ang  # what this program prints out DO NOT CHANGE
MM.UnitsEnergy    eV  # what this program prints out DO NOT CHANGE
MM.Grimme.S6     0.75 # Grimme-paper for PBE (correct for your functional)
MM.Grimme.D     20.   # Grimme-paper (correct for your functional)
%block MM.Potentials
  1   1 Grimme     16.69      1.650 # Li, 10.1002/jcc.20495
  1   2 Grimme     17.40      2.277 # Li / C
  2   2 Grimme     18.14      2.904 # C, 10.1002/jcc.20495
%endblock MM.Potentials
#%block ProjectedDensityOfStates
# -200.0  120.0  0.4  12800  eV
#%endblock ProjectedDensityOfStates
************************** End of input data file *****************************

reinit: -----------------------------------------------------------------------
reinit: System Name: LiC6_scf
reinit: -----------------------------------------------------------------------
reinit: System Label: LiC6_scf
reinit: -----------------------------------------------------------------------
Reading two-body potentials
Grimme - two-body potential between 1 and 1
Grimme - two-body potential between 1 and 2
Grimme - two-body potential between 2 and 2

initatom: Reading input for the pseudopotentials and atomic orbitals ----------
Species number:   1 Atomic number:    3 Label: Li-gga
Species number:   2 Atomic number:    6 Label: C-gga

Ground state valence configuration:   2s01
Reading pseudopotential information in formatted form from Li-gga.psf

Valence configuration for pseudopotential generation:
2s( 1.00) rc: 2.28
2p( 0.00) rc: 2.28
3d( 0.00) rc: 2.59
4f( 0.00) rc: 2.59
Ground state valence configuration:   2s02  2p02
Reading pseudopotential information in formatted form from C-gga.psf

Valence configuration for pseudopotential generation:
2s( 2.00) rc: 1.56
2p( 2.00) rc: 1.56
3d( 0.00) rc: 1.56
4f( 0.00) rc: 1.56
relmxkb: Read Max KB Ang. Momentum=    2 for species C-gga
relmxkb: Read Max KB Ang. Momentum=    2 for species Li-gga

<basis_specs>
===============================================================================
Li-gga               Z=   3    Mass=  6.9400        Charge= 0.17977+309
Lmxo=0 Lmxkb= 2    BasisType=split      Semic=F
L=0  Nsemic=0  Cnfigmx=2
          i=1  nzeta=1  polorb=0  (2s)
            splnorm:   0.15000    
               vcte:    0.0000    
               rinn:    0.0000    
               qcoe:    0.0000    
               qyuk:    0.0000    
               qwid:   0.10000E-01
                rcs:    0.0000    
            lambdas:    1.0000    
-------------------------------------------------------------------------------
L=0  Nkbl=1  erefs: 0.17977+309
L=1  Nkbl=1  erefs: 0.17977+309
L=2  Nkbl=1  erefs: 0.17977+309
===============================================================================
</basis_specs>

atom: Called for Li-gga                (Z =   3)

read_vps: Pseudopotential generation method:
read_vps: ATM 3.2.2 Troullier-Martins                       
Valence charge for ps generation:    1.00000

read_vps: Pseudopotential includes a core correction:
read_vps: Pseudo-core for xc-correction

xc_check: Exchange-correlation functional:
xc_check: GGA Perdew, Burke & Ernzerhof 1996
V l=0 = -2*Zval/r beyond r=  2.2278
V l=1 = -2*Zval/r beyond r=  2.2278
V l=2 = -2*Zval/r beyond r=  2.5245
All V_l potentials equal beyond r=  2.4622
This should be close to max(r_c) in ps generation
All pots = -2*Zval/r beyond r=  2.5245

VLOCAL1: 99.0% of the norm of Vloc inside      7.160 Ry
VLOCAL1: 99.9% of the norm of Vloc inside     16.318 Ry
atom: Maximum radius for 4*pi*r*r*local-pseudopot. charge    2.86079
atom: Maximum radius for r*vlocal+2*Zval:    2.43160
GHOST: No ghost state for L =  0
GHOST: No ghost state for L =  1
GHOST: No ghost state for L =  2

KBgen: Kleinman-Bylander projectors: 
   l= 0   rc=  2.654023   el= -0.211234   Ekb=  1.742119   kbcos=  0.228463
   l= 1   rc=  2.721230   el= -0.080095   Ekb= -1.122375   kbcos= -0.147941
   l= 2   rc=  2.825246   el=  0.002001   Ekb= -0.207076   kbcos= -0.031965

KBgen: Total number of Kleinman-Bylander projectors:    9
atom: -------------------------------------------------------------------------

atom: SANKEY-TYPE ORBITALS:

SPLIT: Orbitals with angular momentum L= 0

SPLIT: Basis orbitals for state 2s

SPLIT: PAO cut-off radius determined from an
SPLIT: energy shift=  0.000735 Ry

   izeta = 1
                 lambda =    1.000000
                     rc =   11.897381
                 energy =   -0.210580
                kinetic =    0.143382
    potential(screened) =   -0.353962
       potential(ionic) =   -0.533453
atom: Total number of Sankey-type orbitals:  1

atm_pop: Valence configuration (for local Pseudopot. screening):
 2s( 1.00)                                                            
Vna: chval, zval:    1.00000   1.00000

Vna:  Cut-off radius for the neutral-atom potential:  11.897381
comcore: Pseudo-core radius Rcore=  3.450946

atom: _________________________________________________________________________

<basis_specs>
===============================================================================
C-gga                Z=   6    Mass=  12.010        Charge= 0.17977+309
Lmxo=1 Lmxkb= 2    BasisType=split      Semic=F
L=0  Nsemic=0  Cnfigmx=2
          i=1  nzeta=1  polorb=0  (2s)
            splnorm:   0.15000    
               vcte:    0.0000    
               rinn:    0.0000    
               qcoe:    0.0000    
               qyuk:    0.0000    
               qwid:   0.10000E-01
                rcs:    0.0000    
            lambdas:    1.0000    
L=1  Nsemic=0  Cnfigmx=2
          i=1  nzeta=1  polorb=0  (2p)
            splnorm:   0.15000    
               vcte:    0.0000    
               rinn:    0.0000    
               qcoe:    0.0000    
               qyuk:    0.0000    
               qwid:   0.10000E-01
                rcs:    0.0000    
            lambdas:    1.0000    
-------------------------------------------------------------------------------
L=0  Nkbl=1  erefs: 0.17977+309
L=1  Nkbl=1  erefs: 0.17977+309
L=2  Nkbl=1  erefs: 0.17977+309
===============================================================================
</basis_specs>

atom: Called for C-gga                 (Z =   6)

read_vps: Pseudopotential generation method:
read_vps: ATM 3.2.2 Troullier-Martins                       
Valence charge for ps generation:    4.00000

xc_check: Exchange-correlation functional:
xc_check: GGA Perdew, Burke & Ernzerhof 1996
V l=0 = -2*Zval/r beyond r=  1.5227
V l=1 = -2*Zval/r beyond r=  1.5227
V l=2 = -2*Zval/r beyond r=  1.5227
All V_l potentials equal beyond r=  1.4851
This should be close to max(r_c) in ps generation
All pots = -2*Zval/r beyond r=  1.5227

VLOCAL1: 99.0% of the norm of Vloc inside     19.682 Ry
VLOCAL1: 99.9% of the norm of Vloc inside     44.856 Ry
atom: Maximum radius for 4*pi*r*r*local-pseudopot. charge    1.79142
atom: Maximum radius for r*vlocal+2*Zval:    1.54183
GHOST: No ghost state for L =  0
GHOST: No ghost state for L =  1
GHOST: No ghost state for L =  2

KBgen: Kleinman-Bylander projectors: 
   l= 0   rc=  1.661951   el= -1.010689   Ekb=  5.289847   kbcos=  0.316429
   l= 1   rc=  1.661951   el= -0.388490   Ekb= -4.102504   kbcos= -0.351025
   l= 2   rc=  1.747182   el=  0.001971   Ekb= -1.006005   kbcos= -0.008530

KBgen: Total number of Kleinman-Bylander projectors:    9
atom: -------------------------------------------------------------------------

atom: SANKEY-TYPE ORBITALS:

SPLIT: Orbitals with angular momentum L= 0

SPLIT: Basis orbitals for state 2s

SPLIT: PAO cut-off radius determined from an
SPLIT: energy shift=  0.000735 Ry

   izeta = 1
                 lambda =    1.000000
                     rc =    5.948690
                 energy =   -1.010099
                kinetic =    0.827121
    potential(screened) =   -1.837220
       potential(ionic) =   -5.392783

SPLIT: Orbitals with angular momentum L= 1

SPLIT: Basis orbitals for state 2p

SPLIT: PAO cut-off radius determined from an
SPLIT: energy shift=  0.000735 Ry

   izeta = 1
                 lambda =    1.000000
                     rc =    7.638387
                 energy =   -0.387843
                kinetic =    2.314739
    potential(screened) =   -2.702582
       potential(ionic) =   -6.092371
atom: Total number of Sankey-type orbitals:  4

atm_pop: Valence configuration (for local Pseudopot. screening):
 2s( 2.00)                                                            
 2p( 2.00)                                                            
Vna: chval, zval:    4.00000   4.00000

Vna:  Cut-off radius for the neutral-atom potential:   7.638387

atom: _________________________________________________________________________

prinput: Basis input ----------------------------------------------------------

PAO.BasisType split     

%block ChemicalSpeciesLabel
    1    3 Li-gga                  # Species index, atomic number, species label
    2    6 C-gga                   # Species index, atomic number, species label
%endblock ChemicalSpeciesLabel

%block PAO.Basis                 # Define Basis set
Li-gga                1                    # Species label, number of l-shells
 n=2   0   1                         # n, l, Nzeta 
  11.897   
   1.000   
C-gga                 2                    # Species label, number of l-shells
 n=2   0   1                         # n, l, Nzeta 
   5.949   
   1.000   
 n=2   1   1                         # n, l, Nzeta 
   7.638   
   1.000   
%endblock PAO.Basis

prinput: ----------------------------------------------------------------------

coor:   Atomic-coordinates input format  =     Cartesian coordinates
coor:                                          (in Angstroms)

siesta: Atomic coordinates (Bohr) and species
siesta:      0.00000   0.00000   0.00000  2        1
siesta:     -1.32825   2.30060   2.23735  1        2
siesta:     -2.74990   4.76296   2.23735  1        3
siesta:      2.74990   4.76296   2.23735  1        4
siesta:      1.32825   2.30060   2.23735  1        5
siesta:      2.65651   0.00000   2.23735  1        6
siesta:      5.49980   0.00000   2.23735  1        7

siesta: System type = bulk      

initatomlists: Number of atoms, orbitals, and projectors:      7    10    63

siesta: ******************** Simulation parameters ****************************
siesta:
siesta: The following are some of the parameters of the simulation.
siesta: A complete list of the parameters used, including default values,
siesta: can be found in file out.fdf
siesta:
redata: Spin configuration                          = none
redata: Number of spin components                   = 1
redata: Time-Reversal Symmetry                      = T
redata: Spin spiral                                 = F
redata: Long output                                 =   F
redata: Number of Atomic Species                    =        2
redata: Charge density info will appear in .RHO file
redata: Write Mulliken Pop.                         = NO
redata: Matel table size (NRTAB)                    =     1024
redata: Mesh Cutoff                                 =   300.0000 Ry
redata: Net charge of the system                    =     0.0000 |e|
redata: Min. number of SCF Iter                     =        0
redata: Max. number of SCF Iter                     =     1000
redata: SCF convergence failure will abort job
redata: SCF mix quantity                            = Hamiltonian
redata: Mix DM or H after convergence               =   F
redata: Recompute H after scf cycle                 =   F
redata: Mix DM in first SCF step                    =   T
redata: Write Pulay info on disk                    =   F
redata: New DM Occupancy tolerance                  = 0.000000000001
redata: No kicks to SCF
redata: DM Mixing Weight for Kicks                  =     0.5000
redata: Require Harris convergence for SCF          =   F
redata: Harris energy tolerance for SCF             =     0.000100 eV
redata: Require DM convergence for SCF              =   T
redata: DM tolerance for SCF                        =     0.001000
redata: Require EDM convergence for SCF             =   F
redata: EDM tolerance for SCF                       =     0.005000 eV
redata: Require H convergence for SCF               =   T
redata: Hamiltonian tolerance for SCF               =     0.001000 eV
redata: Require (free) Energy convergence for SCF   =   T
redata: (free) Energy tolerance for SCF             =     0.001000 eV
redata: Using Saved Data (generic)                  =   F
redata: Use continuation files for DM               =   F
redata: Neglect nonoverlap interactions             =   F
redata: Method of Calculation                       = Diagonalization
redata: Electronic Temperature                      =   299.9869 K
redata: Fix the spin of the system                  =   F
redata: Dynamics option                             = Single-point calculation
mix.SCF: Pulay mixing                            = Pulay
mix.SCF:    Variant                              = stable
mix.SCF:    History steps                        = 4
mix.SCF:    Linear mixing weight                 =     0.250000
mix.SCF:    Mixing weight                        =     0.250000
mix.SCF:    SVD condition                        = 0.1000E-07
redata: ***********************************************************************

%block SCF.Mixers
  Pulay
%endblock SCF.Mixers

%block SCF.Mixer.Pulay
  # Mixing method
  method pulay
  variant stable

  # Mixing options
  weight 0.2500
  weight.linear 0.2500
  history 4
%endblock SCF.Mixer.Pulay

DM_history_depth set to one: no extrapolation allowed by default for geometry relaxation
Size of DM history Fstack: 1
Total number of electrons:    10.000000
Total ionic charge:    10.000000

* ProcessorY, Blocksize:    2   1


* Orbital distribution balance (max,min):     3     2

k-point displ. along   1 input, could be:     0.00    0.50
k-point displ. along   2 input, could be:     0.00    0.50
k-point displ. along   3 input, could be:     0.00    0.50
 Kpoints in:           48 . Kpoints trimmed:           44

siesta: k-grid: Number of k-points =    44
siesta: k-grid: Cutoff (effective) =     4.736 Ang
siesta: k-grid: Supercell and displacements
siesta: k-grid:    4   0   0      0.000
siesta: k-grid:    0   4   0      0.000
siesta: k-grid:    0   0   4      0.000

diag: Algorithm                                     = Expert
diag: Parallel over k                               =   T
diag: Use parallel 2D distribution                  =   T
diag: Parallel block-size                           = 1
diag: Parallel distribution                         =     2 x     2
diag: Used triangular part                          = Lower
diag: Absolute tolerance                            =  0.100E-15
diag: Orthogonalization factor                      =  0.100E-05
diag: Memory factor                                 =  1.0000

superc: Internal auxiliary supercell:     9 x     9 x    13  =    1053
superc: Number of atoms, orbitals, and projectors:   7371  10530  66339


ts: **************************************************************
ts: Save H and S matrices                           =    F
ts: Save DM and EDM matrices                        =    F
ts: Only save the overlap matrix S                  =    F
ts: **************************************************************

************************ Begin: TS CHECKS AND WARNINGS ************************
************************ End: TS CHECKS AND WARNINGS **************************


                     ====================================
                        Single-point calculation
                     ====================================

outcoor: Atomic coordinates (Ang):                          
    0.00000000    0.00000000    0.00000000   2       1  C-gga
   -0.70288177    1.21742694    1.18395520   1       2  Li-gga
   -1.45518323    2.52045129    1.18395520   1       3  Li-gga
    1.45518323    2.52045129    1.18395520   1       4  Li-gga
    0.70288177    1.21742694    1.18395520   1       5  Li-gga
    1.40576354    0.00000000    1.18395520   1       6  Li-gga
    2.91036646    0.00000000    1.18395520   1       7  Li-gga

superc: Internal auxiliary supercell:     9 x     9 x    13  =    1053
superc: Number of atoms, orbitals, and projectors:   7371  10530  66339

outcell: Unit cell vectors (Ang):
        4.316130    0.000000    0.000000
       -2.158065    3.737878    0.000000
        0.000000    0.000000    2.367910

outcell: Cell vector modules (Ang)   :    4.316130    4.316130    2.367910
outcell: Cell angles (23,13,12) (deg):     90.0000     90.0000    120.0000
outcell: Cell volume (Ang**3)        :     38.2019
<dSpData1D:S at geom step 0
  <sparsity:sparsity for geom step 0
    nrows_g=10 nrows=3 sparsity=72.5200 nnzs=7252, refcount: 7>
  <dData1D:(new from dSpData1D) n=7252, refcount: 1>
refcount: 1>
new_DM -- step:     1
Initializing Density Matrix...
DM filled with atomic data:
<dSpData2D:DM initialized from atoms
  <sparsity:sparsity for geom step 0
    nrows_g=10 nrows=3 sparsity=72.5200 nnzs=7252, refcount: 8>
  <dData2D:DM n=7252 m=1, refcount: 1>
refcount: 1>
No. of atoms with KB's overlaping orbs in proc 0. Max # of overlaps:     425     373
New grid distribution:   1
           1       1:   20    1:   10    1:    8
           2       1:   20    1:   10    9:   15
           3       1:   20   11:   20    1:    8
           4       1:   20   11:   20    9:   15

InitMesh: MESH =    40 x    40 x    30 =       48000
InitMesh: (bp) =    20 x    20 x    15 =        6000
InitMesh: Mesh cutoff (required, used) =   300.000   316.498 Ry
ExtMesh (bp) on 0 =   156 x   146 x   168 =     3826368
New grid distribution:   2
           1       1:   10    1:   10    1:   15
           2      11:   20    1:   10    1:   15
           3       1:   10   11:   20    1:   15
           4      11:   20   11:   20    1:   15
New grid distribution:   3
           1       1:   10    1:   10    1:   15
           2      11:   20    1:   10    1:   15
           3       1:   10   11:   20    1:   15
           4      11:   20   11:   20    1:   15
Setting up quadratic distribution...
ExtMesh (bp) on 0 =   146 x   146 x   175 =     3730300
PhiOnMesh: Number of (b)points on node 0 =                 1500
PhiOnMesh: nlist on node 0 =               292323

stepf: Fermi-Dirac step function

siesta: Program's energy decomposition (eV):
siesta: Ebs     =       -76.066767
siesta: Eions   =       321.344870
siesta: Ena     =        70.816117
siesta: Ekin    =       269.034503
siesta: Enl     =       -15.382456
siesta: Eso     =         0.000000
siesta: Edftu   =         0.000000
siesta: DEna    =       -65.175270
siesta: DUscf   =        45.408580
siesta: DUext   =         0.000000
siesta: Exc     =      -132.952168
siesta: eta*DQ  =         0.000000
siesta: Emadel  =         0.000000
siesta: Emeta   =         0.000000
siesta: Emolmec =        -4.276416
siesta: Ekinion =         0.000000
siesta: Eharris =       -68.568977
siesta: Etot    =      -153.871979
siesta: FreeEng =      -153.883822

        iscf     Eharris(eV)        E_KS(eV)     FreeEng(eV)     dDmax    Ef(eV) dHmax(eV)
   scf:    1      -68.568977     -153.871979     -153.883822  2.722500-16.498449 20.912441
timer: Routine,Calls,Time,% = IterSCF        1       1.608  20.24
   scf:    2     -184.214664     -170.990421     -170.992606  1.804715-14.166900  9.000991
   scf:    3     -175.527247     -175.674455     -175.678831  6.250711-11.678998  2.308744
   scf:    4     -175.946467     -175.880858     -175.888723  0.940573-12.607390  0.048683
   scf:    5     -175.388938     -175.698017     -175.702428  0.761179-12.656762  1.768626
   scf:    6     -175.621814     -175.827069     -175.833400  1.264858-12.163853  1.109636
   scf:    7     -175.900614     -175.867677     -175.874793  0.237719-12.461226  0.486025
   scf:    8     -175.873485     -175.870651     -175.878015  0.027505-12.483809  0.420108
   scf:    9     -175.872691     -175.871682     -175.879143  0.010151-12.490701  0.396773
   scf:   10     -175.802234     -175.864562     -175.869221  0.459618-12.554288  0.531971
   scf:   11     -175.775929     -175.858819     -175.865648  0.558596-12.381997  0.666390
   scf:   12     -175.877527     -175.868629     -175.875813  0.078112-12.470528  0.464269
   scf:   13     -175.754703     -175.852165     -175.855409  0.559286-12.541077  0.723198
   scf:   14     -175.754350     -175.855391     -175.862166  0.660045-12.353823  0.726499
   scf:   15     -175.855087     -175.855239     -175.862012  0.000960-12.352598  0.729049
   scf:   16     -175.884605     -175.871138     -175.878552  0.125166-12.488087  0.409252
   scf:   17     -175.823838     -175.870418     -175.875997  0.419979-12.552956  0.432781
   scf:   18     -175.611976     -175.760456     -175.765529  0.428864-12.529193  1.392689
   scf:   19     -175.927103     -175.853497     -175.856805  0.311977-12.543894  0.702066
   scf:   20     -175.891223     -175.881677     -175.889405  0.267848-12.543259  0.124880
   scf:   21     -175.808493     -175.854172     -175.857523  0.263834-12.545432  0.691322
   scf:   22     -175.868032     -175.881201     -175.889441  0.387960-12.528575  0.124169
   scf:   23     -175.878719     -175.881883     -175.889669  0.125514-12.542919  0.111070
   scf:   24     -175.879501     -175.881943     -175.890175  0.101608-12.532818  0.077989
   scf:   25     -175.882677     -175.882539     -175.890661  0.043317-12.537709  0.003114
   scf:   26     -175.882541     -175.882540     -175.890661  0.000391-12.537809  0.003860
   scf:   27     -175.882528     -175.882535     -175.890662  0.001717-12.537603  0.000655
   scf:   28     -175.882533     -175.882534     -175.890662  0.000261-12.537569  0.000158

SCF Convergence by FreeE+DM+H criterion
|FreeE_i-FreeE_(i-1)| (eV) <     0.00100000
max |DM_out - DM_in|         :     0.0002613198
max |H_out - H_in|      (eV) :     0.0001580427
SCF cycle converged after 28 iterations

Using DM_out to compute the final energy and forces
No. of atoms with KB's overlaping orbs in proc 0. Max # of overlaps:     425     373

MM-Stress (kbar):       52.23       52.23      279.24        0.00        0.00       -0.00

siesta: E_KS(eV) =             -175.8825

siesta: E_KS - E_eggbox =      -175.8825

siesta: Atomic forces (eV/Ang):
     1    0.000000    0.000000    0.000000
     2    0.327136   -0.566313   -0.000000
     3   -0.327136    0.566313   -0.000000
     4    0.327060    0.566484   -0.000000
     5   -0.327060   -0.566484   -0.000000
     6   -0.654010    0.000152   -0.000000
     7    0.654010   -0.000152   -0.000000
----------------------------------------
   Tot   -0.000000   -0.000000    0.000000
----------------------------------------
   Max    0.654010
   Res    0.349602    sqrt( Sum f_i^2 / 3N )
----------------------------------------
   Max    0.654010    constrained

Stress tensor Voigt[x,y,z,yz,xz,xy] (kbar):    -2272.51    -2272.62     -840.96       -0.00       -0.00       -0.10
(Free)E + p*V (eV/cell)     -133.0829
Target enthalpy (eV/cell)     -175.8907

siesta: Eigenvalues (eV):
  ik is       eps
   1  1  -25.8526  -21.2788  -20.5059  -14.1965  -13.4225   -9.1323   -5.7854   13.1489   16.2384   20.1405
   2  1  -25.9230  -21.0176  -17.9566  -17.6622  -13.7501   -9.1481   -7.2829    5.6931   17.2864   22.4275
   3  1  -25.9230  -21.0177  -17.9566  -17.6622  -13.7499   -9.1481   -7.2832    5.6933   17.2864   22.4275
   4  1  -25.8526  -21.2789  -20.5058  -14.1967  -13.4223   -9.1323   -5.7854   13.1489   16.2384   20.1405
   5  1  -25.9230  -21.0176  -17.9566  -17.6622  -13.7501   -9.1481   -7.2829    5.6931   17.2864   22.4275
   6  1  -25.9216  -17.9035  -17.7546  -17.7545  -10.6066  -10.6066   -9.1641   10.8658   10.8663   18.3456
   7  1  -25.8786  -21.4568  -19.1261  -18.0520  -12.5746   -9.1323   -6.6486    3.0571   14.7489   15.8141
   8  1  -25.8526  -21.2789  -20.5058  -14.1967  -13.4223   -9.1323   -5.7854   13.1489   16.2384   20.1405
   9  1  -25.8526  -21.2789  -20.5058  -14.1967  -13.4223   -9.1323   -5.7854   13.1489   16.2384   20.1405
  10  1  -25.8786  -21.4568  -19.1261  -18.0520  -12.5746   -9.1323   -6.6486    3.0571   14.7489   15.8141
  11  1  -25.8526  -21.2789  -20.5058  -14.1967  -13.4223   -9.1323   -5.7854   13.1489   16.2384   20.1405
  12  1  -25.8786  -21.4569  -19.1260  -18.0520  -12.5743   -9.1323   -6.6490    3.0571   14.7488   15.8142
  13  1  -25.0635  -20.9826  -20.3254  -14.1340  -12.5819  -12.1823   -4.8912   14.8463   15.6951   16.8631
  14  1  -25.0908  -20.7175  -17.9136  -15.9384  -13.2139  -12.0697   -4.4036    9.9846   16.4799   18.2146
  15  1  -25.0908  -20.7176  -17.9136  -15.9383  -13.2139  -12.0694   -4.4039    9.9847   16.4799   18.2146
  16  1  -25.0635  -20.9827  -20.3253  -14.1339  -12.5821  -12.1821   -4.8912   14.8464   15.6951   16.8631
  17  1  -25.0908  -20.7175  -17.9136  -15.9384  -13.2139  -12.0697   -4.4036    9.9846   16.4799   18.2146
  18  1  -25.1246  -17.7084  -16.9715  -16.9715  -13.3635   -2.9621   -2.9621   15.0489   15.0493   19.6660
  19  1  -25.0908  -20.7175  -17.9136  -15.9384  -13.2139  -12.0697   -4.4036    9.9846   16.4799   18.2146
  20  1  -25.0450  -21.1474  -18.2440  -16.6185  -13.3610  -11.6226   -4.5845    8.9632   13.5841   14.4362
  21  1  -25.0908  -20.7176  -17.9136  -15.9383  -13.2139  -12.0694   -4.4039    9.9847   16.4799   18.2146
  22  1  -25.0908  -20.7175  -17.9136  -15.9384  -13.2139  -12.0697   -4.4036    9.9846   16.4799   18.2146
  23  1  -25.0635  -20.9826  -20.3254  -14.1340  -12.5819  -12.1823   -4.8912   14.8463   15.6951   16.8631
  24  1  -25.0635  -20.9827  -20.3253  -14.1339  -12.5821  -12.1821   -4.8912   14.8464   15.6951   16.8631
  25  1  -25.0635  -20.9827  -20.3253  -14.1339  -12.5821  -12.1821   -4.8912   14.8464   15.6951   16.8631
  26  1  -25.0450  -21.1474  -18.2440  -16.6185  -13.3610  -11.6226   -4.5845    8.9632   13.5841   14.4362
  27  1  -25.0635  -20.9827  -20.3253  -14.1339  -12.5821  -12.1821   -4.8912   14.8464   15.6951   16.8631
  28  1  -25.0450  -21.1475  -18.2440  -16.6184  -13.3610  -11.6223   -4.5849    8.9632   13.5840   14.4363
  29  1  -22.4624  -19.6016  -16.1396  -15.4549  -13.9690  -13.1957   11.2683   11.8229   14.3438   18.0781
  30  1  -22.5975  -19.3351  -15.5967  -14.8915  -12.5638    2.4452   10.0088   12.5456   18.4800   21.7151
  31  1  -22.5975  -19.3351  -15.5965  -14.8917  -12.5638    2.4452   10.0088   12.5456   18.4801   21.7150
  32  1  -22.4624  -19.6016  -16.1394  -15.4550  -13.9691  -13.1957   11.2683   11.8230   14.3438   18.0781
  33  1  -22.5975  -19.3351  -15.5967  -14.8915  -12.5638    2.4452   10.0088   12.5456   18.4800   21.7151
  34  1  -22.6967  -18.8970  -14.6923  -14.6921  -11.2267    9.0391    9.0392    9.4736    9.4737   20.5431
  35  1  -22.5975  -19.3351  -15.5967  -14.8915  -12.5638    2.4452   10.0088   12.5456   18.4800   21.7151
  36  1  -22.4547  -19.1818  -16.4804  -15.0861  -14.2410   -6.5435   14.2750   14.3036   15.1870   33.5540
  37  1  -22.5975  -19.3351  -15.5965  -14.8917  -12.5638    2.4452   10.0088   12.5456   18.4801   21.7150
  38  1  -22.5975  -19.3351  -15.5967  -14.8915  -12.5638    2.4452   10.0088   12.5456   18.4800   21.7151
  39  1  -22.4624  -19.6016  -16.1396  -15.4549  -13.9690  -13.1957   11.2683   11.8229   14.3438   18.0781
  40  1  -22.4624  -19.6016  -16.1394  -15.4550  -13.9691  -13.1957   11.2683   11.8230   14.3438   18.0781
  41  1  -22.4624  -19.6016  -16.1394  -15.4550  -13.9691  -13.1957   11.2683   11.8230   14.3438   18.0781
  42  1  -22.4547  -19.1818  -16.4804  -15.0861  -14.2410   -6.5435   14.2750   14.3036   15.1870   33.5540
  43  1  -22.4624  -19.6016  -16.1394  -15.4550  -13.9691  -13.1957   11.2683   11.8230   14.3438   18.0781
  44  1  -22.4547  -19.1818  -16.4802  -15.0862  -14.2410   -6.5434   14.2749   14.3037   15.1870   33.5539
siesta: Fermi energy =     -12.537569 eV

siesta: Program's energy decomposition (eV):
siesta: Ebs     =      -184.254436
siesta: Eions   =       321.344870
siesta: Ena     =        70.816117
siesta: Ekin    =       204.258323
siesta: Enl     =        11.016668
siesta: Eso     =         0.000000
siesta: Edftu   =         0.000000
siesta: DEna    =       -25.906454
siesta: DUscf   =         7.792325
siesta: DUext   =         0.000000
siesta: Exc     =      -118.238227
siesta: eta*DQ  =         0.000000
siesta: Emadel  =         0.000000
siesta: Emeta   =         0.000000
siesta: Emolmec =        -4.276416
siesta: Ekinion =         0.000000
siesta: Eharris =      -175.882533
siesta: Etot    =      -175.882534
siesta: FreeEng =      -175.890662

siesta: Final energy (eV):
siesta:  Band Struct. =    -184.254436
siesta:       Kinetic =     204.258323
siesta:       Hartree =      86.469036
siesta:       Edftu   =       0.000000
siesta:       Eso     =       0.000000
siesta:    Ext. field =       0.000000
siesta:   Exch.-corr. =    -118.238227
siesta:  Ion-electron =    -428.386883
siesta:       Ion-ion =      84.291634
siesta:       Ekinion =       0.000000
siesta:         Total =    -175.882534
siesta:         Fermi =     -12.537569

siesta: Atomic forces (eV/Ang):
siesta:      1    0.000000    0.000000    0.000000
siesta:      2    0.327136   -0.566313   -0.000000
siesta:      3   -0.327136    0.566313   -0.000000
siesta:      4    0.327060    0.566484   -0.000000
siesta:      5   -0.327060   -0.566484   -0.000000
siesta:      6   -0.654010    0.000152   -0.000000
siesta:      7    0.654010   -0.000152   -0.000000
siesta: ----------------------------------------
siesta:    Tot   -0.000000   -0.000000    0.000000

siesta: Stress tensor (static) (eV/Ang**3):
siesta:    -1.418374   -0.000059   -0.000000
siesta:    -0.000059   -1.418443   -0.000000
siesta:    -0.000000   -0.000000   -0.524880

siesta: Cell volume =         38.201897 Ang**3

siesta: Pressure (static):
siesta:                Solid            Molecule  Units
siesta:           0.01220439          0.01192383  Ry/Bohr**3
siesta:           1.12056543          1.09480545  eV/Ang**3
siesta:        1795.36314708       1754.09067411  kBar
(Free)E+ p_basis*V_orbitals  =        -167.553146
(Free)Eharris+ p_basis*V_orbitals  =        -167.553145

cite: Please see "LiC6_scf.bib" for an exhaustive BiBTeX file.
cite: Please clearly indicate Siesta version in published work: 4.1.5
cite: This calculation has made use of the following articles
cite: which are encouraged to be cited in a published work.
        Primary SIESTA paper
          DOI: www.doi.org/10.1088/0953-8984/14/11/302

>> End of run:   9-NOV-2022  16:41:53
Job completed
