Siesta Version  : 4.1.5
Architecture    : x86_64-unknown-linux-gnu--unknown
Compiler version: GNU Fortran (GCC) 11.3.0
Compiler flags  : mpif90 -g -O2 -fallow-argument-mismatch
PP flags        : -DMPI -DFC_HAVE_FLUSH -DFC_HAVE_ABORT
Libraries       :  -I/global/software/sl-7.x86_64/modules/intel/2020.4.304/mkl/include  /globall/software/sl-7.x86_64/modules/intel/2020.4.304/mkl/lib/intel64/libmkl_scalapack_lp64.a -Wl,--start-group /global/software/sl-7.x86_64/modules/intel/2020.4.304/mkl/lib/intel64/libmkl_intel_lp64.a /global/software/sl-7.x86_64/modules/intel/2020.4.304/mkl/lib/intel64/libmkl_sequential.a /global/software/sl-7.x86_64/modules/intel/2020.4.304/mkl/lib/intel64/libmkl_core.a /global/software/sl-7.x86_64/modules/intel/2020.4.304/mkl/lib/intel64/libmkl_blacs_openmpi_lp64.a -Wl,--end-group -lpthread -lm -ldl
PARALLEL version

* Running on 10 nodes in parallel
>> Start of run:  28-OCT-2022  14:38:43

                           ***********************       
                           *  WELCOME TO SIESTA  *       
                           ***********************       

reinit: Reading from standard input
reinit: Dumped input in INPUT_TMP.58223
************************** Dump of input data file ****************************
SystemName graphite_scf
SystemLabel graphite_scf
NumberOfAtoms   36
NumberOfSpecies 1
%block ChemicalSpeciesLabel
1  6   C-gga
%endblock ChemicalSpeciesLabel
PAO.BasisSize  SZ
PAO.EnergyShift  10 meV
%block PS.Lmax
C-gga   2
%endblock PS.Lmax
LatticeConstant 1.000000 Ang
%block LatticeVectors
	7.3920000000	0.0000000000	0.0000000000
	-3.6960000000	6.4016597848	0.0000000000
	0.0000000000	0.0000000000	6.0399000000
%endblock LatticeVectors
AtomicCoordinatesFormat Ang
%block AtomicCoordinatesAndAtomicSpecies
	0.00000000	0.00000000	1.50997500	1
	0.00000000	0.00000000	4.52992500	1
	-1.23200000	2.13388659	1.50997500	1
	-2.46400000	4.26777319	4.52992500	1
	2.46400000	4.26777319	1.50997500	1
	1.23200000	2.13388659	4.52992500	1
	2.46400000	0.00000000	1.50997500	1
	4.92800000	0.00000000	4.52992500	1
	2.46400000	0.00000000	4.52992500	1
	4.92800000	0.00000000	1.50997500	1
	2.46400000	4.26777319	4.52992500	1
	1.23200000	2.13388659	1.50997500	1
	-1.23200000	2.13388659	4.52992500	1
	-2.46400000	4.26777319	1.50997500	1
	0.00000000	4.26777319	1.50997500	1
	3.69600000	2.13388659	4.52992500	1
	3.69600000	2.13388659	1.50997500	1
	0.00000000	4.26777319	4.52992500	1
	0.00000000	1.42258964	1.50997500	1
	3.69600000	4.97907014	4.52992500	1
	2.46400123	5.69036496	1.50997500	1
	1.23199877	0.71129482	4.52992500	1
	-2.46400123	5.69036496	1.50997500	1
	6.16000123	0.71129482	4.52992500	1
	-1.23200000	3.55647624	1.50997500	1
	4.92800000	2.84518355	4.52992500	1
	1.23200123	3.55647837	1.50997500	1
	2.46399877	2.84518142	4.52992500	1
	-0.00000123	5.69036496	1.50997500	1
	3.69600123	0.71129482	4.52992500	1
	2.46400000	1.42258964	1.50997500	1
	1.23200000	4.97907014	4.52992500	1
	4.92800123	1.42259177	1.50997500	1
	-1.23200123	4.97906801	4.52992500	1
	3.69599877	3.55647837	1.50997500	1
	0.00000123	2.84518142	4.52992500	1
%endblock AtomicCoordinatesAndAtomicSpecies
Kgrid_NoTRS  T
%block kgrid_MonkhorstPack
2       0       0       0.0
0       2       0       0.0
0       0       2       0.0
%endblock kgrid_MonkhorstPack
AtomCoorFormatOut Ang
BlockSize 1
#ProcessorY 12
Diag.ParallelOverK   T
Diag.DivideAndConquer F
MeshCutoff   300 Ry
SCF.FreeE.Tolerance 1E-3 eV
SCF.EDM.Tolerance   5E-3 eV
DM.Tolerance  1E-3
DM.Require.Energy.Convergence T
DM.NumberPulay 4
#XC.Functional GGA
#CX.Authors    PBE
UseSaveData        F
SolutionMethod     diagon
MD.TypeOfRun       CG
MD.VariableCell    F
MD.NumCGsteps      00
MD.MaxCGDispl      0.200000 Bohr
#MD.MaxStressTol    1.000000 GPa
#MD.MaxForceTol     0.010000 eV/Ang
WriteMDHistory T
WriteCoorStep T
WriteForces T
WriteCoorStep    T
WriteEigenValues T
WriteDM    F
MM.UnitsDistance Ang  # what this program prints out DO NOT CHANGE
MM.UnitsEnergy    eV  # what this program prints out DO NOT CHANGE
# MM.Grimme.S6     0.75 # Grimme-paper for PBE (correct for your functional)
# MM.Grimme.D     20.   # Grimme-paper (correct for your functional)
# %block MM.Potentials
#   1   1 Grimme     18.14      2.904 # C, 10.1002/jcc.20495
# %endblock MM.Potentials
#%block ProjectedDensityOfStates
# -200.0  120.0  0.4  12800  eV
#%endblock ProjectedDensityOfStates
************************** End of input data file *****************************

reinit: -----------------------------------------------------------------------
reinit: System Name: graphite_scf
reinit: -----------------------------------------------------------------------
reinit: System Label: graphite_scf
reinit: -----------------------------------------------------------------------

initatom: Reading input for the pseudopotentials and atomic orbitals ----------
Species number:   1 Atomic number:    6 Label: C-gga

Ground state valence configuration:   2s02  2p02
Reading pseudopotential information in formatted form from C-gga.psf

Valence configuration for pseudopotential generation:
2s( 2.00) rc: 1.56
2p( 2.00) rc: 1.56
3d( 0.00) rc: 1.56
4f( 0.00) rc: 1.56
relmxkb: Read Max KB Ang. Momentum=    2 for species C-gga

<basis_specs>
===============================================================================
C-gga                Z=   6    Mass=  12.010        Charge= 0.17977+309
Lmxo=1 Lmxkb= 2    BasisType=split      Semic=F
L=0  Nsemic=0  Cnfigmx=2
          i=1  nzeta=1  polorb=0  (2s)
            splnorm:   0.15000    
               vcte:    0.0000    
               rinn:    0.0000    
               qcoe:    0.0000    
               qyuk:    0.0000    
               qwid:   0.10000E-01
                rcs:    0.0000    
            lambdas:    1.0000    
L=1  Nsemic=0  Cnfigmx=2
          i=1  nzeta=1  polorb=0  (2p)
            splnorm:   0.15000    
               vcte:    0.0000    
               rinn:    0.0000    
               qcoe:    0.0000    
               qyuk:    0.0000    
               qwid:   0.10000E-01
                rcs:    0.0000    
            lambdas:    1.0000    
-------------------------------------------------------------------------------
L=0  Nkbl=1  erefs: 0.17977+309
L=1  Nkbl=1  erefs: 0.17977+309
L=2  Nkbl=1  erefs: 0.17977+309
===============================================================================
</basis_specs>

atom: Called for C-gga                 (Z =   6)

read_vps: Pseudopotential generation method:
read_vps: ATM 3.2.2 Troullier-Martins                       
Valence charge for ps generation:    4.00000

xc_check: Exchange-correlation functional:
xc_check: Ceperley-Alder
xc_check: WARNING: Pseudopotential generated with GGA PBE functional
V l=0 = -2*Zval/r beyond r=  1.5227
V l=1 = -2*Zval/r beyond r=  1.5227
V l=2 = -2*Zval/r beyond r=  1.5227
All V_l potentials equal beyond r=  1.4851
This should be close to max(r_c) in ps generation
All pots = -2*Zval/r beyond r=  1.5227

VLOCAL1: 99.0% of the norm of Vloc inside     19.682 Ry
VLOCAL1: 99.9% of the norm of Vloc inside     44.856 Ry
atom: Maximum radius for 4*pi*r*r*local-pseudopot. charge    1.79142
atom: Maximum radius for r*vlocal+2*Zval:    1.54183
GHOST: No ghost state for L =  0
GHOST: No ghost state for L =  1
GHOST: No ghost state for L =  2

KBgen: Kleinman-Bylander projectors: 
   l= 0   rc=  1.661951   el= -0.994756   Ekb=  5.296364   kbcos=  0.313951
   l= 1   rc=  1.661951   el= -0.376633   Ekb= -4.104879   kbcos= -0.344765
   l= 2   rc=  1.747182   el=  0.002326   Ekb= -1.006421   kbcos= -0.008606

KBgen: Total number of Kleinman-Bylander projectors:    9
atom: -------------------------------------------------------------------------

atom: SANKEY-TYPE ORBITALS:

SPLIT: Orbitals with angular momentum L= 0

SPLIT: Basis orbitals for state 2s

SPLIT: PAO cut-off radius determined from an
SPLIT: energy shift=  0.000735 Ry

   izeta = 1
                 lambda =    1.000000
                     rc =    5.948690
                 energy =   -0.994108
                kinetic =    0.809152
    potential(screened) =   -1.803260
       potential(ionic) =   -5.360717

SPLIT: Orbitals with angular momentum L= 1

SPLIT: Basis orbitals for state 2p

SPLIT: PAO cut-off radius determined from an
SPLIT: energy shift=  0.000735 Ry

   izeta = 1
                 lambda =    1.000000
                     rc =    7.638387
                 energy =   -0.375915
                kinetic =    2.245823
    potential(screened) =   -2.621738
       potential(ionic) =   -5.993382
atom: Total number of Sankey-type orbitals:  4

atm_pop: Valence configuration (for local Pseudopot. screening):
 2s( 2.00)                                                            
 2p( 2.00)                                                            
Vna: chval, zval:    4.00000   4.00000

Vna:  Cut-off radius for the neutral-atom potential:   7.638387

atom: _________________________________________________________________________

prinput: Basis input ----------------------------------------------------------

PAO.BasisType split     

%block ChemicalSpeciesLabel
    1    6 C-gga                   # Species index, atomic number, species label
%endblock ChemicalSpeciesLabel

%block PAO.Basis                 # Define Basis set
C-gga                 2                    # Species label, number of l-shells
 n=2   0   1                         # n, l, Nzeta 
   5.949   
   1.000   
 n=2   1   1                         # n, l, Nzeta 
   7.638   
   1.000   
%endblock PAO.Basis

prinput: ----------------------------------------------------------------------

coor:   Atomic-coordinates input format  =     Cartesian coordinates
coor:                                          (in Angstroms)

siesta: Atomic coordinates (Bohr) and species
siesta:      0.00000   0.00000   2.85344  1        1
siesta:      0.00000   0.00000   8.56032  1        2
siesta:     -2.32814   4.03246   2.85344  1        3
siesta:     -4.65629   8.06493   8.56032  1        4
siesta:      4.65629   8.06493   2.85344  1        5
siesta:      2.32814   4.03246   8.56032  1        6
siesta:      4.65629   0.00000   2.85344  1        7
siesta:      9.31257   0.00000   8.56032  1        8
siesta:      4.65629   0.00000   8.56032  1        9
siesta:      9.31257   0.00000   2.85344  1       10
siesta:      4.65629   8.06493   8.56032  1       11
siesta:      2.32814   4.03246   2.85344  1       12
siesta:     -2.32814   4.03246   8.56032  1       13
siesta:     -4.65629   8.06493   2.85344  1       14
siesta:      0.00000   8.06493   2.85344  1       15
siesta:      6.98443   4.03246   8.56032  1       16
siesta:      6.98443   4.03246   2.85344  1       17
siesta:      0.00000   8.06493   8.56032  1       18
siesta:      0.00000   2.68831   2.85344  1       19
siesta:      6.98443   9.40908   8.56032  1       20
siesta:      4.65629  10.75324   2.85344  1       21
siesta:      2.32814   1.34415   8.56032  1       22
siesta:     -4.65629  10.75324   2.85344  1       23
siesta:     11.64072   1.34415   8.56032  1       24
siesta:     -2.32814   6.72077   2.85344  1       25
siesta:      9.31257   5.37662   8.56032  1       26
siesta:      2.32815   6.72077   2.85344  1       27
siesta:      4.65628   5.37662   8.56032  1       28
siesta:     -0.00000  10.75324   2.85344  1       29
siesta:      6.98443   1.34415   8.56032  1       30
siesta:      4.65629   2.68831   2.85344  1       31
siesta:      2.32814   9.40908   8.56032  1       32
siesta:      9.31258   2.68831   2.85344  1       33
siesta:     -2.32815   9.40908   8.56032  1       34
siesta:      6.98443   6.72077   2.85344  1       35
siesta:      0.00000   5.37662   8.56032  1       36

siesta: System type = bulk      

initatomlists: Number of atoms, orbitals, and projectors:     36   144   324

siesta: ******************** Simulation parameters ****************************
siesta:
siesta: The following are some of the parameters of the simulation.
siesta: A complete list of the parameters used, including default values,
siesta: can be found in file out.fdf
siesta:
redata: Spin configuration                          = none
redata: Number of spin components                   = 1
redata: Time-Reversal Symmetry                      = T
redata: Spin spiral                                 = F
redata: Long output                                 =   F
redata: Number of Atomic Species                    =        1
redata: Charge density info will appear in .RHO file
redata: Write Mulliken Pop.                         = NO
redata: Matel table size (NRTAB)                    =     1024
redata: Mesh Cutoff                                 =   300.0000 Ry
redata: Net charge of the system                    =     0.0000 |e|
redata: Min. number of SCF Iter                     =        0
redata: Max. number of SCF Iter                     =     1000
redata: SCF convergence failure will abort job
redata: SCF mix quantity                            = Hamiltonian
redata: Mix DM or H after convergence               =   F
redata: Recompute H after scf cycle                 =   F
redata: Mix DM in first SCF step                    =   T
redata: Write Pulay info on disk                    =   F
redata: New DM Occupancy tolerance                  = 0.000000000001
redata: No kicks to SCF
redata: DM Mixing Weight for Kicks                  =     0.5000
redata: Require Harris convergence for SCF          =   F
redata: Harris energy tolerance for SCF             =     0.000100 eV
redata: Require DM convergence for SCF              =   T
redata: DM tolerance for SCF                        =     0.001000
redata: Require EDM convergence for SCF             =   F
redata: EDM tolerance for SCF                       =     0.005000 eV
redata: Require H convergence for SCF               =   T
redata: Hamiltonian tolerance for SCF               =     0.001000 eV
redata: Require (free) Energy convergence for SCF   =   T
redata: (free) Energy tolerance for SCF             =     0.001000 eV
redata: Using Saved Data (generic)                  =   F
redata: Use continuation files for DM               =   F
redata: Neglect nonoverlap interactions             =   F
redata: Method of Calculation                       = Diagonalization
redata: Electronic Temperature                      =   299.9869 K
redata: Fix the spin of the system                  =   F
redata: Dynamics option                             = Single-point calculation
mix.SCF: Pulay mixing                            = Pulay
mix.SCF:    Variant                              = stable
mix.SCF:    History steps                        = 4
mix.SCF:    Linear mixing weight                 =     0.250000
mix.SCF:    Mixing weight                        =     0.250000
mix.SCF:    SVD condition                        = 0.1000E-07
redata: ***********************************************************************

%block SCF.Mixers
  Pulay
%endblock SCF.Mixers

%block SCF.Mixer.Pulay
  # Mixing method
  method pulay
  variant stable

  # Mixing options
  weight 0.2500
  weight.linear 0.2500
  history 4
%endblock SCF.Mixer.Pulay

DM_history_depth set to one: no extrapolation allowed by default for geometry relaxation
Size of DM history Fstack: 1
Total number of electrons:   144.000000
Total ionic charge:   144.000000

* ProcessorY, Blocksize:    2   1


* Orbital distribution balance (max,min):    15    14

k-point displ. along   1 input, could be:     0.00    0.50
k-point displ. along   2 input, could be:     0.00    0.50
k-point displ. along   3 input, could be:     0.00    0.50
 Kpoints in:            8 . Kpoints trimmed:            8

siesta: k-grid: Number of k-points =     8
siesta: k-grid: Cutoff (effective) =     6.040 Ang
siesta: k-grid: Supercell and displacements
siesta: k-grid:    2   0   0      0.000
siesta: k-grid:    0   2   0      0.000
siesta: k-grid:    0   0   2      0.000

diag: Algorithm                                     = Expert
diag: Parallel over k                               =   T
diag: Use parallel 2D distribution                  =   T
diag: Parallel block-size                           = 1
diag: Parallel distribution                         =     2 x     5
diag: Used triangular part                          = Lower
diag: Absolute tolerance                            =  0.100E-15
diag: Orthogonalization factor                      =  0.100E-05
diag: Memory factor                                 =  1.0000

superc: Internal auxiliary supercell:     5 x     5 x     3  =      75
superc: Number of atoms, orbitals, and projectors:   2700  10800  24300


ts: **************************************************************
ts: Save H and S matrices                           =    F
ts: Save DM and EDM matrices                        =    F
ts: Only save the overlap matrix S                  =    F
ts: **************************************************************

************************ Begin: TS CHECKS AND WARNINGS ************************
************************ End: TS CHECKS AND WARNINGS **************************


                     ====================================
                        Single-point calculation
                     ====================================

outcoor: Atomic coordinates (Ang):                          
    0.00000000    0.00000000    1.50997500   1       1  C-gga
    0.00000000    0.00000000    4.52992500   1       2  C-gga
   -1.23200000    2.13388659    1.50997500   1       3  C-gga
   -2.46400000    4.26777319    4.52992500   1       4  C-gga
    2.46400000    4.26777319    1.50997500   1       5  C-gga
    1.23200000    2.13388659    4.52992500   1       6  C-gga
    2.46400000    0.00000000    1.50997500   1       7  C-gga
    4.92800000    0.00000000    4.52992500   1       8  C-gga
    2.46400000    0.00000000    4.52992500   1       9  C-gga
    4.92800000    0.00000000    1.50997500   1      10  C-gga
    2.46400000    4.26777319    4.52992500   1      11  C-gga
    1.23200000    2.13388659    1.50997500   1      12  C-gga
   -1.23200000    2.13388659    4.52992500   1      13  C-gga
   -2.46400000    4.26777319    1.50997500   1      14  C-gga
    0.00000000    4.26777319    1.50997500   1      15  C-gga
    3.69600000    2.13388659    4.52992500   1      16  C-gga
    3.69600000    2.13388659    1.50997500   1      17  C-gga
    0.00000000    4.26777319    4.52992500   1      18  C-gga
    0.00000000    1.42258964    1.50997500   1      19  C-gga
    3.69600000    4.97907014    4.52992500   1      20  C-gga
    2.46400123    5.69036496    1.50997500   1      21  C-gga
    1.23199877    0.71129482    4.52992500   1      22  C-gga
   -2.46400123    5.69036496    1.50997500   1      23  C-gga
    6.16000123    0.71129482    4.52992500   1      24  C-gga
   -1.23200000    3.55647624    1.50997500   1      25  C-gga
    4.92800000    2.84518355    4.52992500   1      26  C-gga
    1.23200123    3.55647837    1.50997500   1      27  C-gga
    2.46399877    2.84518142    4.52992500   1      28  C-gga
   -0.00000123    5.69036496    1.50997500   1      29  C-gga
    3.69600123    0.71129482    4.52992500   1      30  C-gga
    2.46400000    1.42258964    1.50997500   1      31  C-gga
    1.23200000    4.97907014    4.52992500   1      32  C-gga
    4.92800123    1.42259177    1.50997500   1      33  C-gga
   -1.23200123    4.97906801    4.52992500   1      34  C-gga
    3.69599877    3.55647837    1.50997500   1      35  C-gga
    0.00000123    2.84518142    4.52992500   1      36  C-gga

superc: Internal auxiliary supercell:     5 x     5 x     3  =      75
superc: Number of atoms, orbitals, and projectors:   2700  10800  24300

outcell: Unit cell vectors (Ang):
        7.392000    0.000000    0.000000
       -3.696000    6.401660    0.000000
        0.000000    0.000000    6.039900

outcell: Cell vector modules (Ang)   :    7.392000    7.392000    6.039900
outcell: Cell angles (23,13,12) (deg):     90.0000     90.0000    120.0000
outcell: Cell volume (Ang**3)        :    285.8145
<dSpData1D:S at geom step 0
  <sparsity:sparsity for geom step 0
    nrows_g=144 nrows=15 sparsity=.9727 nnzs=20170, refcount: 7>
  <dData1D:(new from dSpData1D) n=20170, refcount: 1>
refcount: 1>
new_DM -- step:     1
Initializing Density Matrix...
DM filled with atomic data:
<dSpData2D:DM initialized from atoms
  <sparsity:sparsity for geom step 0
    nrows_g=144 nrows=15 sparsity=.9727 nnzs=20170, refcount: 8>
  <dData2D:DM n=20170 m=1, refcount: 1>
refcount: 1>
No. of atoms with KB's overlaping orbs in proc 0. Max # of overlaps:     249     268
New grid distribution:   1
           1       1:   36    1:   18    1:    7
           2       1:   36    1:   18    8:   14
           3       1:   36    1:   18   15:   20
           4       1:   36    1:   18   21:   26
           5       1:   36    1:   18   27:   32
           6       1:   36   19:   36    1:    7
           7       1:   36   19:   36    8:   14
           8       1:   36   19:   36   15:   20
           9       1:   36   19:   36   21:   26
          10       1:   36   19:   36   27:   32

InitMesh: MESH =    72 x    72 x    64 =      331776
InitMesh: (bp) =    36 x    36 x    32 =       41472
InitMesh: Mesh cutoff (required, used) =   300.000   310.315 Ry
ExtMesh (bp) on 0 =   128 x   110 x    95 =     1337600
New grid distribution:   2
           1       1:   15    1:   18    1:   16
           2      16:   36   28:   36   12:   32
           3      16:   36   10:   18   12:   32
           4       1:   15    1:   18   17:   32
           5      16:   36    1:    9   12:   32
           6       1:   15   19:   36    1:   16
           7      16:   36   19:   36    1:   11
           8      16:   36   19:   27   12:   32
           9       1:   15   19:   36   17:   32
          10      16:   36    1:   18    1:   11
New grid distribution:   3
           1       1:   15    1:   18    1:   16
           2      16:   36   28:   36   12:   32
           3      16:   36   10:   18   12:   32
           4       1:   15    1:   18   17:   32
           5      16:   36    1:    9   12:   32
           6       1:   15   19:   36    1:   16
           7      16:   36   19:   36    1:   11
           8      16:   36   19:   27   12:   32
           9       1:   15   19:   36   17:   32
          10      16:   36    1:   18    1:   11
Setting up quadratic distribution...
ExtMesh (bp) on 0 =   107 x   110 x   104 =     1224080
PhiOnMesh: Number of (b)points on node 0 =                 4320
PhiOnMesh: nlist on node 0 =               554055

stepf: Fermi-Dirac step function

siesta: Program's energy decomposition (eV):
siesta: Ebs     =     -2549.985030
siesta: Eions   =      9434.507561
siesta: Ena     =      2264.420487
siesta: Ekin    =      3660.990537
siesta: Enl     =      -346.529218
siesta: Eso     =         0.000000
siesta: Edftu   =         0.000000
siesta: DEna    =       -19.976673
siesta: DUscf   =         2.666530
siesta: DUext   =         0.000000
siesta: Exc     =     -1643.193960
siesta: eta*DQ  =         0.000000
siesta: Emadel  =         0.000000
siesta: Emeta   =         0.000000
siesta: Emolmec =         0.000000
siesta: Ekinion =         0.000000
siesta: Eharris =     -5358.401497
siesta: Etot    =     -5516.129859
siesta: FreeEng =     -5516.176856

        iscf     Eharris(eV)        E_KS(eV)     FreeEng(eV)     dDmax    Ef(eV) dHmax(eV)
   scf:    1    -5358.401497    -5516.129859    -5516.176856  1.337243 -8.432244  0.285786
timer: Routine,Calls,Time,% = IterSCF        1       2.157  52.85
   scf:    2    -5516.143930    -5516.139968    -5516.186746  0.010379 -8.381512  0.199031
   scf:    3    -5516.145404    -5516.144004    -5516.190247  0.008114 -8.249910  0.027981
   scf:    4    -5516.147012    -5516.146454    -5516.192638  0.005551 -8.238848  0.000671
   scf:    5    -5516.146462    -5516.146459    -5516.192637  0.000199 -8.239401  0.000567

SCF Convergence by FreeE+DM+H criterion
|FreeE_i-FreeE_(i-1)| (eV) <     0.00100000
max |DM_out - DM_in|         :     0.0001991319
max |H_out - H_in|      (eV) :     0.0005673640
SCF cycle converged after 5 iterations

Using DM_out to compute the final energy and forces
No. of atoms with KB's overlaping orbs in proc 0. Max # of overlaps:     249     268

siesta: E_KS(eV) =            -5516.1465

siesta: E_KS - E_eggbox =     -5516.1465

siesta: Atomic forces (eV/Ang):
     1   -0.000000   -0.000000   -0.000000
     2    0.000000   -0.000000   -0.000000
     3    0.000073   -0.000055   -0.000000
     4   -0.000073    0.000055   -0.000000
     5    0.000012    0.000091   -0.000000
     6   -0.000011   -0.000090   -0.000000
     7   -0.000084   -0.000036   -0.000000
     8    0.000084    0.000035   -0.000000
     9   -0.000015   -0.000013   -0.000000
    10    0.000015    0.000013   -0.000000
    11   -0.000004    0.000020   -0.000000
    12    0.000004   -0.000019   -0.000000
    13    0.000019   -0.000006   -0.000000
    14   -0.000019    0.000007   -0.000000
    15   -0.000000   -0.000000   -0.000000
    16    0.000000    0.000000   -0.000000
    17   -0.000000    0.000000   -0.000000
    18    0.000000   -0.000000   -0.000000
    19    0.000006    0.000128    0.000000
    20   -0.000006   -0.000128    0.000000
    21   -0.000114   -0.000059    0.000000
    22    0.000114    0.000059    0.000000
    23    0.000108   -0.000069    0.000000
    24   -0.000108    0.000069    0.000000
    25    0.000009    0.000111    0.000000
    26   -0.000009   -0.000112    0.000000
    27   -0.000101   -0.000049    0.000000
    28    0.000101    0.000048    0.000000
    29    0.000092   -0.000063    0.000000
    30   -0.000092    0.000064    0.000000
    31    0.000009    0.000112    0.000000
    32   -0.000009   -0.000112    0.000000
    33   -0.000102   -0.000048    0.000000
    34    0.000102    0.000048    0.000000
    35    0.000092   -0.000065    0.000000
    36   -0.000092    0.000064    0.000000
----------------------------------------
   Tot    0.000000    0.000000    0.000000
----------------------------------------
   Max    0.000128
   Res    0.000053    sqrt( Sum f_i^2 / 3N )
----------------------------------------
   Max    0.000128    constrained

Stress tensor Voigt[x,y,z,yz,xz,xy] (kbar):     -409.94     -409.94      225.50       -0.00        0.00        0.00
(Free)E + p*V (eV/cell)    -5480.8492
Target enthalpy (eV/cell)    -5516.1926

siesta: Eigenvalues (eV):
  ik is       eps
   1  1  -28.1083  -27.8195  -25.2653  -25.2653  -25.2653  -25.2653  -25.2653  -25.2653  -25.2176  -25.2176
         -25.2176  -25.2176  -25.2176  -25.2176  -21.4225  -21.4225  -21.3554  -21.3554  -21.3554  -21.3554
  -21.3179  -21.3179  -18.8924  -18.8924  -18.8924  -18.8924  -18.5374  -18.5374  -18.5374  -18.5374
  -18.5374  -18.5374  -18.3840  -18.3840  -18.3840  -18.3840  -18.3840  -18.3840  -15.9335  -15.0681
  -15.0681  -15.0681  -15.0681  -15.0681  -15.0681  -14.9525  -14.9525  -14.9525  -14.9525  -14.9525
  -14.9525  -13.9493  -13.5423  -13.5423  -13.5423  -13.5423  -13.5423  -13.5423  -12.4265  -12.4265
  -12.3993  -12.3993  -11.4259  -11.4259  -11.4259  -11.4259  -11.4259  -11.4259   -9.2139   -9.2139
   -8.2676   -8.2676   -8.2676   -8.2676   -7.1319   -7.1319   -3.3624   -3.3624   -3.3623   -3.3623
   -3.3623   -3.3623   -2.4084   -2.4084   -2.4084   -2.4084   -2.4084   -2.4084    0.7399    0.7399
    0.7924    0.7924    0.8829    0.8829    0.8829    0.8829    0.8829    0.8829    1.3608    1.3608
    1.3608    1.3608    1.3608    1.3608    2.4657    2.8375    4.2192    4.4151    7.3795    7.3795
    7.4048    7.4048    7.4048    7.4048    7.4504    7.4504    8.7067    8.7067    8.7067    8.7067
    8.7067    8.7068    8.7766    8.7766    8.7766    8.7766    8.7766    8.7767   10.3444   10.3444
   10.3444   10.3444   10.3444   10.3444   10.4534   10.4534   10.4534   10.4534   10.4534   10.4534
   15.2720   15.2720   15.2720   15.2720
   2  1  -27.3511  -27.3511  -27.1380  -27.1380  -25.9247  -25.9247  -25.8363  -25.8363  -23.5149  -23.5149
         -23.5149  -23.5149  -23.5000  -23.5000  -23.5000  -23.5000  -22.9912  -22.9316  -21.4442  -21.3217
  -20.1064  -20.1064  -20.1064  -20.1064  -20.0304  -20.0304  -20.0304  -20.0304  -17.0424  -17.0424
  -17.0424  -17.0424  -16.9415  -16.9415  -16.9196  -16.9196  -16.9196  -16.9196  -16.8523  -16.8523
  -15.6473  -15.5416  -15.5416  -15.5312  -15.4127  -15.4127  -15.3432  -15.3432  -14.6381  -14.6381
  -14.5020  -14.5020  -14.1441  -14.1441  -13.5435  -13.5435  -13.4514  -13.4514  -13.2982  -13.2982
  -12.0073  -12.0073  -11.7013  -11.7013  -11.7013  -11.7013  -11.2006  -10.2319   -9.8776   -9.8776
   -9.8776   -9.8776   -6.0401   -5.8698   -5.8698   -5.8698   -5.8698   -5.4533   -4.9479   -4.9479
   -4.9479   -4.9479   -2.0291   -2.0291   -1.3801   -1.3801    0.6169    0.7702    0.7702    1.1263
    1.1952    1.1952    1.2430    1.2430    1.4182    1.4182    3.3765    3.3766    3.3766    3.3766
    3.5231    3.5231    3.5829    3.5829    3.7355    3.7355    3.7355    3.7356    3.7965    3.7965
    3.8925    3.8925    4.1213    4.1213    4.2342    4.2342    5.8163    5.8163    6.0088    6.0088
    8.7580    8.7580    8.7580    8.7580    8.9018    8.9019    8.9019    8.9019   10.0318   10.0318
   10.1089   10.1089   11.2677   11.3061   13.1753   13.3733   13.8542   13.8543   13.8543   13.8543
   13.8804   13.8804   13.8804   13.8804
   3  1  -27.3511  -27.3511  -27.1380  -27.1380  -25.9247  -25.9247  -25.8363  -25.8363  -23.5149  -23.5149
         -23.5149  -23.5149  -23.5000  -23.5000  -23.5000  -23.5000  -22.9912  -22.9316  -21.4442  -21.3217
  -20.1064  -20.1064  -20.1064  -20.1064  -20.0304  -20.0304  -20.0304  -20.0304  -17.0424  -17.0424
  -17.0424  -17.0424  -16.9415  -16.9415  -16.9196  -16.9196  -16.9196  -16.9196  -16.8523  -16.8523
  -15.6473  -15.5416  -15.5416  -15.5312  -15.4127  -15.4127  -15.3432  -15.3432  -14.6381  -14.6381
  -14.5020  -14.5020  -14.1441  -14.1441  -13.5435  -13.5435  -13.4514  -13.4514  -13.2982  -13.2982
  -12.0073  -12.0073  -11.7013  -11.7013  -11.7013  -11.7013  -11.2006  -10.2319   -9.8776   -9.8776
   -9.8776   -9.8776   -6.0401   -5.8698   -5.8698   -5.8698   -5.8698   -5.4533   -4.9479   -4.9479
   -4.9479   -4.9479   -2.0291   -2.0291   -1.3801   -1.3801    0.6169    0.7702    0.7702    1.1263
    1.1952    1.1952    1.2430    1.2430    1.4182    1.4182    3.3765    3.3766    3.3766    3.3766
    3.5231    3.5231    3.5829    3.5829    3.7355    3.7355    3.7355    3.7356    3.7965    3.7965
    3.8925    3.8925    4.1213    4.1213    4.2342    4.2342    5.8163    5.8163    6.0088    6.0088
    8.7580    8.7580    8.7580    8.7580    8.9018    8.9019    8.9019    8.9019   10.0318   10.0318
   10.1089   10.1089   11.2677   11.3061   13.1753   13.3733   13.8542   13.8543   13.8543   13.8543
   13.8804   13.8804   13.8804   13.8804
   4  1  -27.3511  -27.3511  -27.1380  -27.1380  -25.9247  -25.9247  -25.8363  -25.8363  -23.5149  -23.5149
         -23.5149  -23.5149  -23.5000  -23.5000  -23.5000  -23.5000  -22.9912  -22.9316  -21.4442  -21.3217
  -20.1064  -20.1064  -20.1064  -20.1064  -20.0304  -20.0304  -20.0304  -20.0304  -17.0424  -17.0424
  -17.0424  -17.0424  -16.9415  -16.9415  -16.9196  -16.9196  -16.9196  -16.9196  -16.8523  -16.8523
  -15.6473  -15.5416  -15.5416  -15.5312  -15.4127  -15.4127  -15.3432  -15.3432  -14.6381  -14.6381
  -14.5020  -14.5020  -14.1441  -14.1441  -13.5435  -13.5435  -13.4514  -13.4514  -13.2982  -13.2982
  -12.0073  -12.0073  -11.7013  -11.7013  -11.7013  -11.7013  -11.2006  -10.2319   -9.8776   -9.8776
   -9.8776   -9.8776   -6.0401   -5.8698   -5.8698   -5.8698   -5.8698   -5.4533   -4.9479   -4.9479
   -4.9479   -4.9479   -2.0291   -2.0291   -1.3801   -1.3801    0.6169    0.7702    0.7702    1.1263
    1.1952    1.1952    1.2430    1.2430    1.4182    1.4182    3.3765    3.3766    3.3766    3.3766
    3.5231    3.5231    3.5829    3.5829    3.7355    3.7355    3.7355    3.7356    3.7965    3.7965
    3.8925    3.8925    4.1213    4.1213    4.2342    4.2342    5.8163    5.8163    6.0088    6.0088
    8.7580    8.7580    8.7580    8.7580    8.9018    8.9019    8.9019    8.9019   10.0318   10.0318
   10.1089   10.1089   11.2677   11.3061   13.1753   13.3733   13.8542   13.8543   13.8543   13.8543
   13.8804   13.8804   13.8804   13.8804
   5  1  -28.0058  -28.0058  -25.2651  -25.2651  -25.2651  -25.2651  -25.2651  -25.2651  -25.2651  -25.2651
         -25.2651  -25.2651  -25.2651  -25.2651  -21.3742  -21.3742  -21.3741  -21.3741  -21.3468  -21.3468
  -21.3467  -21.3467  -18.8950  -18.8950  -18.8949  -18.8949  -18.4677  -18.4677  -18.4677  -18.4677
  -18.4677  -18.4677  -18.4677  -18.4677  -18.4677  -18.4677  -18.4677  -18.4677  -15.0124  -15.0124
  -15.0099  -15.0099  -15.0099  -15.0099  -15.0099  -15.0099  -15.0099  -15.0099  -15.0099  -15.0099
  -15.0099  -15.0099  -12.6167  -12.6167  -12.6167  -12.6167  -12.6167  -12.6167  -12.6167  -12.6167
  -12.6167  -12.6167  -12.6167  -12.6167  -12.4125  -12.4125  -12.4124  -12.4124   -8.2423   -8.2423
   -8.2423   -8.2423   -8.2072   -8.2072   -8.2071   -8.2071   -2.9201   -2.9201   -2.9201   -2.9201
   -2.9201   -2.9201   -2.9201   -2.9201   -2.9201   -2.9201   -2.9201   -2.9201    0.7666    0.7666
    0.7666    0.7666    1.1618    1.1618    1.1618    1.1618    1.1618    1.1618    1.1618    1.1618
    1.1618    1.1619    1.1619    1.1619    2.6356    2.6356    4.3348    4.3348    7.4103    7.4103
    7.4103    7.4103    7.4187    7.4188    7.4188    7.4188    8.7414    8.7414    8.7414    8.7414
    8.7414    8.7414    8.7414    8.7414    8.7414    8.7414    8.7414    8.7414   10.4272   10.4272
   10.4272   10.4273   10.4273   10.4273   10.4273   10.4273   10.4273   10.4273   10.4273   10.4273
   15.2713   15.2713   15.2713   15.2713
   6  1  -27.2827  -27.2827  -27.2826  -27.2826  -25.9097  -25.9097  -25.9097  -25.9097  -23.5150  -23.5150
         -23.5150  -23.5150  -23.5150  -23.5150  -23.5150  -23.5149  -22.9613  -22.9613  -21.3922  -21.3922
  -20.0704  -20.0704  -20.0704  -20.0704  -20.0704  -20.0704  -20.0704  -20.0704  -16.9836  -16.9836
  -16.9836  -16.9836  -16.9836  -16.9836  -16.9836  -16.9836  -16.8959  -16.8959  -16.8958  -16.8958
  -15.5889  -15.5889  -15.4890  -15.4890  -15.4890  -15.4890  -14.5937  -14.5937  -14.5937  -14.5937
  -14.4168  -14.4168  -14.4168  -14.4168  -13.4969  -13.4969  -13.4969  -13.4969  -13.2203  -13.2203
  -13.2203  -13.2203  -10.8266  -10.8266  -10.8266  -10.8266  -10.8266  -10.8266  -10.8266  -10.8266
  -10.5851  -10.5851   -6.0092   -6.0092   -5.4687   -5.4687   -5.4687   -5.4687   -5.4687   -5.4687
   -5.4687   -5.4687   -1.7199   -1.7198   -1.7198   -1.7198    0.8980    0.8981    0.9295    0.9295
    0.9295    0.9295    1.4134    1.4135    1.4135    1.4135    3.5527    3.5527    3.5527    3.5527
    3.5747    3.5747    3.5747    3.5747    3.5747    3.5747    3.5747    3.5747    3.9081    3.9081
    3.9081    3.9081    4.1866    4.1866    4.1867    4.1867    5.9286    5.9286    5.9286    5.9286
    8.8379    8.8379    8.8379    8.8379    8.8379    8.8379    8.8379    8.8379   10.0713   10.0713
   10.0714   10.0714   11.2875   11.2875   13.2676   13.2676   13.8679   13.8679   13.8679   13.8679
   13.8679   13.8679   13.8679   13.8679
   7  1  -27.2827  -27.2827  -27.2826  -27.2826  -25.9097  -25.9097  -25.9097  -25.9097  -23.5150  -23.5150
         -23.5150  -23.5150  -23.5150  -23.5150  -23.5150  -23.5149  -22.9613  -22.9613  -21.3922  -21.3922
  -20.0704  -20.0704  -20.0704  -20.0704  -20.0704  -20.0704  -20.0704  -20.0704  -16.9836  -16.9836
  -16.9836  -16.9836  -16.9836  -16.9836  -16.9836  -16.9836  -16.8959  -16.8959  -16.8958  -16.8958
  -15.5889  -15.5889  -15.4890  -15.4890  -15.4890  -15.4890  -14.5937  -14.5937  -14.5937  -14.5937
  -14.4168  -14.4168  -14.4168  -14.4168  -13.4969  -13.4969  -13.4969  -13.4969  -13.2203  -13.2203
  -13.2203  -13.2203  -10.8266  -10.8266  -10.8266  -10.8266  -10.8266  -10.8266  -10.8266  -10.8266
  -10.5851  -10.5851   -6.0092   -6.0092   -5.4687   -5.4687   -5.4687   -5.4687   -5.4687   -5.4687
   -5.4687   -5.4687   -1.7199   -1.7198   -1.7198   -1.7198    0.8980    0.8981    0.9295    0.9295
    0.9295    0.9295    1.4134    1.4135    1.4135    1.4135    3.5527    3.5527    3.5527    3.5527
    3.5747    3.5747    3.5747    3.5747    3.5747    3.5747    3.5747    3.5747    3.9081    3.9081
    3.9081    3.9081    4.1866    4.1866    4.1867    4.1867    5.9286    5.9286    5.9286    5.9286
    8.8379    8.8379    8.8379    8.8379    8.8379    8.8379    8.8379    8.8379   10.0713   10.0713
   10.0714   10.0714   11.2875   11.2875   13.2676   13.2676   13.8679   13.8679   13.8679   13.8679
   13.8679   13.8679   13.8679   13.8679
   8  1  -27.2827  -27.2827  -27.2826  -27.2826  -25.9097  -25.9097  -25.9097  -25.9097  -23.5150  -23.5150
         -23.5150  -23.5150  -23.5150  -23.5150  -23.5150  -23.5149  -22.9613  -22.9613  -21.3922  -21.3922
  -20.0704  -20.0704  -20.0704  -20.0704  -20.0704  -20.0704  -20.0704  -20.0704  -16.9836  -16.9836
  -16.9836  -16.9836  -16.9836  -16.9836  -16.9836  -16.9836  -16.8959  -16.8959  -16.8958  -16.8958
  -15.5889  -15.5889  -15.4890  -15.4890  -15.4890  -15.4890  -14.5937  -14.5937  -14.5937  -14.5937
  -14.4168  -14.4168  -14.4168  -14.4168  -13.4969  -13.4969  -13.4969  -13.4969  -13.2203  -13.2203
  -13.2203  -13.2203  -10.8266  -10.8266  -10.8266  -10.8266  -10.8266  -10.8266  -10.8266  -10.8266
  -10.5851  -10.5851   -6.0092   -6.0092   -5.4687   -5.4687   -5.4687   -5.4687   -5.4687   -5.4687
   -5.4687   -5.4687   -1.7199   -1.7198   -1.7198   -1.7198    0.8980    0.8981    0.9295    0.9295
    0.9295    0.9295    1.4134    1.4135    1.4135    1.4135    3.5527    3.5527    3.5527    3.5527
    3.5747    3.5747    3.5747    3.5747    3.5747    3.5747    3.5747    3.5747    3.9081    3.9081
    3.9081    3.9081    4.1866    4.1866    4.1867    4.1867    5.9286    5.9286    5.9286    5.9286
    8.8379    8.8379    8.8379    8.8379    8.8379    8.8379    8.8379    8.8379   10.0713   10.0713
   10.0714   10.0714   11.2875   11.2875   13.2676   13.2676   13.8679   13.8679   13.8679   13.8679
   13.8679   13.8679   13.8679   13.8679
siesta: Fermi energy =      -8.239401 eV

siesta: Program's energy decomposition (eV):
siesta: Ebs     =     -2550.693117
siesta: Eions   =      9434.507561
siesta: Ena     =      2264.420487
siesta: Ekin    =      3659.703524
siesta: Enl     =      -346.496495
siesta: Eso     =         0.000000
siesta: Edftu   =         0.000000
siesta: DEna    =       -18.909835
siesta: DUscf   =         2.617377
siesta: DUext   =         0.000000
siesta: Exc     =     -1642.973956
siesta: eta*DQ  =         0.000000
siesta: Emadel  =         0.000000
siesta: Emeta   =         0.000000
siesta: Emolmec =         0.000000
siesta: Ekinion =         0.000000
siesta: Eharris =     -5516.146462
siesta: Etot    =     -5516.146459
siesta: FreeEng =     -5516.192637

siesta: Final energy (eV):
siesta:  Band Struct. =   -2550.693117
siesta:       Kinetic =    3659.703524
siesta:       Hartree =    1004.938890
siesta:       Edftu   =       0.000000
siesta:       Eso     =       0.000000
siesta:    Ext. field =       0.000000
siesta:   Exch.-corr. =   -1642.973956
siesta:  Ion-electron =   -6072.859751
siesta:       Ion-ion =   -2464.955165
siesta:       Ekinion =       0.000000
siesta:         Total =   -5516.146459
siesta:         Fermi =      -8.239401

siesta: Stress tensor (static) (eV/Ang**3):
siesta:    -0.255860    0.000000    0.000000
siesta:     0.000000   -0.255860    0.000000
siesta:     0.000000   -0.000000    0.140744

siesta: Cell volume =        285.814525 Ang**3

siesta: Pressure (static):
siesta:                Solid            Molecule  Units
siesta:           0.00134680          0.00134683  Ry/Bohr**3
siesta:           0.12365862          0.12366157  eV/Ang**3
siesta:         198.12508936        198.12982481  kBar
(Free)E+ p_basis*V_orbitals  =       -5497.889591
(Free)Eharris+ p_basis*V_orbitals  =       -5497.889594

cite: Please see "graphite_scf.bib" for an exhaustive BiBTeX file.
cite: Please clearly indicate Siesta version in published work: 4.1.5
cite: This calculation has made use of the following articles
cite: which are encouraged to be cited in a published work.
        Primary SIESTA paper
          DOI: www.doi.org/10.1088/0953-8984/14/11/302

>> End of run:  28-OCT-2022  14:38:56
Job completed
