Siesta Version  : 4.1.5
Architecture    : x86_64-unknown-linux-gnu--unknown
Compiler version: GNU Fortran (GCC) 11.3.0
Compiler flags  : mpif90 -g -O2 -fallow-argument-mismatch
PP flags        : -DMPI -DFC_HAVE_FLUSH -DFC_HAVE_ABORT
Libraries       :  -I/global/software/sl-7.x86_64/modules/intel/2020.4.304/mkl/include  /globall/software/sl-7.x86_64/modules/intel/2020.4.304/mkl/lib/intel64/libmkl_scalapack_lp64.a -Wl,--start-group /global/software/sl-7.x86_64/modules/intel/2020.4.304/mkl/lib/intel64/libmkl_intel_lp64.a /global/software/sl-7.x86_64/modules/intel/2020.4.304/mkl/lib/intel64/libmkl_sequential.a /global/software/sl-7.x86_64/modules/intel/2020.4.304/mkl/lib/intel64/libmkl_core.a /global/software/sl-7.x86_64/modules/intel/2020.4.304/mkl/lib/intel64/libmkl_blacs_openmpi_lp64.a -Wl,--end-group -lpthread -lm -ldl
PARALLEL version

* Running on 10 nodes in parallel
>> Start of run:  28-OCT-2022  14:38:12

                           ***********************       
                           *  WELCOME TO SIESTA  *       
                           ***********************       

reinit: Reading from standard input
reinit: Dumped input in INPUT_TMP.27536
************************** Dump of input data file ****************************
SystemName graphite_scf
SystemLabel graphite_scf
NumberOfAtoms   36
NumberOfSpecies 1
%block ChemicalSpeciesLabel
1  6   C-gga
%endblock ChemicalSpeciesLabel
PAO.BasisSize  SZ
PAO.EnergyShift  10 meV
%block PS.Lmax
C-gga   2
%endblock PS.Lmax
LatticeConstant 1.000000 Ang
%block LatticeVectors
	7.3920000000	0.0000000000	0.0000000000
	-3.6960000000	6.4016597848	0.0000000000
	0.0000000000	0.0000000000	5.5030200000
%endblock LatticeVectors
AtomicCoordinatesFormat Ang
%block AtomicCoordinatesAndAtomicSpecies
	0.00000000	0.00000000	1.37575500	1
	0.00000000	0.00000000	4.12726500	1
	-1.23200000	2.13388659	1.37575500	1
	-2.46400000	4.26777319	4.12726500	1
	2.46400000	4.26777319	1.37575500	1
	1.23200000	2.13388659	4.12726500	1
	2.46400000	0.00000000	1.37575500	1
	4.92800000	0.00000000	4.12726500	1
	2.46400000	0.00000000	4.12726500	1
	4.92800000	0.00000000	1.37575500	1
	2.46400000	4.26777319	4.12726500	1
	1.23200000	2.13388659	1.37575500	1
	-1.23200000	2.13388659	4.12726500	1
	-2.46400000	4.26777319	1.37575500	1
	0.00000000	4.26777319	1.37575500	1
	3.69600000	2.13388659	4.12726500	1
	3.69600000	2.13388659	1.37575500	1
	0.00000000	4.26777319	4.12726500	1
	0.00000000	1.42258964	1.37575500	1
	3.69600000	4.97907014	4.12726500	1
	2.46400123	5.69036496	1.37575500	1
	1.23199877	0.71129482	4.12726500	1
	-2.46400123	5.69036496	1.37575500	1
	6.16000123	0.71129482	4.12726500	1
	-1.23200000	3.55647624	1.37575500	1
	4.92800000	2.84518355	4.12726500	1
	1.23200123	3.55647837	1.37575500	1
	2.46399877	2.84518142	4.12726500	1
	-0.00000123	5.69036496	1.37575500	1
	3.69600123	0.71129482	4.12726500	1
	2.46400000	1.42258964	1.37575500	1
	1.23200000	4.97907014	4.12726500	1
	4.92800123	1.42259177	1.37575500	1
	-1.23200123	4.97906801	4.12726500	1
	3.69599877	3.55647837	1.37575500	1
	0.00000123	2.84518142	4.12726500	1
%endblock AtomicCoordinatesAndAtomicSpecies
Kgrid_NoTRS  T
%block kgrid_MonkhorstPack
2       0       0       0.0
0       2       0       0.0
0       0       2       0.0
%endblock kgrid_MonkhorstPack
AtomCoorFormatOut Ang
BlockSize 1
#ProcessorY 12
Diag.ParallelOverK   T
Diag.DivideAndConquer F
MeshCutoff   300 Ry
SCF.FreeE.Tolerance 1E-3 eV
SCF.EDM.Tolerance   5E-3 eV
DM.Tolerance  1E-3
DM.Require.Energy.Convergence T
DM.NumberPulay 4
#XC.Functional GGA
#CX.Authors    PBE
UseSaveData        F
SolutionMethod     diagon
MD.TypeOfRun       CG
MD.VariableCell    F
MD.NumCGsteps      00
MD.MaxCGDispl      0.200000 Bohr
#MD.MaxStressTol    1.000000 GPa
#MD.MaxForceTol     0.010000 eV/Ang
WriteMDHistory T
WriteCoorStep T
WriteForces T
WriteCoorStep    T
WriteEigenValues T
WriteDM    F
MM.UnitsDistance Ang  # what this program prints out DO NOT CHANGE
MM.UnitsEnergy    eV  # what this program prints out DO NOT CHANGE
# MM.Grimme.S6     0.75 # Grimme-paper for PBE (correct for your functional)
# MM.Grimme.D     20.   # Grimme-paper (correct for your functional)
# %block MM.Potentials
#   1   1 Grimme     18.14      2.904 # C, 10.1002/jcc.20495
# %endblock MM.Potentials
#%block ProjectedDensityOfStates
# -200.0  120.0  0.4  12800  eV
#%endblock ProjectedDensityOfStates
************************** End of input data file *****************************

reinit: -----------------------------------------------------------------------
reinit: System Name: graphite_scf
reinit: -----------------------------------------------------------------------
reinit: System Label: graphite_scf
reinit: -----------------------------------------------------------------------

initatom: Reading input for the pseudopotentials and atomic orbitals ----------
Species number:   1 Atomic number:    6 Label: C-gga

Ground state valence configuration:   2s02  2p02
Reading pseudopotential information in formatted form from C-gga.psf

Valence configuration for pseudopotential generation:
2s( 2.00) rc: 1.56
2p( 2.00) rc: 1.56
3d( 0.00) rc: 1.56
4f( 0.00) rc: 1.56
relmxkb: Read Max KB Ang. Momentum=    2 for species C-gga

<basis_specs>
===============================================================================
C-gga                Z=   6    Mass=  12.010        Charge= 0.17977+309
Lmxo=1 Lmxkb= 2    BasisType=split      Semic=F
L=0  Nsemic=0  Cnfigmx=2
          i=1  nzeta=1  polorb=0  (2s)
            splnorm:   0.15000    
               vcte:    0.0000    
               rinn:    0.0000    
               qcoe:    0.0000    
               qyuk:    0.0000    
               qwid:   0.10000E-01
                rcs:    0.0000    
            lambdas:    1.0000    
L=1  Nsemic=0  Cnfigmx=2
          i=1  nzeta=1  polorb=0  (2p)
            splnorm:   0.15000    
               vcte:    0.0000    
               rinn:    0.0000    
               qcoe:    0.0000    
               qyuk:    0.0000    
               qwid:   0.10000E-01
                rcs:    0.0000    
            lambdas:    1.0000    
-------------------------------------------------------------------------------
L=0  Nkbl=1  erefs: 0.17977+309
L=1  Nkbl=1  erefs: 0.17977+309
L=2  Nkbl=1  erefs: 0.17977+309
===============================================================================
</basis_specs>

atom: Called for C-gga                 (Z =   6)

read_vps: Pseudopotential generation method:
read_vps: ATM 3.2.2 Troullier-Martins                       
Valence charge for ps generation:    4.00000

xc_check: Exchange-correlation functional:
xc_check: Ceperley-Alder
xc_check: WARNING: Pseudopotential generated with GGA PBE functional
V l=0 = -2*Zval/r beyond r=  1.5227
V l=1 = -2*Zval/r beyond r=  1.5227
V l=2 = -2*Zval/r beyond r=  1.5227
All V_l potentials equal beyond r=  1.4851
This should be close to max(r_c) in ps generation
All pots = -2*Zval/r beyond r=  1.5227

VLOCAL1: 99.0% of the norm of Vloc inside     19.682 Ry
VLOCAL1: 99.9% of the norm of Vloc inside     44.856 Ry
atom: Maximum radius for 4*pi*r*r*local-pseudopot. charge    1.79142
atom: Maximum radius for r*vlocal+2*Zval:    1.54183
GHOST: No ghost state for L =  0
GHOST: No ghost state for L =  1
GHOST: No ghost state for L =  2

KBgen: Kleinman-Bylander projectors: 
   l= 0   rc=  1.661951   el= -0.994756   Ekb=  5.296364   kbcos=  0.313951
   l= 1   rc=  1.661951   el= -0.376633   Ekb= -4.104879   kbcos= -0.344765
   l= 2   rc=  1.747182   el=  0.002326   Ekb= -1.006421   kbcos= -0.008606

KBgen: Total number of Kleinman-Bylander projectors:    9
atom: -------------------------------------------------------------------------

atom: SANKEY-TYPE ORBITALS:

SPLIT: Orbitals with angular momentum L= 0

SPLIT: Basis orbitals for state 2s

SPLIT: PAO cut-off radius determined from an
SPLIT: energy shift=  0.000735 Ry

   izeta = 1
                 lambda =    1.000000
                     rc =    5.948690
                 energy =   -0.994108
                kinetic =    0.809152
    potential(screened) =   -1.803260
       potential(ionic) =   -5.360717

SPLIT: Orbitals with angular momentum L= 1

SPLIT: Basis orbitals for state 2p

SPLIT: PAO cut-off radius determined from an
SPLIT: energy shift=  0.000735 Ry

   izeta = 1
                 lambda =    1.000000
                     rc =    7.638387
                 energy =   -0.375915
                kinetic =    2.245823
    potential(screened) =   -2.621738
       potential(ionic) =   -5.993382
atom: Total number of Sankey-type orbitals:  4

atm_pop: Valence configuration (for local Pseudopot. screening):
 2s( 2.00)                                                            
 2p( 2.00)                                                            
Vna: chval, zval:    4.00000   4.00000

Vna:  Cut-off radius for the neutral-atom potential:   7.638387

atom: _________________________________________________________________________

prinput: Basis input ----------------------------------------------------------

PAO.BasisType split     

%block ChemicalSpeciesLabel
    1    6 C-gga                   # Species index, atomic number, species label
%endblock ChemicalSpeciesLabel

%block PAO.Basis                 # Define Basis set
C-gga                 2                    # Species label, number of l-shells
 n=2   0   1                         # n, l, Nzeta 
   5.949   
   1.000   
 n=2   1   1                         # n, l, Nzeta 
   7.638   
   1.000   
%endblock PAO.Basis

prinput: ----------------------------------------------------------------------

coor:   Atomic-coordinates input format  =     Cartesian coordinates
coor:                                          (in Angstroms)

siesta: Atomic coordinates (Bohr) and species
siesta:      0.00000   0.00000   2.59980  1        1
siesta:      0.00000   0.00000   7.79940  1        2
siesta:     -2.32814   4.03246   2.59980  1        3
siesta:     -4.65629   8.06493   7.79940  1        4
siesta:      4.65629   8.06493   2.59980  1        5
siesta:      2.32814   4.03246   7.79940  1        6
siesta:      4.65629   0.00000   2.59980  1        7
siesta:      9.31257   0.00000   7.79940  1        8
siesta:      4.65629   0.00000   7.79940  1        9
siesta:      9.31257   0.00000   2.59980  1       10
siesta:      4.65629   8.06493   7.79940  1       11
siesta:      2.32814   4.03246   2.59980  1       12
siesta:     -2.32814   4.03246   7.79940  1       13
siesta:     -4.65629   8.06493   2.59980  1       14
siesta:      0.00000   8.06493   2.59980  1       15
siesta:      6.98443   4.03246   7.79940  1       16
siesta:      6.98443   4.03246   2.59980  1       17
siesta:      0.00000   8.06493   7.79940  1       18
siesta:      0.00000   2.68831   2.59980  1       19
siesta:      6.98443   9.40908   7.79940  1       20
siesta:      4.65629  10.75324   2.59980  1       21
siesta:      2.32814   1.34415   7.79940  1       22
siesta:     -4.65629  10.75324   2.59980  1       23
siesta:     11.64072   1.34415   7.79940  1       24
siesta:     -2.32814   6.72077   2.59980  1       25
siesta:      9.31257   5.37662   7.79940  1       26
siesta:      2.32815   6.72077   2.59980  1       27
siesta:      4.65628   5.37662   7.79940  1       28
siesta:     -0.00000  10.75324   2.59980  1       29
siesta:      6.98443   1.34415   7.79940  1       30
siesta:      4.65629   2.68831   2.59980  1       31
siesta:      2.32814   9.40908   7.79940  1       32
siesta:      9.31258   2.68831   2.59980  1       33
siesta:     -2.32815   9.40908   7.79940  1       34
siesta:      6.98443   6.72077   2.59980  1       35
siesta:      0.00000   5.37662   7.79940  1       36

siesta: System type = bulk      

initatomlists: Number of atoms, orbitals, and projectors:     36   144   324

siesta: ******************** Simulation parameters ****************************
siesta:
siesta: The following are some of the parameters of the simulation.
siesta: A complete list of the parameters used, including default values,
siesta: can be found in file out.fdf
siesta:
redata: Spin configuration                          = none
redata: Number of spin components                   = 1
redata: Time-Reversal Symmetry                      = T
redata: Spin spiral                                 = F
redata: Long output                                 =   F
redata: Number of Atomic Species                    =        1
redata: Charge density info will appear in .RHO file
redata: Write Mulliken Pop.                         = NO
redata: Matel table size (NRTAB)                    =     1024
redata: Mesh Cutoff                                 =   300.0000 Ry
redata: Net charge of the system                    =     0.0000 |e|
redata: Min. number of SCF Iter                     =        0
redata: Max. number of SCF Iter                     =     1000
redata: SCF convergence failure will abort job
redata: SCF mix quantity                            = Hamiltonian
redata: Mix DM or H after convergence               =   F
redata: Recompute H after scf cycle                 =   F
redata: Mix DM in first SCF step                    =   T
redata: Write Pulay info on disk                    =   F
redata: New DM Occupancy tolerance                  = 0.000000000001
redata: No kicks to SCF
redata: DM Mixing Weight for Kicks                  =     0.5000
redata: Require Harris convergence for SCF          =   F
redata: Harris energy tolerance for SCF             =     0.000100 eV
redata: Require DM convergence for SCF              =   T
redata: DM tolerance for SCF                        =     0.001000
redata: Require EDM convergence for SCF             =   F
redata: EDM tolerance for SCF                       =     0.005000 eV
redata: Require H convergence for SCF               =   T
redata: Hamiltonian tolerance for SCF               =     0.001000 eV
redata: Require (free) Energy convergence for SCF   =   T
redata: (free) Energy tolerance for SCF             =     0.001000 eV
redata: Using Saved Data (generic)                  =   F
redata: Use continuation files for DM               =   F
redata: Neglect nonoverlap interactions             =   F
redata: Method of Calculation                       = Diagonalization
redata: Electronic Temperature                      =   299.9869 K
redata: Fix the spin of the system                  =   F
redata: Dynamics option                             = Single-point calculation
mix.SCF: Pulay mixing                            = Pulay
mix.SCF:    Variant                              = stable
mix.SCF:    History steps                        = 4
mix.SCF:    Linear mixing weight                 =     0.250000
mix.SCF:    Mixing weight                        =     0.250000
mix.SCF:    SVD condition                        = 0.1000E-07
redata: ***********************************************************************

%block SCF.Mixers
  Pulay
%endblock SCF.Mixers

%block SCF.Mixer.Pulay
  # Mixing method
  method pulay
  variant stable

  # Mixing options
  weight 0.2500
  weight.linear 0.2500
  history 4
%endblock SCF.Mixer.Pulay

DM_history_depth set to one: no extrapolation allowed by default for geometry relaxation
Size of DM history Fstack: 1
Total number of electrons:   144.000000
Total ionic charge:   144.000000

* ProcessorY, Blocksize:    2   1


* Orbital distribution balance (max,min):    15    14

k-point displ. along   1 input, could be:     0.00    0.50
k-point displ. along   2 input, could be:     0.00    0.50
k-point displ. along   3 input, could be:     0.00    0.50
 Kpoints in:            8 . Kpoints trimmed:            8

siesta: k-grid: Number of k-points =     8
siesta: k-grid: Cutoff (effective) =     5.503 Ang
siesta: k-grid: Supercell and displacements
siesta: k-grid:    2   0   0      0.000
siesta: k-grid:    0   2   0      0.000
siesta: k-grid:    0   0   2      0.000

diag: Algorithm                                     = Expert
diag: Parallel over k                               =   T
diag: Use parallel 2D distribution                  =   T
diag: Parallel block-size                           = 1
diag: Parallel distribution                         =     2 x     5
diag: Used triangular part                          = Lower
diag: Absolute tolerance                            =  0.100E-15
diag: Orthogonalization factor                      =  0.100E-05
diag: Memory factor                                 =  1.0000

superc: Internal auxiliary supercell:     5 x     5 x     3  =      75
superc: Number of atoms, orbitals, and projectors:   2700  10800  24300


ts: **************************************************************
ts: Save H and S matrices                           =    F
ts: Save DM and EDM matrices                        =    F
ts: Only save the overlap matrix S                  =    F
ts: **************************************************************

************************ Begin: TS CHECKS AND WARNINGS ************************
************************ End: TS CHECKS AND WARNINGS **************************


                     ====================================
                        Single-point calculation
                     ====================================

outcoor: Atomic coordinates (Ang):                          
    0.00000000    0.00000000    1.37575500   1       1  C-gga
    0.00000000    0.00000000    4.12726500   1       2  C-gga
   -1.23200000    2.13388659    1.37575500   1       3  C-gga
   -2.46400000    4.26777319    4.12726500   1       4  C-gga
    2.46400000    4.26777319    1.37575500   1       5  C-gga
    1.23200000    2.13388659    4.12726500   1       6  C-gga
    2.46400000    0.00000000    1.37575500   1       7  C-gga
    4.92800000    0.00000000    4.12726500   1       8  C-gga
    2.46400000    0.00000000    4.12726500   1       9  C-gga
    4.92800000    0.00000000    1.37575500   1      10  C-gga
    2.46400000    4.26777319    4.12726500   1      11  C-gga
    1.23200000    2.13388659    1.37575500   1      12  C-gga
   -1.23200000    2.13388659    4.12726500   1      13  C-gga
   -2.46400000    4.26777319    1.37575500   1      14  C-gga
    0.00000000    4.26777319    1.37575500   1      15  C-gga
    3.69600000    2.13388659    4.12726500   1      16  C-gga
    3.69600000    2.13388659    1.37575500   1      17  C-gga
    0.00000000    4.26777319    4.12726500   1      18  C-gga
    0.00000000    1.42258964    1.37575500   1      19  C-gga
    3.69600000    4.97907014    4.12726500   1      20  C-gga
    2.46400123    5.69036496    1.37575500   1      21  C-gga
    1.23199877    0.71129482    4.12726500   1      22  C-gga
   -2.46400123    5.69036496    1.37575500   1      23  C-gga
    6.16000123    0.71129482    4.12726500   1      24  C-gga
   -1.23200000    3.55647624    1.37575500   1      25  C-gga
    4.92800000    2.84518355    4.12726500   1      26  C-gga
    1.23200123    3.55647837    1.37575500   1      27  C-gga
    2.46399877    2.84518142    4.12726500   1      28  C-gga
   -0.00000123    5.69036496    1.37575500   1      29  C-gga
    3.69600123    0.71129482    4.12726500   1      30  C-gga
    2.46400000    1.42258964    1.37575500   1      31  C-gga
    1.23200000    4.97907014    4.12726500   1      32  C-gga
    4.92800123    1.42259177    1.37575500   1      33  C-gga
   -1.23200123    4.97906801    4.12726500   1      34  C-gga
    3.69599877    3.55647837    1.37575500   1      35  C-gga
    0.00000123    2.84518142    4.12726500   1      36  C-gga

superc: Internal auxiliary supercell:     5 x     5 x     3  =      75
superc: Number of atoms, orbitals, and projectors:   2700  10800  24300

outcell: Unit cell vectors (Ang):
        7.392000    0.000000    0.000000
       -3.696000    6.401660    0.000000
        0.000000    0.000000    5.503020

outcell: Cell vector modules (Ang)   :    7.392000    7.392000    5.503020
outcell: Cell angles (23,13,12) (deg):     90.0000     90.0000    120.0000
outcell: Cell volume (Ang**3)        :    260.4088
<dSpData1D:S at geom step 0
  <sparsity:sparsity for geom step 0
    nrows_g=144 nrows=15 sparsity=1.0445 nnzs=21658, refcount: 7>
  <dData1D:(new from dSpData1D) n=21658, refcount: 1>
refcount: 1>
new_DM -- step:     1
Initializing Density Matrix...
DM filled with atomic data:
<dSpData2D:DM initialized from atoms
  <sparsity:sparsity for geom step 0
    nrows_g=144 nrows=15 sparsity=1.0445 nnzs=21658, refcount: 8>
  <dData2D:DM n=21658 m=1, refcount: 1>
refcount: 1>
No. of atoms with KB's overlaping orbs in proc 0. Max # of overlaps:     252     280
New grid distribution:   1
           1       1:   36    1:   18    1:    6
           2       1:   36    1:   18    7:   12
           3       1:   36    1:   18   13:   18
           4       1:   36    1:   18   19:   24
           5       1:   36    1:   18   25:   30
           6       1:   36   19:   36    1:    6
           7       1:   36   19:   36    7:   12
           8       1:   36   19:   36   13:   18
           9       1:   36   19:   36   19:   24
          10       1:   36   19:   36   25:   30

InitMesh: MESH =    72 x    72 x    60 =      311040
InitMesh: (bp) =    36 x    36 x    30 =       38880
InitMesh: Mesh cutoff (required, used) =   300.000   328.550 Ry
ExtMesh (bp) on 0 =   128 x   110 x    98 =     1379840
New grid distribution:   2
           1       1:   15    1:   18    1:   15
           2      16:   36    1:   18    1:   10
           3      16:   36    1:    9   11:   30
           4       1:   15    1:   18   16:   30
           5      16:   36   10:   18   11:   30
           6       1:   15   19:   36    1:   15
           7      16:   36   19:   36    1:   10
           8      16:   36   19:   27   11:   30
           9       1:   15   19:   36   16:   30
          10      16:   36   28:   36   11:   30
New grid distribution:   3
           1       1:   15    1:   18    1:   15
           2      16:   36    1:   18    1:   10
           3      16:   36    1:    9   11:   30
           4       1:   15    1:   18   16:   30
           5      16:   36   10:   18   11:   30
           6       1:   15   19:   36    1:   15
           7      16:   36   19:   36    1:   10
           8      16:   36   19:   27   11:   30
           9       1:   15   19:   36   16:   30
          10      16:   36   28:   36   11:   30
Setting up quadratic distribution...
ExtMesh (bp) on 0 =   107 x   110 x   107 =     1259390
PhiOnMesh: Number of (b)points on node 0 =                 4050
PhiOnMesh: nlist on node 0 =               569424

stepf: Fermi-Dirac step function

siesta: Program's energy decomposition (eV):
siesta: Ebs     =     -2547.551080
siesta: Eions   =      9434.507561
siesta: Ena     =      2257.139812
siesta: Ekin    =      3710.880227
siesta: Enl     =      -354.034700
siesta: Eso     =         0.000000
siesta: Edftu   =         0.000000
siesta: DEna    =       -45.083875
siesta: DUscf   =         3.203496
siesta: DUext   =         0.000000
siesta: Exc     =     -1656.842805
siesta: eta*DQ  =         0.000000
siesta: Emadel  =         0.000000
siesta: Emeta   =         0.000000
siesta: Emolmec =         0.000000
siesta: Ekinion =         0.000000
siesta: Eharris =     -5349.205825
siesta: Etot    =     -5519.245405
siesta: FreeEng =     -5519.277413

        iscf     Eharris(eV)        E_KS(eV)     FreeEng(eV)     dDmax    Ef(eV) dHmax(eV)
   scf:    1    -5349.205825    -5519.245405    -5519.277413  1.331884 -8.557762  0.446314
timer: Routine,Calls,Time,% = IterSCF        1       2.417  54.23
   scf:    2    -5519.294600    -5519.278153    -5519.309107  0.016064 -8.492274  0.310632
   scf:    3    -5519.302255    -5519.290309    -5519.319671  0.003404 -8.303266  0.029391
   scf:    4    -5519.290890    -5519.290610    -5519.319790  0.000681 -8.284081  0.000601

SCF Convergence by FreeE+DM+H criterion
|FreeE_i-FreeE_(i-1)| (eV) <     0.00100000
max |DM_out - DM_in|         :     0.0006811854
max |H_out - H_in|      (eV) :     0.0006007354
SCF cycle converged after 4 iterations

Using DM_out to compute the final energy and forces
No. of atoms with KB's overlaping orbs in proc 0. Max # of overlaps:     252     280

siesta: E_KS(eV) =            -5519.2906

siesta: E_KS - E_eggbox =     -5519.2906

siesta: Atomic forces (eV/Ang):
     1    0.000000   -0.000000   -0.000000
     2    0.000000   -0.000000   -0.000000
     3    0.000070   -0.000053   -0.000000
     4   -0.000070    0.000054   -0.000000
     5    0.000011    0.000088   -0.000000
     6   -0.000011   -0.000087   -0.000000
     7   -0.000082   -0.000034   -0.000000
     8    0.000082    0.000034   -0.000000
     9   -0.000015   -0.000014   -0.000000
    10    0.000015    0.000013   -0.000000
    11   -0.000005    0.000019   -0.000000
    12    0.000005   -0.000019   -0.000000
    13    0.000019   -0.000005   -0.000000
    14   -0.000019    0.000006   -0.000000
    15   -0.000000   -0.000000   -0.000000
    16   -0.000000    0.000000   -0.000000
    17    0.000000    0.000000   -0.000000
    18    0.000000    0.000000   -0.000000
    19    0.000006    0.000125    0.000000
    20   -0.000006   -0.000125    0.000000
    21   -0.000112   -0.000057    0.000000
    22    0.000112    0.000057    0.000000
    23    0.000105   -0.000068    0.000000
    24   -0.000105    0.000068    0.000000
    25    0.000008    0.000110    0.000000
    26   -0.000008   -0.000111    0.000000
    27   -0.000100   -0.000049    0.000000
    28    0.000100    0.000048    0.000000
    29    0.000092   -0.000062    0.000000
    30   -0.000092    0.000062    0.000000
    31    0.000008    0.000111    0.000000
    32   -0.000008   -0.000111    0.000000
    33   -0.000100   -0.000048    0.000000
    34    0.000100    0.000049    0.000000
    35    0.000092   -0.000063    0.000000
    36   -0.000092    0.000062    0.000000
----------------------------------------
   Tot   -0.000000   -0.000000    0.000000
----------------------------------------
   Max    0.000125
   Res    0.000052    sqrt( Sum f_i^2 / 3N )
----------------------------------------
   Max    0.000125    constrained

Stress tensor Voigt[x,y,z,yz,xz,xy] (kbar):     -402.14     -402.14      148.55       -0.00        0.00        0.00
(Free)E + p*V (eV/cell)    -5483.7934
Target enthalpy (eV/cell)    -5519.3198

siesta: Eigenvalues (eV):
  ik is       eps
   1  1  -28.3436  -27.5884  -25.4995  -25.4995  -25.4995  -25.4995  -25.4995  -25.4995  -25.0123  -25.0123
         -25.0123  -25.0123  -25.0123  -25.0123  -21.5934  -21.5934  -21.3088  -21.3088  -21.3088  -21.3088
  -21.0779  -21.0779  -18.8713  -18.8713  -18.8713  -18.8713  -18.6088  -18.6088  -18.6088  -18.6087
  -18.6087  -18.6087  -18.1824  -18.1824  -18.1824  -18.1824  -18.1824  -18.1824  -16.7575  -14.9982
  -14.9982  -14.9982  -14.9982  -14.9982  -14.9982  -14.7729  -14.7729  -14.7729  -14.7729  -14.7729
  -14.7729  -14.2550  -14.2550  -14.2550  -14.2550  -14.2550  -14.2550  -13.2244  -12.3047  -12.3047
  -12.2274  -12.2274  -10.7556  -10.7556  -10.7556  -10.7556  -10.7556  -10.7556   -9.8767   -9.8767
   -8.3513   -8.3513   -8.3513   -8.3513   -6.4123   -6.4123   -3.6443   -3.6443   -3.6442   -3.6442
   -3.6442   -3.6442   -2.0380   -2.0380   -2.0380   -2.0380   -2.0380   -2.0380    0.7776    0.7776
    0.7776    0.7776    0.7776    0.7776    0.8536    0.8536    0.9860    0.9860    1.6915    1.6915
    1.6915    1.6916    1.6916    1.6916    2.3348    3.0859    4.1634    4.6767    7.5212    7.5212
    7.5450    7.5450    7.5450    7.5450    7.6088    7.6088    8.8558    8.8558    8.8558    8.8558
    8.8558    8.8558    9.0052    9.0052    9.0052    9.0052    9.0052    9.0052   10.4469   10.4469
   10.4469   10.4470   10.4470   10.4470   10.7227   10.7227   10.7227   10.7227   10.7227   10.7227
   15.4789   15.4789   15.4789   15.4789
   2  1  -27.5887  -27.5887  -26.9180  -26.9180  -26.1632  -26.1632  -25.6287  -25.6287  -23.7033  -23.7033
         -23.7033  -23.7033  -23.3119  -23.3119  -23.3119  -23.3119  -23.1006  -22.8043  -21.3937  -21.3667
  -20.1954  -20.1954  -20.1954  -20.1954  -19.8577  -19.8577  -19.8577  -19.8577  -17.0438  -17.0438
  -17.0438  -17.0438  -16.9111  -16.9111  -16.7468  -16.7468  -16.7468  -16.7468  -16.6967  -16.6967
  -16.1412  -16.1412  -15.5834  -15.4723  -15.4723  -15.3548  -15.2580  -15.2580  -14.8874  -14.8874
  -14.5908  -14.5908  -14.3061  -14.3061  -13.4519  -13.4519  -13.2688  -13.2688  -12.5607  -12.5607
  -12.3202  -12.3202  -12.3202  -12.3202  -11.7543  -11.2838  -11.2838  -10.2532   -9.4606   -9.4606
   -9.4606   -9.4606   -6.0457   -6.0457   -6.0457   -6.0457   -5.7166   -5.1436   -4.5825   -4.5825
   -4.5825   -4.5825   -2.2866   -2.2866   -1.0749   -1.0749    0.4897    0.5794    0.5794    1.1924
    1.1924    1.4570    1.5209    1.5209    1.7187    1.7188    3.3511    3.3511    3.3511    3.3511
    3.6398    3.6398    3.8010    3.8010    3.8095    3.8095    3.9184    3.9184    4.0154    4.0154
    4.0154    4.0154    4.3790    4.3790    4.5558    4.5558    5.8309    5.8309    6.2707    6.2707
    8.8823    8.8823    8.8823    8.8823    9.1139    9.1139    9.1139    9.1139   10.1745   10.1745
   10.3308   10.3308   11.4549   11.5158   13.3366   13.5569   14.0427   14.0428   14.0428   14.0428
   14.0890   14.0890   14.0890   14.0890
   3  1  -27.5887  -27.5887  -26.9180  -26.9180  -26.1632  -26.1632  -25.6287  -25.6287  -23.7033  -23.7033
         -23.7033  -23.7033  -23.3119  -23.3119  -23.3119  -23.3119  -23.1006  -22.8043  -21.3937  -21.3667
  -20.1954  -20.1954  -20.1954  -20.1954  -19.8577  -19.8577  -19.8577  -19.8577  -17.0438  -17.0438
  -17.0438  -17.0438  -16.9111  -16.9111  -16.7468  -16.7468  -16.7468  -16.7468  -16.6967  -16.6967
  -16.1412  -16.1412  -15.5834  -15.4723  -15.4723  -15.3548  -15.2580  -15.2580  -14.8874  -14.8874
  -14.5908  -14.5908  -14.3061  -14.3061  -13.4519  -13.4519  -13.2688  -13.2688  -12.5607  -12.5607
  -12.3202  -12.3202  -12.3202  -12.3202  -11.7543  -11.2838  -11.2838  -10.2532   -9.4606   -9.4606
   -9.4606   -9.4606   -6.0458   -6.0457   -6.0457   -6.0457   -5.7166   -5.1436   -4.5825   -4.5825
   -4.5825   -4.5825   -2.2866   -2.2866   -1.0749   -1.0749    0.4897    0.5794    0.5794    1.1924
    1.1924    1.4570    1.5209    1.5209    1.7187    1.7188    3.3511    3.3511    3.3511    3.3511
    3.6398    3.6398    3.8010    3.8010    3.8095    3.8095    3.9184    3.9184    4.0154    4.0154
    4.0154    4.0154    4.3790    4.3790    4.5558    4.5558    5.8309    5.8309    6.2707    6.2707
    8.8823    8.8823    8.8823    8.8823    9.1139    9.1139    9.1139    9.1139   10.1745   10.1745
   10.3308   10.3308   11.4549   11.5158   13.3366   13.5569   14.0427   14.0428   14.0428   14.0428
   14.0890   14.0890   14.0890   14.0890
   4  1  -27.5887  -27.5887  -26.9180  -26.9180  -26.1632  -26.1632  -25.6287  -25.6287  -23.7033  -23.7033
         -23.7033  -23.7033  -23.3119  -23.3119  -23.3119  -23.3119  -23.1006  -22.8043  -21.3937  -21.3667
  -20.1954  -20.1954  -20.1954  -20.1954  -19.8577  -19.8577  -19.8577  -19.8577  -17.0438  -17.0438
  -17.0438  -17.0438  -16.9111  -16.9111  -16.7468  -16.7468  -16.7468  -16.7468  -16.6967  -16.6967
  -16.1412  -16.1412  -15.5834  -15.4723  -15.4723  -15.3548  -15.2580  -15.2580  -14.8874  -14.8874
  -14.5908  -14.5908  -14.3061  -14.3061  -13.4519  -13.4519  -13.2688  -13.2688  -12.5607  -12.5607
  -12.3202  -12.3202  -12.3202  -12.3202  -11.7543  -11.2838  -11.2838  -10.2532   -9.4606   -9.4606
   -9.4606   -9.4606   -6.0458   -6.0457   -6.0457   -6.0457   -5.7166   -5.1436   -4.5825   -4.5825
   -4.5825   -4.5825   -2.2866   -2.2866   -1.0749   -1.0749    0.4897    0.5794    0.5794    1.1924
    1.1924    1.4570    1.5209    1.5209    1.7187    1.7188    3.3511    3.3511    3.3511    3.3511
    3.6398    3.6398    3.8010    3.8010    3.8095    3.8095    3.9184    3.9184    4.0154    4.0154
    4.0154    4.0154    4.3790    4.3790    4.5558    4.5558    5.8309    5.8309    6.2707    6.2707
    8.8823    8.8823    8.8823    8.8823    9.1139    9.1139    9.1139    9.1139   10.1745   10.1745
   10.3308   10.3308   11.4549   11.5158   13.3366   13.5569   14.0427   14.0428   14.0428   14.0428
   14.0890   14.0890   14.0890   14.0890
   5  1  -28.0358  -28.0358  -25.2951  -25.2951  -25.2951  -25.2951  -25.2951  -25.2951  -25.2951  -25.2951
         -25.2951  -25.2951  -25.2951  -25.2951  -21.3512  -21.3512  -21.3512  -21.3512  -21.2960  -21.2960
  -21.2960  -21.2960  -18.8859  -18.8859  -18.8859  -18.8859  -18.4084  -18.4084  -18.4084  -18.4084
  -18.4084  -18.4084  -18.4084  -18.4084  -18.4084  -18.4084  -18.4084  -18.4084  -15.2170  -15.2170
  -14.8860  -14.8860  -14.8860  -14.8860  -14.8860  -14.8860  -14.8860  -14.8860  -14.8860  -14.8860
  -14.8860  -14.8860  -12.7278  -12.7278  -12.7278  -12.7278  -12.7278  -12.7278  -12.7278  -12.7278
  -12.7278  -12.7278  -12.7278  -12.7278  -12.2671  -12.2671  -12.2671  -12.2671   -8.2865   -8.2865
   -8.2865   -8.2865   -8.2055   -8.2055   -8.2055   -8.2055   -2.9344   -2.9344   -2.9344   -2.9344
   -2.9344   -2.9344   -2.9344   -2.9344   -2.9344   -2.9344   -2.9344   -2.9344    0.9170    0.9170
    0.9170    0.9170    1.3194    1.3194    1.3194    1.3194    1.3194    1.3194    1.3194    1.3194
    1.3194    1.3194    1.3194    1.3194    2.6400    2.6400    4.4810    4.4810    7.5625    7.5625
    7.5625    7.5625    7.5956    7.5956    7.5956    7.5956    8.9297    8.9297    8.9297    8.9297
    8.9297    8.9297    8.9297    8.9297    8.9297    8.9297    8.9297    8.9297   10.6207   10.6207
   10.6207   10.6207   10.6207   10.6207   10.6207   10.6207   10.6207   10.6207   10.6207   10.6207
   15.4795   15.4795   15.4795   15.4795
   6  1  -27.3160  -27.3160  -27.3159  -27.3159  -25.9431  -25.9431  -25.9431  -25.9431  -23.5244  -23.5244
         -23.5244  -23.5244  -23.5244  -23.5244  -23.5244  -23.5244  -22.9452  -22.9452  -21.4139  -21.4139
  -20.0350  -20.0350  -20.0350  -20.0350  -20.0350  -20.0350  -20.0350  -20.0350  -16.9028  -16.9028
  -16.9028  -16.9028  -16.9028  -16.9028  -16.9028  -16.9028  -16.7957  -16.7957  -16.7957  -16.7957
  -15.4695  -15.4695  -15.3892  -15.3892  -15.3892  -15.3892  -14.6412  -14.6412  -14.6412  -14.6412
  -14.4324  -14.4324  -14.4324  -14.4324  -13.3611  -13.3611  -13.3611  -13.3611  -13.3548  -13.3548
  -13.3548  -13.3548  -10.8849  -10.8849  -10.8849  -10.8849  -10.8849  -10.8849  -10.8849  -10.8849
  -10.6431  -10.6431   -5.9994   -5.9994   -5.4711   -5.4711   -5.4711   -5.4711   -5.4711   -5.4711
   -5.4711   -5.4711   -1.7288   -1.7288   -1.7288   -1.7288    0.8460    0.8460    0.8460    0.8460
    1.0351    1.0351    1.6702    1.6702    1.6702    1.6702    3.7186    3.7186    3.7186    3.7186
    3.7254    3.7254    3.7254    3.7254    3.7254    3.7254    3.7255    3.7255    4.0518    4.0518
    4.0518    4.0518    4.3899    4.3899    4.3899    4.3899    6.0741    6.0741    6.0741    6.0741
    9.0198    9.0198    9.0198    9.0198    9.0198    9.0198    9.0198    9.0198   10.2531   10.2531
   10.2532   10.2532   11.4845   11.4845   13.4568   13.4568   14.0703   14.0703   14.0703   14.0703
   14.0703   14.0703   14.0703   14.0703
   7  1  -27.3160  -27.3160  -27.3159  -27.3159  -25.9431  -25.9431  -25.9431  -25.9431  -23.5244  -23.5244
         -23.5244  -23.5244  -23.5244  -23.5244  -23.5244  -23.5244  -22.9452  -22.9452  -21.4139  -21.4139
  -20.0350  -20.0350  -20.0350  -20.0350  -20.0350  -20.0350  -20.0350  -20.0350  -16.9028  -16.9028
  -16.9028  -16.9028  -16.9028  -16.9028  -16.9028  -16.9028  -16.7957  -16.7957  -16.7957  -16.7957
  -15.4695  -15.4695  -15.3892  -15.3892  -15.3892  -15.3892  -14.6412  -14.6412  -14.6412  -14.6412
  -14.4324  -14.4324  -14.4324  -14.4324  -13.3611  -13.3611  -13.3611  -13.3611  -13.3548  -13.3548
  -13.3548  -13.3548  -10.8849  -10.8849  -10.8849  -10.8849  -10.8849  -10.8849  -10.8849  -10.8849
  -10.6431  -10.6431   -5.9994   -5.9994   -5.4711   -5.4711   -5.4711   -5.4711   -5.4711   -5.4711
   -5.4711   -5.4711   -1.7288   -1.7288   -1.7288   -1.7288    0.8460    0.8460    0.8460    0.8460
    1.0351    1.0351    1.6702    1.6702    1.6702    1.6702    3.7186    3.7186    3.7186    3.7186
    3.7254    3.7254    3.7254    3.7254    3.7254    3.7254    3.7255    3.7255    4.0518    4.0518
    4.0518    4.0518    4.3899    4.3899    4.3899    4.3899    6.0741    6.0741    6.0741    6.0741
    9.0198    9.0198    9.0198    9.0198    9.0198    9.0198    9.0198    9.0198   10.2531   10.2531
   10.2532   10.2532   11.4845   11.4845   13.4568   13.4568   14.0703   14.0703   14.0703   14.0703
   14.0703   14.0703   14.0703   14.0703
   8  1  -27.3160  -27.3160  -27.3159  -27.3159  -25.9431  -25.9431  -25.9431  -25.9431  -23.5244  -23.5244
         -23.5244  -23.5244  -23.5244  -23.5244  -23.5244  -23.5244  -22.9452  -22.9452  -21.4139  -21.4139
  -20.0350  -20.0350  -20.0350  -20.0350  -20.0350  -20.0350  -20.0350  -20.0350  -16.9028  -16.9028
  -16.9028  -16.9028  -16.9028  -16.9028  -16.9028  -16.9028  -16.7957  -16.7957  -16.7957  -16.7957
  -15.4695  -15.4695  -15.3892  -15.3892  -15.3892  -15.3892  -14.6412  -14.6412  -14.6412  -14.6412
  -14.4324  -14.4324  -14.4324  -14.4324  -13.3611  -13.3611  -13.3611  -13.3611  -13.3548  -13.3548
  -13.3548  -13.3548  -10.8849  -10.8849  -10.8849  -10.8849  -10.8849  -10.8849  -10.8849  -10.8849
  -10.6431  -10.6431   -5.9994   -5.9994   -5.4711   -5.4711   -5.4711   -5.4711   -5.4711   -5.4711
   -5.4711   -5.4711   -1.7288   -1.7288   -1.7288   -1.7288    0.8460    0.8460    0.8460    0.8460
    1.0351    1.0351    1.6702    1.6702    1.6702    1.6702    3.7186    3.7186    3.7186    3.7186
    3.7254    3.7254    3.7254    3.7254    3.7254    3.7254    3.7255    3.7255    4.0518    4.0518
    4.0518    4.0518    4.3899    4.3899    4.3899    4.3899    6.0741    6.0741    6.0741    6.0741
    9.0198    9.0198    9.0198    9.0198    9.0198    9.0198    9.0198    9.0198   10.2531   10.2531
   10.2532   10.2532   11.4845   11.4845   13.4568   13.4568   14.0703   14.0703   14.0703   14.0703
   14.0703   14.0703   14.0703   14.0703
siesta: Fermi energy =      -8.284081 eV

siesta: Program's energy decomposition (eV):
siesta: Ebs     =     -2548.508504
siesta: Eions   =      9434.507561
siesta: Ena     =      2257.139812
siesta: Ekin    =      3708.682128
siesta: Enl     =      -353.500031
siesta: Eso     =         0.000000
siesta: Edftu   =         0.000000
siesta: DEna    =       -43.657306
siesta: DUscf   =         3.091997
siesta: DUext   =         0.000000
siesta: Exc     =     -1656.539649
siesta: eta*DQ  =         0.000000
siesta: Emadel  =         0.000000
siesta: Emeta   =         0.000000
siesta: Emolmec =         0.000000
siesta: Ekinion =         0.000000
siesta: Eharris =     -5519.290890
siesta: Etot    =     -5519.290610
siesta: FreeEng =     -5519.319790

siesta: Final energy (eV):
siesta:  Band Struct. =   -2548.508504
siesta:       Kinetic =    3708.682128
siesta:       Hartree =     788.224587
siesta:       Edftu   =       0.000000
siesta:       Eso     =       0.000000
siesta:    Ext. field =       0.000000
siesta:   Exch.-corr. =   -1656.539649
siesta:  Ion-electron =   -5668.406873
siesta:       Ion-ion =   -2691.250804
siesta:       Ekinion =       0.000000
siesta:         Total =   -5519.290610
siesta:         Fermi =      -8.284081

siesta: Stress tensor (static) (eV/Ang**3):
siesta:    -0.250995    0.000000    0.000000
siesta:     0.000000   -0.250995    0.000000
siesta:     0.000000   -0.000000    0.092714

siesta: Cell volume =        260.408790 Ang**3

siesta: Pressure (static):
siesta:                Solid            Molecule  Units
siesta:           0.00148585          0.00148588  Ry/Bohr**3
siesta:           0.13642559          0.13642877  eV/Ang**3
siesta:         218.58025181        218.58535776  kBar
(Free)E+ p_basis*V_orbitals  =       -5501.016744
(Free)Eharris+ p_basis*V_orbitals  =       -5501.017024

cite: Please see "graphite_scf.bib" for an exhaustive BiBTeX file.
cite: Please clearly indicate Siesta version in published work: 4.1.5
cite: This calculation has made use of the following articles
cite: which are encouraged to be cited in a published work.
        Primary SIESTA paper
          DOI: www.doi.org/10.1088/0953-8984/14/11/302

>> End of run:  28-OCT-2022  14:38:26
Job completed
