Siesta Version  : 4.1.5
Architecture    : x86_64-unknown-linux-gnu--unknown
Compiler version: GNU Fortran (GCC) 11.3.0
Compiler flags  : mpif90 -g -O2 -fallow-argument-mismatch
PP flags        : -DMPI -DFC_HAVE_FLUSH -DFC_HAVE_ABORT
Libraries       :  -I/global/software/sl-7.x86_64/modules/intel/2020.4.304/mkl/include  /globall/software/sl-7.x86_64/modules/intel/2020.4.304/mkl/lib/intel64/libmkl_scalapack_lp64.a -Wl,--start-group /global/software/sl-7.x86_64/modules/intel/2020.4.304/mkl/lib/intel64/libmkl_intel_lp64.a /global/software/sl-7.x86_64/modules/intel/2020.4.304/mkl/lib/intel64/libmkl_sequential.a /global/software/sl-7.x86_64/modules/intel/2020.4.304/mkl/lib/intel64/libmkl_core.a /global/software/sl-7.x86_64/modules/intel/2020.4.304/mkl/lib/intel64/libmkl_blacs_openmpi_lp64.a -Wl,--end-group -lpthread -lm -ldl
PARALLEL version

* Running on 10 nodes in parallel
>> Start of run:  28-OCT-2022  14:39:15

                           ***********************       
                           *  WELCOME TO SIESTA  *       
                           ***********************       

reinit: Reading from standard input
reinit: Dumped input in INPUT_TMP.89635
************************** Dump of input data file ****************************
SystemName graphite_scf
SystemLabel graphite_scf
NumberOfAtoms   36
NumberOfSpecies 1
%block ChemicalSpeciesLabel
1  6   C-gga
%endblock ChemicalSpeciesLabel
PAO.BasisSize  SZ
PAO.EnergyShift  10 meV
%block PS.Lmax
C-gga   2
%endblock PS.Lmax
LatticeConstant 1.000000 Ang
%block LatticeVectors
	7.3920000000	0.0000000000	0.0000000000
	-3.6960000000	6.4016597848	0.0000000000
	0.0000000000	0.0000000000	5.2345800000
%endblock LatticeVectors
AtomicCoordinatesFormat Ang
%block AtomicCoordinatesAndAtomicSpecies
	0.00000000	0.00000000	1.30864500	1
	0.00000000	0.00000000	3.92593500	1
	-1.23200000	2.13388659	1.30864500	1
	-2.46400000	4.26777319	3.92593500	1
	2.46400000	4.26777319	1.30864500	1
	1.23200000	2.13388659	3.92593500	1
	2.46400000	0.00000000	1.30864500	1
	4.92800000	0.00000000	3.92593500	1
	2.46400000	0.00000000	3.92593500	1
	4.92800000	0.00000000	1.30864500	1
	2.46400000	4.26777319	3.92593500	1
	1.23200000	2.13388659	1.30864500	1
	-1.23200000	2.13388659	3.92593500	1
	-2.46400000	4.26777319	1.30864500	1
	0.00000000	4.26777319	1.30864500	1
	3.69600000	2.13388659	3.92593500	1
	3.69600000	2.13388659	1.30864500	1
	0.00000000	4.26777319	3.92593500	1
	0.00000000	1.42258964	1.30864500	1
	3.69600000	4.97907014	3.92593500	1
	2.46400123	5.69036496	1.30864500	1
	1.23199877	0.71129482	3.92593500	1
	-2.46400123	5.69036496	1.30864500	1
	6.16000123	0.71129482	3.92593500	1
	-1.23200000	3.55647624	1.30864500	1
	4.92800000	2.84518355	3.92593500	1
	1.23200123	3.55647837	1.30864500	1
	2.46399877	2.84518142	3.92593500	1
	-0.00000123	5.69036496	1.30864500	1
	3.69600123	0.71129482	3.92593500	1
	2.46400000	1.42258964	1.30864500	1
	1.23200000	4.97907014	3.92593500	1
	4.92800123	1.42259177	1.30864500	1
	-1.23200123	4.97906801	3.92593500	1
	3.69599877	3.55647837	1.30864500	1
	0.00000123	2.84518142	3.92593500	1
%endblock AtomicCoordinatesAndAtomicSpecies
Kgrid_NoTRS  T
%block kgrid_MonkhorstPack
2       0       0       0.0
0       2       0       0.0
0       0       2       0.0
%endblock kgrid_MonkhorstPack
AtomCoorFormatOut Ang
BlockSize 1
#ProcessorY 12
Diag.ParallelOverK   T
Diag.DivideAndConquer F
MeshCutoff   300 Ry
SCF.FreeE.Tolerance 1E-3 eV
SCF.EDM.Tolerance   5E-3 eV
DM.Tolerance  1E-3
DM.Require.Energy.Convergence T
DM.NumberPulay 4
#XC.Functional GGA
#CX.Authors    PBE
UseSaveData        F
SolutionMethod     diagon
MD.TypeOfRun       CG
MD.VariableCell    F
MD.NumCGsteps      00
MD.MaxCGDispl      0.200000 Bohr
#MD.MaxStressTol    1.000000 GPa
#MD.MaxForceTol     0.010000 eV/Ang
WriteMDHistory T
WriteCoorStep T
WriteForces T
WriteCoorStep    T
WriteEigenValues T
WriteDM    F
MM.UnitsDistance Ang  # what this program prints out DO NOT CHANGE
MM.UnitsEnergy    eV  # what this program prints out DO NOT CHANGE
# MM.Grimme.S6     0.75 # Grimme-paper for PBE (correct for your functional)
# MM.Grimme.D     20.   # Grimme-paper (correct for your functional)
# %block MM.Potentials
#   1   1 Grimme     18.14      2.904 # C, 10.1002/jcc.20495
# %endblock MM.Potentials
#%block ProjectedDensityOfStates
# -200.0  120.0  0.4  12800  eV
#%endblock ProjectedDensityOfStates
************************** End of input data file *****************************

reinit: -----------------------------------------------------------------------
reinit: System Name: graphite_scf
reinit: -----------------------------------------------------------------------
reinit: System Label: graphite_scf
reinit: -----------------------------------------------------------------------

initatom: Reading input for the pseudopotentials and atomic orbitals ----------
Species number:   1 Atomic number:    6 Label: C-gga

Ground state valence configuration:   2s02  2p02
Reading pseudopotential information in formatted form from C-gga.psf

Valence configuration for pseudopotential generation:
2s( 2.00) rc: 1.56
2p( 2.00) rc: 1.56
3d( 0.00) rc: 1.56
4f( 0.00) rc: 1.56
relmxkb: Read Max KB Ang. Momentum=    2 for species C-gga

<basis_specs>
===============================================================================
C-gga                Z=   6    Mass=  12.010        Charge= 0.17977+309
Lmxo=1 Lmxkb= 2    BasisType=split      Semic=F
L=0  Nsemic=0  Cnfigmx=2
          i=1  nzeta=1  polorb=0  (2s)
            splnorm:   0.15000    
               vcte:    0.0000    
               rinn:    0.0000    
               qcoe:    0.0000    
               qyuk:    0.0000    
               qwid:   0.10000E-01
                rcs:    0.0000    
            lambdas:    1.0000    
L=1  Nsemic=0  Cnfigmx=2
          i=1  nzeta=1  polorb=0  (2p)
            splnorm:   0.15000    
               vcte:    0.0000    
               rinn:    0.0000    
               qcoe:    0.0000    
               qyuk:    0.0000    
               qwid:   0.10000E-01
                rcs:    0.0000    
            lambdas:    1.0000    
-------------------------------------------------------------------------------
L=0  Nkbl=1  erefs: 0.17977+309
L=1  Nkbl=1  erefs: 0.17977+309
L=2  Nkbl=1  erefs: 0.17977+309
===============================================================================
</basis_specs>

atom: Called for C-gga                 (Z =   6)

read_vps: Pseudopotential generation method:
read_vps: ATM 3.2.2 Troullier-Martins                       
Valence charge for ps generation:    4.00000

xc_check: Exchange-correlation functional:
xc_check: Ceperley-Alder
xc_check: WARNING: Pseudopotential generated with GGA PBE functional
V l=0 = -2*Zval/r beyond r=  1.5227
V l=1 = -2*Zval/r beyond r=  1.5227
V l=2 = -2*Zval/r beyond r=  1.5227
All V_l potentials equal beyond r=  1.4851
This should be close to max(r_c) in ps generation
All pots = -2*Zval/r beyond r=  1.5227

VLOCAL1: 99.0% of the norm of Vloc inside     19.682 Ry
VLOCAL1: 99.9% of the norm of Vloc inside     44.856 Ry
atom: Maximum radius for 4*pi*r*r*local-pseudopot. charge    1.79142
atom: Maximum radius for r*vlocal+2*Zval:    1.54183
GHOST: No ghost state for L =  0
GHOST: No ghost state for L =  1
GHOST: No ghost state for L =  2

KBgen: Kleinman-Bylander projectors: 
   l= 0   rc=  1.661951   el= -0.994756   Ekb=  5.296364   kbcos=  0.313951
   l= 1   rc=  1.661951   el= -0.376633   Ekb= -4.104879   kbcos= -0.344765
   l= 2   rc=  1.747182   el=  0.002326   Ekb= -1.006421   kbcos= -0.008606

KBgen: Total number of Kleinman-Bylander projectors:    9
atom: -------------------------------------------------------------------------

atom: SANKEY-TYPE ORBITALS:

SPLIT: Orbitals with angular momentum L= 0

SPLIT: Basis orbitals for state 2s

SPLIT: PAO cut-off radius determined from an
SPLIT: energy shift=  0.000735 Ry

   izeta = 1
                 lambda =    1.000000
                     rc =    5.948690
                 energy =   -0.994108
                kinetic =    0.809152
    potential(screened) =   -1.803260
       potential(ionic) =   -5.360717

SPLIT: Orbitals with angular momentum L= 1

SPLIT: Basis orbitals for state 2p

SPLIT: PAO cut-off radius determined from an
SPLIT: energy shift=  0.000735 Ry

   izeta = 1
                 lambda =    1.000000
                     rc =    7.638387
                 energy =   -0.375915
                kinetic =    2.245823
    potential(screened) =   -2.621738
       potential(ionic) =   -5.993382
atom: Total number of Sankey-type orbitals:  4

atm_pop: Valence configuration (for local Pseudopot. screening):
 2s( 2.00)                                                            
 2p( 2.00)                                                            
Vna: chval, zval:    4.00000   4.00000

Vna:  Cut-off radius for the neutral-atom potential:   7.638387

atom: _________________________________________________________________________

prinput: Basis input ----------------------------------------------------------

PAO.BasisType split     

%block ChemicalSpeciesLabel
    1    6 C-gga                   # Species index, atomic number, species label
%endblock ChemicalSpeciesLabel

%block PAO.Basis                 # Define Basis set
C-gga                 2                    # Species label, number of l-shells
 n=2   0   1                         # n, l, Nzeta 
   5.949   
   1.000   
 n=2   1   1                         # n, l, Nzeta 
   7.638   
   1.000   
%endblock PAO.Basis

prinput: ----------------------------------------------------------------------

coor:   Atomic-coordinates input format  =     Cartesian coordinates
coor:                                          (in Angstroms)

siesta: Atomic coordinates (Bohr) and species
siesta:      0.00000   0.00000   2.47298  1        1
siesta:      0.00000   0.00000   7.41894  1        2
siesta:     -2.32814   4.03246   2.47298  1        3
siesta:     -4.65629   8.06493   7.41894  1        4
siesta:      4.65629   8.06493   2.47298  1        5
siesta:      2.32814   4.03246   7.41894  1        6
siesta:      4.65629   0.00000   2.47298  1        7
siesta:      9.31257   0.00000   7.41894  1        8
siesta:      4.65629   0.00000   7.41894  1        9
siesta:      9.31257   0.00000   2.47298  1       10
siesta:      4.65629   8.06493   7.41894  1       11
siesta:      2.32814   4.03246   2.47298  1       12
siesta:     -2.32814   4.03246   7.41894  1       13
siesta:     -4.65629   8.06493   2.47298  1       14
siesta:      0.00000   8.06493   2.47298  1       15
siesta:      6.98443   4.03246   7.41894  1       16
siesta:      6.98443   4.03246   2.47298  1       17
siesta:      0.00000   8.06493   7.41894  1       18
siesta:      0.00000   2.68831   2.47298  1       19
siesta:      6.98443   9.40908   7.41894  1       20
siesta:      4.65629  10.75324   2.47298  1       21
siesta:      2.32814   1.34415   7.41894  1       22
siesta:     -4.65629  10.75324   2.47298  1       23
siesta:     11.64072   1.34415   7.41894  1       24
siesta:     -2.32814   6.72077   2.47298  1       25
siesta:      9.31257   5.37662   7.41894  1       26
siesta:      2.32815   6.72077   2.47298  1       27
siesta:      4.65628   5.37662   7.41894  1       28
siesta:     -0.00000  10.75324   2.47298  1       29
siesta:      6.98443   1.34415   7.41894  1       30
siesta:      4.65629   2.68831   2.47298  1       31
siesta:      2.32814   9.40908   7.41894  1       32
siesta:      9.31258   2.68831   2.47298  1       33
siesta:     -2.32815   9.40908   7.41894  1       34
siesta:      6.98443   6.72077   2.47298  1       35
siesta:      0.00000   5.37662   7.41894  1       36

siesta: System type = bulk      

initatomlists: Number of atoms, orbitals, and projectors:     36   144   324

siesta: ******************** Simulation parameters ****************************
siesta:
siesta: The following are some of the parameters of the simulation.
siesta: A complete list of the parameters used, including default values,
siesta: can be found in file out.fdf
siesta:
redata: Spin configuration                          = none
redata: Number of spin components                   = 1
redata: Time-Reversal Symmetry                      = T
redata: Spin spiral                                 = F
redata: Long output                                 =   F
redata: Number of Atomic Species                    =        1
redata: Charge density info will appear in .RHO file
redata: Write Mulliken Pop.                         = NO
redata: Matel table size (NRTAB)                    =     1024
redata: Mesh Cutoff                                 =   300.0000 Ry
redata: Net charge of the system                    =     0.0000 |e|
redata: Min. number of SCF Iter                     =        0
redata: Max. number of SCF Iter                     =     1000
redata: SCF convergence failure will abort job
redata: SCF mix quantity                            = Hamiltonian
redata: Mix DM or H after convergence               =   F
redata: Recompute H after scf cycle                 =   F
redata: Mix DM in first SCF step                    =   T
redata: Write Pulay info on disk                    =   F
redata: New DM Occupancy tolerance                  = 0.000000000001
redata: No kicks to SCF
redata: DM Mixing Weight for Kicks                  =     0.5000
redata: Require Harris convergence for SCF          =   F
redata: Harris energy tolerance for SCF             =     0.000100 eV
redata: Require DM convergence for SCF              =   T
redata: DM tolerance for SCF                        =     0.001000
redata: Require EDM convergence for SCF             =   F
redata: EDM tolerance for SCF                       =     0.005000 eV
redata: Require H convergence for SCF               =   T
redata: Hamiltonian tolerance for SCF               =     0.001000 eV
redata: Require (free) Energy convergence for SCF   =   T
redata: (free) Energy tolerance for SCF             =     0.001000 eV
redata: Using Saved Data (generic)                  =   F
redata: Use continuation files for DM               =   F
redata: Neglect nonoverlap interactions             =   F
redata: Method of Calculation                       = Diagonalization
redata: Electronic Temperature                      =   299.9869 K
redata: Fix the spin of the system                  =   F
redata: Dynamics option                             = Single-point calculation
mix.SCF: Pulay mixing                            = Pulay
mix.SCF:    Variant                              = stable
mix.SCF:    History steps                        = 4
mix.SCF:    Linear mixing weight                 =     0.250000
mix.SCF:    Mixing weight                        =     0.250000
mix.SCF:    SVD condition                        = 0.1000E-07
redata: ***********************************************************************

%block SCF.Mixers
  Pulay
%endblock SCF.Mixers

%block SCF.Mixer.Pulay
  # Mixing method
  method pulay
  variant stable

  # Mixing options
  weight 0.2500
  weight.linear 0.2500
  history 4
%endblock SCF.Mixer.Pulay

DM_history_depth set to one: no extrapolation allowed by default for geometry relaxation
Size of DM history Fstack: 1
Total number of electrons:   144.000000
Total ionic charge:   144.000000

* ProcessorY, Blocksize:    2   1


* Orbital distribution balance (max,min):    15    14

k-point displ. along   1 input, could be:     0.00    0.50
k-point displ. along   2 input, could be:     0.00    0.50
k-point displ. along   3 input, could be:     0.00    0.50
 Kpoints in:            8 . Kpoints trimmed:            8

siesta: k-grid: Number of k-points =     8
siesta: k-grid: Cutoff (effective) =     5.235 Ang
siesta: k-grid: Supercell and displacements
siesta: k-grid:    2   0   0      0.000
siesta: k-grid:    0   2   0      0.000
siesta: k-grid:    0   0   2      0.000

diag: Algorithm                                     = Expert
diag: Parallel over k                               =   T
diag: Use parallel 2D distribution                  =   T
diag: Parallel block-size                           = 1
diag: Parallel distribution                         =     2 x     5
diag: Used triangular part                          = Lower
diag: Absolute tolerance                            =  0.100E-15
diag: Orthogonalization factor                      =  0.100E-05
diag: Memory factor                                 =  1.0000

superc: Internal auxiliary supercell:     5 x     5 x     5  =     125
superc: Number of atoms, orbitals, and projectors:   4500  18000  40500


ts: **************************************************************
ts: Save H and S matrices                           =    F
ts: Save DM and EDM matrices                        =    F
ts: Only save the overlap matrix S                  =    F
ts: **************************************************************

************************ Begin: TS CHECKS AND WARNINGS ************************
************************ End: TS CHECKS AND WARNINGS **************************


                     ====================================
                        Single-point calculation
                     ====================================

outcoor: Atomic coordinates (Ang):                          
    0.00000000    0.00000000    1.30864500   1       1  C-gga
    0.00000000    0.00000000    3.92593500   1       2  C-gga
   -1.23200000    2.13388659    1.30864500   1       3  C-gga
   -2.46400000    4.26777319    3.92593500   1       4  C-gga
    2.46400000    4.26777319    1.30864500   1       5  C-gga
    1.23200000    2.13388659    3.92593500   1       6  C-gga
    2.46400000    0.00000000    1.30864500   1       7  C-gga
    4.92800000    0.00000000    3.92593500   1       8  C-gga
    2.46400000    0.00000000    3.92593500   1       9  C-gga
    4.92800000    0.00000000    1.30864500   1      10  C-gga
    2.46400000    4.26777319    3.92593500   1      11  C-gga
    1.23200000    2.13388659    1.30864500   1      12  C-gga
   -1.23200000    2.13388659    3.92593500   1      13  C-gga
   -2.46400000    4.26777319    1.30864500   1      14  C-gga
    0.00000000    4.26777319    1.30864500   1      15  C-gga
    3.69600000    2.13388659    3.92593500   1      16  C-gga
    3.69600000    2.13388659    1.30864500   1      17  C-gga
    0.00000000    4.26777319    3.92593500   1      18  C-gga
    0.00000000    1.42258964    1.30864500   1      19  C-gga
    3.69600000    4.97907014    3.92593500   1      20  C-gga
    2.46400123    5.69036496    1.30864500   1      21  C-gga
    1.23199877    0.71129482    3.92593500   1      22  C-gga
   -2.46400123    5.69036496    1.30864500   1      23  C-gga
    6.16000123    0.71129482    3.92593500   1      24  C-gga
   -1.23200000    3.55647624    1.30864500   1      25  C-gga
    4.92800000    2.84518355    3.92593500   1      26  C-gga
    1.23200123    3.55647837    1.30864500   1      27  C-gga
    2.46399877    2.84518142    3.92593500   1      28  C-gga
   -0.00000123    5.69036496    1.30864500   1      29  C-gga
    3.69600123    0.71129482    3.92593500   1      30  C-gga
    2.46400000    1.42258964    1.30864500   1      31  C-gga
    1.23200000    4.97907014    3.92593500   1      32  C-gga
    4.92800123    1.42259177    1.30864500   1      33  C-gga
   -1.23200123    4.97906801    3.92593500   1      34  C-gga
    3.69599877    3.55647837    1.30864500   1      35  C-gga
    0.00000123    2.84518142    3.92593500   1      36  C-gga

superc: Internal auxiliary supercell:     5 x     5 x     5  =     125
superc: Number of atoms, orbitals, and projectors:   4500  18000  40500

outcell: Unit cell vectors (Ang):
        7.392000    0.000000    0.000000
       -3.696000    6.401660    0.000000
        0.000000    0.000000    5.234580

outcell: Cell vector modules (Ang)   :    7.392000    7.392000    5.234580
outcell: Cell angles (23,13,12) (deg):     90.0000     90.0000    120.0000
outcell: Cell volume (Ang**3)        :    247.7059
<dSpData1D:S at geom step 0
  <sparsity:sparsity for geom step 0
    nrows_g=144 nrows=15 sparsity=1.0543 nnzs=21862, refcount: 7>
  <dData1D:(new from dSpData1D) n=21862, refcount: 1>
refcount: 1>
new_DM -- step:     1
Initializing Density Matrix...
DM filled with atomic data:
<dSpData2D:DM initialized from atoms
  <sparsity:sparsity for geom step 0
    nrows_g=144 nrows=15 sparsity=1.0543 nnzs=21862, refcount: 8>
  <dData2D:DM n=21862 m=1, refcount: 1>
refcount: 1>
No. of atoms with KB's overlaping orbs in proc 0. Max # of overlaps:     252     280
New grid distribution:   1
           1       1:   36    1:   18    1:    6
           2       1:   36    1:   18    7:   12
           3       1:   36    1:   18   13:   18
           4       1:   36    1:   18   19:   24
           5       1:   36    1:   18   25:   30
           6       1:   36   19:   36    1:    6
           7       1:   36   19:   36    7:   12
           8       1:   36   19:   36   13:   18
           9       1:   36   19:   36   19:   24
          10       1:   36   19:   36   25:   30

InitMesh: MESH =    72 x    72 x    60 =      311040
InitMesh: (bp) =    36 x    36 x    30 =       38880
InitMesh: Mesh cutoff (required, used) =   300.000   349.608 Ry
ExtMesh (bp) on 0 =   128 x   110 x   102 =     1436160
New grid distribution:   2
           1       1:   15    1:   18    1:   15
           2      16:   36    1:   18    1:   10
           3      16:   36    1:    9   11:   30
           4       1:   15    1:   18   16:   30
           5      16:   36   10:   18   11:   30
           6       1:   15   19:   36    1:   15
           7      16:   36   19:   36    1:   10
           8      16:   36   19:   27   11:   30
           9       1:   15   19:   36   16:   30
          10      16:   36   28:   36   11:   30
New grid distribution:   3
           1       1:   15    1:   18    1:   15
           2      16:   36    1:   18    1:   10
           3      16:   36    1:    9   11:   30
           4       1:   15    1:   18   16:   30
           5      16:   36   10:   18   11:   30
           6       1:   15   19:   36    1:   15
           7      16:   36   19:   36    1:   10
           8      16:   36   19:   27   11:   30
           9       1:   15   19:   36   16:   30
          10      16:   36   28:   36   11:   30
Setting up quadratic distribution...
ExtMesh (bp) on 0 =   107 x   110 x   111 =     1306470
PhiOnMesh: Number of (b)points on node 0 =                 4050
PhiOnMesh: nlist on node 0 =               597858

stepf: Fermi-Dirac step function

siesta: Program's energy decomposition (eV):
siesta: Ebs     =     -2550.632151
siesta: Eions   =      9434.507561
siesta: Ena     =      2251.253362
siesta: Ekin    =      3744.959784
siesta: Enl     =      -358.866114
siesta: Eso     =         0.000000
siesta: Edftu   =         0.000000
siesta: DEna    =       -60.836332
siesta: DUscf   =         3.702957
siesta: DUext   =         0.000000
siesta: Exc     =     -1665.744595
siesta: eta*DQ  =         0.000000
siesta: Emadel  =         0.000000
siesta: Emeta   =         0.000000
siesta: Emolmec =         0.000000
siesta: Ekinion =         0.000000
siesta: Eharris =     -5339.179942
siesta: Etot    =     -5520.038498
siesta: FreeEng =     -5520.064439

        iscf     Eharris(eV)        E_KS(eV)     FreeEng(eV)     dDmax    Ef(eV) dHmax(eV)
   scf:    1    -5339.179942    -5520.038498    -5520.064439  1.326543 -8.628525  0.524493
timer: Routine,Calls,Time,% = IterSCF        1       2.613  54.23
   scf:    2    -5520.124885    -5520.089765    -5520.111831  0.013971 -8.563910  0.368866
   scf:    3    -5520.109202    -5520.102447    -5520.124251  0.006423 -8.356590  0.045391
   scf:    4    -5520.109350    -5520.106783    -5520.127825  0.004317 -8.330821  0.003841
   scf:    5    -5520.106497    -5520.106766    -5520.127771  0.001576 -8.328199  0.004925
   scf:    6    -5520.106930    -5520.106886    -5520.127896  0.000891 -8.330045  0.000206

SCF Convergence by FreeE+DM+H criterion
|FreeE_i-FreeE_(i-1)| (eV) <     0.00100000
max |DM_out - DM_in|         :     0.0008909021
max |H_out - H_in|      (eV) :     0.0002058721
SCF cycle converged after 6 iterations

Using DM_out to compute the final energy and forces
No. of atoms with KB's overlaping orbs in proc 0. Max # of overlaps:     252     280

siesta: E_KS(eV) =            -5520.1069

siesta: E_KS - E_eggbox =     -5520.1069

siesta: Atomic forces (eV/Ang):
     1   -0.000000   -0.000000   -0.000000
     2    0.000000   -0.000000   -0.000000
     3    0.000069   -0.000053   -0.000000
     4   -0.000069    0.000053   -0.000000
     5    0.000012    0.000086   -0.000000
     6   -0.000012   -0.000086   -0.000000
     7   -0.000081   -0.000033   -0.000000
     8    0.000080    0.000033   -0.000000
     9   -0.000015   -0.000014   -0.000000
    10    0.000015    0.000014   -0.000000
    11   -0.000005    0.000020   -0.000000
    12    0.000005   -0.000019   -0.000000
    13    0.000020   -0.000005   -0.000000
    14   -0.000020    0.000005   -0.000000
    15   -0.000000   -0.000000   -0.000000
    16    0.000000    0.000000   -0.000000
    17   -0.000000    0.000000   -0.000000
    18    0.000000    0.000000   -0.000000
    19    0.000007    0.000124    0.000000
    20   -0.000007   -0.000124    0.000000
    21   -0.000111   -0.000056    0.000000
    22    0.000111    0.000056    0.000000
    23    0.000104   -0.000068    0.000000
    24   -0.000104    0.000068    0.000000
    25    0.000008    0.000110    0.000000
    26   -0.000008   -0.000110    0.000000
    27   -0.000099   -0.000049    0.000000
    28    0.000099    0.000048    0.000000
    29    0.000091   -0.000061    0.000000
    30   -0.000091    0.000061    0.000000
    31    0.000008    0.000111    0.000000
    32   -0.000008   -0.000111    0.000000
    33   -0.000100   -0.000048    0.000000
    34    0.000100    0.000048    0.000000
    35    0.000092   -0.000063    0.000000
    36   -0.000092    0.000062    0.000000
----------------------------------------
   Tot    0.000000   -0.000001    0.000000
----------------------------------------
   Max    0.000124
   Res    0.000052    sqrt( Sum f_i^2 / 3N )
----------------------------------------
   Max    0.000124    constrained

Stress tensor Voigt[x,y,z,yz,xz,xy] (kbar):     -395.20     -395.20       46.31        0.00       -0.00        0.00
(Free)E + p*V (eV/cell)    -5481.7815
Target enthalpy (eV/cell)    -5520.1279

siesta: Eigenvalues (eV):
  ik is       eps
   1  1  -28.5795  -27.4285  -25.7304  -25.7304  -25.7304  -25.7303  -25.7303  -25.7303  -24.8738  -24.8738
         -24.8738  -24.8738  -24.8738  -24.8738  -21.7798  -21.7798  -21.3325  -21.3325  -21.3325  -21.3325
  -20.9292  -20.9292  -18.8808  -18.8808  -18.8808  -18.8808  -18.7230  -18.7230  -18.7230  -18.7230
  -18.7230  -18.7230  -18.0656  -18.0656  -18.0656  -18.0655  -18.0655  -18.0655  -17.2812  -15.0177
  -15.0177  -15.0177  -15.0177  -15.0177  -15.0177  -14.7288  -14.7288  -14.7288  -14.7288  -14.7288
  -14.7287  -14.6772  -14.6772  -14.6772  -14.6772  -14.6772  -14.6772  -12.6875  -12.2808  -12.2808
  -12.1475  -12.1475  -10.3591  -10.3591  -10.3196  -10.3196  -10.3196  -10.3196  -10.3196  -10.3196
   -8.4442   -8.4442   -8.4442   -8.4442   -5.9178   -5.9178   -3.8663   -3.8663   -3.8663   -3.8663
   -3.8663   -3.8663   -1.8112   -1.8112   -1.8112   -1.8112   -1.8112   -1.8112    0.6386    0.6386
    0.6386    0.6387    0.6387    0.6387    0.8664    0.8664    1.0893    1.0893    1.8901    1.8901
    1.8901    1.8901    1.8901    1.8901    2.1749    3.2313    4.0598    4.8179    7.4991    7.4991
    7.5942    7.5942    7.5942    7.5942    7.7451    7.7451    8.9037    8.9038    8.9038    8.9038
    8.9038    8.9038    9.1184    9.1184    9.1184    9.1184    9.1184    9.1184   10.4667   10.4667
   10.4667   10.4667   10.4667   10.4667   10.8558   10.8558   10.8558   10.8559   10.8559   10.8559
   15.5719   15.5719   15.5719   15.5719
   2  1  -27.8255  -27.8255  -26.7656  -26.7656  -26.3982  -26.3982  -25.4868  -25.4868  -23.9093  -23.9093
         -23.9093  -23.9093  -23.2553  -23.1842  -23.1842  -23.1842  -23.1842  -22.7784  -21.4524  -21.3149
  -20.3245  -20.3245  -20.3245  -20.3245  -19.7546  -19.7546  -19.7546  -19.7546  -17.1079  -17.1079
  -17.1079  -17.1079  -16.9549  -16.9549  -16.6537  -16.6537  -16.6528  -16.6528  -16.6528  -16.6528
  -16.6402  -16.6402  -15.6074  -15.4675  -15.4675  -15.3752  -15.3752  -15.2605  -15.1810  -15.1810
  -14.6225  -14.6225  -14.2032  -14.2032  -13.4541  -13.4541  -13.1745  -13.1745  -12.7528  -12.7528
  -12.7527  -12.7527  -12.1681  -12.0304  -12.0304  -10.7907  -10.7907  -10.3491   -9.2639   -9.2639
   -9.2639   -9.2639   -6.1534   -6.1534   -6.1534   -6.1534   -5.4128   -4.9769   -4.3347   -4.3347
   -4.3347   -4.3347   -2.5191   -2.5191   -0.8888   -0.8888    0.3308    0.3844    0.3844    1.1290
    1.1290    1.6661    1.6860    1.6860    1.8824    1.8825    3.2664    3.2664    3.2664    3.2664
    3.6564    3.6564    3.7489    3.7489    3.8761    3.8761    3.9183    3.9184    4.1853    4.1854
    4.1854    4.1854    4.5399    4.5399    4.7232    4.7232    5.7819    5.7819    6.4120    6.4121
    8.9125    8.9125    8.9125    8.9125    9.2140    9.2140    9.2140    9.2140   10.2202   10.2202
   10.4413   10.4413   11.5330   11.6106   13.4007   13.6260   14.1220   14.1220   14.1220   14.1220
   14.1851   14.1851   14.1851   14.1851
   3  1  -27.8255  -27.8255  -26.7656  -26.7656  -26.3982  -26.3982  -25.4868  -25.4868  -23.9093  -23.9093
         -23.9093  -23.9093  -23.2553  -23.1842  -23.1842  -23.1842  -23.1842  -22.7784  -21.4524  -21.3149
  -20.3245  -20.3245  -20.3245  -20.3245  -19.7546  -19.7546  -19.7546  -19.7546  -17.1079  -17.1079
  -17.1079  -17.1079  -16.9549  -16.9549  -16.6537  -16.6537  -16.6528  -16.6528  -16.6528  -16.6528
  -16.6402  -16.6402  -15.6074  -15.4675  -15.4675  -15.3752  -15.3752  -15.2605  -15.1810  -15.1810
  -14.6225  -14.6225  -14.2032  -14.2032  -13.4541  -13.4541  -13.1745  -13.1745  -12.7528  -12.7528
  -12.7527  -12.7527  -12.1681  -12.0304  -12.0304  -10.7907  -10.7907  -10.3491   -9.2639   -9.2639
   -9.2639   -9.2639   -6.1534   -6.1534   -6.1534   -6.1534   -5.4128   -4.9769   -4.3347   -4.3347
   -4.3347   -4.3347   -2.5191   -2.5191   -0.8888   -0.8888    0.3308    0.3844    0.3844    1.1290
    1.1290    1.6661    1.6860    1.6860    1.8824    1.8825    3.2664    3.2664    3.2664    3.2664
    3.6564    3.6564    3.7489    3.7489    3.8761    3.8761    3.9183    3.9184    4.1853    4.1854
    4.1854    4.1854    4.5399    4.5399    4.7232    4.7232    5.7819    5.7819    6.4120    6.4121
    8.9125    8.9125    8.9125    8.9125    9.2140    9.2140    9.2140    9.2140   10.2202   10.2202
   10.4413   10.4413   11.5330   11.6106   13.4007   13.6260   14.1220   14.1220   14.1220   14.1220
   14.1851   14.1851   14.1851   14.1851
   4  1  -27.8255  -27.8255  -26.7656  -26.7656  -26.3982  -26.3982  -25.4868  -25.4868  -23.9093  -23.9093
         -23.9093  -23.9093  -23.2553  -23.1842  -23.1842  -23.1842  -23.1842  -22.7784  -21.4524  -21.3149
  -20.3245  -20.3245  -20.3245  -20.3245  -19.7546  -19.7546  -19.7546  -19.7546  -17.1079  -17.1079
  -17.1079  -17.1079  -16.9549  -16.9549  -16.6537  -16.6537  -16.6528  -16.6528  -16.6528  -16.6528
  -16.6402  -16.6402  -15.6074  -15.4675  -15.4675  -15.3752  -15.3752  -15.2605  -15.1810  -15.1810
  -14.6225  -14.6225  -14.2032  -14.2032  -13.4541  -13.4541  -13.1745  -13.1745  -12.7528  -12.7528
  -12.7527  -12.7527  -12.1681  -12.0304  -12.0304  -10.7907  -10.7907  -10.3491   -9.2639   -9.2639
   -9.2639   -9.2639   -6.1534   -6.1534   -6.1534   -6.1534   -5.4128   -4.9769   -4.3347   -4.3347
   -4.3347   -4.3347   -2.5191   -2.5191   -0.8888   -0.8888    0.3308    0.3844    0.3844    1.1290
    1.1290    1.6661    1.6860    1.6860    1.8824    1.8825    3.2664    3.2664    3.2664    3.2664
    3.6564    3.6564    3.7489    3.7489    3.8761    3.8761    3.9183    3.9184    4.1853    4.1854
    4.1854    4.1854    4.5399    4.5399    4.7232    4.7232    5.7819    5.7819    6.4120    6.4121
    8.9125    8.9125    8.9125    8.9125    9.2140    9.2140    9.2140    9.2140   10.2202   10.2202
   10.4413   10.4413   11.5330   11.6106   13.4007   13.6260   14.1220   14.1220   14.1220   14.1220
   14.1851   14.1851   14.1851   14.1851
   5  1  -28.1038  -28.1038  -25.3613  -25.3613  -25.3613  -25.3613  -25.3613  -25.3613  -25.3613  -25.3613
         -25.3613  -25.3613  -25.3613  -25.3613  -21.3884  -21.3884  -21.3884  -21.3884  -21.3067  -21.3067
  -21.3067  -21.3067  -18.9283  -18.9283  -18.9283  -18.9283  -18.4172  -18.4172  -18.4172  -18.4172
  -18.4172  -18.4172  -18.4172  -18.4172  -18.4172  -18.4172  -18.4172  -18.4172  -15.3016  -15.3016
  -14.8508  -14.8508  -14.8508  -14.8508  -14.8508  -14.8508  -14.8507  -14.8507  -14.8507  -14.8507
  -14.8507  -14.8507  -12.7737  -12.7737  -12.7737  -12.7737  -12.7737  -12.7737  -12.7737  -12.7737
  -12.7737  -12.7737  -12.7737  -12.7737  -12.2163  -12.2163  -12.2163  -12.2163   -8.3303   -8.3303
   -8.3303   -8.3303   -8.2106   -8.2106   -8.2106   -8.2106   -2.9933   -2.9933   -2.9933   -2.9933
   -2.9933   -2.9933   -2.9933   -2.9933   -2.9933   -2.9933   -2.9933   -2.9933    0.9711    0.9711
    0.9711    0.9711    1.3993    1.3993    1.3993    1.3993    1.3993    1.3993    1.3993    1.3993
    1.3993    1.3993    1.3993    1.3993    2.5727    2.5727    4.5575    4.5575    7.6141    7.6141
    7.6141    7.6141    7.6737    7.6737    7.6737    7.6737    9.0102    9.0102    9.0102    9.0102
    9.0102    9.0102    9.0102    9.0102    9.0102    9.0102    9.0102    9.0102   10.7052   10.7052
   10.7052   10.7052   10.7052   10.7052   10.7053   10.7053   10.7053   10.7053   10.7053   10.7053
   15.5730   15.5730   15.5730   15.5730
   6  1  -27.3853  -27.3853  -27.3853  -27.3853  -26.0117  -26.0117  -26.0116  -26.0116  -23.5778  -23.5778
         -23.5778  -23.5778  -23.5778  -23.5778  -23.5778  -23.5778  -22.9827  -22.9827  -21.4746  -21.4746
  -20.0596  -20.0596  -20.0596  -20.0596  -20.0596  -20.0596  -20.0596  -20.0596  -16.8969  -16.8969
  -16.8969  -16.8969  -16.8969  -16.8969  -16.8969  -16.8969  -16.7779  -16.7779  -16.7779  -16.7779
  -15.4376  -15.4376  -15.3696  -15.3696  -15.3696  -15.3696  -14.7163  -14.7163  -14.7163  -14.7163
  -14.3999  -14.3999  -14.3999  -14.3999  -13.4092  -13.4092  -13.4092  -13.4092  -13.3172  -13.3172
  -13.3172  -13.3172  -10.9143  -10.9143  -10.9143  -10.9143  -10.9143  -10.9143  -10.9143  -10.9143
  -10.6763  -10.6763   -6.0205   -6.0205   -5.4990   -5.4990   -5.4990   -5.4990   -5.4990   -5.4990
   -5.4990   -5.4990   -1.7830   -1.7830   -1.7830   -1.7830    0.7219    0.7219    0.7219    0.7219
    1.0953    1.0953    1.8155    1.8155    1.8155    1.8155    3.7834    3.7834    3.7834    3.7834
    3.7860    3.7860    3.7860    3.7860    3.7860    3.7860    3.7860    3.7860    4.1034    4.1034
    4.1034    4.1034    4.4935    4.4935    4.4935    4.4935    6.1335    6.1335    6.1335    6.1335
    9.0981    9.0981    9.0981    9.0981    9.0982    9.0982    9.0982    9.0982   10.3296   10.3296
   10.3296   10.3296   11.5713   11.5713   13.5395   13.5395   14.1598   14.1598   14.1598   14.1598
   14.1598   14.1598   14.1598   14.1598
   7  1  -27.3853  -27.3853  -27.3853  -27.3853  -26.0117  -26.0117  -26.0116  -26.0116  -23.5778  -23.5778
         -23.5778  -23.5778  -23.5778  -23.5778  -23.5778  -23.5778  -22.9827  -22.9827  -21.4746  -21.4746
  -20.0596  -20.0596  -20.0596  -20.0596  -20.0596  -20.0596  -20.0596  -20.0596  -16.8969  -16.8969
  -16.8969  -16.8969  -16.8969  -16.8969  -16.8969  -16.8969  -16.7779  -16.7779  -16.7779  -16.7779
  -15.4376  -15.4376  -15.3696  -15.3696  -15.3696  -15.3696  -14.7163  -14.7163  -14.7163  -14.7163
  -14.3999  -14.3999  -14.3999  -14.3999  -13.4092  -13.4092  -13.4092  -13.4092  -13.3172  -13.3172
  -13.3172  -13.3172  -10.9143  -10.9143  -10.9143  -10.9143  -10.9143  -10.9143  -10.9143  -10.9143
  -10.6763  -10.6763   -6.0205   -6.0205   -5.4990   -5.4990   -5.4990   -5.4990   -5.4990   -5.4990
   -5.4990   -5.4990   -1.7830   -1.7830   -1.7830   -1.7830    0.7219    0.7219    0.7219    0.7219
    1.0953    1.0953    1.8155    1.8155    1.8155    1.8155    3.7834    3.7834    3.7834    3.7834
    3.7860    3.7860    3.7860    3.7860    3.7860    3.7860    3.7860    3.7860    4.1034    4.1034
    4.1034    4.1034    4.4935    4.4935    4.4935    4.4935    6.1335    6.1335    6.1335    6.1335
    9.0981    9.0981    9.0981    9.0981    9.0982    9.0982    9.0982    9.0982   10.3296   10.3296
   10.3296   10.3296   11.5713   11.5713   13.5395   13.5395   14.1598   14.1598   14.1598   14.1598
   14.1598   14.1598   14.1598   14.1598
   8  1  -27.3853  -27.3853  -27.3853  -27.3853  -26.0117  -26.0117  -26.0116  -26.0116  -23.5778  -23.5778
         -23.5778  -23.5778  -23.5778  -23.5778  -23.5778  -23.5778  -22.9827  -22.9827  -21.4746  -21.4746
  -20.0596  -20.0596  -20.0596  -20.0596  -20.0596  -20.0596  -20.0596  -20.0596  -16.8969  -16.8969
  -16.8969  -16.8969  -16.8969  -16.8969  -16.8969  -16.8969  -16.7779  -16.7779  -16.7779  -16.7779
  -15.4376  -15.4376  -15.3696  -15.3696  -15.3696  -15.3696  -14.7163  -14.7163  -14.7163  -14.7163
  -14.3999  -14.3999  -14.3999  -14.3999  -13.4092  -13.4092  -13.4092  -13.4092  -13.3172  -13.3172
  -13.3172  -13.3172  -10.9143  -10.9143  -10.9143  -10.9143  -10.9143  -10.9143  -10.9143  -10.9143
  -10.6763  -10.6763   -6.0205   -6.0205   -5.4990   -5.4990   -5.4990   -5.4990   -5.4990   -5.4990
   -5.4990   -5.4990   -1.7830   -1.7830   -1.7830   -1.7830    0.7219    0.7219    0.7219    0.7219
    1.0953    1.0953    1.8155    1.8155    1.8155    1.8155    3.7834    3.7834    3.7834    3.7834
    3.7860    3.7860    3.7860    3.7860    3.7860    3.7860    3.7860    3.7860    4.1034    4.1034
    4.1034    4.1034    4.4935    4.4935    4.4935    4.4935    6.1335    6.1335    6.1335    6.1335
    9.0981    9.0981    9.0981    9.0981    9.0982    9.0982    9.0982    9.0982   10.3296   10.3296
   10.3296   10.3296   11.5713   11.5713   13.5395   13.5395   14.1598   14.1598   14.1598   14.1598
   14.1598   14.1598   14.1598   14.1598
siesta: Fermi energy =      -8.330045 eV

siesta: Program's energy decomposition (eV):
siesta: Ebs     =     -2551.755492
siesta: Eions   =      9434.507561
siesta: Ena     =      2251.253362
siesta: Ekin    =      3742.159320
siesta: Enl     =      -358.004730
siesta: Eso     =         0.000000
siesta: Edftu   =         0.000000
siesta: DEna    =       -59.164816
siesta: DUscf   =         3.543115
siesta: DUext   =         0.000000
siesta: Exc     =     -1665.385575
siesta: eta*DQ  =         0.000000
siesta: Emadel  =         0.000000
siesta: Emeta   =         0.000000
siesta: Emolmec =         0.000000
siesta: Ekinion =         0.000000
siesta: Eharris =     -5520.106930
siesta: Etot    =     -5520.106886
siesta: FreeEng =     -5520.127896

siesta: Final energy (eV):
siesta:  Band Struct. =   -2551.755492
siesta:       Kinetic =    3742.159320
siesta:       Hartree =     691.879695
siesta:       Edftu   =       0.000000
siesta:       Eso     =       0.000000
siesta:    Ext. field =       0.000000
siesta:   Exch.-corr. =   -1665.385575
siesta:  Ion-electron =   -5500.817247
siesta:       Ion-ion =   -2787.943078
siesta:       Ekinion =       0.000000
siesta:         Total =   -5520.106886
siesta:         Fermi =      -8.330045

siesta: Stress tensor (static) (eV/Ang**3):
siesta:    -0.246663    0.000000    0.000000
siesta:     0.000000   -0.246663    0.000000
siesta:    -0.000000    0.000000    0.028907

siesta: Cell volume =        247.705922 Ang**3

siesta: Pressure (static):
siesta:                Solid            Molecule  Units
siesta:           0.00168604          0.00168607  Ry/Bohr**3
siesta:           0.15480617          0.15480949  eV/Ang**3
siesta:         248.02951148        248.03482853  kBar
(Free)E+ p_basis*V_orbitals  =       -5501.824850
(Free)Eharris+ p_basis*V_orbitals  =       -5501.824894

cite: Please see "graphite_scf.bib" for an exhaustive BiBTeX file.
cite: Please clearly indicate Siesta version in published work: 4.1.5
cite: This calculation has made use of the following articles
cite: which are encouraged to be cited in a published work.
        Primary SIESTA paper
          DOI: www.doi.org/10.1088/0953-8984/14/11/302

>> End of run:  28-OCT-2022  14:39:32
Job completed
