Siesta Version  : 4.1.5
Architecture    : x86_64-unknown-linux-gnu--unknown
Compiler version: GNU Fortran (GCC) 11.3.0
Compiler flags  : mpif90 -g -O2 -fallow-argument-mismatch
PP flags        : -DMPI -DFC_HAVE_FLUSH -DFC_HAVE_ABORT
Libraries       :  -I/global/software/sl-7.x86_64/modules/intel/2020.4.304/mkl/include  /globall/software/sl-7.x86_64/modules/intel/2020.4.304/mkl/lib/intel64/libmkl_scalapack_lp64.a -Wl,--start-group /global/software/sl-7.x86_64/modules/intel/2020.4.304/mkl/lib/intel64/libmkl_intel_lp64.a /global/software/sl-7.x86_64/modules/intel/2020.4.304/mkl/lib/intel64/libmkl_sequential.a /global/software/sl-7.x86_64/modules/intel/2020.4.304/mkl/lib/intel64/libmkl_core.a /global/software/sl-7.x86_64/modules/intel/2020.4.304/mkl/lib/intel64/libmkl_blacs_openmpi_lp64.a -Wl,--end-group -lpthread -lm -ldl
PARALLEL version

* Running on 10 nodes in parallel
>> Start of run:  28-OCT-2022  14:44:18

                           ***********************       
                           *  WELCOME TO SIESTA  *       
                           ***********************       

reinit: Reading from standard input
reinit: Dumped input in INPUT_TMP.93378
************************** Dump of input data file ****************************
SystemName graphite_scf
SystemLabel graphite_scf
NumberOfAtoms   36
NumberOfSpecies 1
%block ChemicalSpeciesLabel
1  6   C-gga
%endblock ChemicalSpeciesLabel
PAO.BasisSize  SZ
PAO.EnergyShift  10 meV
%block PS.Lmax
C-gga   2
%endblock PS.Lmax
LatticeConstant 1.000000 Ang
%block LatticeVectors
	7.3920000000	0.0000000000	0.0000000000
	-3.6960000000	6.4016597848	0.0000000000
	0.0000000000	0.0000000000	4.2279300000
%endblock LatticeVectors
AtomicCoordinatesFormat Ang
%block AtomicCoordinatesAndAtomicSpecies
	0.00000000	0.00000000	1.05698250	1
	0.00000000	0.00000000	3.17094750	1
	-1.23200000	2.13388659	1.05698250	1
	-2.46400000	4.26777319	3.17094750	1
	2.46400000	4.26777319	1.05698250	1
	1.23200000	2.13388659	3.17094750	1
	2.46400000	0.00000000	1.05698250	1
	4.92800000	0.00000000	3.17094750	1
	2.46400000	0.00000000	3.17094750	1
	4.92800000	0.00000000	1.05698250	1
	2.46400000	4.26777319	3.17094750	1
	1.23200000	2.13388659	1.05698250	1
	-1.23200000	2.13388659	3.17094750	1
	-2.46400000	4.26777319	1.05698250	1
	0.00000000	4.26777319	1.05698250	1
	3.69600000	2.13388659	3.17094750	1
	3.69600000	2.13388659	1.05698250	1
	0.00000000	4.26777319	3.17094750	1
	0.00000000	1.42258964	1.05698250	1
	3.69600000	4.97907014	3.17094750	1
	2.46400123	5.69036496	1.05698250	1
	1.23199877	0.71129482	3.17094750	1
	-2.46400123	5.69036496	1.05698250	1
	6.16000123	0.71129482	3.17094750	1
	-1.23200000	3.55647624	1.05698250	1
	4.92800000	2.84518355	3.17094750	1
	1.23200123	3.55647837	1.05698250	1
	2.46399877	2.84518142	3.17094750	1
	-0.00000123	5.69036496	1.05698250	1
	3.69600123	0.71129482	3.17094750	1
	2.46400000	1.42258964	1.05698250	1
	1.23200000	4.97907014	3.17094750	1
	4.92800123	1.42259177	1.05698250	1
	-1.23200123	4.97906801	3.17094750	1
	3.69599877	3.55647837	1.05698250	1
	0.00000123	2.84518142	3.17094750	1
%endblock AtomicCoordinatesAndAtomicSpecies
Kgrid_NoTRS  T
%block kgrid_MonkhorstPack
2       0       0       0.0
0       2       0       0.0
0       0       2       0.0
%endblock kgrid_MonkhorstPack
AtomCoorFormatOut Ang
BlockSize 1
#ProcessorY 12
Diag.ParallelOverK   T
Diag.DivideAndConquer F
MeshCutoff   300 Ry
SCF.FreeE.Tolerance 1E-3 eV
SCF.EDM.Tolerance   5E-3 eV
DM.Tolerance  1E-3
DM.Require.Energy.Convergence T
DM.NumberPulay 4
#XC.Functional GGA
#CX.Authors    PBE
UseSaveData        F
SolutionMethod     diagon
MD.TypeOfRun       CG
MD.VariableCell    F
MD.NumCGsteps      00
MD.MaxCGDispl      0.200000 Bohr
#MD.MaxStressTol    1.000000 GPa
#MD.MaxForceTol     0.010000 eV/Ang
WriteMDHistory T
WriteCoorStep T
WriteForces T
WriteCoorStep    T
WriteEigenValues T
WriteDM    F
MM.UnitsDistance Ang  # what this program prints out DO NOT CHANGE
MM.UnitsEnergy    eV  # what this program prints out DO NOT CHANGE
# MM.Grimme.S6     0.75 # Grimme-paper for PBE (correct for your functional)
# MM.Grimme.D     20.   # Grimme-paper (correct for your functional)
# %block MM.Potentials
#   1   1 Grimme     18.14      2.904 # C, 10.1002/jcc.20495
# %endblock MM.Potentials
#%block ProjectedDensityOfStates
# -200.0  120.0  0.4  12800  eV
#%endblock ProjectedDensityOfStates
************************** End of input data file *****************************

reinit: -----------------------------------------------------------------------
reinit: System Name: graphite_scf
reinit: -----------------------------------------------------------------------
reinit: System Label: graphite_scf
reinit: -----------------------------------------------------------------------

initatom: Reading input for the pseudopotentials and atomic orbitals ----------
Species number:   1 Atomic number:    6 Label: C-gga

Ground state valence configuration:   2s02  2p02
Reading pseudopotential information in formatted form from C-gga.psf

Valence configuration for pseudopotential generation:
2s( 2.00) rc: 1.56
2p( 2.00) rc: 1.56
3d( 0.00) rc: 1.56
4f( 0.00) rc: 1.56
relmxkb: Read Max KB Ang. Momentum=    2 for species C-gga

<basis_specs>
===============================================================================
C-gga                Z=   6    Mass=  12.010        Charge= 0.17977+309
Lmxo=1 Lmxkb= 2    BasisType=split      Semic=F
L=0  Nsemic=0  Cnfigmx=2
          i=1  nzeta=1  polorb=0  (2s)
            splnorm:   0.15000    
               vcte:    0.0000    
               rinn:    0.0000    
               qcoe:    0.0000    
               qyuk:    0.0000    
               qwid:   0.10000E-01
                rcs:    0.0000    
            lambdas:    1.0000    
L=1  Nsemic=0  Cnfigmx=2
          i=1  nzeta=1  polorb=0  (2p)
            splnorm:   0.15000    
               vcte:    0.0000    
               rinn:    0.0000    
               qcoe:    0.0000    
               qyuk:    0.0000    
               qwid:   0.10000E-01
                rcs:    0.0000    
            lambdas:    1.0000    
-------------------------------------------------------------------------------
L=0  Nkbl=1  erefs: 0.17977+309
L=1  Nkbl=1  erefs: 0.17977+309
L=2  Nkbl=1  erefs: 0.17977+309
===============================================================================
</basis_specs>

atom: Called for C-gga                 (Z =   6)

read_vps: Pseudopotential generation method:
read_vps: ATM 3.2.2 Troullier-Martins                       
Valence charge for ps generation:    4.00000

xc_check: Exchange-correlation functional:
xc_check: Ceperley-Alder
xc_check: WARNING: Pseudopotential generated with GGA PBE functional
V l=0 = -2*Zval/r beyond r=  1.5227
V l=1 = -2*Zval/r beyond r=  1.5227
V l=2 = -2*Zval/r beyond r=  1.5227
All V_l potentials equal beyond r=  1.4851
This should be close to max(r_c) in ps generation
All pots = -2*Zval/r beyond r=  1.5227

VLOCAL1: 99.0% of the norm of Vloc inside     19.682 Ry
VLOCAL1: 99.9% of the norm of Vloc inside     44.856 Ry
atom: Maximum radius for 4*pi*r*r*local-pseudopot. charge    1.79142
atom: Maximum radius for r*vlocal+2*Zval:    1.54183
GHOST: No ghost state for L =  0
GHOST: No ghost state for L =  1
GHOST: No ghost state for L =  2

KBgen: Kleinman-Bylander projectors: 
   l= 0   rc=  1.661951   el= -0.994756   Ekb=  5.296364   kbcos=  0.313951
   l= 1   rc=  1.661951   el= -0.376633   Ekb= -4.104879   kbcos= -0.344765
   l= 2   rc=  1.747182   el=  0.002326   Ekb= -1.006421   kbcos= -0.008606

KBgen: Total number of Kleinman-Bylander projectors:    9
atom: -------------------------------------------------------------------------

atom: SANKEY-TYPE ORBITALS:

SPLIT: Orbitals with angular momentum L= 0

SPLIT: Basis orbitals for state 2s

SPLIT: PAO cut-off radius determined from an
SPLIT: energy shift=  0.000735 Ry

   izeta = 1
                 lambda =    1.000000
                     rc =    5.948690
                 energy =   -0.994108
                kinetic =    0.809152
    potential(screened) =   -1.803260
       potential(ionic) =   -5.360717

SPLIT: Orbitals with angular momentum L= 1

SPLIT: Basis orbitals for state 2p

SPLIT: PAO cut-off radius determined from an
SPLIT: energy shift=  0.000735 Ry

   izeta = 1
                 lambda =    1.000000
                     rc =    7.638387
                 energy =   -0.375915
                kinetic =    2.245823
    potential(screened) =   -2.621738
       potential(ionic) =   -5.993382
atom: Total number of Sankey-type orbitals:  4

atm_pop: Valence configuration (for local Pseudopot. screening):
 2s( 2.00)                                                            
 2p( 2.00)                                                            
Vna: chval, zval:    4.00000   4.00000

Vna:  Cut-off radius for the neutral-atom potential:   7.638387

atom: _________________________________________________________________________

prinput: Basis input ----------------------------------------------------------

PAO.BasisType split     

%block ChemicalSpeciesLabel
    1    6 C-gga                   # Species index, atomic number, species label
%endblock ChemicalSpeciesLabel

%block PAO.Basis                 # Define Basis set
C-gga                 2                    # Species label, number of l-shells
 n=2   0   1                         # n, l, Nzeta 
   5.949   
   1.000   
 n=2   1   1                         # n, l, Nzeta 
   7.638   
   1.000   
%endblock PAO.Basis

prinput: ----------------------------------------------------------------------

coor:   Atomic-coordinates input format  =     Cartesian coordinates
coor:                                          (in Angstroms)

siesta: Atomic coordinates (Bohr) and species
siesta:      0.00000   0.00000   1.99741  1        1
siesta:      0.00000   0.00000   5.99222  1        2
siesta:     -2.32814   4.03246   1.99741  1        3
siesta:     -4.65629   8.06493   5.99222  1        4
siesta:      4.65629   8.06493   1.99741  1        5
siesta:      2.32814   4.03246   5.99222  1        6
siesta:      4.65629   0.00000   1.99741  1        7
siesta:      9.31257   0.00000   5.99222  1        8
siesta:      4.65629   0.00000   5.99222  1        9
siesta:      9.31257   0.00000   1.99741  1       10
siesta:      4.65629   8.06493   5.99222  1       11
siesta:      2.32814   4.03246   1.99741  1       12
siesta:     -2.32814   4.03246   5.99222  1       13
siesta:     -4.65629   8.06493   1.99741  1       14
siesta:      0.00000   8.06493   1.99741  1       15
siesta:      6.98443   4.03246   5.99222  1       16
siesta:      6.98443   4.03246   1.99741  1       17
siesta:      0.00000   8.06493   5.99222  1       18
siesta:      0.00000   2.68831   1.99741  1       19
siesta:      6.98443   9.40908   5.99222  1       20
siesta:      4.65629  10.75324   1.99741  1       21
siesta:      2.32814   1.34415   5.99222  1       22
siesta:     -4.65629  10.75324   1.99741  1       23
siesta:     11.64072   1.34415   5.99222  1       24
siesta:     -2.32814   6.72077   1.99741  1       25
siesta:      9.31257   5.37662   5.99222  1       26
siesta:      2.32815   6.72077   1.99741  1       27
siesta:      4.65628   5.37662   5.99222  1       28
siesta:     -0.00000  10.75324   1.99741  1       29
siesta:      6.98443   1.34415   5.99222  1       30
siesta:      4.65629   2.68831   1.99741  1       31
siesta:      2.32814   9.40908   5.99222  1       32
siesta:      9.31258   2.68831   1.99741  1       33
siesta:     -2.32815   9.40908   5.99222  1       34
siesta:      6.98443   6.72077   1.99741  1       35
siesta:      0.00000   5.37662   5.99222  1       36

siesta: System type = bulk      

initatomlists: Number of atoms, orbitals, and projectors:     36   144   324

siesta: ******************** Simulation parameters ****************************
siesta:
siesta: The following are some of the parameters of the simulation.
siesta: A complete list of the parameters used, including default values,
siesta: can be found in file out.fdf
siesta:
redata: Spin configuration                          = none
redata: Number of spin components                   = 1
redata: Time-Reversal Symmetry                      = T
redata: Spin spiral                                 = F
redata: Long output                                 =   F
redata: Number of Atomic Species                    =        1
redata: Charge density info will appear in .RHO file
redata: Write Mulliken Pop.                         = NO
redata: Matel table size (NRTAB)                    =     1024
redata: Mesh Cutoff                                 =   300.0000 Ry
redata: Net charge of the system                    =     0.0000 |e|
redata: Min. number of SCF Iter                     =        0
redata: Max. number of SCF Iter                     =     1000
redata: SCF convergence failure will abort job
redata: SCF mix quantity                            = Hamiltonian
redata: Mix DM or H after convergence               =   F
redata: Recompute H after scf cycle                 =   F
redata: Mix DM in first SCF step                    =   T
redata: Write Pulay info on disk                    =   F
redata: New DM Occupancy tolerance                  = 0.000000000001
redata: No kicks to SCF
redata: DM Mixing Weight for Kicks                  =     0.5000
redata: Require Harris convergence for SCF          =   F
redata: Harris energy tolerance for SCF             =     0.000100 eV
redata: Require DM convergence for SCF              =   T
redata: DM tolerance for SCF                        =     0.001000
redata: Require EDM convergence for SCF             =   F
redata: EDM tolerance for SCF                       =     0.005000 eV
redata: Require H convergence for SCF               =   T
redata: Hamiltonian tolerance for SCF               =     0.001000 eV
redata: Require (free) Energy convergence for SCF   =   T
redata: (free) Energy tolerance for SCF             =     0.001000 eV
redata: Using Saved Data (generic)                  =   F
redata: Use continuation files for DM               =   F
redata: Neglect nonoverlap interactions             =   F
redata: Method of Calculation                       = Diagonalization
redata: Electronic Temperature                      =   299.9869 K
redata: Fix the spin of the system                  =   F
redata: Dynamics option                             = Single-point calculation
mix.SCF: Pulay mixing                            = Pulay
mix.SCF:    Variant                              = stable
mix.SCF:    History steps                        = 4
mix.SCF:    Linear mixing weight                 =     0.250000
mix.SCF:    Mixing weight                        =     0.250000
mix.SCF:    SVD condition                        = 0.1000E-07
redata: ***********************************************************************

%block SCF.Mixers
  Pulay
%endblock SCF.Mixers

%block SCF.Mixer.Pulay
  # Mixing method
  method pulay
  variant stable

  # Mixing options
  weight 0.2500
  weight.linear 0.2500
  history 4
%endblock SCF.Mixer.Pulay

DM_history_depth set to one: no extrapolation allowed by default for geometry relaxation
Size of DM history Fstack: 1
Total number of electrons:   144.000000
Total ionic charge:   144.000000

* ProcessorY, Blocksize:    2   1


* Orbital distribution balance (max,min):    15    14

k-point displ. along   1 input, could be:     0.00    0.50
k-point displ. along   2 input, could be:     0.00    0.50
k-point displ. along   3 input, could be:     0.00    0.50
 Kpoints in:            8 . Kpoints trimmed:            8

siesta: k-grid: Number of k-points =     8
siesta: k-grid: Cutoff (effective) =     4.228 Ang
siesta: k-grid: Supercell and displacements
siesta: k-grid:    2   0   0      0.000
siesta: k-grid:    0   2   0      0.000
siesta: k-grid:    0   0   2      0.000

diag: Algorithm                                     = Expert
diag: Parallel over k                               =   T
diag: Use parallel 2D distribution                  =   T
diag: Parallel block-size                           = 1
diag: Parallel distribution                         =     2 x     5
diag: Used triangular part                          = Lower
diag: Absolute tolerance                            =  0.100E-15
diag: Orthogonalization factor                      =  0.100E-05
diag: Memory factor                                 =  1.0000

superc: Internal auxiliary supercell:     5 x     5 x     5  =     125
superc: Number of atoms, orbitals, and projectors:   4500  18000  40500


ts: **************************************************************
ts: Save H and S matrices                           =    F
ts: Save DM and EDM matrices                        =    F
ts: Only save the overlap matrix S                  =    F
ts: **************************************************************

************************ Begin: TS CHECKS AND WARNINGS ************************
************************ End: TS CHECKS AND WARNINGS **************************


                     ====================================
                        Single-point calculation
                     ====================================

outcoor: Atomic coordinates (Ang):                          
    0.00000000    0.00000000    1.05698250   1       1  C-gga
    0.00000000    0.00000000    3.17094750   1       2  C-gga
   -1.23200000    2.13388659    1.05698250   1       3  C-gga
   -2.46400000    4.26777319    3.17094750   1       4  C-gga
    2.46400000    4.26777319    1.05698250   1       5  C-gga
    1.23200000    2.13388659    3.17094750   1       6  C-gga
    2.46400000    0.00000000    1.05698250   1       7  C-gga
    4.92800000    0.00000000    3.17094750   1       8  C-gga
    2.46400000    0.00000000    3.17094750   1       9  C-gga
    4.92800000    0.00000000    1.05698250   1      10  C-gga
    2.46400000    4.26777319    3.17094750   1      11  C-gga
    1.23200000    2.13388659    1.05698250   1      12  C-gga
   -1.23200000    2.13388659    3.17094750   1      13  C-gga
   -2.46400000    4.26777319    1.05698250   1      14  C-gga
    0.00000000    4.26777319    1.05698250   1      15  C-gga
    3.69600000    2.13388659    3.17094750   1      16  C-gga
    3.69600000    2.13388659    1.05698250   1      17  C-gga
    0.00000000    4.26777319    3.17094750   1      18  C-gga
    0.00000000    1.42258964    1.05698250   1      19  C-gga
    3.69600000    4.97907014    3.17094750   1      20  C-gga
    2.46400123    5.69036496    1.05698250   1      21  C-gga
    1.23199877    0.71129482    3.17094750   1      22  C-gga
   -2.46400123    5.69036496    1.05698250   1      23  C-gga
    6.16000123    0.71129482    3.17094750   1      24  C-gga
   -1.23200000    3.55647624    1.05698250   1      25  C-gga
    4.92800000    2.84518355    3.17094750   1      26  C-gga
    1.23200123    3.55647837    1.05698250   1      27  C-gga
    2.46399877    2.84518142    3.17094750   1      28  C-gga
   -0.00000123    5.69036496    1.05698250   1      29  C-gga
    3.69600123    0.71129482    3.17094750   1      30  C-gga
    2.46400000    1.42258964    1.05698250   1      31  C-gga
    1.23200000    4.97907014    3.17094750   1      32  C-gga
    4.92800123    1.42259177    1.05698250   1      33  C-gga
   -1.23200123    4.97906801    3.17094750   1      34  C-gga
    3.69599877    3.55647837    1.05698250   1      35  C-gga
    0.00000123    2.84518142    3.17094750   1      36  C-gga

superc: Internal auxiliary supercell:     5 x     5 x     5  =     125
superc: Number of atoms, orbitals, and projectors:   4500  18000  40500

outcell: Unit cell vectors (Ang):
        7.392000    0.000000    0.000000
       -3.696000    6.401660    0.000000
        0.000000    0.000000    4.227930

outcell: Cell vector modules (Ang)   :    7.392000    7.392000    4.227930
outcell: Cell angles (23,13,12) (deg):     90.0000     90.0000    120.0000
outcell: Cell volume (Ang**3)        :    200.0702
<dSpData1D:S at geom step 0
  <sparsity:sparsity for geom step 0
    nrows_g=144 nrows=15 sparsity=1.3935 nnzs=28896, refcount: 7>
  <dData1D:(new from dSpData1D) n=28896, refcount: 1>
refcount: 1>
new_DM -- step:     1
Initializing Density Matrix...
DM filled with atomic data:
<dSpData2D:DM initialized from atoms
  <sparsity:sparsity for geom step 0
    nrows_g=144 nrows=15 sparsity=1.3935 nnzs=28896, refcount: 8>
  <dData2D:DM n=28896 m=1, refcount: 1>
refcount: 1>
No. of atoms with KB's overlaping orbs in proc 0. Max # of overlaps:     323     348
New grid distribution:   1
           1       1:   36    1:   18    1:    5
           2       1:   36    1:   18    6:   10
           3       1:   36    1:   18   11:   15
           4       1:   36    1:   18   16:   20
           5       1:   36    1:   18   21:   24
           6       1:   36   19:   36    1:    5
           7       1:   36   19:   36    6:   10
           8       1:   36   19:   36   11:   15
           9       1:   36   19:   36   16:   20
          10       1:   36   19:   36   21:   24

InitMesh: MESH =    72 x    72 x    48 =      248832
InitMesh: (bp) =    36 x    36 x    24 =       31104
InitMesh: Mesh cutoff (required, used) =   300.000   349.608 Ry
ExtMesh (bp) on 0 =   128 x   110 x    97 =     1365760
New grid distribution:   2
           1       1:   15    1:   18    1:   12
           2      16:   36    1:   18    1:    8
           3      16:   36    1:    9    9:   24
           4       1:   15    1:   18   13:   24
           5      16:   36   10:   18    9:   24
           6       1:   15   19:   36    1:   12
           7      16:   36   19:   36    1:    8
           8      16:   36   19:   27    9:   24
           9       1:   15   19:   36   13:   24
          10      16:   36   28:   36    9:   24
New grid distribution:   3
           1       1:   15    1:   18    1:   12
           2      16:   36    1:   18    1:    8
           3      16:   36    1:    9    9:   24
           4       1:   15    1:   18   13:   24
           5      16:   36   10:   18    9:   24
           6       1:   15   19:   36    1:   12
           7      16:   36   19:   36    1:    8
           8      16:   36   19:   27    9:   24
           9       1:   15   19:   36   13:   24
          10      16:   36   28:   36    9:   24
Setting up quadratic distribution...
ExtMesh (bp) on 0 =   107 x   110 x   104 =     1224080
PhiOnMesh: Number of (b)points on node 0 =                 3240
PhiOnMesh: nlist on node 0 =               592310

stepf: Fermi-Dirac step function

siesta: Program's energy decomposition (eV):
siesta: Ebs     =     -2611.483196
siesta: Eions   =      9434.507561
siesta: Ena     =      2202.868931
siesta: Ekin    =      3962.318036
siesta: Enl     =      -387.750573
siesta: Eso     =         0.000000
siesta: Edftu   =         0.000000
siesta: DEna    =      -140.438861
siesta: DUscf   =         7.393866
siesta: DUext   =         0.000000
siesta: Exc     =     -1717.112815
siesta: eta*DQ  =         0.000000
siesta: Emadel  =         0.000000
siesta: Emeta   =         0.000000
siesta: Emolmec =         0.000000
siesta: Ekinion =         0.000000
siesta: Eharris =     -5229.518415
siesta: Etot    =     -5507.228977
siesta: FreeEng =     -5507.270359

        iscf     Eharris(eV)        E_KS(eV)     FreeEng(eV)     dDmax    Ef(eV) dHmax(eV)
   scf:    1    -5229.518415    -5507.228977    -5507.270359  1.265606 -8.591954  0.717518
timer: Routine,Calls,Time,% = IterSCF        1       3.448  56.25
   scf:    2    -5507.382775    -5507.313481    -5507.354746  0.010759 -8.438442  0.512787
   scf:    3    -5507.381491    -5507.357381    -5507.395726  0.013685 -8.042364  0.059458
   scf:    4    -5507.379952    -5507.371766    -5507.406657  0.012080 -8.036975  0.001863
   scf:    5    -5507.372233    -5507.372019    -5507.406673  0.000748 -8.038053  0.001924
   scf:    6    -5507.371822    -5507.371924    -5507.406683  0.000343 -8.037585  0.000410

SCF Convergence by FreeE+DM+H criterion
|FreeE_i-FreeE_(i-1)| (eV) <     0.00100000
max |DM_out - DM_in|         :     0.0003431996
max |H_out - H_in|      (eV) :     0.0004103648
SCF cycle converged after 6 iterations

Using DM_out to compute the final energy and forces
No. of atoms with KB's overlaping orbs in proc 0. Max # of overlaps:     323     348

siesta: E_KS(eV) =            -5507.3719

siesta: E_KS - E_eggbox =     -5507.3719

siesta: Atomic forces (eV/Ang):
     1   -0.000000   -0.000000   -0.000000
     2   -0.000000   -0.000000   -0.000000
     3    0.000064   -0.000032   -0.000000
     4   -0.000064    0.000032   -0.000000
     5   -0.000004    0.000072   -0.000000
     6    0.000004   -0.000071   -0.000000
     7   -0.000060   -0.000040   -0.000000
     8    0.000060    0.000039   -0.000000
     9   -0.000002   -0.000007   -0.000000
    10    0.000002    0.000006   -0.000000
    11   -0.000005    0.000005   -0.000000
    12    0.000005   -0.000005   -0.000000
    13    0.000007    0.000002   -0.000000
    14   -0.000007   -0.000002   -0.000000
    15    0.000000    0.000000   -0.000000
    16    0.000000    0.000001   -0.000000
    17    0.000000    0.000000   -0.000000
    18   -0.000000    0.000000   -0.000000
    19    0.000010    0.000142    0.000000
    20   -0.000010   -0.000142    0.000000
    21   -0.000128   -0.000062    0.000000
    22    0.000128    0.000062    0.000000
    23    0.000118   -0.000080    0.000000
    24   -0.000118    0.000079    0.000000
    25    0.000008    0.000106    0.000000
    26   -0.000008   -0.000106    0.000000
    27   -0.000096   -0.000046    0.000000
    28    0.000096    0.000046    0.000000
    29    0.000088   -0.000060    0.000000
    30   -0.000088    0.000059    0.000000
    31    0.000026    0.000120    0.000000
    32   -0.000026   -0.000120    0.000000
    33   -0.000117   -0.000037    0.000000
    34    0.000117    0.000037    0.000000
    35    0.000091   -0.000083    0.000000
    36   -0.000091    0.000082    0.000000
----------------------------------------
   Tot    0.000000    0.000000    0.000000
----------------------------------------
   Max    0.000142
   Res    0.000054    sqrt( Sum f_i^2 / 3N )
----------------------------------------
   Max    0.000142    constrained

Stress tensor Voigt[x,y,z,yz,xz,xy] (kbar):     -409.59     -409.59    -1151.58       -0.00        0.00        0.00
(Free)E + p*V (eV/cell)    -5425.3749
Target enthalpy (eV/cell)    -5507.4067

siesta: Eigenvalues (eV):
  ik is       eps
   1  1  -30.6062  -27.6877  -27.6877  -27.6877  -27.6877  -27.6877  -27.6877  -26.3398  -23.9740  -23.9740
         -23.9740  -23.9740  -23.9740  -23.9740  -23.5406  -23.5406  -22.2574  -22.2574  -22.2574  -22.2574
  -20.1166  -20.0634  -20.0634  -20.0634  -20.0634  -20.0634  -20.0634  -20.0231  -20.0231  -18.8164
  -18.8164  -18.8164  -18.8164  -17.4459  -17.4459  -17.4459  -17.4459  -17.4459  -17.4459  -17.4046
  -17.4046  -17.4046  -17.4046  -17.4046  -17.4046  -15.8612  -15.8612  -15.8612  -15.8612  -15.8612
  -15.8612  -14.2646  -14.2646  -14.2646  -14.2646  -14.2646  -14.2646  -13.3359  -13.3359  -12.7701
  -12.7701  -12.0153  -12.0153   -9.3193   -9.3193   -9.3193   -9.3193   -9.1637   -8.4665   -8.4665
   -8.4665   -8.4665   -8.4665   -8.4665   -4.9553   -4.9553   -4.9553   -4.9553   -4.9553   -4.9553
   -2.5041   -2.5041   -0.9211   -0.9211   -0.9211   -0.9211   -0.9211   -0.9211   -0.3474   -0.3474
   -0.3474   -0.3474   -0.3474   -0.3474    0.3850    0.3850    0.5190    1.4700    1.4700    2.6946
    3.0445    3.0445    3.0445    3.0445    3.0445    3.0445    4.0575    5.4901    6.5180    6.5180
    7.5060    7.5060    7.5060    7.5060    8.5999    8.5999    8.5999    8.6000    8.6000    8.6000
    8.6766    8.6766    9.4899    9.4899    9.4899    9.4900    9.4900    9.4900   10.0201   10.0201
   10.0201   10.0202   10.0202   10.0202   11.3759   11.3759   11.3759   11.3759   11.3759   11.3759
   15.6786   15.6786   15.6786   15.6786
   2  1  -29.8463  -29.8463  -28.3860  -28.3860  -25.7361  -25.7361  -25.7361  -25.7361  -25.7327  -25.7327
         -24.9584  -24.5448  -24.5448  -23.8401  -22.5733  -22.5733  -22.5733  -22.5733  -21.5690  -21.5690
  -21.5690  -21.5690  -21.1067  -20.8494  -19.4530  -19.4530  -19.3443  -19.3443  -19.3443  -19.3443
  -18.0932  -18.0932  -17.9949  -17.9949  -17.9949  -17.9949  -17.9689  -17.9689  -17.1570  -17.1570
  -16.4878  -16.1809  -16.1809  -16.1809  -16.1809  -15.5005  -15.5005  -15.4013  -15.4013  -15.3537
  -15.3537  -15.3537  -15.3537  -14.8398  -14.8310  -14.8310  -14.8195  -14.1618  -14.1618  -13.8007
  -13.8006  -12.8391  -12.8391  -11.5109   -9.5975   -9.5975   -9.5975   -9.5975   -8.7002   -8.7002
   -8.0009   -8.0009   -6.3605   -6.3605   -6.3605   -6.3605   -4.5725   -4.3718   -4.3718   -2.4631
   -2.0527   -2.0527   -2.0527   -2.0527   -1.3808   -1.3700   -1.3700    0.0996    0.0996    0.3679
    0.3679    2.0070    2.0070    2.0070    2.0070    2.5406    2.5406    2.6125    2.6125    2.6522
    2.6522    2.9814    3.0680    3.0680    3.1264    3.1264    4.3979    4.3979    4.8191    4.8192
    5.1781    5.1781    5.1781    5.1781    5.4198    5.4198    5.5080    5.5080    7.0807    7.0807
    8.5215    8.5215    8.5216    8.5216    9.6219    9.6219    9.6219    9.6219    9.9295    9.9295
   10.8180   10.8180   11.4442   11.8206   13.5080   13.5573   14.1204   14.1204   14.1204   14.1204
   14.3626   14.3626   14.3626   14.3626
   3  1  -29.8463  -29.8463  -28.3860  -28.3860  -25.7361  -25.7361  -25.7361  -25.7361  -25.7327  -25.7327
         -24.9584  -24.5448  -24.5448  -23.8401  -22.5733  -22.5733  -22.5733  -22.5733  -21.5690  -21.5690
  -21.5690  -21.5690  -21.1067  -20.8494  -19.4530  -19.4530  -19.3443  -19.3443  -19.3443  -19.3443
  -18.0932  -18.0932  -17.9949  -17.9949  -17.9949  -17.9949  -17.9689  -17.9689  -17.1570  -17.1570
  -16.4878  -16.1809  -16.1809  -16.1809  -16.1809  -15.5005  -15.5005  -15.4013  -15.4013  -15.3537
  -15.3537  -15.3537  -15.3537  -14.8398  -14.8310  -14.8310  -14.8195  -14.1618  -14.1618  -13.8007
  -13.8006  -12.8391  -12.8391  -11.5109   -9.5975   -9.5975   -9.5975   -9.5975   -8.7002   -8.7002
   -8.0009   -8.0009   -6.3605   -6.3605   -6.3605   -6.3605   -4.5725   -4.3718   -4.3718   -2.4631
   -2.0527   -2.0527   -2.0527   -2.0527   -1.3808   -1.3700   -1.3700    0.0996    0.0996    0.3679
    0.3679    2.0070    2.0070    2.0070    2.0070    2.5406    2.5406    2.6125    2.6125    2.6522
    2.6522    2.9814    3.0680    3.0680    3.1264    3.1264    4.3979    4.3979    4.8191    4.8192
    5.1781    5.1781    5.1781    5.1781    5.4198    5.4198    5.5080    5.5080    7.0807    7.0807
    8.5215    8.5215    8.5216    8.5216    9.6219    9.6219    9.6219    9.6219    9.9295    9.9295
   10.8180   10.8180   11.4442   11.8206   13.5080   13.5573   14.1204   14.1204   14.1204   14.1204
   14.3626   14.3626   14.3626   14.3626
   4  1  -29.8463  -29.8463  -28.3860  -28.3860  -25.7361  -25.7361  -25.7361  -25.7361  -25.7327  -25.7327
         -24.9584  -24.5448  -24.5448  -23.8401  -22.5733  -22.5733  -22.5733  -22.5733  -21.5690  -21.5690
  -21.5690  -21.5690  -21.1067  -20.8494  -19.4530  -19.4530  -19.3443  -19.3443  -19.3443  -19.3443
  -18.0932  -18.0932  -17.9949  -17.9949  -17.9949  -17.9949  -17.9689  -17.9689  -17.1570  -17.1570
  -16.4878  -16.1809  -16.1809  -16.1809  -16.1809  -15.5005  -15.5005  -15.4013  -15.4013  -15.3537
  -15.3537  -15.3537  -15.3537  -14.8398  -14.8310  -14.8310  -14.8195  -14.1618  -14.1618  -13.8007
  -13.8006  -12.8391  -12.8391  -11.5109   -9.5975   -9.5975   -9.5975   -9.5975   -8.7002   -8.7002
   -8.0009   -8.0009   -6.3605   -6.3605   -6.3605   -6.3605   -4.5725   -4.3718   -4.3718   -2.4631
   -2.0527   -2.0527   -2.0527   -2.0527   -1.3808   -1.3700   -1.3700    0.0996    0.0996    0.3679
    0.3679    2.0070    2.0070    2.0070    2.0070    2.5406    2.5406    2.6125    2.6125    2.6522
    2.6522    2.9814    3.0680    3.0680    3.1264    3.1264    4.3979    4.3979    4.8191    4.8192
    5.1781    5.1781    5.1781    5.1781    5.4198    5.4198    5.5080    5.5080    7.0807    7.0807
    8.5215    8.5215    8.5216    8.5216    9.6219    9.6219    9.6219    9.6219    9.9295    9.9295
   10.8180   10.8180   11.4442   11.8206   13.5080   13.5573   14.1204   14.1204   14.1204   14.1204
   14.3626   14.3626   14.3626   14.3626
   5  1  -29.0517  -29.0517  -26.2877  -26.2877  -26.2877  -26.2877  -26.2877  -26.2877  -26.2877  -26.2877
         -26.2877  -26.2877  -26.2877  -26.2877  -22.2306  -22.2306  -22.2306  -22.2306  -21.8316  -21.8316
  -21.8316  -21.8316  -19.7561  -19.7561  -19.7561  -19.7561  -19.0190  -19.0190  -19.0190  -19.0190
  -19.0190  -19.0190  -19.0190  -19.0190  -19.0190  -19.0190  -19.0190  -19.0190  -15.1400  -15.1400
  -15.1400  -15.1400  -15.1400  -15.1400  -15.1399  -15.1399  -15.1399  -15.1399  -15.1399  -15.1399
  -14.8320  -14.8320  -12.3916  -12.3916  -12.3916  -12.3916  -12.3469  -12.3469  -12.3469  -12.3469
  -12.3469  -12.3469  -12.3469  -12.3469  -12.3469  -12.3469  -12.3469  -12.3469   -8.2645   -8.2645
   -8.2645   -8.2645   -8.0605   -8.0605   -8.0605   -8.0605   -3.8414   -3.8414   -3.8414   -3.8414
   -3.8414   -3.8414   -3.8414   -3.8414   -3.8414   -3.8414   -3.8413   -3.8413    0.8148    0.8148
    0.8148    0.8148    1.3178    1.3178    1.8562    1.8562    1.8562    1.8562    1.8562    1.8562
    1.8563    1.8563    1.8563    1.8563    1.8563    1.8563    5.0443    5.0443    7.3814    7.3814
    7.3814    7.3814    7.7656    7.7656    7.7656    7.7656    9.0265    9.0265    9.0265    9.0265
    9.0265    9.0265    9.0265    9.0265    9.0266    9.0266    9.0266    9.0266   10.7829   10.7829
   10.7829   10.7829   10.7829   10.7829   10.7829   10.7829   10.7829   10.7829   10.7829   10.7829
   15.6747   15.6747   15.6747   15.6747
   6  1  -28.3337  -28.3337  -28.3337  -28.3337  -26.9503  -26.9503  -26.9503  -26.9503  -24.4382  -24.4382
         -24.4382  -24.4382  -24.4382  -24.4382  -24.4382  -24.4382  -23.7582  -23.7582  -22.3670  -22.3670
  -20.7512  -20.7512  -20.7512  -20.7512  -20.7512  -20.7512  -20.7512  -20.7512  -17.4043  -17.4043
  -17.4043  -17.4043  -17.4043  -17.4043  -17.4043  -17.4043  -17.2165  -17.2165  -17.2165  -17.2165
  -15.7822  -15.7822  -15.7822  -15.7822  -15.7498  -15.7498  -14.8436  -14.8436  -14.8436  -14.8436
  -14.1239  -14.1239  -14.1239  -14.1239  -13.5437  -13.5437  -13.5437  -13.5437  -12.9417  -12.9417
  -12.9417  -12.9417  -10.5880  -10.5880  -10.5880  -10.5880  -10.5880  -10.5880  -10.5880  -10.5880
  -10.3877  -10.3877   -6.3941   -6.3941   -5.7354   -5.7354   -5.7354   -5.7354   -5.7354   -5.7354
   -5.7354   -5.7354   -2.5510   -2.5510   -2.5510   -2.5510   -0.6844   -0.6844   -0.6844   -0.6844
    1.3807    1.3807    2.3715    2.3715    2.3715    2.3715    3.6975    3.6975    3.6975    3.6975
    3.8492    3.8492    3.8492    3.8492    3.8492    3.8492    3.8493    3.8493    3.9784    3.9784
    3.9785    3.9785    4.9551    4.9551    4.9551    4.9551    6.3036    6.3036    6.3036    6.3036
    9.1121    9.1121    9.1121    9.1121    9.1121    9.1121    9.1121    9.1121   10.3676   10.3676
   10.3676   10.3676   11.6312   11.6312   13.5390   13.5390   14.2375   14.2375   14.2375   14.2375
   14.2375   14.2375   14.2375   14.2375
   7  1  -28.3337  -28.3337  -28.3337  -28.3337  -26.9503  -26.9503  -26.9503  -26.9503  -24.4382  -24.4382
         -24.4382  -24.4382  -24.4382  -24.4382  -24.4382  -24.4382  -23.7582  -23.7582  -22.3670  -22.3670
  -20.7512  -20.7512  -20.7512  -20.7512  -20.7512  -20.7512  -20.7512  -20.7512  -17.4043  -17.4043
  -17.4043  -17.4043  -17.4043  -17.4043  -17.4043  -17.4043  -17.2165  -17.2165  -17.2165  -17.2165
  -15.7822  -15.7822  -15.7822  -15.7822  -15.7498  -15.7498  -14.8436  -14.8436  -14.8436  -14.8436
  -14.1239  -14.1239  -14.1239  -14.1239  -13.5437  -13.5437  -13.5437  -13.5437  -12.9417  -12.9417
  -12.9417  -12.9417  -10.5880  -10.5880  -10.5880  -10.5880  -10.5880  -10.5880  -10.5880  -10.5880
  -10.3877  -10.3877   -6.3941   -6.3941   -5.7354   -5.7354   -5.7354   -5.7354   -5.7354   -5.7354
   -5.7354   -5.7354   -2.5510   -2.5510   -2.5510   -2.5510   -0.6844   -0.6844   -0.6844   -0.6844
    1.3807    1.3807    2.3715    2.3715    2.3715    2.3715    3.6975    3.6975    3.6975    3.6975
    3.8492    3.8492    3.8492    3.8492    3.8492    3.8492    3.8493    3.8493    3.9784    3.9784
    3.9785    3.9785    4.9551    4.9551    4.9551    4.9551    6.3036    6.3036    6.3036    6.3036
    9.1121    9.1121    9.1121    9.1121    9.1121    9.1121    9.1121    9.1121   10.3676   10.3676
   10.3676   10.3676   11.6312   11.6312   13.5390   13.5390   14.2375   14.2375   14.2375   14.2375
   14.2375   14.2375   14.2375   14.2375
   8  1  -28.3337  -28.3337  -28.3337  -28.3337  -26.9503  -26.9503  -26.9503  -26.9503  -24.4382  -24.4382
         -24.4382  -24.4382  -24.4382  -24.4382  -24.4382  -24.4382  -23.7582  -23.7582  -22.3670  -22.3670
  -20.7512  -20.7512  -20.7512  -20.7512  -20.7512  -20.7512  -20.7512  -20.7512  -17.4043  -17.4043
  -17.4043  -17.4043  -17.4043  -17.4043  -17.4043  -17.4043  -17.2165  -17.2165  -17.2165  -17.2165
  -15.7822  -15.7822  -15.7822  -15.7822  -15.7498  -15.7498  -14.8436  -14.8436  -14.8436  -14.8436
  -14.1239  -14.1239  -14.1239  -14.1239  -13.5437  -13.5437  -13.5437  -13.5437  -12.9417  -12.9417
  -12.9417  -12.9417  -10.5880  -10.5880  -10.5880  -10.5880  -10.5880  -10.5880  -10.5880  -10.5880
  -10.3877  -10.3877   -6.3941   -6.3941   -5.7354   -5.7354   -5.7354   -5.7354   -5.7354   -5.7354
   -5.7354   -5.7354   -2.5510   -2.5510   -2.5510   -2.5510   -0.6844   -0.6844   -0.6844   -0.6844
    1.3807    1.3807    2.3715    2.3715    2.3715    2.3715    3.6975    3.6975    3.6975    3.6975
    3.8492    3.8492    3.8492    3.8492    3.8492    3.8492    3.8493    3.8493    3.9784    3.9784
    3.9785    3.9785    4.9551    4.9551    4.9551    4.9551    6.3036    6.3036    6.3036    6.3036
    9.1121    9.1121    9.1121    9.1121    9.1121    9.1121    9.1121    9.1121   10.3676   10.3676
   10.3676   10.3676   11.6312   11.6312   13.5390   13.5390   14.2375   14.2375   14.2375   14.2375
   14.2375   14.2375   14.2375   14.2375
siesta: Fermi energy =      -8.037585 eV

siesta: Program's energy decomposition (eV):
siesta: Ebs     =     -2613.057207
siesta: Eions   =      9434.507561
siesta: Ena     =      2202.868931
siesta: Ekin    =      3957.059264
siesta: Enl     =      -385.651932
siesta: Eso     =         0.000000
siesta: Edftu   =         0.000000
siesta: DEna    =      -137.642664
siesta: DUscf   =         7.030204
siesta: DUext   =         0.000000
siesta: Exc     =     -1716.528166
siesta: eta*DQ  =         0.000000
siesta: Emadel  =         0.000000
siesta: Emeta   =         0.000000
siesta: Emolmec =         0.000000
siesta: Ekinion =         0.000000
siesta: Eharris =     -5507.371822
siesta: Etot    =     -5507.371924
siesta: FreeEng =     -5507.406683

siesta: Final energy (eV):
siesta:  Band Struct. =   -2613.057207
siesta:       Kinetic =    3957.059264
siesta:       Hartree =     409.038599
siesta:       Edftu   =       0.000000
siesta:       Eso     =       0.000000
siesta:    Ext. field =       0.000000
siesta:   Exch.-corr. =   -1716.528166
siesta:  Ion-electron =   -5144.079593
siesta:       Ion-ion =   -3012.862028
siesta:       Ekinion =       0.000000
siesta:         Total =   -5507.371924
siesta:         Fermi =      -8.037585

siesta: Stress tensor (static) (eV/Ang**3):
siesta:    -0.255645    0.000000   -0.000000
siesta:     0.000000   -0.255645   -0.000000
siesta:     0.000000   -0.000000   -0.718754

siesta: Cell volume =        200.070168 Ang**3

siesta: Pressure (static):
siesta:                Solid            Molecule  Units
siesta:           0.00446559          0.00446564  Ry/Bohr**3
siesta:           0.41001489          0.41002018  eV/Ang**3
siesta:         656.92337838        656.93184763  kBar
(Free)E+ p_basis*V_orbitals  =       -5489.103636
(Free)Eharris+ p_basis*V_orbitals  =       -5489.103535

cite: Please see "graphite_scf.bib" for an exhaustive BiBTeX file.
cite: Please clearly indicate Siesta version in published work: 4.1.5
cite: This calculation has made use of the following articles
cite: which are encouraged to be cited in a published work.
        Primary SIESTA paper
          DOI: www.doi.org/10.1088/0953-8984/14/11/302

>> End of run:  28-OCT-2022  14:44:44
Job completed
