Siesta Version  : 4.1.5
Architecture    : x86_64-unknown-linux-gnu--unknown
Compiler version: GNU Fortran (GCC) 11.3.0
Compiler flags  : mpif90 -g -O2 -fallow-argument-mismatch
PP flags        : -DMPI -DFC_HAVE_FLUSH -DFC_HAVE_ABORT
Libraries       :  -I/global/software/sl-7.x86_64/modules/intel/2020.4.304/mkl/include  /globall/software/sl-7.x86_64/modules/intel/2020.4.304/mkl/lib/intel64/libmkl_scalapack_lp64.a -Wl,--start-group /global/software/sl-7.x86_64/modules/intel/2020.4.304/mkl/lib/intel64/libmkl_intel_lp64.a /global/software/sl-7.x86_64/modules/intel/2020.4.304/mkl/lib/intel64/libmkl_sequential.a /global/software/sl-7.x86_64/modules/intel/2020.4.304/mkl/lib/intel64/libmkl_core.a /global/software/sl-7.x86_64/modules/intel/2020.4.304/mkl/lib/intel64/libmkl_blacs_openmpi_lp64.a -Wl,--end-group -lpthread -lm -ldl
PARALLEL version

* Running on 10 nodes in parallel
>> Start of run:  28-OCT-2022  14:44:45

                           ***********************       
                           *  WELCOME TO SIESTA  *       
                           ***********************       

reinit: Reading from standard input
reinit: Dumped input in INPUT_TMP.20008
************************** Dump of input data file ****************************
SystemName graphite_scf
SystemLabel graphite_scf
NumberOfAtoms   36
NumberOfSpecies 1
%block ChemicalSpeciesLabel
1  6   C-gga
%endblock ChemicalSpeciesLabel
PAO.BasisSize  SZ
PAO.EnergyShift  10 meV
%block PS.Lmax
C-gga   2
%endblock PS.Lmax
LatticeConstant 1.000000 Ang
%block LatticeVectors
	7.3920000000	0.0000000000	0.0000000000
	-3.6960000000	6.4016597848	0.0000000000
	0.0000000000	0.0000000000	4.1608200000
%endblock LatticeVectors
AtomicCoordinatesFormat Ang
%block AtomicCoordinatesAndAtomicSpecies
	0.00000000	0.00000000	1.04020500	1
	0.00000000	0.00000000	3.12061500	1
	-1.23200000	2.13388659	1.04020500	1
	-2.46400000	4.26777319	3.12061500	1
	2.46400000	4.26777319	1.04020500	1
	1.23200000	2.13388659	3.12061500	1
	2.46400000	0.00000000	1.04020500	1
	4.92800000	0.00000000	3.12061500	1
	2.46400000	0.00000000	3.12061500	1
	4.92800000	0.00000000	1.04020500	1
	2.46400000	4.26777319	3.12061500	1
	1.23200000	2.13388659	1.04020500	1
	-1.23200000	2.13388659	3.12061500	1
	-2.46400000	4.26777319	1.04020500	1
	0.00000000	4.26777319	1.04020500	1
	3.69600000	2.13388659	3.12061500	1
	3.69600000	2.13388659	1.04020500	1
	0.00000000	4.26777319	3.12061500	1
	0.00000000	1.42258964	1.04020500	1
	3.69600000	4.97907014	3.12061500	1
	2.46400123	5.69036496	1.04020500	1
	1.23199877	0.71129482	3.12061500	1
	-2.46400123	5.69036496	1.04020500	1
	6.16000123	0.71129482	3.12061500	1
	-1.23200000	3.55647624	1.04020500	1
	4.92800000	2.84518355	3.12061500	1
	1.23200123	3.55647837	1.04020500	1
	2.46399877	2.84518142	3.12061500	1
	-0.00000123	5.69036496	1.04020500	1
	3.69600123	0.71129482	3.12061500	1
	2.46400000	1.42258964	1.04020500	1
	1.23200000	4.97907014	3.12061500	1
	4.92800123	1.42259177	1.04020500	1
	-1.23200123	4.97906801	3.12061500	1
	3.69599877	3.55647837	1.04020500	1
	0.00000123	2.84518142	3.12061500	1
%endblock AtomicCoordinatesAndAtomicSpecies
Kgrid_NoTRS  T
%block kgrid_MonkhorstPack
2       0       0       0.0
0       2       0       0.0
0       0       2       0.0
%endblock kgrid_MonkhorstPack
AtomCoorFormatOut Ang
BlockSize 1
#ProcessorY 12
Diag.ParallelOverK   T
Diag.DivideAndConquer F
MeshCutoff   300 Ry
SCF.FreeE.Tolerance 1E-3 eV
SCF.EDM.Tolerance   5E-3 eV
DM.Tolerance  1E-3
DM.Require.Energy.Convergence T
DM.NumberPulay 4
#XC.Functional GGA
#CX.Authors    PBE
UseSaveData        F
SolutionMethod     diagon
MD.TypeOfRun       CG
MD.VariableCell    F
MD.NumCGsteps      00
MD.MaxCGDispl      0.200000 Bohr
#MD.MaxStressTol    1.000000 GPa
#MD.MaxForceTol     0.010000 eV/Ang
WriteMDHistory T
WriteCoorStep T
WriteForces T
WriteCoorStep    T
WriteEigenValues T
WriteDM    F
MM.UnitsDistance Ang  # what this program prints out DO NOT CHANGE
MM.UnitsEnergy    eV  # what this program prints out DO NOT CHANGE
# MM.Grimme.S6     0.75 # Grimme-paper for PBE (correct for your functional)
# MM.Grimme.D     20.   # Grimme-paper (correct for your functional)
# %block MM.Potentials
#   1   1 Grimme     18.14      2.904 # C, 10.1002/jcc.20495
# %endblock MM.Potentials
#%block ProjectedDensityOfStates
# -200.0  120.0  0.4  12800  eV
#%endblock ProjectedDensityOfStates
************************** End of input data file *****************************

reinit: -----------------------------------------------------------------------
reinit: System Name: graphite_scf
reinit: -----------------------------------------------------------------------
reinit: System Label: graphite_scf
reinit: -----------------------------------------------------------------------

initatom: Reading input for the pseudopotentials and atomic orbitals ----------
Species number:   1 Atomic number:    6 Label: C-gga

Ground state valence configuration:   2s02  2p02
Reading pseudopotential information in formatted form from C-gga.psf

Valence configuration for pseudopotential generation:
2s( 2.00) rc: 1.56
2p( 2.00) rc: 1.56
3d( 0.00) rc: 1.56
4f( 0.00) rc: 1.56
relmxkb: Read Max KB Ang. Momentum=    2 for species C-gga

<basis_specs>
===============================================================================
C-gga                Z=   6    Mass=  12.010        Charge= 0.17977+309
Lmxo=1 Lmxkb= 2    BasisType=split      Semic=F
L=0  Nsemic=0  Cnfigmx=2
          i=1  nzeta=1  polorb=0  (2s)
            splnorm:   0.15000    
               vcte:    0.0000    
               rinn:    0.0000    
               qcoe:    0.0000    
               qyuk:    0.0000    
               qwid:   0.10000E-01
                rcs:    0.0000    
            lambdas:    1.0000    
L=1  Nsemic=0  Cnfigmx=2
          i=1  nzeta=1  polorb=0  (2p)
            splnorm:   0.15000    
               vcte:    0.0000    
               rinn:    0.0000    
               qcoe:    0.0000    
               qyuk:    0.0000    
               qwid:   0.10000E-01
                rcs:    0.0000    
            lambdas:    1.0000    
-------------------------------------------------------------------------------
L=0  Nkbl=1  erefs: 0.17977+309
L=1  Nkbl=1  erefs: 0.17977+309
L=2  Nkbl=1  erefs: 0.17977+309
===============================================================================
</basis_specs>

atom: Called for C-gga                 (Z =   6)

read_vps: Pseudopotential generation method:
read_vps: ATM 3.2.2 Troullier-Martins                       
Valence charge for ps generation:    4.00000

xc_check: Exchange-correlation functional:
xc_check: Ceperley-Alder
xc_check: WARNING: Pseudopotential generated with GGA PBE functional
V l=0 = -2*Zval/r beyond r=  1.5227
V l=1 = -2*Zval/r beyond r=  1.5227
V l=2 = -2*Zval/r beyond r=  1.5227
All V_l potentials equal beyond r=  1.4851
This should be close to max(r_c) in ps generation
All pots = -2*Zval/r beyond r=  1.5227

VLOCAL1: 99.0% of the norm of Vloc inside     19.682 Ry
VLOCAL1: 99.9% of the norm of Vloc inside     44.856 Ry
atom: Maximum radius for 4*pi*r*r*local-pseudopot. charge    1.79142
atom: Maximum radius for r*vlocal+2*Zval:    1.54183
GHOST: No ghost state for L =  0
GHOST: No ghost state for L =  1
GHOST: No ghost state for L =  2

KBgen: Kleinman-Bylander projectors: 
   l= 0   rc=  1.661951   el= -0.994756   Ekb=  5.296364   kbcos=  0.313951
   l= 1   rc=  1.661951   el= -0.376633   Ekb= -4.104879   kbcos= -0.344765
   l= 2   rc=  1.747182   el=  0.002326   Ekb= -1.006421   kbcos= -0.008606

KBgen: Total number of Kleinman-Bylander projectors:    9
atom: -------------------------------------------------------------------------

atom: SANKEY-TYPE ORBITALS:

SPLIT: Orbitals with angular momentum L= 0

SPLIT: Basis orbitals for state 2s

SPLIT: PAO cut-off radius determined from an
SPLIT: energy shift=  0.000735 Ry

   izeta = 1
                 lambda =    1.000000
                     rc =    5.948690
                 energy =   -0.994108
                kinetic =    0.809152
    potential(screened) =   -1.803260
       potential(ionic) =   -5.360717

SPLIT: Orbitals with angular momentum L= 1

SPLIT: Basis orbitals for state 2p

SPLIT: PAO cut-off radius determined from an
SPLIT: energy shift=  0.000735 Ry

   izeta = 1
                 lambda =    1.000000
                     rc =    7.638387
                 energy =   -0.375915
                kinetic =    2.245823
    potential(screened) =   -2.621738
       potential(ionic) =   -5.993382
atom: Total number of Sankey-type orbitals:  4

atm_pop: Valence configuration (for local Pseudopot. screening):
 2s( 2.00)                                                            
 2p( 2.00)                                                            
Vna: chval, zval:    4.00000   4.00000

Vna:  Cut-off radius for the neutral-atom potential:   7.638387

atom: _________________________________________________________________________

prinput: Basis input ----------------------------------------------------------

PAO.BasisType split     

%block ChemicalSpeciesLabel
    1    6 C-gga                   # Species index, atomic number, species label
%endblock ChemicalSpeciesLabel

%block PAO.Basis                 # Define Basis set
C-gga                 2                    # Species label, number of l-shells
 n=2   0   1                         # n, l, Nzeta 
   5.949   
   1.000   
 n=2   1   1                         # n, l, Nzeta 
   7.638   
   1.000   
%endblock PAO.Basis

prinput: ----------------------------------------------------------------------

coor:   Atomic-coordinates input format  =     Cartesian coordinates
coor:                                          (in Angstroms)

siesta: Atomic coordinates (Bohr) and species
siesta:      0.00000   0.00000   1.96570  1        1
siesta:      0.00000   0.00000   5.89711  1        2
siesta:     -2.32814   4.03246   1.96570  1        3
siesta:     -4.65629   8.06493   5.89711  1        4
siesta:      4.65629   8.06493   1.96570  1        5
siesta:      2.32814   4.03246   5.89711  1        6
siesta:      4.65629   0.00000   1.96570  1        7
siesta:      9.31257   0.00000   5.89711  1        8
siesta:      4.65629   0.00000   5.89711  1        9
siesta:      9.31257   0.00000   1.96570  1       10
siesta:      4.65629   8.06493   5.89711  1       11
siesta:      2.32814   4.03246   1.96570  1       12
siesta:     -2.32814   4.03246   5.89711  1       13
siesta:     -4.65629   8.06493   1.96570  1       14
siesta:      0.00000   8.06493   1.96570  1       15
siesta:      6.98443   4.03246   5.89711  1       16
siesta:      6.98443   4.03246   1.96570  1       17
siesta:      0.00000   8.06493   5.89711  1       18
siesta:      0.00000   2.68831   1.96570  1       19
siesta:      6.98443   9.40908   5.89711  1       20
siesta:      4.65629  10.75324   1.96570  1       21
siesta:      2.32814   1.34415   5.89711  1       22
siesta:     -4.65629  10.75324   1.96570  1       23
siesta:     11.64072   1.34415   5.89711  1       24
siesta:     -2.32814   6.72077   1.96570  1       25
siesta:      9.31257   5.37662   5.89711  1       26
siesta:      2.32815   6.72077   1.96570  1       27
siesta:      4.65628   5.37662   5.89711  1       28
siesta:     -0.00000  10.75324   1.96570  1       29
siesta:      6.98443   1.34415   5.89711  1       30
siesta:      4.65629   2.68831   1.96570  1       31
siesta:      2.32814   9.40908   5.89711  1       32
siesta:      9.31258   2.68831   1.96570  1       33
siesta:     -2.32815   9.40908   5.89711  1       34
siesta:      6.98443   6.72077   1.96570  1       35
siesta:      0.00000   5.37662   5.89711  1       36

siesta: System type = bulk      

initatomlists: Number of atoms, orbitals, and projectors:     36   144   324

siesta: ******************** Simulation parameters ****************************
siesta:
siesta: The following are some of the parameters of the simulation.
siesta: A complete list of the parameters used, including default values,
siesta: can be found in file out.fdf
siesta:
redata: Spin configuration                          = none
redata: Number of spin components                   = 1
redata: Time-Reversal Symmetry                      = T
redata: Spin spiral                                 = F
redata: Long output                                 =   F
redata: Number of Atomic Species                    =        1
redata: Charge density info will appear in .RHO file
redata: Write Mulliken Pop.                         = NO
redata: Matel table size (NRTAB)                    =     1024
redata: Mesh Cutoff                                 =   300.0000 Ry
redata: Net charge of the system                    =     0.0000 |e|
redata: Min. number of SCF Iter                     =        0
redata: Max. number of SCF Iter                     =     1000
redata: SCF convergence failure will abort job
redata: SCF mix quantity                            = Hamiltonian
redata: Mix DM or H after convergence               =   F
redata: Recompute H after scf cycle                 =   F
redata: Mix DM in first SCF step                    =   T
redata: Write Pulay info on disk                    =   F
redata: New DM Occupancy tolerance                  = 0.000000000001
redata: No kicks to SCF
redata: DM Mixing Weight for Kicks                  =     0.5000
redata: Require Harris convergence for SCF          =   F
redata: Harris energy tolerance for SCF             =     0.000100 eV
redata: Require DM convergence for SCF              =   T
redata: DM tolerance for SCF                        =     0.001000
redata: Require EDM convergence for SCF             =   F
redata: EDM tolerance for SCF                       =     0.005000 eV
redata: Require H convergence for SCF               =   T
redata: Hamiltonian tolerance for SCF               =     0.001000 eV
redata: Require (free) Energy convergence for SCF   =   T
redata: (free) Energy tolerance for SCF             =     0.001000 eV
redata: Using Saved Data (generic)                  =   F
redata: Use continuation files for DM               =   F
redata: Neglect nonoverlap interactions             =   F
redata: Method of Calculation                       = Diagonalization
redata: Electronic Temperature                      =   299.9869 K
redata: Fix the spin of the system                  =   F
redata: Dynamics option                             = Single-point calculation
mix.SCF: Pulay mixing                            = Pulay
mix.SCF:    Variant                              = stable
mix.SCF:    History steps                        = 4
mix.SCF:    Linear mixing weight                 =     0.250000
mix.SCF:    Mixing weight                        =     0.250000
mix.SCF:    SVD condition                        = 0.1000E-07
redata: ***********************************************************************

%block SCF.Mixers
  Pulay
%endblock SCF.Mixers

%block SCF.Mixer.Pulay
  # Mixing method
  method pulay
  variant stable

  # Mixing options
  weight 0.2500
  weight.linear 0.2500
  history 4
%endblock SCF.Mixer.Pulay

DM_history_depth set to one: no extrapolation allowed by default for geometry relaxation
Size of DM history Fstack: 1
Total number of electrons:   144.000000
Total ionic charge:   144.000000

* ProcessorY, Blocksize:    2   1


* Orbital distribution balance (max,min):    15    14

k-point displ. along   1 input, could be:     0.00    0.50
k-point displ. along   2 input, could be:     0.00    0.50
k-point displ. along   3 input, could be:     0.00    0.50
 Kpoints in:            8 . Kpoints trimmed:            8

siesta: k-grid: Number of k-points =     8
siesta: k-grid: Cutoff (effective) =     4.161 Ang
siesta: k-grid: Supercell and displacements
siesta: k-grid:    2   0   0      0.000
siesta: k-grid:    0   2   0      0.000
siesta: k-grid:    0   0   2      0.000

diag: Algorithm                                     = Expert
diag: Parallel over k                               =   T
diag: Use parallel 2D distribution                  =   T
diag: Parallel block-size                           = 1
diag: Parallel distribution                         =     2 x     5
diag: Used triangular part                          = Lower
diag: Absolute tolerance                            =  0.100E-15
diag: Orthogonalization factor                      =  0.100E-05
diag: Memory factor                                 =  1.0000

superc: Internal auxiliary supercell:     5 x     5 x     5  =     125
superc: Number of atoms, orbitals, and projectors:   4500  18000  40500


ts: **************************************************************
ts: Save H and S matrices                           =    F
ts: Save DM and EDM matrices                        =    F
ts: Only save the overlap matrix S                  =    F
ts: **************************************************************

************************ Begin: TS CHECKS AND WARNINGS ************************
************************ End: TS CHECKS AND WARNINGS **************************


                     ====================================
                        Single-point calculation
                     ====================================

outcoor: Atomic coordinates (Ang):                          
    0.00000000    0.00000000    1.04020500   1       1  C-gga
    0.00000000    0.00000000    3.12061500   1       2  C-gga
   -1.23200000    2.13388659    1.04020500   1       3  C-gga
   -2.46400000    4.26777319    3.12061500   1       4  C-gga
    2.46400000    4.26777319    1.04020500   1       5  C-gga
    1.23200000    2.13388659    3.12061500   1       6  C-gga
    2.46400000    0.00000000    1.04020500   1       7  C-gga
    4.92800000    0.00000000    3.12061500   1       8  C-gga
    2.46400000    0.00000000    3.12061500   1       9  C-gga
    4.92800000    0.00000000    1.04020500   1      10  C-gga
    2.46400000    4.26777319    3.12061500   1      11  C-gga
    1.23200000    2.13388659    1.04020500   1      12  C-gga
   -1.23200000    2.13388659    3.12061500   1      13  C-gga
   -2.46400000    4.26777319    1.04020500   1      14  C-gga
    0.00000000    4.26777319    1.04020500   1      15  C-gga
    3.69600000    2.13388659    3.12061500   1      16  C-gga
    3.69600000    2.13388659    1.04020500   1      17  C-gga
    0.00000000    4.26777319    3.12061500   1      18  C-gga
    0.00000000    1.42258964    1.04020500   1      19  C-gga
    3.69600000    4.97907014    3.12061500   1      20  C-gga
    2.46400123    5.69036496    1.04020500   1      21  C-gga
    1.23199877    0.71129482    3.12061500   1      22  C-gga
   -2.46400123    5.69036496    1.04020500   1      23  C-gga
    6.16000123    0.71129482    3.12061500   1      24  C-gga
   -1.23200000    3.55647624    1.04020500   1      25  C-gga
    4.92800000    2.84518355    3.12061500   1      26  C-gga
    1.23200123    3.55647837    1.04020500   1      27  C-gga
    2.46399877    2.84518142    3.12061500   1      28  C-gga
   -0.00000123    5.69036496    1.04020500   1      29  C-gga
    3.69600123    0.71129482    3.12061500   1      30  C-gga
    2.46400000    1.42258964    1.04020500   1      31  C-gga
    1.23200000    4.97907014    3.12061500   1      32  C-gga
    4.92800123    1.42259177    1.04020500   1      33  C-gga
   -1.23200123    4.97906801    3.12061500   1      34  C-gga
    3.69599877    3.55647837    1.04020500   1      35  C-gga
    0.00000123    2.84518142    3.12061500   1      36  C-gga

superc: Internal auxiliary supercell:     5 x     5 x     5  =     125
superc: Number of atoms, orbitals, and projectors:   4500  18000  40500

outcell: Unit cell vectors (Ang):
        7.392000    0.000000    0.000000
       -3.696000    6.401660    0.000000
        0.000000    0.000000    4.160820

outcell: Cell vector modules (Ang)   :    7.392000    7.392000    4.160820
outcell: Cell angles (23,13,12) (deg):     90.0000     90.0000    120.0000
outcell: Cell volume (Ang**3)        :    196.8945
<dSpData1D:S at geom step 0
  <sparsity:sparsity for geom step 0
    nrows_g=144 nrows=15 sparsity=1.3939 nnzs=28904, refcount: 7>
  <dData1D:(new from dSpData1D) n=28904, refcount: 1>
refcount: 1>
new_DM -- step:     1
Initializing Density Matrix...
DM filled with atomic data:
<dSpData2D:DM initialized from atoms
  <sparsity:sparsity for geom step 0
    nrows_g=144 nrows=15 sparsity=1.3939 nnzs=28904, refcount: 8>
  <dData2D:DM n=28904 m=1, refcount: 1>
refcount: 1>
No. of atoms with KB's overlaping orbs in proc 0. Max # of overlaps:     323     348
New grid distribution:   1
           1       1:   36    1:   18    1:    5
           2       1:   36    1:   18    6:   10
           3       1:   36    1:   18   11:   15
           4       1:   36    1:   18   16:   20
           5       1:   36    1:   18   21:   24
           6       1:   36   19:   36    1:    5
           7       1:   36   19:   36    6:   10
           8       1:   36   19:   36   11:   15
           9       1:   36   19:   36   16:   20
          10       1:   36   19:   36   21:   24

InitMesh: MESH =    72 x    72 x    48 =      248832
InitMesh: (bp) =    36 x    36 x    24 =       31104
InitMesh: Mesh cutoff (required, used) =   300.000   349.608 Ry
ExtMesh (bp) on 0 =   128 x   110 x   101 =     1422080
New grid distribution:   2
           1       1:   15    1:   18    1:   12
           2      16:   36    1:   18    1:    8
           3      16:   36    1:    9    9:   24
           4       1:   15    1:   18   13:   24
           5      16:   36   10:   18    9:   24
           6       1:   15   19:   36    1:   12
           7      16:   36   19:   36    1:    8
           8      16:   36   19:   27    9:   24
           9       1:   15   19:   36   13:   24
          10      16:   36   28:   36    9:   24
New grid distribution:   3
           1       1:   15    1:   18    1:   12
           2      16:   36    1:   18    1:    8
           3      16:   36    1:    9    9:   24
           4       1:   15    1:   18   13:   24
           5      16:   36   10:   18    9:   24
           6       1:   15   19:   36    1:   12
           7      16:   36   19:   36    1:    8
           8      16:   36   19:   27    9:   24
           9       1:   15   19:   36   13:   24
          10      16:   36   28:   36    9:   24
Setting up quadratic distribution...
ExtMesh (bp) on 0 =   107 x   110 x   108 =     1271160
PhiOnMesh: Number of (b)points on node 0 =                 3240
PhiOnMesh: nlist on node 0 =               602037

stepf: Fermi-Dirac step function

siesta: Program's energy decomposition (eV):
siesta: Ebs     =     -2620.027511
siesta: Eions   =      9434.507561
siesta: Ena     =      2197.358961
siesta: Ekin    =      3983.302873
siesta: Enl     =      -390.395495
siesta: Eso     =         0.000000
siesta: Edftu   =         0.000000
siesta: DEna    =      -146.535736
siesta: DUscf   =         7.797360
siesta: DUext   =         0.000000
siesta: Exc     =     -1721.845233
siesta: eta*DQ  =         0.000000
siesta: Emadel  =         0.000000
siesta: Emeta   =         0.000000
siesta: Emolmec =         0.000000
siesta: Ekinion =         0.000000
siesta: Eharris =     -5215.816943
siesta: Etot    =     -5504.824830
siesta: FreeEng =     -5504.828905

        iscf     Eharris(eV)        E_KS(eV)     FreeEng(eV)     dDmax    Ef(eV) dHmax(eV)
   scf:    1    -5215.816943    -5504.824830    -5504.828905  1.257075 -8.468719  0.730558
timer: Routine,Calls,Time,% = IterSCF        1       3.573  56.50
   scf:    2    -5505.007705    -5504.925750    -5504.930294  0.010730 -8.307361  0.520698
   scf:    3    -5504.969004    -5504.963647    -5504.967565  0.015537 -7.899479  0.076067
   scf:    4    -5504.990377    -5504.981982    -5504.984868  0.008697 -7.896040  0.001207
   scf:    5    -5504.982016    -5504.982000    -5504.984876  0.000120 -7.896415  0.000426

SCF Convergence by FreeE+DM+H criterion
|FreeE_i-FreeE_(i-1)| (eV) <     0.00100000
max |DM_out - DM_in|         :     0.0001199858
max |H_out - H_in|      (eV) :     0.0004264854
SCF cycle converged after 5 iterations

Using DM_out to compute the final energy and forces
No. of atoms with KB's overlaping orbs in proc 0. Max # of overlaps:     323     348

siesta: E_KS(eV) =            -5504.9820

siesta: E_KS - E_eggbox =     -5504.9820

siesta: Atomic forces (eV/Ang):
     1    0.000000   -0.000000   -0.000000
     2   -0.000000   -0.000000   -0.000000
     3    0.000066   -0.000060   -0.000000
     4   -0.000066    0.000060   -0.000000
     5    0.000019    0.000087   -0.000000
     6   -0.000019   -0.000087   -0.000000
     7   -0.000085   -0.000027   -0.000000
     8    0.000085    0.000027   -0.000000
     9   -0.000028   -0.000019   -0.000000
    10    0.000028    0.000019   -0.000000
    11   -0.000003    0.000033   -0.000000
    12    0.000003   -0.000033   -0.000000
    13    0.000030   -0.000014   -0.000000
    14   -0.000030    0.000014   -0.000000
    15   -0.000000   -0.000000   -0.000000
    16    0.000000    0.000000   -0.000000
    17   -0.000000    0.000000   -0.000000
    18    0.000000   -0.000000   -0.000000
    19    0.000010    0.000109    0.000000
    20   -0.000010   -0.000108    0.000000
    21   -0.000099   -0.000045    0.000000
    22    0.000099    0.000046    0.000000
    23    0.000089   -0.000062    0.000000
    24   -0.000089    0.000063    0.000000
    25    0.000010    0.000106    0.000000
    26   -0.000010   -0.000107    0.000000
    27   -0.000098   -0.000045    0.000000
    28    0.000098    0.000044    0.000000
    29    0.000087   -0.000062    0.000000
    30   -0.000087    0.000062    0.000000
    31   -0.000005    0.000101    0.000000
    32    0.000005   -0.000101    0.000000
    33   -0.000085   -0.000055    0.000000
    34    0.000085    0.000055    0.000000
    35    0.000090   -0.000046    0.000000
    36   -0.000090    0.000045    0.000000
----------------------------------------
   Tot    0.000000   -0.000001   -0.000000
----------------------------------------
   Max    0.000109
   Res    0.000049    sqrt( Sum f_i^2 / 3N )
----------------------------------------
   Max    0.000109    constrained

Stress tensor Voigt[x,y,z,yz,xz,xy] (kbar):     -416.33     -416.33    -1309.95       -0.00       -0.00        0.00
(Free)E + p*V (eV/cell)    -5417.2163
Target enthalpy (eV/cell)    -5504.9849

siesta: Eigenvalues (eV):
  ik is       eps
   1  1  -30.8264  -27.9013  -27.9013  -27.9013  -27.9013  -27.9013  -27.9013  -26.2236  -23.8788  -23.8788
         -23.8788  -23.8788  -23.8788  -23.8788  -23.7482  -23.7482  -22.3989  -22.3989  -22.3989  -22.3989
  -20.3598  -20.2292  -20.2292  -20.2292  -20.2292  -20.2292  -20.2292  -19.9309  -19.9309  -18.7852
  -18.7852  -18.7852  -18.7852  -17.6400  -17.6399  -17.6399  -17.6399  -17.6399  -17.6399  -17.3863
  -17.3863  -17.3863  -17.3863  -17.3863  -17.3863  -15.9888  -15.9888  -15.9888  -15.9888  -15.9887
  -15.9887  -14.2313  -14.2313  -14.2313  -14.2313  -14.2313  -14.2313  -13.6222  -13.6222  -12.8611
  -12.8611  -12.0238  -12.0238   -9.4060   -9.4060   -9.4060   -9.4060   -8.8191   -8.4072   -8.4072
   -8.4072   -8.4072   -8.4072   -8.4072   -4.9916   -4.9916   -4.9916   -4.9916   -4.9916   -4.9916
   -2.1409   -2.1409   -1.1111   -1.1111   -1.1111   -1.1111   -1.1111   -1.1111   -0.1640   -0.1640
   -0.1640   -0.1640   -0.1640   -0.1640    0.3118    0.3118    0.3212    1.4943    1.4943    2.5136
    3.1565    3.1565    3.1565    3.1565    3.1565    3.1565    4.1471    5.5485    6.3715    6.3715
    7.4650    7.4650    7.4650    7.4650    8.5302    8.5302    8.5302    8.5303    8.5303    8.5303
    8.7760    8.7760    9.5088    9.5088    9.5088    9.5088    9.5088    9.5088    9.9388    9.9388
    9.9388    9.9388    9.9388    9.9388   11.4096   11.4096   11.4096   11.4096   11.4096   11.4096
   15.6594   15.6594   15.6594   15.6594
   2  1  -30.0656  -30.0656  -28.6019  -28.6019  -25.9413  -25.9413  -25.9413  -25.9413  -25.6221  -25.6221
         -25.1627  -24.4440  -24.4440  -24.0077  -22.5769  -22.5769  -22.5769  -22.5769  -21.6566  -21.6566
  -21.6566  -21.6566  -21.0271  -20.7900  -19.6939  -19.6939  -19.3475  -19.3475  -19.3475  -19.3475
  -18.3298  -18.3298  -18.1155  -18.1155  -18.0722  -18.0722  -18.0722  -18.0722  -17.2751  -17.2751
  -16.6189  -16.1357  -16.1357  -16.1357  -16.1357  -15.6295  -15.6295  -15.5948  -15.5948  -15.5948
  -15.5948  -15.3720  -15.3720  -15.0745  -14.8045  -14.7975  -14.7975  -14.2756  -14.2756  -13.7732
  -13.7732  -12.8188  -12.8187  -11.6265   -9.7072   -9.7072   -9.7072   -9.7072   -8.3860   -8.3860
   -7.7657   -7.7657   -6.3749   -6.3749   -6.3749   -6.3749   -4.5732   -4.5684   -4.5684   -2.1161
   -1.7483   -1.7483   -1.7483   -1.7483   -1.5855   -1.5682   -1.5682   -0.0386   -0.0386    0.5269
    0.5269    1.8400    1.8400    1.8400    1.8400    2.3730    2.3730    2.6733    2.6733    2.7594
    2.7594    2.9547    2.9547    3.0384    3.0384    3.1107    4.4320    4.4320    4.6843    4.6844
    5.2645    5.2645    5.2645    5.2645    5.4728    5.4728    5.6033    5.6033    7.1369    7.1370
    8.4484    8.4484    8.4484    8.4484    9.6526    9.6526    9.6526    9.6527    9.8631    9.8631
   10.8368   10.8368   11.3962   11.8206   13.4980   13.5220   14.0878   14.0878   14.0878   14.0878
   14.3550   14.3550   14.3550   14.3550
   3  1  -30.0656  -30.0656  -28.6019  -28.6019  -25.9413  -25.9413  -25.9413  -25.9413  -25.6221  -25.6221
         -25.1627  -24.4440  -24.4440  -24.0077  -22.5769  -22.5769  -22.5769  -22.5769  -21.6566  -21.6566
  -21.6566  -21.6566  -21.0271  -20.7900  -19.6939  -19.6939  -19.3475  -19.3475  -19.3475  -19.3475
  -18.3298  -18.3298  -18.1155  -18.1155  -18.0722  -18.0722  -18.0722  -18.0722  -17.2751  -17.2751
  -16.6189  -16.1357  -16.1357  -16.1357  -16.1357  -15.6295  -15.6295  -15.5948  -15.5948  -15.5948
  -15.5948  -15.3720  -15.3720  -15.0745  -14.8045  -14.7975  -14.7975  -14.2756  -14.2756  -13.7732
  -13.7732  -12.8188  -12.8187  -11.6265   -9.7072   -9.7072   -9.7072   -9.7072   -8.3860   -8.3860
   -7.7657   -7.7657   -6.3749   -6.3749   -6.3749   -6.3749   -4.5732   -4.5684   -4.5684   -2.1161
   -1.7483   -1.7483   -1.7483   -1.7483   -1.5855   -1.5682   -1.5682   -0.0386   -0.0386    0.5269
    0.5269    1.8400    1.8400    1.8400    1.8400    2.3730    2.3730    2.6733    2.6733    2.7594
    2.7594    2.9547    2.9547    3.0384    3.0384    3.1107    4.4320    4.4320    4.6843    4.6844
    5.2645    5.2645    5.2645    5.2645    5.4728    5.4728    5.6033    5.6033    7.1369    7.1370
    8.4484    8.4484    8.4484    8.4484    9.6526    9.6526    9.6526    9.6527    9.8631    9.8631
   10.8368   10.8368   11.3962   11.8206   13.4980   13.5220   14.0878   14.0878   14.0878   14.0878
   14.3550   14.3550   14.3550   14.3550
   4  1  -30.0656  -30.0656  -28.6019  -28.6019  -25.9413  -25.9413  -25.9413  -25.9413  -25.6221  -25.6221
         -25.1627  -24.4440  -24.4440  -24.0077  -22.5769  -22.5769  -22.5769  -22.5769  -21.6566  -21.6566
  -21.6566  -21.6566  -21.0271  -20.7900  -19.6939  -19.6939  -19.3475  -19.3475  -19.3475  -19.3475
  -18.3298  -18.3298  -18.1155  -18.1155  -18.0722  -18.0722  -18.0722  -18.0722  -17.2751  -17.2751
  -16.6189  -16.1357  -16.1357  -16.1357  -16.1357  -15.6295  -15.6295  -15.5948  -15.5948  -15.5948
  -15.5948  -15.3720  -15.3720  -15.0745  -14.8045  -14.7975  -14.7975  -14.2756  -14.2756  -13.7732
  -13.7732  -12.8188  -12.8187  -11.6265   -9.7072   -9.7072   -9.7072   -9.7072   -8.3860   -8.3860
   -7.7657   -7.7657   -6.3749   -6.3749   -6.3749   -6.3749   -4.5732   -4.5684   -4.5684   -2.1161
   -1.7483   -1.7483   -1.7483   -1.7483   -1.5855   -1.5682   -1.5682   -0.0386   -0.0386    0.5269
    0.5269    1.8400    1.8400    1.8400    1.8400    2.3730    2.3730    2.6733    2.6733    2.7594
    2.7594    2.9547    2.9547    3.0384    3.0384    3.1107    4.4320    4.4320    4.6843    4.6844
    5.2645    5.2645    5.2645    5.2645    5.4728    5.4728    5.6033    5.6033    7.1369    7.1370
    8.4484    8.4484    8.4484    8.4484    9.6526    9.6526    9.6526    9.6527    9.8631    9.8631
   10.8368   10.8368   11.3962   11.8206   13.4980   13.5220   14.0878   14.0878   14.0878   14.0878
   14.3550   14.3550   14.3550   14.3550
   5  1  -29.1791  -29.1791  -26.4132  -26.4132  -26.4132  -26.4132  -26.4132  -26.4132  -26.4132  -26.4132
         -26.4132  -26.4132  -26.4132  -26.4132  -22.3591  -22.3591  -22.3591  -22.3591  -21.9060  -21.9060
  -21.9060  -21.9060  -19.8729  -19.8729  -19.8729  -19.8729  -19.1127  -19.1127  -19.1127  -19.1127
  -19.1127  -19.1127  -19.1127  -19.1127  -19.1127  -19.1127  -19.1127  -19.1127  -15.1988  -15.1988
  -15.1988  -15.1988  -15.1988  -15.1988  -15.1988  -15.1988  -15.1988  -15.1988  -15.1988  -15.1988
  -14.7119  -14.7119  -12.4389  -12.4389  -12.4389  -12.4389  -12.2507  -12.2507  -12.2507  -12.2507
  -12.2507  -12.2507  -12.2507  -12.2507  -12.2507  -12.2507  -12.2507  -12.2507   -8.2281   -8.2281
   -8.2281   -8.2281   -8.0166   -8.0166   -8.0166   -8.0166   -3.9547   -3.9547   -3.9547   -3.9547
   -3.9547   -3.9547   -3.9547   -3.9547   -3.9547   -3.9547   -3.9547   -3.9547    0.7687    0.7687
    0.7687    0.7687    1.1413    1.1413    1.9128    1.9128    1.9128    1.9128    1.9128    1.9128
    1.9128    1.9128    1.9128    1.9128    1.9128    1.9128    5.0996    5.0996    7.3259    7.3259
    7.3259    7.3259    7.7654    7.7654    7.7655    7.7655    8.9980    8.9980    8.9980    8.9980
    8.9980    8.9980    8.9980    8.9980    8.9980    8.9980    8.9980    8.9980   10.7707   10.7707
   10.7707   10.7707   10.7707   10.7707   10.7708   10.7708   10.7708   10.7708   10.7708   10.7708
   15.6548   15.6548   15.6548   15.6548
   6  1  -28.4610  -28.4610  -28.4610  -28.4610  -27.0768  -27.0768  -27.0768  -27.0768  -24.5584  -24.5584
         -24.5584  -24.5584  -24.5584  -24.5584  -24.5584  -24.5584  -23.8726  -23.8726  -22.4852  -22.4852
  -20.8528  -20.8528  -20.8528  -20.8528  -20.8528  -20.8528  -20.8528  -20.8528  -17.4878  -17.4878
  -17.4878  -17.4878  -17.4878  -17.4878  -17.4878  -17.4878  -17.2938  -17.2938  -17.2938  -17.2938
  -15.8559  -15.8559  -15.8559  -15.8559  -15.8110  -15.8110  -14.8971  -14.8971  -14.8971  -14.8971
  -14.0188  -14.0188  -14.0188  -14.0188  -13.5962  -13.5962  -13.5961  -13.5961  -12.8357  -12.8357
  -12.8357  -12.8357  -10.5120  -10.5120  -10.5120  -10.5120  -10.5120  -10.5120  -10.5120  -10.5120
  -10.3136  -10.3136   -6.4519   -6.4519   -5.7570   -5.7570   -5.7570   -5.7570   -5.7570   -5.7570
   -5.7570   -5.7570   -2.6518   -2.6518   -2.6518   -2.6518   -0.8573   -0.8573   -0.8573   -0.8573
    1.4242    1.4242    2.3948    2.3948    2.3948    2.3948    3.6587    3.6587    3.6587    3.6587
    3.8485    3.8485    3.8485    3.8485    3.8485    3.8485    3.8485    3.8485    3.9384    3.9384
    3.9385    3.9385    5.0047    5.0047    5.0047    5.0047    6.3261    6.3261    6.3261    6.3261
    9.0903    9.0903    9.0903    9.0903    9.0903    9.0903    9.0903    9.0903   10.3488   10.3488
   10.3488   10.3488   11.6070   11.6070   13.5118   13.5118   14.2165   14.2165   14.2165   14.2165
   14.2165   14.2165   14.2165   14.2165
   7  1  -28.4610  -28.4610  -28.4610  -28.4610  -27.0768  -27.0768  -27.0768  -27.0768  -24.5584  -24.5584
         -24.5584  -24.5584  -24.5584  -24.5584  -24.5584  -24.5584  -23.8726  -23.8726  -22.4852  -22.4852
  -20.8528  -20.8528  -20.8528  -20.8528  -20.8528  -20.8528  -20.8528  -20.8528  -17.4878  -17.4878
  -17.4878  -17.4878  -17.4878  -17.4878  -17.4878  -17.4878  -17.2938  -17.2938  -17.2938  -17.2938
  -15.8559  -15.8559  -15.8559  -15.8559  -15.8110  -15.8110  -14.8971  -14.8971  -14.8971  -14.8971
  -14.0188  -14.0188  -14.0188  -14.0188  -13.5962  -13.5962  -13.5961  -13.5961  -12.8357  -12.8357
  -12.8357  -12.8357  -10.5120  -10.5120  -10.5120  -10.5120  -10.5120  -10.5120  -10.5120  -10.5120
  -10.3136  -10.3136   -6.4519   -6.4519   -5.7570   -5.7570   -5.7570   -5.7570   -5.7570   -5.7570
   -5.7570   -5.7570   -2.6518   -2.6518   -2.6518   -2.6518   -0.8573   -0.8573   -0.8573   -0.8573
    1.4242    1.4242    2.3948    2.3948    2.3948    2.3948    3.6587    3.6587    3.6587    3.6587
    3.8485    3.8485    3.8485    3.8485    3.8485    3.8485    3.8485    3.8485    3.9384    3.9384
    3.9385    3.9385    5.0047    5.0047    5.0047    5.0047    6.3261    6.3261    6.3261    6.3261
    9.0903    9.0903    9.0903    9.0903    9.0903    9.0903    9.0903    9.0903   10.3488   10.3488
   10.3488   10.3488   11.6070   11.6070   13.5118   13.5118   14.2165   14.2165   14.2165   14.2165
   14.2165   14.2165   14.2165   14.2165
   8  1  -28.4610  -28.4610  -28.4610  -28.4610  -27.0768  -27.0768  -27.0768  -27.0768  -24.5584  -24.5584
         -24.5584  -24.5584  -24.5584  -24.5584  -24.5584  -24.5584  -23.8726  -23.8726  -22.4852  -22.4852
  -20.8528  -20.8528  -20.8528  -20.8528  -20.8528  -20.8528  -20.8528  -20.8528  -17.4878  -17.4878
  -17.4878  -17.4878  -17.4878  -17.4878  -17.4878  -17.4878  -17.2938  -17.2938  -17.2938  -17.2938
  -15.8559  -15.8559  -15.8559  -15.8559  -15.8110  -15.8110  -14.8971  -14.8971  -14.8971  -14.8971
  -14.0188  -14.0188  -14.0188  -14.0188  -13.5962  -13.5962  -13.5961  -13.5961  -12.8357  -12.8357
  -12.8357  -12.8357  -10.5120  -10.5120  -10.5120  -10.5120  -10.5120  -10.5120  -10.5120  -10.5120
  -10.3136  -10.3136   -6.4519   -6.4519   -5.7570   -5.7570   -5.7570   -5.7570   -5.7570   -5.7570
   -5.7570   -5.7570   -2.6518   -2.6518   -2.6518   -2.6518   -0.8573   -0.8573   -0.8573   -0.8573
    1.4242    1.4242    2.3948    2.3948    2.3948    2.3948    3.6587    3.6587    3.6587    3.6587
    3.8485    3.8485    3.8485    3.8485    3.8485    3.8485    3.8485    3.8485    3.9384    3.9384
    3.9385    3.9385    5.0047    5.0047    5.0047    5.0047    6.3261    6.3261    6.3261    6.3261
    9.0903    9.0903    9.0903    9.0903    9.0903    9.0903    9.0903    9.0903   10.3488   10.3488
   10.3488   10.3488   11.6070   11.6070   13.5118   13.5118   14.2165   14.2165   14.2165   14.2165
   14.2165   14.2165   14.2165   14.2165
siesta: Fermi energy =      -7.896415 eV

siesta: Program's energy decomposition (eV):
siesta: Ebs     =     -2621.453134
siesta: Eions   =      9434.507561
siesta: Ena     =      2197.358961
siesta: Ekin    =      3978.304111
siesta: Enl     =      -388.316960
siesta: Eso     =         0.000000
siesta: Edftu   =         0.000000
siesta: DEna    =      -143.922645
siesta: DUscf   =         7.397801
siesta: DUext   =         0.000000
siesta: Exc     =     -1721.295707
siesta: eta*DQ  =         0.000000
siesta: Emadel  =         0.000000
siesta: Emeta   =         0.000000
siesta: Emolmec =         0.000000
siesta: Ekinion =         0.000000
siesta: Eharris =     -5504.982016
siesta: Etot    =     -5504.982000
siesta: FreeEng =     -5504.984876

siesta: Final energy (eV):
siesta:  Band Struct. =   -2621.453134
siesta:       Kinetic =    3978.304111
siesta:       Hartree =     394.865938
siesta:       Edftu   =       0.000000
siesta:       Eso     =       0.000000
siesta:    Ext. field =       0.000000
siesta:   Exch.-corr. =   -1721.295707
siesta:  Ion-electron =   -5139.101674
siesta:       Ion-ion =   -3017.754668
siesta:       Ekinion =       0.000000
siesta:         Total =   -5504.982000
siesta:         Fermi =      -7.896415

siesta: Stress tensor (static) (eV/Ang**3):
siesta:    -0.259849    0.000000    0.000000
siesta:     0.000000   -0.259849    0.000000
siesta:    -0.000000   -0.000000   -0.817596

siesta: Cell volume =        196.894451 Ang**3

siesta: Pressure (static):
siesta:                Solid            Molecule  Units
siesta:           0.00485495          0.00485498  Ry/Bohr**3
siesta:           0.44576477          0.44576805  eV/Ang**3
siesta:         714.20161341        714.20687528  kBar
(Free)E+ p_basis*V_orbitals  =       -5486.681829
(Free)Eharris+ p_basis*V_orbitals  =       -5486.681845

cite: Please see "graphite_scf.bib" for an exhaustive BiBTeX file.
cite: Please clearly indicate Siesta version in published work: 4.1.5
cite: This calculation has made use of the following articles
cite: which are encouraged to be cited in a published work.
        Primary SIESTA paper
          DOI: www.doi.org/10.1088/0953-8984/14/11/302

>> End of run:  28-OCT-2022  14:45:10
Job completed
