Siesta Version  : 4.1.5
Architecture    : x86_64-unknown-linux-gnu--unknown
Compiler version: GNU Fortran (GCC) 11.3.0
Compiler flags  : mpif90 -g -O2 -fallow-argument-mismatch
PP flags        : -DMPI -DFC_HAVE_FLUSH -DFC_HAVE_ABORT
Libraries       :  -I/global/software/sl-7.x86_64/modules/intel/2020.4.304/mkl/include  /globall/software/sl-7.x86_64/modules/intel/2020.4.304/mkl/lib/intel64/libmkl_scalapack_lp64.a -Wl,--start-group /global/software/sl-7.x86_64/modules/intel/2020.4.304/mkl/lib/intel64/libmkl_intel_lp64.a /global/software/sl-7.x86_64/modules/intel/2020.4.304/mkl/lib/intel64/libmkl_sequential.a /global/software/sl-7.x86_64/modules/intel/2020.4.304/mkl/lib/intel64/libmkl_core.a /global/software/sl-7.x86_64/modules/intel/2020.4.304/mkl/lib/intel64/libmkl_blacs_openmpi_lp64.a -Wl,--end-group -lpthread -lm -ldl
PARALLEL version

* Running on 12 nodes in parallel
>> Start of run:   9-NOV-2022  14:39:54

                           ***********************       
                           *  WELCOME TO SIESTA  *       
                           ***********************       

reinit: Reading from standard input
reinit: Dumped input in INPUT_TMP.61113
************************** Dump of input data file ****************************
SystemName LiC12_scf
SystemLabel LiC12_scf
NumberOfAtoms   13
NumberOfSpecies 2
%block ChemicalSpeciesLabel
1  3   Li-gga
2  6   C-gga
%endblock ChemicalSpeciesLabel
PAO.BasisSize  SZ
PAO.EnergyShift  10 meV
%block PS.Lmax
C-gga   2
Li-gga  2
%endblock PS.Lmax
LatticeConstant 1.000000 Ang
%block LatticeVectors
	4.2686000000	0.0000000000	0.0000000000
	-2.1343000000	3.6967160386	0.0000000000
	0.0000000000	0.0000000000	7.1633580000
%endblock LatticeVectors
AtomicCoordinatesFormat Ang
%block AtomicCoordinatesAndAtomicSpecies
	0.00000000	0.00000000	0.00000000	2
	1.42144380	0.00000000	1.79083950	1
	2.84715620	0.00000000	5.37251850	1
	-0.71072190	1.23100644	1.79083950	1
	-1.42357810	2.46570960	5.37251850	1
	1.42357810	2.46570960	1.79083950	1
	0.71072190	1.23100644	5.37251850	1
	2.84715620	0.00000000	1.79083950	1
	1.42144380	0.00000000	5.37251850	1
	-1.42357810	2.46570960	1.79083950	1
	-0.71072190	1.23100644	5.37251850	1
	0.71072190	1.23100644	1.79083950	1
	1.42357810	2.46570960	5.37251850	1
%endblock AtomicCoordinatesAndAtomicSpecies
Kgrid_NoTRS  T
%block kgrid_MonkhorstPack
3       0       0       0.0
0       3       0       0.0
0       0       3       0.0
%endblock kgrid_MonkhorstPack
AtomCoorFormatOut Ang
BlockSize 1
#ProcessorY 12
Diag.ParallelOverK   T
Diag.DivideAndConquer F
MeshCutoff   300 Ry
SCF.FreeE.Tolerance 1E-3 eV
SCF.EDM.Tolerance   5E-3 eV
DM.Tolerance  1E-3
DM.Require.Energy.Convergence T
DM.NumberPulay 4
XC.Functional GGA
XC.Authors    PBE
UseSaveData        F
MD.TypeOfRun       CG
MD.VariableCell    F
MD.NumCGsteps      00
MD.MaxCGDispl      0.200000 Bohr
MD.MaxStressTol    1.000000 GPa
MD.MaxForceTol     0.010000 eV/Ang
WriteMDHistory T
WriteCoorStep T
WriteForces T
WriteCoorStep    T
WriteEigenValues T
WriteDM    F
MM.UnitsDistance Ang  # what this program prints out DO NOT CHANGE
MM.UnitsEnergy    eV  # what this program prints out DO NOT CHANGE
MM.Grimme.S6     0.75 # Grimme-paper for PBE (correct for your functional)
MM.Grimme.D     20.   # Grimme-paper (correct for your functional)
%block MM.Potentials
  1   1 Grimme     16.69      1.650 # Li, 10.1002/jcc.20495
  1   2 Grimme     17.40      2.277 # Li / C
  2   2 Grimme     18.14      2.904 # C, 10.1002/jcc.20495
%endblock MM.Potentials
#%block ProjectedDensityOfStates
# -200.0  120.0  0.4  12800  eV
#%endblock ProjectedDensityOfStates
************************** End of input data file *****************************

reinit: -----------------------------------------------------------------------
reinit: System Name: LiC12_scf
reinit: -----------------------------------------------------------------------
reinit: System Label: LiC12_scf
reinit: -----------------------------------------------------------------------
Reading two-body potentials
Grimme - two-body potential between 1 and 1
Grimme - two-body potential between 1 and 2
Grimme - two-body potential between 2 and 2

initatom: Reading input for the pseudopotentials and atomic orbitals ----------
Species number:   1 Atomic number:    3 Label: Li-gga
Species number:   2 Atomic number:    6 Label: C-gga

Ground state valence configuration:   2s01
Reading pseudopotential information in formatted form from Li-gga.psf

Valence configuration for pseudopotential generation:
2s( 1.00) rc: 2.28
2p( 0.00) rc: 2.28
3d( 0.00) rc: 2.59
4f( 0.00) rc: 2.59
Ground state valence configuration:   2s02  2p02
Reading pseudopotential information in formatted form from C-gga.psf

Valence configuration for pseudopotential generation:
2s( 2.00) rc: 1.56
2p( 2.00) rc: 1.56
3d( 0.00) rc: 1.56
4f( 0.00) rc: 1.56
relmxkb: Read Max KB Ang. Momentum=    2 for species C-gga
relmxkb: Read Max KB Ang. Momentum=    2 for species Li-gga

<basis_specs>
===============================================================================
Li-gga               Z=   3    Mass=  6.9400        Charge= 0.17977+309
Lmxo=0 Lmxkb= 2    BasisType=split      Semic=F
L=0  Nsemic=0  Cnfigmx=2
          i=1  nzeta=1  polorb=0  (2s)
            splnorm:   0.15000    
               vcte:    0.0000    
               rinn:    0.0000    
               qcoe:    0.0000    
               qyuk:    0.0000    
               qwid:   0.10000E-01
                rcs:    0.0000    
            lambdas:    1.0000    
-------------------------------------------------------------------------------
L=0  Nkbl=1  erefs: 0.17977+309
L=1  Nkbl=1  erefs: 0.17977+309
L=2  Nkbl=1  erefs: 0.17977+309
===============================================================================
</basis_specs>

atom: Called for Li-gga                (Z =   3)

read_vps: Pseudopotential generation method:
read_vps: ATM 3.2.2 Troullier-Martins                       
Valence charge for ps generation:    1.00000

read_vps: Pseudopotential includes a core correction:
read_vps: Pseudo-core for xc-correction

xc_check: Exchange-correlation functional:
xc_check: GGA Perdew, Burke & Ernzerhof 1996
V l=0 = -2*Zval/r beyond r=  2.2278
V l=1 = -2*Zval/r beyond r=  2.2278
V l=2 = -2*Zval/r beyond r=  2.5245
All V_l potentials equal beyond r=  2.4622
This should be close to max(r_c) in ps generation
All pots = -2*Zval/r beyond r=  2.5245

VLOCAL1: 99.0% of the norm of Vloc inside      7.160 Ry
VLOCAL1: 99.9% of the norm of Vloc inside     16.318 Ry
atom: Maximum radius for 4*pi*r*r*local-pseudopot. charge    2.86079
atom: Maximum radius for r*vlocal+2*Zval:    2.43160
GHOST: No ghost state for L =  0
GHOST: No ghost state for L =  1
GHOST: No ghost state for L =  2

KBgen: Kleinman-Bylander projectors: 
   l= 0   rc=  2.654023   el= -0.211234   Ekb=  1.742119   kbcos=  0.228463
   l= 1   rc=  2.721230   el= -0.080095   Ekb= -1.122375   kbcos= -0.147941
   l= 2   rc=  2.825246   el=  0.002001   Ekb= -0.207076   kbcos= -0.031965

KBgen: Total number of Kleinman-Bylander projectors:    9
atom: -------------------------------------------------------------------------

atom: SANKEY-TYPE ORBITALS:

SPLIT: Orbitals with angular momentum L= 0

SPLIT: Basis orbitals for state 2s

SPLIT: PAO cut-off radius determined from an
SPLIT: energy shift=  0.000735 Ry

   izeta = 1
                 lambda =    1.000000
                     rc =   11.897381
                 energy =   -0.210580
                kinetic =    0.143382
    potential(screened) =   -0.353962
       potential(ionic) =   -0.533453
atom: Total number of Sankey-type orbitals:  1

atm_pop: Valence configuration (for local Pseudopot. screening):
 2s( 1.00)                                                            
Vna: chval, zval:    1.00000   1.00000

Vna:  Cut-off radius for the neutral-atom potential:  11.897381
comcore: Pseudo-core radius Rcore=  3.450946

atom: _________________________________________________________________________

<basis_specs>
===============================================================================
C-gga                Z=   6    Mass=  12.010        Charge= 0.17977+309
Lmxo=1 Lmxkb= 2    BasisType=split      Semic=F
L=0  Nsemic=0  Cnfigmx=2
          i=1  nzeta=1  polorb=0  (2s)
            splnorm:   0.15000    
               vcte:    0.0000    
               rinn:    0.0000    
               qcoe:    0.0000    
               qyuk:    0.0000    
               qwid:   0.10000E-01
                rcs:    0.0000    
            lambdas:    1.0000    
L=1  Nsemic=0  Cnfigmx=2
          i=1  nzeta=1  polorb=0  (2p)
            splnorm:   0.15000    
               vcte:    0.0000    
               rinn:    0.0000    
               qcoe:    0.0000    
               qyuk:    0.0000    
               qwid:   0.10000E-01
                rcs:    0.0000    
            lambdas:    1.0000    
-------------------------------------------------------------------------------
L=0  Nkbl=1  erefs: 0.17977+309
L=1  Nkbl=1  erefs: 0.17977+309
L=2  Nkbl=1  erefs: 0.17977+309
===============================================================================
</basis_specs>

atom: Called for C-gga                 (Z =   6)

read_vps: Pseudopotential generation method:
read_vps: ATM 3.2.2 Troullier-Martins                       
Valence charge for ps generation:    4.00000

xc_check: Exchange-correlation functional:
xc_check: GGA Perdew, Burke & Ernzerhof 1996
V l=0 = -2*Zval/r beyond r=  1.5227
V l=1 = -2*Zval/r beyond r=  1.5227
V l=2 = -2*Zval/r beyond r=  1.5227
All V_l potentials equal beyond r=  1.4851
This should be close to max(r_c) in ps generation
All pots = -2*Zval/r beyond r=  1.5227

VLOCAL1: 99.0% of the norm of Vloc inside     19.682 Ry
VLOCAL1: 99.9% of the norm of Vloc inside     44.856 Ry
atom: Maximum radius for 4*pi*r*r*local-pseudopot. charge    1.79142
atom: Maximum radius for r*vlocal+2*Zval:    1.54183
GHOST: No ghost state for L =  0
GHOST: No ghost state for L =  1
GHOST: No ghost state for L =  2

KBgen: Kleinman-Bylander projectors: 
   l= 0   rc=  1.661951   el= -1.010689   Ekb=  5.289847   kbcos=  0.316429
   l= 1   rc=  1.661951   el= -0.388490   Ekb= -4.102504   kbcos= -0.351025
   l= 2   rc=  1.747182   el=  0.001971   Ekb= -1.006005   kbcos= -0.008530

KBgen: Total number of Kleinman-Bylander projectors:    9
atom: -------------------------------------------------------------------------

atom: SANKEY-TYPE ORBITALS:

SPLIT: Orbitals with angular momentum L= 0

SPLIT: Basis orbitals for state 2s

SPLIT: PAO cut-off radius determined from an
SPLIT: energy shift=  0.000735 Ry

   izeta = 1
                 lambda =    1.000000
                     rc =    5.948690
                 energy =   -1.010099
                kinetic =    0.827121
    potential(screened) =   -1.837220
       potential(ionic) =   -5.392783

SPLIT: Orbitals with angular momentum L= 1

SPLIT: Basis orbitals for state 2p

SPLIT: PAO cut-off radius determined from an
SPLIT: energy shift=  0.000735 Ry

   izeta = 1
                 lambda =    1.000000
                     rc =    7.638387
                 energy =   -0.387843
                kinetic =    2.314739
    potential(screened) =   -2.702582
       potential(ionic) =   -6.092371
atom: Total number of Sankey-type orbitals:  4

atm_pop: Valence configuration (for local Pseudopot. screening):
 2s( 2.00)                                                            
 2p( 2.00)                                                            
Vna: chval, zval:    4.00000   4.00000

Vna:  Cut-off radius for the neutral-atom potential:   7.638387

atom: _________________________________________________________________________

prinput: Basis input ----------------------------------------------------------

PAO.BasisType split     

%block ChemicalSpeciesLabel
    1    3 Li-gga                  # Species index, atomic number, species label
    2    6 C-gga                   # Species index, atomic number, species label
%endblock ChemicalSpeciesLabel

%block PAO.Basis                 # Define Basis set
Li-gga                1                    # Species label, number of l-shells
 n=2   0   1                         # n, l, Nzeta 
  11.897   
   1.000   
C-gga                 2                    # Species label, number of l-shells
 n=2   0   1                         # n, l, Nzeta 
   5.949   
   1.000   
 n=2   1   1                         # n, l, Nzeta 
   7.638   
   1.000   
%endblock PAO.Basis

prinput: ----------------------------------------------------------------------

coor:   Atomic-coordinates input format  =     Cartesian coordinates
coor:                                          (in Angstroms)

siesta: Atomic coordinates (Bohr) and species
siesta:      0.00000   0.00000   0.00000  2        1
siesta:      2.68614   0.00000   3.38420  1        2
siesta:      5.38035   0.00000  10.15259  1        3
siesta:     -1.34307   2.32627   3.38420  1        4
siesta:     -2.69017   4.65952  10.15259  1        5
siesta:      2.69017   4.65952   3.38420  1        6
siesta:      1.34307   2.32627  10.15259  1        7
siesta:      5.38035   0.00000   3.38420  1        8
siesta:      2.68614   0.00000  10.15259  1        9
siesta:     -2.69017   4.65952   3.38420  1       10
siesta:     -1.34307   2.32627  10.15259  1       11
siesta:      1.34307   2.32627   3.38420  1       12
siesta:      2.69017   4.65952  10.15259  1       13

siesta: System type = bulk      

initatomlists: Number of atoms, orbitals, and projectors:     13    16   117

siesta: ******************** Simulation parameters ****************************
siesta:
siesta: The following are some of the parameters of the simulation.
siesta: A complete list of the parameters used, including default values,
siesta: can be found in file out.fdf
siesta:
redata: Spin configuration                          = none
redata: Number of spin components                   = 1
redata: Time-Reversal Symmetry                      = T
redata: Spin spiral                                 = F
redata: Long output                                 =   F
redata: Number of Atomic Species                    =        2
redata: Charge density info will appear in .RHO file
redata: Write Mulliken Pop.                         = NO
redata: Matel table size (NRTAB)                    =     1024
redata: Mesh Cutoff                                 =   300.0000 Ry
redata: Net charge of the system                    =     0.0000 |e|
redata: Min. number of SCF Iter                     =        0
redata: Max. number of SCF Iter                     =     1000
redata: SCF convergence failure will abort job
redata: SCF mix quantity                            = Hamiltonian
redata: Mix DM or H after convergence               =   F
redata: Recompute H after scf cycle                 =   F
redata: Mix DM in first SCF step                    =   T
redata: Write Pulay info on disk                    =   F
redata: New DM Occupancy tolerance                  = 0.000000000001
redata: No kicks to SCF
redata: DM Mixing Weight for Kicks                  =     0.5000
redata: Require Harris convergence for SCF          =   F
redata: Harris energy tolerance for SCF             =     0.000100 eV
redata: Require DM convergence for SCF              =   T
redata: DM tolerance for SCF                        =     0.001000
redata: Require EDM convergence for SCF             =   F
redata: EDM tolerance for SCF                       =     0.005000 eV
redata: Require H convergence for SCF               =   T
redata: Hamiltonian tolerance for SCF               =     0.001000 eV
redata: Require (free) Energy convergence for SCF   =   T
redata: (free) Energy tolerance for SCF             =     0.001000 eV
redata: Using Saved Data (generic)                  =   F
redata: Use continuation files for DM               =   F
redata: Neglect nonoverlap interactions             =   F
redata: Method of Calculation                       = Diagonalization
redata: Electronic Temperature                      =   299.9869 K
redata: Fix the spin of the system                  =   F
redata: Dynamics option                             = Single-point calculation
mix.SCF: Pulay mixing                            = Pulay
mix.SCF:    Variant                              = stable
mix.SCF:    History steps                        = 4
mix.SCF:    Linear mixing weight                 =     0.250000
mix.SCF:    Mixing weight                        =     0.250000
mix.SCF:    SVD condition                        = 0.1000E-07
redata: ***********************************************************************

%block SCF.Mixers
  Pulay
%endblock SCF.Mixers

%block SCF.Mixer.Pulay
  # Mixing method
  method pulay
  variant stable

  # Mixing options
  weight 0.2500
  weight.linear 0.2500
  history 4
%endblock SCF.Mixer.Pulay

DM_history_depth set to one: no extrapolation allowed by default for geometry relaxation
Size of DM history Fstack: 1
Total number of electrons:    16.000000
Total ionic charge:    16.000000

* ProcessorY, Blocksize:    3   1


* Orbital distribution balance (max,min):     2     1

 Kpoints in:           18 . Kpoints trimmed:           14

siesta: k-grid: Number of k-points =    14
siesta: k-grid: Cutoff (effective) =     6.403 Ang
siesta: k-grid: Supercell and displacements
siesta: k-grid:    3   0   0      0.000
siesta: k-grid:    0   3   0      0.000
siesta: k-grid:    0   0   3      0.000

diag: Algorithm                                     = Expert
diag: Parallel over k                               =   T
diag: Use parallel 2D distribution                  =   T
diag: Parallel block-size                           = 1
diag: Parallel distribution                         =     3 x     4
diag: Used triangular part                          = Lower
diag: Absolute tolerance                            =  0.100E-15
diag: Orthogonalization factor                      =  0.100E-05
diag: Memory factor                                 =  1.0000

superc: Internal auxiliary supercell:     9 x     9 x     5  =     405
superc: Number of atoms, orbitals, and projectors:   5265   6480  47385


ts: **************************************************************
ts: Save H and S matrices                           =    F
ts: Save DM and EDM matrices                        =    F
ts: Only save the overlap matrix S                  =    F
ts: **************************************************************

************************ Begin: TS CHECKS AND WARNINGS ************************
************************ End: TS CHECKS AND WARNINGS **************************


                     ====================================
                        Single-point calculation
                     ====================================

outcoor: Atomic coordinates (Ang):                          
    0.00000000    0.00000000    0.00000000   2       1  C-gga
    1.42144380    0.00000000    1.79083950   1       2  Li-gga
    2.84715620    0.00000000    5.37251850   1       3  Li-gga
   -0.71072190    1.23100644    1.79083950   1       4  Li-gga
   -1.42357810    2.46570960    5.37251850   1       5  Li-gga
    1.42357810    2.46570960    1.79083950   1       6  Li-gga
    0.71072190    1.23100644    5.37251850   1       7  Li-gga
    2.84715620    0.00000000    1.79083950   1       8  Li-gga
    1.42144380    0.00000000    5.37251850   1       9  Li-gga
   -1.42357810    2.46570960    1.79083950   1      10  Li-gga
   -0.71072190    1.23100644    5.37251850   1      11  Li-gga
    0.71072190    1.23100644    1.79083950   1      12  Li-gga
    1.42357810    2.46570960    5.37251850   1      13  Li-gga

superc: Internal auxiliary supercell:     9 x     9 x     5  =     405
superc: Number of atoms, orbitals, and projectors:   5265   6480  47385

outcell: Unit cell vectors (Ang):
        4.268600    0.000000    0.000000
       -2.134300    3.696716    0.000000
        0.000000    0.000000    7.163358

outcell: Cell vector modules (Ang)   :    4.268600    4.268600    7.163358
outcell: Cell angles (23,13,12) (deg):     90.0000     90.0000    120.0000
outcell: Cell volume (Ang**3)        :    113.0364
<dSpData1D:S at geom step 0
  <sparsity:sparsity for geom step 0
    nrows_g=16 nrows=2 sparsity=9.7422 nnzs=2494, refcount: 7>
  <dData1D:(new from dSpData1D) n=2494, refcount: 1>
refcount: 1>
new_DM -- step:     1
Initializing Density Matrix...
DM filled with atomic data:
<dSpData2D:DM initialized from atoms
  <sparsity:sparsity for geom step 0
    nrows_g=16 nrows=2 sparsity=9.7422 nnzs=2494, refcount: 8>
  <dData2D:DM n=2494 m=1, refcount: 1>
refcount: 1>
No. of atoms with KB's overlaping orbs in proc 0. Max # of overlaps:     228     237
New grid distribution:   1
           1       1:   20    1:    7    1:   10
           2       1:   20    1:    7   11:   20
           3       1:   20    1:    7   21:   30
           4       1:   20    1:    7   31:   40
           5       1:   20    8:   14    1:   10
           6       1:   20    8:   14   11:   20
           7       1:   20    8:   14   21:   30
           8       1:   20    8:   14   31:   40
           9       1:   20   15:   20    1:   10
          10       1:   20   15:   20   11:   20
          11       1:   20   15:   20   21:   30
          12       1:   20   15:   20   31:   40

InitMesh: MESH =    40 x    40 x    80 =      128000
InitMesh: (bp) =    20 x    20 x    40 =       16000
InitMesh: Mesh cutoff (required, used) =   300.000   323.586 Ry
ExtMesh (bp) on 0 =   160 x   147 x   154 =     3622080
New grid distribution:   2
           1       1:   20    1:    7    1:   10
           2       1:   10    8:   20   11:   20
           3       1:   20    1:    7   21:   30
           4      11:   20    8:   20    1:   10
           5       1:   20    1:    7   11:   20
           6       1:   10    8:   20    1:   10
           7      11:   20    8:   20   21:   30
           8      11:   20    8:   20   31:   40
           9       1:   20    1:    7   31:   40
          10      11:   20    8:   20   11:   20
          11       1:   10    8:   20   21:   30
          12       1:   10    8:   20   31:   40
New grid distribution:   3
           1       1:   20    1:    7    1:   10
           2       1:   10    8:   20   11:   20
           3       1:   20    1:    7   21:   30
           4      11:   20    8:   20    1:   10
           5       1:   20    1:    7   11:   20
           6       1:   10    8:   20    1:   10
           7      11:   20    8:   20   21:   30
           8      11:   20    8:   20   31:   40
           9       1:   20    1:    7   31:   40
          10      11:   20    8:   20   11:   20
          11       1:   10    8:   20   21:   30
          12       1:   10    8:   20   31:   40
Setting up quadratic distribution...
ExtMesh (bp) on 0 =   160 x   147 x   154 =     3622080
PhiOnMesh: Number of (b)points on node 0 =                 1400
PhiOnMesh: nlist on node 0 =               176555

stepf: Fermi-Dirac step function

siesta: Program's energy decomposition (eV):
siesta: Ebs     =       -29.922174
siesta: Eions   =       380.620085
siesta: Ena     =       111.434160
siesta: Ekin    =       274.485205
siesta: Enl     =        23.219268
siesta: Eso     =         0.000000
siesta: Edftu   =         0.000000
siesta: DEna    =       -51.502955
siesta: DUscf   =        50.509789
siesta: DUext   =         0.000000
siesta: Exc     =      -179.910263
siesta: eta*DQ  =         0.000000
siesta: Emadel  =         0.000000
siesta: Emeta   =         0.000000
siesta: Emolmec =        -5.772125
siesta: Ekinion =         0.000000
siesta: Eharris =       -38.374097
siesta: Etot    =      -158.157007
siesta: FreeEng =      -158.157007

        iscf     Eharris(eV)        E_KS(eV)     FreeEng(eV)     dDmax    Ef(eV) dHmax(eV)
   scf:    1      -38.374097     -158.157007     -158.157007  2.168461 -8.672316 27.279456
timer: Routine,Calls,Time,% = IterSCF        1       0.672  15.12
   scf:    2     -198.040629     -184.602822     -184.621036  3.918704 -5.283387  5.806371
   scf:    3     -186.594460     -185.877728     -185.893346  1.213518 -3.757739  1.062395
   scf:    4     -185.736293     -185.872977     -185.887665  0.729196 -3.245806  1.162684
   scf:    5     -185.864109     -185.913339     -185.928776  0.518338 -3.722481  0.631685
   scf:    6     -185.935043     -185.925493     -185.940686  0.089122 -3.634945  0.318382
   scf:    7     -185.926001     -185.928830     -185.943778  0.138439 -3.510522  0.157350
   scf:    8     -185.930016     -185.929773     -185.944792  0.046954 -3.551807  0.002150
   scf:    9     -185.929775     -185.929774     -185.944792  0.000651 -3.551230  0.000124

SCF Convergence by FreeE+DM+H criterion
|FreeE_i-FreeE_(i-1)| (eV) <     0.00100000
max |DM_out - DM_in|         :     0.0006505214
max |H_out - H_in|      (eV) :     0.0001237484
SCF cycle converged after 9 iterations

Using DM_out to compute the final energy and forces
No. of atoms with KB's overlaping orbs in proc 0. Max # of overlaps:     228     237

MM-Stress (kbar):        9.40        9.40       20.31        0.00       -0.00        0.00

siesta: E_KS(eV) =             -185.9298

siesta: E_KS - E_eggbox =      -185.9298

siesta: Atomic forces (eV/Ang):
     1   -0.000000    0.000000    0.000000
     2   -0.283970    0.000057   -1.077057
     3    0.283970   -0.000057    1.077057
     4    0.142034   -0.245896   -1.077057
     5   -0.142034    0.245896    1.077057
     6    0.142048    0.246034   -1.076808
     7   -0.142048   -0.246034    1.076808
     8    0.283970   -0.000057   -1.077057
     9   -0.283970    0.000057    1.077057
    10   -0.142034    0.245896   -1.077057
    11    0.142034   -0.245896    1.077057
    12   -0.142048   -0.246034   -1.076808
    13    0.142048    0.246034    1.076808
----------------------------------------
   Tot    0.000000    0.000000    0.000000
----------------------------------------
   Max    1.077057
   Res    0.617821    sqrt( Sum f_i^2 / 3N )
----------------------------------------
   Max    1.077057    constrained

Stress tensor Voigt[x,y,z,yz,xz,xy] (kbar):    -2068.13    -2068.13      479.21        0.00       -0.00        0.01
(Free)E + p*V (eV/cell)      -99.9419
Target enthalpy (eV/cell)     -185.9448

siesta: Eigenvalues (eV):
  ik is       eps
   1  1  -15.7405  -14.0877  -14.0877  -12.6601  -12.1466  -12.1465   -9.3420   -4.6893   -4.6892   -1.7215
          18.0326   18.0917   18.0917   19.9612   20.0156   20.0156
   2  1  -16.3693  -13.8277  -12.9809  -11.9022  -10.5430   -8.2665   -5.0420   -4.5577   -2.6901   -1.8429
          -1.3835    5.4021   16.8042   19.8599   20.2733   20.7229
   3  1  -16.3693  -13.8278  -12.9809  -11.9022  -10.5430   -8.2665   -5.0419   -4.5577   -2.6901   -1.8429
          -1.3836    5.4022   16.8041   19.8599   20.2733   20.7229
   4  1  -16.3693  -13.8277  -12.9809  -11.9022  -10.5430   -8.2665   -5.0420   -4.5577   -2.6901   -1.8429
          -1.3835    5.4021   16.8042   19.8599   20.2733   20.7229
   5  1  -17.0264  -13.3011  -11.3043   -5.7152   -5.7152   -4.6823    0.8600    0.8600    6.7249    6.7251
          22.1777   22.1777   22.4483   22.4484   23.2686   23.9588
   6  1  -15.6692  -14.0028  -14.0027  -13.8582  -12.9857  -12.9856   -6.9695   -3.7446   -3.4083   -3.4081
          18.5182   18.5451   18.5451   19.5335   19.5840   19.5840
   7  1  -16.1811  -15.0188  -13.4515  -12.7890   -8.7291   -8.0994   -6.2496   -6.1719   -3.5331   -1.6423
           2.6872    3.0724   17.3816   18.8850   20.3954   20.6285
   8  1  -16.1811  -15.0188  -13.4515  -12.7890   -8.7291   -8.0994   -6.2496   -6.1719   -3.5330   -1.6423
           2.6870    3.0725   17.3816   18.8850   20.3954   20.6285
   9  1  -16.1811  -15.0188  -13.4515  -12.7890   -8.7291   -8.0994   -6.2496   -6.1719   -3.5331   -1.6423
           2.6872    3.0724   17.3816   18.8850   20.3954   20.6285
  10  1  -16.8045  -15.6387   -9.1376   -6.3378   -5.7109   -5.7108    2.0561    2.0562    4.2182    4.2182
           9.3728    9.3728   21.1846   21.1848   23.4063   23.7759
  11  1  -16.1811  -15.0188  -13.4515  -12.7890   -8.7291   -8.0994   -6.2496   -6.1719   -3.5331   -1.6423
           2.6872    3.0724   17.3816   18.8850   20.3954   20.6285
  12  1  -16.1811  -15.0188  -13.4515  -12.7890   -8.7291   -8.0994   -6.2496   -6.1719   -3.5330   -1.6423
           2.6870    3.0725   17.3816   18.8850   20.3954   20.6285
  13  1  -16.1811  -15.0188  -13.4515  -12.7890   -8.7291   -8.0994   -6.2496   -6.1719   -3.5331   -1.6423
           2.6872    3.0724   17.3816   18.8850   20.3954   20.6285
  14  1  -15.6692  -14.0028  -14.0027  -13.8582  -12.9857  -12.9856   -6.9695   -3.7446   -3.4083   -3.4081
          18.5182   18.5451   18.5451   19.5335   19.5840   19.5840
siesta: Fermi energy =      -3.551230 eV

siesta: Program's energy decomposition (eV):
siesta: Ebs     =      -170.950461
siesta: Eions   =       380.620085
siesta: Ena     =       111.434160
siesta: Ekin    =       214.684624
siesta: Enl     =        46.790214
siesta: Eso     =         0.000000
siesta: Edftu   =         0.000000
siesta: DEna    =       -15.372857
siesta: DUscf   =         6.412791
siesta: DUext   =         0.000000
siesta: Exc     =      -163.486496
siesta: eta*DQ  =         0.000000
siesta: Emadel  =         0.000000
siesta: Emeta   =         0.000000
siesta: Emolmec =        -5.772125
siesta: Ekinion =         0.000000
siesta: Eharris =      -185.929775
siesta: Etot    =      -185.929774
siesta: FreeEng =      -185.944792

siesta: Final energy (eV):
siesta:  Band Struct. =    -170.950461
siesta:       Kinetic =     214.684624
siesta:       Hartree =     106.103951
siesta:       Edftu   =       0.000000
siesta:       Eso     =       0.000000
siesta:    Ext. field =       0.000000
siesta:   Exch.-corr. =    -163.486496
siesta:  Ion-electron =    -425.994493
siesta:       Ion-ion =      88.534765
siesta:       Ekinion =       0.000000
siesta:         Total =    -185.929774
siesta:         Fermi =      -3.551230

siesta: Atomic forces (eV/Ang):
siesta:      1   -0.000000    0.000000    0.000000
siesta:      2   -0.283970    0.000057   -1.077057
siesta:      3    0.283970   -0.000057    1.077057
siesta:      4    0.142034   -0.245896   -1.077057
siesta:      5   -0.142034    0.245896    1.077057
siesta:      6    0.142048    0.246034   -1.076808
siesta:      7   -0.142048   -0.246034    1.076808
siesta:      8    0.283970   -0.000057   -1.077057
siesta:      9   -0.283970    0.000057    1.077057
siesta:     10   -0.142034    0.245896   -1.077057
siesta:     11    0.142034   -0.245896    1.077057
siesta:     12   -0.142048   -0.246034   -1.076808
siesta:     13    0.142048    0.246034    1.076808
siesta: ----------------------------------------
siesta:    Tot    0.000000    0.000000    0.000000

siesta: Stress tensor (static) (eV/Ang**3):
siesta:    -1.290813    0.000004   -0.000000
siesta:     0.000004   -1.290808    0.000000
siesta:    -0.000000    0.000000    0.299094

siesta: Cell volume =        113.036371 Ang**3

siesta: Pressure (static):
siesta:                Solid            Molecule  Units
siesta:           0.00828655          0.00746518  Ry/Bohr**3
siesta:           0.76084244          0.68542788  eV/Ang**3
siesta:        1219.01715900       1098.18840315  kBar
(Free)E+ p_basis*V_orbitals  =        -169.778178
(Free)Eharris+ p_basis*V_orbitals  =        -169.778179

cite: Please see "LiC12_scf.bib" for an exhaustive BiBTeX file.
cite: Please clearly indicate Siesta version in published work: 4.1.5
cite: This calculation has made use of the following articles
cite: which are encouraged to be cited in a published work.
        Primary SIESTA paper
          DOI: www.doi.org/10.1088/0953-8984/14/11/302

>> End of run:   9-NOV-2022  14:40:03
Job completed
