Siesta Version  : 4.1.5
Architecture    : x86_64-unknown-linux-gnu--unknown
Compiler version: GNU Fortran (GCC) 11.3.0
Compiler flags  : mpif90 -g -O2 -fallow-argument-mismatch
PP flags        : -DMPI -DFC_HAVE_FLUSH -DFC_HAVE_ABORT
Libraries       :  -I/global/software/sl-7.x86_64/modules/intel/2020.4.304/mkl/include  /globall/software/sl-7.x86_64/modules/intel/2020.4.304/mkl/lib/intel64/libmkl_scalapack_lp64.a -Wl,--start-group /global/software/sl-7.x86_64/modules/intel/2020.4.304/mkl/lib/intel64/libmkl_intel_lp64.a /global/software/sl-7.x86_64/modules/intel/2020.4.304/mkl/lib/intel64/libmkl_sequential.a /global/software/sl-7.x86_64/modules/intel/2020.4.304/mkl/lib/intel64/libmkl_core.a /global/software/sl-7.x86_64/modules/intel/2020.4.304/mkl/lib/intel64/libmkl_blacs_openmpi_lp64.a -Wl,--end-group -lpthread -lm -ldl
PARALLEL version

* Running on 12 nodes in parallel
>> Start of run:   9-NOV-2022  14:40:26

                           ***********************       
                           *  WELCOME TO SIESTA  *       
                           ***********************       

reinit: Reading from standard input
reinit: Dumped input in INPUT_TMP.93500
************************** Dump of input data file ****************************
SystemName LiC12_scf
SystemLabel LiC12_scf
NumberOfAtoms   13
NumberOfSpecies 2
%block ChemicalSpeciesLabel
1  3   Li-gga
2  6   C-gga
%endblock ChemicalSpeciesLabel
PAO.BasisSize  SZ
PAO.EnergyShift  10 meV
%block PS.Lmax
C-gga   2
Li-gga  2
%endblock PS.Lmax
LatticeConstant 1.000000 Ang
%block LatticeVectors
	4.2686000000	0.0000000000	0.0000000000
	-2.1343000000	3.6967160386	0.0000000000
	0.0000000000	0.0000000000	7.5847320000
%endblock LatticeVectors
AtomicCoordinatesFormat Ang
%block AtomicCoordinatesAndAtomicSpecies
	0.00000000	0.00000000	0.00000000	2
	1.42144380	0.00000000	1.89618300	1
	2.84715620	0.00000000	5.68854900	1
	-0.71072190	1.23100644	1.89618300	1
	-1.42357810	2.46570960	5.68854900	1
	1.42357810	2.46570960	1.89618300	1
	0.71072190	1.23100644	5.68854900	1
	2.84715620	0.00000000	1.89618300	1
	1.42144380	0.00000000	5.68854900	1
	-1.42357810	2.46570960	1.89618300	1
	-0.71072190	1.23100644	5.68854900	1
	0.71072190	1.23100644	1.89618300	1
	1.42357810	2.46570960	5.68854900	1
%endblock AtomicCoordinatesAndAtomicSpecies
Kgrid_NoTRS  T
%block kgrid_MonkhorstPack
3       0       0       0.0
0       3       0       0.0
0       0       3       0.0
%endblock kgrid_MonkhorstPack
AtomCoorFormatOut Ang
BlockSize 1
#ProcessorY 12
Diag.ParallelOverK   T
Diag.DivideAndConquer F
MeshCutoff   300 Ry
SCF.FreeE.Tolerance 1E-3 eV
SCF.EDM.Tolerance   5E-3 eV
DM.Tolerance  1E-3
DM.Require.Energy.Convergence T
DM.NumberPulay 4
XC.Functional GGA
XC.Authors    PBE
UseSaveData        F
MD.TypeOfRun       CG
MD.VariableCell    F
MD.NumCGsteps      00
MD.MaxCGDispl      0.200000 Bohr
MD.MaxStressTol    1.000000 GPa
MD.MaxForceTol     0.010000 eV/Ang
WriteMDHistory T
WriteCoorStep T
WriteForces T
WriteCoorStep    T
WriteEigenValues T
WriteDM    F
MM.UnitsDistance Ang  # what this program prints out DO NOT CHANGE
MM.UnitsEnergy    eV  # what this program prints out DO NOT CHANGE
MM.Grimme.S6     0.75 # Grimme-paper for PBE (correct for your functional)
MM.Grimme.D     20.   # Grimme-paper (correct for your functional)
%block MM.Potentials
  1   1 Grimme     16.69      1.650 # Li, 10.1002/jcc.20495
  1   2 Grimme     17.40      2.277 # Li / C
  2   2 Grimme     18.14      2.904 # C, 10.1002/jcc.20495
%endblock MM.Potentials
#%block ProjectedDensityOfStates
# -200.0  120.0  0.4  12800  eV
#%endblock ProjectedDensityOfStates
************************** End of input data file *****************************

reinit: -----------------------------------------------------------------------
reinit: System Name: LiC12_scf
reinit: -----------------------------------------------------------------------
reinit: System Label: LiC12_scf
reinit: -----------------------------------------------------------------------
Reading two-body potentials
Grimme - two-body potential between 1 and 1
Grimme - two-body potential between 1 and 2
Grimme - two-body potential between 2 and 2

initatom: Reading input for the pseudopotentials and atomic orbitals ----------
Species number:   1 Atomic number:    3 Label: Li-gga
Species number:   2 Atomic number:    6 Label: C-gga

Ground state valence configuration:   2s01
Reading pseudopotential information in formatted form from Li-gga.psf

Valence configuration for pseudopotential generation:
2s( 1.00) rc: 2.28
2p( 0.00) rc: 2.28
3d( 0.00) rc: 2.59
4f( 0.00) rc: 2.59
Ground state valence configuration:   2s02  2p02
Reading pseudopotential information in formatted form from C-gga.psf

Valence configuration for pseudopotential generation:
2s( 2.00) rc: 1.56
2p( 2.00) rc: 1.56
3d( 0.00) rc: 1.56
4f( 0.00) rc: 1.56
relmxkb: Read Max KB Ang. Momentum=    2 for species C-gga
relmxkb: Read Max KB Ang. Momentum=    2 for species Li-gga

<basis_specs>
===============================================================================
Li-gga               Z=   3    Mass=  6.9400        Charge= 0.17977+309
Lmxo=0 Lmxkb= 2    BasisType=split      Semic=F
L=0  Nsemic=0  Cnfigmx=2
          i=1  nzeta=1  polorb=0  (2s)
            splnorm:   0.15000    
               vcte:    0.0000    
               rinn:    0.0000    
               qcoe:    0.0000    
               qyuk:    0.0000    
               qwid:   0.10000E-01
                rcs:    0.0000    
            lambdas:    1.0000    
-------------------------------------------------------------------------------
L=0  Nkbl=1  erefs: 0.17977+309
L=1  Nkbl=1  erefs: 0.17977+309
L=2  Nkbl=1  erefs: 0.17977+309
===============================================================================
</basis_specs>

atom: Called for Li-gga                (Z =   3)

read_vps: Pseudopotential generation method:
read_vps: ATM 3.2.2 Troullier-Martins                       
Valence charge for ps generation:    1.00000

read_vps: Pseudopotential includes a core correction:
read_vps: Pseudo-core for xc-correction

xc_check: Exchange-correlation functional:
xc_check: GGA Perdew, Burke & Ernzerhof 1996
V l=0 = -2*Zval/r beyond r=  2.2278
V l=1 = -2*Zval/r beyond r=  2.2278
V l=2 = -2*Zval/r beyond r=  2.5245
All V_l potentials equal beyond r=  2.4622
This should be close to max(r_c) in ps generation
All pots = -2*Zval/r beyond r=  2.5245

VLOCAL1: 99.0% of the norm of Vloc inside      7.160 Ry
VLOCAL1: 99.9% of the norm of Vloc inside     16.318 Ry
atom: Maximum radius for 4*pi*r*r*local-pseudopot. charge    2.86079
atom: Maximum radius for r*vlocal+2*Zval:    2.43160
GHOST: No ghost state for L =  0
GHOST: No ghost state for L =  1
GHOST: No ghost state for L =  2

KBgen: Kleinman-Bylander projectors: 
   l= 0   rc=  2.654023   el= -0.211234   Ekb=  1.742119   kbcos=  0.228463
   l= 1   rc=  2.721230   el= -0.080095   Ekb= -1.122375   kbcos= -0.147941
   l= 2   rc=  2.825246   el=  0.002001   Ekb= -0.207076   kbcos= -0.031965

KBgen: Total number of Kleinman-Bylander projectors:    9
atom: -------------------------------------------------------------------------

atom: SANKEY-TYPE ORBITALS:

SPLIT: Orbitals with angular momentum L= 0

SPLIT: Basis orbitals for state 2s

SPLIT: PAO cut-off radius determined from an
SPLIT: energy shift=  0.000735 Ry

   izeta = 1
                 lambda =    1.000000
                     rc =   11.897381
                 energy =   -0.210580
                kinetic =    0.143382
    potential(screened) =   -0.353962
       potential(ionic) =   -0.533453
atom: Total number of Sankey-type orbitals:  1

atm_pop: Valence configuration (for local Pseudopot. screening):
 2s( 1.00)                                                            
Vna: chval, zval:    1.00000   1.00000

Vna:  Cut-off radius for the neutral-atom potential:  11.897381
comcore: Pseudo-core radius Rcore=  3.450946

atom: _________________________________________________________________________

<basis_specs>
===============================================================================
C-gga                Z=   6    Mass=  12.010        Charge= 0.17977+309
Lmxo=1 Lmxkb= 2    BasisType=split      Semic=F
L=0  Nsemic=0  Cnfigmx=2
          i=1  nzeta=1  polorb=0  (2s)
            splnorm:   0.15000    
               vcte:    0.0000    
               rinn:    0.0000    
               qcoe:    0.0000    
               qyuk:    0.0000    
               qwid:   0.10000E-01
                rcs:    0.0000    
            lambdas:    1.0000    
L=1  Nsemic=0  Cnfigmx=2
          i=1  nzeta=1  polorb=0  (2p)
            splnorm:   0.15000    
               vcte:    0.0000    
               rinn:    0.0000    
               qcoe:    0.0000    
               qyuk:    0.0000    
               qwid:   0.10000E-01
                rcs:    0.0000    
            lambdas:    1.0000    
-------------------------------------------------------------------------------
L=0  Nkbl=1  erefs: 0.17977+309
L=1  Nkbl=1  erefs: 0.17977+309
L=2  Nkbl=1  erefs: 0.17977+309
===============================================================================
</basis_specs>

atom: Called for C-gga                 (Z =   6)

read_vps: Pseudopotential generation method:
read_vps: ATM 3.2.2 Troullier-Martins                       
Valence charge for ps generation:    4.00000

xc_check: Exchange-correlation functional:
xc_check: GGA Perdew, Burke & Ernzerhof 1996
V l=0 = -2*Zval/r beyond r=  1.5227
V l=1 = -2*Zval/r beyond r=  1.5227
V l=2 = -2*Zval/r beyond r=  1.5227
All V_l potentials equal beyond r=  1.4851
This should be close to max(r_c) in ps generation
All pots = -2*Zval/r beyond r=  1.5227

VLOCAL1: 99.0% of the norm of Vloc inside     19.682 Ry
VLOCAL1: 99.9% of the norm of Vloc inside     44.856 Ry
atom: Maximum radius for 4*pi*r*r*local-pseudopot. charge    1.79142
atom: Maximum radius for r*vlocal+2*Zval:    1.54183
GHOST: No ghost state for L =  0
GHOST: No ghost state for L =  1
GHOST: No ghost state for L =  2

KBgen: Kleinman-Bylander projectors: 
   l= 0   rc=  1.661951   el= -1.010689   Ekb=  5.289847   kbcos=  0.316429
   l= 1   rc=  1.661951   el= -0.388490   Ekb= -4.102504   kbcos= -0.351025
   l= 2   rc=  1.747182   el=  0.001971   Ekb= -1.006005   kbcos= -0.008530

KBgen: Total number of Kleinman-Bylander projectors:    9
atom: -------------------------------------------------------------------------

atom: SANKEY-TYPE ORBITALS:

SPLIT: Orbitals with angular momentum L= 0

SPLIT: Basis orbitals for state 2s

SPLIT: PAO cut-off radius determined from an
SPLIT: energy shift=  0.000735 Ry

   izeta = 1
                 lambda =    1.000000
                     rc =    5.948690
                 energy =   -1.010099
                kinetic =    0.827121
    potential(screened) =   -1.837220
       potential(ionic) =   -5.392783

SPLIT: Orbitals with angular momentum L= 1

SPLIT: Basis orbitals for state 2p

SPLIT: PAO cut-off radius determined from an
SPLIT: energy shift=  0.000735 Ry

   izeta = 1
                 lambda =    1.000000
                     rc =    7.638387
                 energy =   -0.387843
                kinetic =    2.314739
    potential(screened) =   -2.702582
       potential(ionic) =   -6.092371
atom: Total number of Sankey-type orbitals:  4

atm_pop: Valence configuration (for local Pseudopot. screening):
 2s( 2.00)                                                            
 2p( 2.00)                                                            
Vna: chval, zval:    4.00000   4.00000

Vna:  Cut-off radius for the neutral-atom potential:   7.638387

atom: _________________________________________________________________________

prinput: Basis input ----------------------------------------------------------

PAO.BasisType split     

%block ChemicalSpeciesLabel
    1    3 Li-gga                  # Species index, atomic number, species label
    2    6 C-gga                   # Species index, atomic number, species label
%endblock ChemicalSpeciesLabel

%block PAO.Basis                 # Define Basis set
Li-gga                1                    # Species label, number of l-shells
 n=2   0   1                         # n, l, Nzeta 
  11.897   
   1.000   
C-gga                 2                    # Species label, number of l-shells
 n=2   0   1                         # n, l, Nzeta 
   5.949   
   1.000   
 n=2   1   1                         # n, l, Nzeta 
   7.638   
   1.000   
%endblock PAO.Basis

prinput: ----------------------------------------------------------------------

coor:   Atomic-coordinates input format  =     Cartesian coordinates
coor:                                          (in Angstroms)

siesta: Atomic coordinates (Bohr) and species
siesta:      0.00000   0.00000   0.00000  2        1
siesta:      2.68614   0.00000   3.58327  1        2
siesta:      5.38035   0.00000  10.74980  1        3
siesta:     -1.34307   2.32627   3.58327  1        4
siesta:     -2.69017   4.65952  10.74980  1        5
siesta:      2.69017   4.65952   3.58327  1        6
siesta:      1.34307   2.32627  10.74980  1        7
siesta:      5.38035   0.00000   3.58327  1        8
siesta:      2.68614   0.00000  10.74980  1        9
siesta:     -2.69017   4.65952   3.58327  1       10
siesta:     -1.34307   2.32627  10.74980  1       11
siesta:      1.34307   2.32627   3.58327  1       12
siesta:      2.69017   4.65952  10.74980  1       13

siesta: System type = bulk      

initatomlists: Number of atoms, orbitals, and projectors:     13    16   117

siesta: ******************** Simulation parameters ****************************
siesta:
siesta: The following are some of the parameters of the simulation.
siesta: A complete list of the parameters used, including default values,
siesta: can be found in file out.fdf
siesta:
redata: Spin configuration                          = none
redata: Number of spin components                   = 1
redata: Time-Reversal Symmetry                      = T
redata: Spin spiral                                 = F
redata: Long output                                 =   F
redata: Number of Atomic Species                    =        2
redata: Charge density info will appear in .RHO file
redata: Write Mulliken Pop.                         = NO
redata: Matel table size (NRTAB)                    =     1024
redata: Mesh Cutoff                                 =   300.0000 Ry
redata: Net charge of the system                    =     0.0000 |e|
redata: Min. number of SCF Iter                     =        0
redata: Max. number of SCF Iter                     =     1000
redata: SCF convergence failure will abort job
redata: SCF mix quantity                            = Hamiltonian
redata: Mix DM or H after convergence               =   F
redata: Recompute H after scf cycle                 =   F
redata: Mix DM in first SCF step                    =   T
redata: Write Pulay info on disk                    =   F
redata: New DM Occupancy tolerance                  = 0.000000000001
redata: No kicks to SCF
redata: DM Mixing Weight for Kicks                  =     0.5000
redata: Require Harris convergence for SCF          =   F
redata: Harris energy tolerance for SCF             =     0.000100 eV
redata: Require DM convergence for SCF              =   T
redata: DM tolerance for SCF                        =     0.001000
redata: Require EDM convergence for SCF             =   F
redata: EDM tolerance for SCF                       =     0.005000 eV
redata: Require H convergence for SCF               =   T
redata: Hamiltonian tolerance for SCF               =     0.001000 eV
redata: Require (free) Energy convergence for SCF   =   T
redata: (free) Energy tolerance for SCF             =     0.001000 eV
redata: Using Saved Data (generic)                  =   F
redata: Use continuation files for DM               =   F
redata: Neglect nonoverlap interactions             =   F
redata: Method of Calculation                       = Diagonalization
redata: Electronic Temperature                      =   299.9869 K
redata: Fix the spin of the system                  =   F
redata: Dynamics option                             = Single-point calculation
mix.SCF: Pulay mixing                            = Pulay
mix.SCF:    Variant                              = stable
mix.SCF:    History steps                        = 4
mix.SCF:    Linear mixing weight                 =     0.250000
mix.SCF:    Mixing weight                        =     0.250000
mix.SCF:    SVD condition                        = 0.1000E-07
redata: ***********************************************************************

%block SCF.Mixers
  Pulay
%endblock SCF.Mixers

%block SCF.Mixer.Pulay
  # Mixing method
  method pulay
  variant stable

  # Mixing options
  weight 0.2500
  weight.linear 0.2500
  history 4
%endblock SCF.Mixer.Pulay

DM_history_depth set to one: no extrapolation allowed by default for geometry relaxation
Size of DM history Fstack: 1
Total number of electrons:    16.000000
Total ionic charge:    16.000000

* ProcessorY, Blocksize:    3   1


* Orbital distribution balance (max,min):     2     1

 Kpoints in:           18 . Kpoints trimmed:           14

siesta: k-grid: Number of k-points =    14
siesta: k-grid: Cutoff (effective) =     6.403 Ang
siesta: k-grid: Supercell and displacements
siesta: k-grid:    3   0   0      0.000
siesta: k-grid:    0   3   0      0.000
siesta: k-grid:    0   0   3      0.000

diag: Algorithm                                     = Expert
diag: Parallel over k                               =   T
diag: Use parallel 2D distribution                  =   T
diag: Parallel block-size                           = 1
diag: Parallel distribution                         =     3 x     4
diag: Used triangular part                          = Lower
diag: Absolute tolerance                            =  0.100E-15
diag: Orthogonalization factor                      =  0.100E-05
diag: Memory factor                                 =  1.0000

superc: Internal auxiliary supercell:     9 x     9 x     5  =     405
superc: Number of atoms, orbitals, and projectors:   5265   6480  47385


ts: **************************************************************
ts: Save H and S matrices                           =    F
ts: Save DM and EDM matrices                        =    F
ts: Only save the overlap matrix S                  =    F
ts: **************************************************************

************************ Begin: TS CHECKS AND WARNINGS ************************
************************ End: TS CHECKS AND WARNINGS **************************


                     ====================================
                        Single-point calculation
                     ====================================

outcoor: Atomic coordinates (Ang):                          
    0.00000000    0.00000000    0.00000000   2       1  C-gga
    1.42144380    0.00000000    1.89618300   1       2  Li-gga
    2.84715620    0.00000000    5.68854900   1       3  Li-gga
   -0.71072190    1.23100644    1.89618300   1       4  Li-gga
   -1.42357810    2.46570960    5.68854900   1       5  Li-gga
    1.42357810    2.46570960    1.89618300   1       6  Li-gga
    0.71072190    1.23100644    5.68854900   1       7  Li-gga
    2.84715620    0.00000000    1.89618300   1       8  Li-gga
    1.42144380    0.00000000    5.68854900   1       9  Li-gga
   -1.42357810    2.46570960    1.89618300   1      10  Li-gga
   -0.71072190    1.23100644    5.68854900   1      11  Li-gga
    0.71072190    1.23100644    1.89618300   1      12  Li-gga
    1.42357810    2.46570960    5.68854900   1      13  Li-gga

superc: Internal auxiliary supercell:     9 x     9 x     5  =     405
superc: Number of atoms, orbitals, and projectors:   5265   6480  47385

outcell: Unit cell vectors (Ang):
        4.268600    0.000000    0.000000
       -2.134300    3.696716    0.000000
        0.000000    0.000000    7.584732

outcell: Cell vector modules (Ang)   :    4.268600    4.268600    7.584732
outcell: Cell angles (23,13,12) (deg):     90.0000     90.0000    120.0000
outcell: Cell volume (Ang**3)        :    119.6856
<dSpData1D:S at geom step 0
  <sparsity:sparsity for geom step 0
    nrows_g=16 nrows=2 sparsity=9.0625 nnzs=2320, refcount: 7>
  <dData1D:(new from dSpData1D) n=2320, refcount: 1>
refcount: 1>
new_DM -- step:     1
Initializing Density Matrix...
DM filled with atomic data:
<dSpData2D:DM initialized from atoms
  <sparsity:sparsity for geom step 0
    nrows_g=16 nrows=2 sparsity=9.0625 nnzs=2320, refcount: 8>
  <dData2D:DM n=2320 m=1, refcount: 1>
refcount: 1>
No. of atoms with KB's overlaping orbs in proc 0. Max # of overlaps:     210     219
New grid distribution:   1
           1       1:   20    1:    7    1:   10
           2       1:   20    1:    7   11:   20
           3       1:   20    1:    7   21:   30
           4       1:   20    1:    7   31:   40
           5       1:   20    8:   14    1:   10
           6       1:   20    8:   14   11:   20
           7       1:   20    8:   14   21:   30
           8       1:   20    8:   14   31:   40
           9       1:   20   15:   20    1:   10
          10       1:   20   15:   20   11:   20
          11       1:   20   15:   20   21:   30
          12       1:   20   15:   20   31:   40

InitMesh: MESH =    40 x    40 x    80 =      128000
InitMesh: (bp) =    20 x    20 x    40 =       16000
InitMesh: Mesh cutoff (required, used) =   300.000   307.469 Ry
ExtMesh (bp) on 0 =   160 x   147 x   146 =     3433920
New grid distribution:   2
           1       1:   20    1:    7    1:   10
           2       1:   10    8:   20   11:   20
           3       1:   20    1:    7   21:   30
           4      11:   20    8:   20    1:   10
           5       1:   20    1:    7   11:   20
           6       1:   10    8:   20    1:   10
           7      11:   20    8:   20   21:   30
           8      11:   20    8:   20   31:   40
           9       1:   20    1:    7   31:   40
          10      11:   20    8:   20   11:   20
          11       1:   10    8:   20   21:   30
          12       1:   10    8:   20   31:   40
New grid distribution:   3
           1       1:   20    1:    7    1:   10
           2       1:   10    8:   20   11:   20
           3       1:   20    1:    7   21:   30
           4      11:   20    8:   20    1:   10
           5       1:   20    1:    7   11:   20
           6       1:   10    8:   20    1:   10
           7      11:   20    8:   20   21:   30
           8      11:   20    8:   20   31:   40
           9       1:   20    1:    7   31:   40
          10      11:   20    8:   20   11:   20
          11       1:   10    8:   20   21:   30
          12       1:   10    8:   20   31:   40
Setting up quadratic distribution...
ExtMesh (bp) on 0 =   160 x   147 x   146 =     3433920
PhiOnMesh: Number of (b)points on node 0 =                 1400
PhiOnMesh: nlist on node 0 =               167372

stepf: Fermi-Dirac step function

siesta: Program's energy decomposition (eV):
siesta: Ebs     =       -13.329756
siesta: Eions   =       380.620085
siesta: Ena     =       114.558133
siesta: Ekin    =       268.902030
siesta: Enl     =        23.312219
siesta: Eso     =         0.000000
siesta: Edftu   =         0.000000
siesta: DEna    =       -48.444579
siesta: DUscf   =        51.574385
siesta: DUext   =         0.000000
siesta: Exc     =      -178.047838
siesta: eta*DQ  =         0.000000
siesta: Emadel  =         0.000000
siesta: Emeta   =         0.000000
siesta: Emolmec =        -5.674153
siesta: Ekinion =         0.000000
siesta: Eharris =       -32.673682
siesta: Etot    =      -154.439888
siesta: FreeEng =      -154.439896

        iscf     Eharris(eV)        E_KS(eV)     FreeEng(eV)     dDmax    Ef(eV) dHmax(eV)
   scf:    1      -32.673682     -154.439888     -154.439896  2.007594 -8.759960 28.263950
timer: Routine,Calls,Time,% = IterSCF        1       0.611  14.65
   scf:    2     -196.357004     -182.888481     -182.907204  4.238874 -4.354211  5.097404
   scf:    3     -184.384476     -183.869256     -183.884178  1.163934 -3.078687  0.847789
   scf:    4     -183.576214     -183.801576     -183.819211  0.873266 -2.689861  1.439694
   scf:    5     -183.713458     -183.856578     -183.871630  0.869801 -3.241188  1.078586
   scf:    6     -183.895009     -183.876774     -183.891723  0.080204 -3.168321  0.806183
   scf:    7     -183.881892     -183.897756     -183.912486  0.352419 -2.875871  0.351211
   scf:    8     -183.904148     -183.902716     -183.917473  0.110834 -2.962630  0.003119
   scf:    9     -183.902717     -183.902716     -183.917473  0.000355 -2.962165  0.001304
   scf:   10     -183.902717     -183.902717     -183.917473  0.000368 -2.961830  0.000309

SCF Convergence by FreeE+DM+H criterion
|FreeE_i-FreeE_(i-1)| (eV) <     0.00100000
max |DM_out - DM_in|         :     0.0003676048
max |H_out - H_in|      (eV) :     0.0003086380
SCF cycle converged after 10 iterations

Using DM_out to compute the final energy and forces
No. of atoms with KB's overlaping orbs in proc 0. Max # of overlaps:     210     219

MM-Stress (kbar):       11.42       11.42       27.39        0.00       -0.00       -0.00

siesta: E_KS(eV) =             -183.9027

siesta: E_KS - E_eggbox =      -183.9027

siesta: Atomic forces (eV/Ang):
     1   -0.000000   -0.000000    0.000000
     2   -0.253520    0.000049   -1.042766
     3    0.253520   -0.000049    1.042766
     4    0.126802   -0.219530   -1.042766
     5   -0.126802    0.219530    1.042766
     6    0.126812    0.219644   -1.042470
     7   -0.126812   -0.219644    1.042470
     8    0.253520   -0.000049   -1.042766
     9   -0.253520    0.000049    1.042766
    10   -0.126802    0.219530   -1.042766
    11    0.126802   -0.219530    1.042766
    12   -0.126812   -0.219644   -1.042470
    13    0.126812    0.219644    1.042470
----------------------------------------
   Tot   -0.000000   -0.000000    0.000000
----------------------------------------
   Max    1.042766
   Res    0.595223    sqrt( Sum f_i^2 / 3N )
----------------------------------------
   Max    1.042766    constrained

Stress tensor Voigt[x,y,z,yz,xz,xy] (kbar):    -2004.51    -2004.50      491.30       -0.00       -0.00        0.01
(Free)E + p*V (eV/cell)      -96.3253
Target enthalpy (eV/cell)     -183.9175

siesta: Eigenvalues (eV):
  ik is       eps
   1  1  -14.9139  -13.4660  -13.4659  -12.4288  -12.0781  -12.0781   -8.8468   -3.7939   -3.7938   -1.6019
          18.7131   18.7394   18.7395   19.6209   19.6793   19.6793
   2  1  -15.6230  -13.1453  -12.9616  -11.7469   -9.8699   -7.2998   -4.2613   -4.1275   -2.6574   -1.8973
          -0.6252    4.0547   17.1583   19.5931   20.3806   20.8494
   3  1  -15.6230  -13.1454  -12.9616  -11.7469   -9.8699   -7.2997   -4.2612   -4.1274   -2.6574   -1.8973
          -0.6254    4.0547   17.1583   19.5931   20.3806   20.8494
   4  1  -15.6230  -13.1453  -12.9616  -11.7469   -9.8699   -7.2998   -4.2613   -4.1275   -2.6574   -1.8973
          -0.6252    4.0547   17.1583   19.5931   20.3806   20.8494
   5  1  -16.3130  -13.3424  -10.5539   -4.5602   -4.5602   -4.0684    2.1004    2.1004    7.5439    7.5440
          18.6837   18.6837   18.9266   18.9267   23.0775   24.3686
   6  1  -14.8076  -13.4573  -13.4573  -13.3620  -12.4933  -12.4933   -6.8882   -3.3326   -2.7880   -2.7879
          18.9283   18.9451   18.9452   19.4354   19.4948   19.4949
   7  1  -15.4174  -14.5208  -12.8442  -12.2624   -8.3205   -7.0923   -5.5122   -5.4694   -2.9439   -1.0674
           2.3393    2.4369   17.6454   18.8757   20.4896   20.7235
   8  1  -15.4174  -14.5208  -12.8442  -12.2624   -8.3205   -7.0923   -5.5122   -5.4694   -2.9437   -1.0674
           2.3393    2.4367   17.6454   18.8756   20.4896   20.7235
   9  1  -15.4174  -14.5208  -12.8442  -12.2624   -8.3205   -7.0923   -5.5122   -5.4694   -2.9439   -1.0674
           2.3393    2.4369   17.6454   18.8757   20.4896   20.7235
  10  1  -16.0864  -15.1347   -8.7468   -5.4920   -4.5864   -4.5864    3.2060    3.2061    5.0790    5.0790
           9.5874    9.5875   19.6622   19.6624   23.3674   24.0095
  11  1  -15.4174  -14.5208  -12.8442  -12.2624   -8.3205   -7.0923   -5.5122   -5.4694   -2.9439   -1.0674
           2.3393    2.4369   17.6454   18.8757   20.4896   20.7235
  12  1  -15.4174  -14.5208  -12.8442  -12.2624   -8.3205   -7.0923   -5.5122   -5.4694   -2.9437   -1.0674
           2.3393    2.4367   17.6454   18.8756   20.4896   20.7235
  13  1  -15.4174  -14.5208  -12.8442  -12.2624   -8.3205   -7.0923   -5.5122   -5.4694   -2.9439   -1.0674
           2.3393    2.4369   17.6454   18.8757   20.4896   20.7235
  14  1  -14.8076  -13.4573  -13.4573  -13.3620  -12.4933  -12.4933   -6.8882   -3.3326   -2.7880   -2.7879
          18.9283   18.9451   18.9452   19.4354   19.4948   19.4949
siesta: Fermi energy =      -2.961830 eV

siesta: Program's energy decomposition (eV):
siesta: Ebs     =      -161.245804
siesta: Eions   =       380.620085
siesta: Ena     =       114.558133
siesta: Ekin    =       209.467551
siesta: Enl     =        47.060398
siesta: Eso     =         0.000000
siesta: Edftu   =         0.000000
siesta: DEna    =       -13.315643
siesta: DUscf   =         5.901662
siesta: DUext   =         0.000000
siesta: Exc     =      -161.280580
siesta: eta*DQ  =         0.000000
siesta: Emadel  =         0.000000
siesta: Emeta   =         0.000000
siesta: Emolmec =        -5.674153
siesta: Ekinion =         0.000000
siesta: Eharris =      -183.902717
siesta: Etot    =      -183.902717
siesta: FreeEng =      -183.917473

siesta: Final energy (eV):
siesta:  Band Struct. =    -161.245804
siesta:       Kinetic =     209.467551
siesta:       Hartree =     106.756000
siesta:       Edftu   =       0.000000
siesta:       Eso     =       0.000000
siesta:    Ext. field =       0.000000
siesta:   Exch.-corr. =    -161.280580
siesta:  Ion-electron =    -415.204455
siesta:       Ion-ion =      82.032921
siesta:       Ekinion =       0.000000
siesta:         Total =    -183.902717
siesta:         Fermi =      -2.961830

siesta: Atomic forces (eV/Ang):
siesta:      1   -0.000000   -0.000000    0.000000
siesta:      2   -0.253520    0.000049   -1.042766
siesta:      3    0.253520   -0.000049    1.042766
siesta:      4    0.126802   -0.219530   -1.042766
siesta:      5   -0.126802    0.219530    1.042766
siesta:      6    0.126812    0.219644   -1.042470
siesta:      7   -0.126812   -0.219644    1.042470
siesta:      8    0.253520   -0.000049   -1.042766
siesta:      9   -0.253520    0.000049    1.042766
siesta:     10   -0.126802    0.219530   -1.042766
siesta:     11    0.126802   -0.219530    1.042766
siesta:     12   -0.126812   -0.219644   -1.042470
siesta:     13    0.126812    0.219644    1.042470
siesta: ----------------------------------------
siesta:    Tot   -0.000000   -0.000000    0.000000

siesta: Stress tensor (static) (eV/Ang**3):
siesta:    -1.251103    0.000004   -0.000000
siesta:     0.000004   -1.251099    0.000000
siesta:    -0.000000   -0.000000    0.306644

siesta: Cell volume =        119.685570 Ang**3

siesta: Pressure (static):
siesta:                Solid            Molecule  Units
siesta:           0.00797081          0.00718536  Ry/Bohr**3
siesta:           0.73185255          0.65973573  eV/Ang**3
siesta:        1172.56972878       1057.02459264  kBar
(Free)E+ p_basis*V_orbitals  =        -167.750859
(Free)Eharris+ p_basis*V_orbitals  =        -167.750860

cite: Please see "LiC12_scf.bib" for an exhaustive BiBTeX file.
cite: Please clearly indicate Siesta version in published work: 4.1.5
cite: This calculation has made use of the following articles
cite: which are encouraged to be cited in a published work.
        Primary SIESTA paper
          DOI: www.doi.org/10.1088/0953-8984/14/11/302

>> End of run:   9-NOV-2022  14:40:37
Job completed
