Siesta Version  : 4.1.5
Architecture    : x86_64-unknown-linux-gnu--unknown
Compiler version: GNU Fortran (GCC) 11.3.0
Compiler flags  : mpif90 -g -O2 -fallow-argument-mismatch
PP flags        : -DMPI -DFC_HAVE_FLUSH -DFC_HAVE_ABORT
Libraries       :  -I/global/software/sl-7.x86_64/modules/intel/2020.4.304/mkl/include  /globall/software/sl-7.x86_64/modules/intel/2020.4.304/mkl/lib/intel64/libmkl_scalapack_lp64.a -Wl,--start-group /global/software/sl-7.x86_64/modules/intel/2020.4.304/mkl/lib/intel64/libmkl_intel_lp64.a /global/software/sl-7.x86_64/modules/intel/2020.4.304/mkl/lib/intel64/libmkl_sequential.a /global/software/sl-7.x86_64/modules/intel/2020.4.304/mkl/lib/intel64/libmkl_core.a /global/software/sl-7.x86_64/modules/intel/2020.4.304/mkl/lib/intel64/libmkl_blacs_openmpi_lp64.a -Wl,--end-group -lpthread -lm -ldl
PARALLEL version

* Running on 12 nodes in parallel
>> Start of run:   9-NOV-2022  14:35:44

                           ***********************       
                           *  WELCOME TO SIESTA  *       
                           ***********************       

reinit: Reading from standard input
reinit: Dumped input in INPUT_TMP.11299
************************** Dump of input data file ****************************
SystemName LiC12_scf
SystemLabel LiC12_scf
NumberOfAtoms   13
NumberOfSpecies 2
%block ChemicalSpeciesLabel
1  3   Li-gga
2  6   C-gga
%endblock ChemicalSpeciesLabel
PAO.BasisSize  SZ
PAO.EnergyShift  10 meV
%block PS.Lmax
C-gga   2
Li-gga  2
%endblock PS.Lmax
LatticeConstant 1.000000 Ang
%block LatticeVectors
	4.2686000000	0.0000000000	0.0000000000
	-2.1343000000	3.6967160386	0.0000000000
	0.0000000000	0.0000000000	4.6351140000
%endblock LatticeVectors
AtomicCoordinatesFormat Ang
%block AtomicCoordinatesAndAtomicSpecies
	0.00000000	0.00000000	0.00000000	2
	1.42144380	0.00000000	1.15877850	1
	2.84715620	0.00000000	3.47633550	1
	-0.71072190	1.23100644	1.15877850	1
	-1.42357810	2.46570960	3.47633550	1
	1.42357810	2.46570960	1.15877850	1
	0.71072190	1.23100644	3.47633550	1
	2.84715620	0.00000000	1.15877850	1
	1.42144380	0.00000000	3.47633550	1
	-1.42357810	2.46570960	1.15877850	1
	-0.71072190	1.23100644	3.47633550	1
	0.71072190	1.23100644	1.15877850	1
	1.42357810	2.46570960	3.47633550	1
%endblock AtomicCoordinatesAndAtomicSpecies
Kgrid_NoTRS  T
%block kgrid_MonkhorstPack
3       0       0       0.0
0       3       0       0.0
0       0       3       0.0
%endblock kgrid_MonkhorstPack
AtomCoorFormatOut Ang
BlockSize 1
#ProcessorY 12
Diag.ParallelOverK   T
Diag.DivideAndConquer F
MeshCutoff   300 Ry
SCF.FreeE.Tolerance 1E-3 eV
SCF.EDM.Tolerance   5E-3 eV
DM.Tolerance  1E-3
DM.Require.Energy.Convergence T
DM.NumberPulay 4
XC.Functional GGA
XC.Authors    PBE
UseSaveData        F
MD.TypeOfRun       CG
MD.VariableCell    F
MD.NumCGsteps      00
MD.MaxCGDispl      0.200000 Bohr
MD.MaxStressTol    1.000000 GPa
MD.MaxForceTol     0.010000 eV/Ang
WriteMDHistory T
WriteCoorStep T
WriteForces T
WriteCoorStep    T
WriteEigenValues T
WriteDM    F
MM.UnitsDistance Ang  # what this program prints out DO NOT CHANGE
MM.UnitsEnergy    eV  # what this program prints out DO NOT CHANGE
MM.Grimme.S6     0.75 # Grimme-paper for PBE (correct for your functional)
MM.Grimme.D     20.   # Grimme-paper (correct for your functional)
%block MM.Potentials
  1   1 Grimme     16.69      1.650 # Li, 10.1002/jcc.20495
  1   2 Grimme     17.40      2.277 # Li / C
  2   2 Grimme     18.14      2.904 # C, 10.1002/jcc.20495
%endblock MM.Potentials
#%block ProjectedDensityOfStates
# -200.0  120.0  0.4  12800  eV
#%endblock ProjectedDensityOfStates
************************** End of input data file *****************************

reinit: -----------------------------------------------------------------------
reinit: System Name: LiC12_scf
reinit: -----------------------------------------------------------------------
reinit: System Label: LiC12_scf
reinit: -----------------------------------------------------------------------
Reading two-body potentials
Grimme - two-body potential between 1 and 1
Grimme - two-body potential between 1 and 2
Grimme - two-body potential between 2 and 2

initatom: Reading input for the pseudopotentials and atomic orbitals ----------
Species number:   1 Atomic number:    3 Label: Li-gga
Species number:   2 Atomic number:    6 Label: C-gga

Ground state valence configuration:   2s01
Reading pseudopotential information in formatted form from Li-gga.psf

Valence configuration for pseudopotential generation:
2s( 1.00) rc: 2.28
2p( 0.00) rc: 2.28
3d( 0.00) rc: 2.59
4f( 0.00) rc: 2.59
Ground state valence configuration:   2s02  2p02
Reading pseudopotential information in formatted form from C-gga.psf

Valence configuration for pseudopotential generation:
2s( 2.00) rc: 1.56
2p( 2.00) rc: 1.56
3d( 0.00) rc: 1.56
4f( 0.00) rc: 1.56
relmxkb: Read Max KB Ang. Momentum=    2 for species C-gga
relmxkb: Read Max KB Ang. Momentum=    2 for species Li-gga

<basis_specs>
===============================================================================
Li-gga               Z=   3    Mass=  6.9400        Charge= 0.17977+309
Lmxo=0 Lmxkb= 2    BasisType=split      Semic=F
L=0  Nsemic=0  Cnfigmx=2
          i=1  nzeta=1  polorb=0  (2s)
            splnorm:   0.15000    
               vcte:    0.0000    
               rinn:    0.0000    
               qcoe:    0.0000    
               qyuk:    0.0000    
               qwid:   0.10000E-01
                rcs:    0.0000    
            lambdas:    1.0000    
-------------------------------------------------------------------------------
L=0  Nkbl=1  erefs: 0.17977+309
L=1  Nkbl=1  erefs: 0.17977+309
L=2  Nkbl=1  erefs: 0.17977+309
===============================================================================
</basis_specs>

atom: Called for Li-gga                (Z =   3)

read_vps: Pseudopotential generation method:
read_vps: ATM 3.2.2 Troullier-Martins                       
Valence charge for ps generation:    1.00000

read_vps: Pseudopotential includes a core correction:
read_vps: Pseudo-core for xc-correction

xc_check: Exchange-correlation functional:
xc_check: GGA Perdew, Burke & Ernzerhof 1996
V l=0 = -2*Zval/r beyond r=  2.2278
V l=1 = -2*Zval/r beyond r=  2.2278
V l=2 = -2*Zval/r beyond r=  2.5245
All V_l potentials equal beyond r=  2.4622
This should be close to max(r_c) in ps generation
All pots = -2*Zval/r beyond r=  2.5245

VLOCAL1: 99.0% of the norm of Vloc inside      7.160 Ry
VLOCAL1: 99.9% of the norm of Vloc inside     16.318 Ry
atom: Maximum radius for 4*pi*r*r*local-pseudopot. charge    2.86079
atom: Maximum radius for r*vlocal+2*Zval:    2.43160
GHOST: No ghost state for L =  0
GHOST: No ghost state for L =  1
GHOST: No ghost state for L =  2

KBgen: Kleinman-Bylander projectors: 
   l= 0   rc=  2.654023   el= -0.211234   Ekb=  1.742119   kbcos=  0.228463
   l= 1   rc=  2.721230   el= -0.080095   Ekb= -1.122375   kbcos= -0.147941
   l= 2   rc=  2.825246   el=  0.002001   Ekb= -0.207076   kbcos= -0.031965

KBgen: Total number of Kleinman-Bylander projectors:    9
atom: -------------------------------------------------------------------------

atom: SANKEY-TYPE ORBITALS:

SPLIT: Orbitals with angular momentum L= 0

SPLIT: Basis orbitals for state 2s

SPLIT: PAO cut-off radius determined from an
SPLIT: energy shift=  0.000735 Ry

   izeta = 1
                 lambda =    1.000000
                     rc =   11.897381
                 energy =   -0.210580
                kinetic =    0.143382
    potential(screened) =   -0.353962
       potential(ionic) =   -0.533453
atom: Total number of Sankey-type orbitals:  1

atm_pop: Valence configuration (for local Pseudopot. screening):
 2s( 1.00)                                                            
Vna: chval, zval:    1.00000   1.00000

Vna:  Cut-off radius for the neutral-atom potential:  11.897381
comcore: Pseudo-core radius Rcore=  3.450946

atom: _________________________________________________________________________

<basis_specs>
===============================================================================
C-gga                Z=   6    Mass=  12.010        Charge= 0.17977+309
Lmxo=1 Lmxkb= 2    BasisType=split      Semic=F
L=0  Nsemic=0  Cnfigmx=2
          i=1  nzeta=1  polorb=0  (2s)
            splnorm:   0.15000    
               vcte:    0.0000    
               rinn:    0.0000    
               qcoe:    0.0000    
               qyuk:    0.0000    
               qwid:   0.10000E-01
                rcs:    0.0000    
            lambdas:    1.0000    
L=1  Nsemic=0  Cnfigmx=2
          i=1  nzeta=1  polorb=0  (2p)
            splnorm:   0.15000    
               vcte:    0.0000    
               rinn:    0.0000    
               qcoe:    0.0000    
               qyuk:    0.0000    
               qwid:   0.10000E-01
                rcs:    0.0000    
            lambdas:    1.0000    
-------------------------------------------------------------------------------
L=0  Nkbl=1  erefs: 0.17977+309
L=1  Nkbl=1  erefs: 0.17977+309
L=2  Nkbl=1  erefs: 0.17977+309
===============================================================================
</basis_specs>

atom: Called for C-gga                 (Z =   6)

read_vps: Pseudopotential generation method:
read_vps: ATM 3.2.2 Troullier-Martins                       
Valence charge for ps generation:    4.00000

xc_check: Exchange-correlation functional:
xc_check: GGA Perdew, Burke & Ernzerhof 1996
V l=0 = -2*Zval/r beyond r=  1.5227
V l=1 = -2*Zval/r beyond r=  1.5227
V l=2 = -2*Zval/r beyond r=  1.5227
All V_l potentials equal beyond r=  1.4851
This should be close to max(r_c) in ps generation
All pots = -2*Zval/r beyond r=  1.5227

VLOCAL1: 99.0% of the norm of Vloc inside     19.682 Ry
VLOCAL1: 99.9% of the norm of Vloc inside     44.856 Ry
atom: Maximum radius for 4*pi*r*r*local-pseudopot. charge    1.79142
atom: Maximum radius for r*vlocal+2*Zval:    1.54183
GHOST: No ghost state for L =  0
GHOST: No ghost state for L =  1
GHOST: No ghost state for L =  2

KBgen: Kleinman-Bylander projectors: 
   l= 0   rc=  1.661951   el= -1.010689   Ekb=  5.289847   kbcos=  0.316429
   l= 1   rc=  1.661951   el= -0.388490   Ekb= -4.102504   kbcos= -0.351025
   l= 2   rc=  1.747182   el=  0.001971   Ekb= -1.006005   kbcos= -0.008530

KBgen: Total number of Kleinman-Bylander projectors:    9
atom: -------------------------------------------------------------------------

atom: SANKEY-TYPE ORBITALS:

SPLIT: Orbitals with angular momentum L= 0

SPLIT: Basis orbitals for state 2s

SPLIT: PAO cut-off radius determined from an
SPLIT: energy shift=  0.000735 Ry

   izeta = 1
                 lambda =    1.000000
                     rc =    5.948690
                 energy =   -1.010099
                kinetic =    0.827121
    potential(screened) =   -1.837220
       potential(ionic) =   -5.392783

SPLIT: Orbitals with angular momentum L= 1

SPLIT: Basis orbitals for state 2p

SPLIT: PAO cut-off radius determined from an
SPLIT: energy shift=  0.000735 Ry

   izeta = 1
                 lambda =    1.000000
                     rc =    7.638387
                 energy =   -0.387843
                kinetic =    2.314739
    potential(screened) =   -2.702582
       potential(ionic) =   -6.092371
atom: Total number of Sankey-type orbitals:  4

atm_pop: Valence configuration (for local Pseudopot. screening):
 2s( 2.00)                                                            
 2p( 2.00)                                                            
Vna: chval, zval:    4.00000   4.00000

Vna:  Cut-off radius for the neutral-atom potential:   7.638387

atom: _________________________________________________________________________

prinput: Basis input ----------------------------------------------------------

PAO.BasisType split     

%block ChemicalSpeciesLabel
    1    3 Li-gga                  # Species index, atomic number, species label
    2    6 C-gga                   # Species index, atomic number, species label
%endblock ChemicalSpeciesLabel

%block PAO.Basis                 # Define Basis set
Li-gga                1                    # Species label, number of l-shells
 n=2   0   1                         # n, l, Nzeta 
  11.897   
   1.000   
C-gga                 2                    # Species label, number of l-shells
 n=2   0   1                         # n, l, Nzeta 
   5.949   
   1.000   
 n=2   1   1                         # n, l, Nzeta 
   7.638   
   1.000   
%endblock PAO.Basis

prinput: ----------------------------------------------------------------------

coor:   Atomic-coordinates input format  =     Cartesian coordinates
coor:                                          (in Angstroms)

siesta: Atomic coordinates (Bohr) and species
siesta:      0.00000   0.00000   0.00000  2        1
siesta:      2.68614   0.00000   2.18977  1        2
siesta:      5.38035   0.00000   6.56932  1        3
siesta:     -1.34307   2.32627   2.18977  1        4
siesta:     -2.69017   4.65952   6.56932  1        5
siesta:      2.69017   4.65952   2.18977  1        6
siesta:      1.34307   2.32627   6.56932  1        7
siesta:      5.38035   0.00000   2.18977  1        8
siesta:      2.68614   0.00000   6.56932  1        9
siesta:     -2.69017   4.65952   2.18977  1       10
siesta:     -1.34307   2.32627   6.56932  1       11
siesta:      1.34307   2.32627   2.18977  1       12
siesta:      2.69017   4.65952   6.56932  1       13

siesta: System type = bulk      

initatomlists: Number of atoms, orbitals, and projectors:     13    16   117

siesta: ******************** Simulation parameters ****************************
siesta:
siesta: The following are some of the parameters of the simulation.
siesta: A complete list of the parameters used, including default values,
siesta: can be found in file out.fdf
siesta:
redata: Spin configuration                          = none
redata: Number of spin components                   = 1
redata: Time-Reversal Symmetry                      = T
redata: Spin spiral                                 = F
redata: Long output                                 =   F
redata: Number of Atomic Species                    =        2
redata: Charge density info will appear in .RHO file
redata: Write Mulliken Pop.                         = NO
redata: Matel table size (NRTAB)                    =     1024
redata: Mesh Cutoff                                 =   300.0000 Ry
redata: Net charge of the system                    =     0.0000 |e|
redata: Min. number of SCF Iter                     =        0
redata: Max. number of SCF Iter                     =     1000
redata: SCF convergence failure will abort job
redata: SCF mix quantity                            = Hamiltonian
redata: Mix DM or H after convergence               =   F
redata: Recompute H after scf cycle                 =   F
redata: Mix DM in first SCF step                    =   T
redata: Write Pulay info on disk                    =   F
redata: New DM Occupancy tolerance                  = 0.000000000001
redata: No kicks to SCF
redata: DM Mixing Weight for Kicks                  =     0.5000
redata: Require Harris convergence for SCF          =   F
redata: Harris energy tolerance for SCF             =     0.000100 eV
redata: Require DM convergence for SCF              =   T
redata: DM tolerance for SCF                        =     0.001000
redata: Require EDM convergence for SCF             =   F
redata: EDM tolerance for SCF                       =     0.005000 eV
redata: Require H convergence for SCF               =   T
redata: Hamiltonian tolerance for SCF               =     0.001000 eV
redata: Require (free) Energy convergence for SCF   =   T
redata: (free) Energy tolerance for SCF             =     0.001000 eV
redata: Using Saved Data (generic)                  =   F
redata: Use continuation files for DM               =   F
redata: Neglect nonoverlap interactions             =   F
redata: Method of Calculation                       = Diagonalization
redata: Electronic Temperature                      =   299.9869 K
redata: Fix the spin of the system                  =   F
redata: Dynamics option                             = Single-point calculation
mix.SCF: Pulay mixing                            = Pulay
mix.SCF:    Variant                              = stable
mix.SCF:    History steps                        = 4
mix.SCF:    Linear mixing weight                 =     0.250000
mix.SCF:    Mixing weight                        =     0.250000
mix.SCF:    SVD condition                        = 0.1000E-07
redata: ***********************************************************************

%block SCF.Mixers
  Pulay
%endblock SCF.Mixers

%block SCF.Mixer.Pulay
  # Mixing method
  method pulay
  variant stable

  # Mixing options
  weight 0.2500
  weight.linear 0.2500
  history 4
%endblock SCF.Mixer.Pulay

DM_history_depth set to one: no extrapolation allowed by default for geometry relaxation
Size of DM history Fstack: 1
Total number of electrons:    16.000000
Total ionic charge:    16.000000

* ProcessorY, Blocksize:    3   1


* Orbital distribution balance (max,min):     2     1

 Kpoints in:           18 . Kpoints trimmed:           14

siesta: k-grid: Number of k-points =    14
siesta: k-grid: Cutoff (effective) =     6.403 Ang
siesta: k-grid: Supercell and displacements
siesta: k-grid:    3   0   0      0.000
siesta: k-grid:    0   3   0      0.000
siesta: k-grid:    0   0   3      0.000

diag: Algorithm                                     = Expert
diag: Parallel over k                               =   T
diag: Use parallel 2D distribution                  =   T
diag: Parallel block-size                           = 1
diag: Parallel distribution                         =     3 x     4
diag: Used triangular part                          = Lower
diag: Absolute tolerance                            =  0.100E-15
diag: Orthogonalization factor                      =  0.100E-05
diag: Memory factor                                 =  1.0000

superc: Internal auxiliary supercell:     9 x     9 x     7  =     567
superc: Number of atoms, orbitals, and projectors:   7371   9072  66339


ts: **************************************************************
ts: Save H and S matrices                           =    F
ts: Save DM and EDM matrices                        =    F
ts: Only save the overlap matrix S                  =    F
ts: **************************************************************

************************ Begin: TS CHECKS AND WARNINGS ************************
************************ End: TS CHECKS AND WARNINGS **************************


                     ====================================
                        Single-point calculation
                     ====================================

outcoor: Atomic coordinates (Ang):                          
    0.00000000    0.00000000    0.00000000   2       1  C-gga
    1.42144380    0.00000000    1.15877850   1       2  Li-gga
    2.84715620    0.00000000    3.47633550   1       3  Li-gga
   -0.71072190    1.23100644    1.15877850   1       4  Li-gga
   -1.42357810    2.46570960    3.47633550   1       5  Li-gga
    1.42357810    2.46570960    1.15877850   1       6  Li-gga
    0.71072190    1.23100644    3.47633550   1       7  Li-gga
    2.84715620    0.00000000    1.15877850   1       8  Li-gga
    1.42144380    0.00000000    3.47633550   1       9  Li-gga
   -1.42357810    2.46570960    1.15877850   1      10  Li-gga
   -0.71072190    1.23100644    3.47633550   1      11  Li-gga
    0.71072190    1.23100644    1.15877850   1      12  Li-gga
    1.42357810    2.46570960    3.47633550   1      13  Li-gga

superc: Internal auxiliary supercell:     9 x     9 x     7  =     567
superc: Number of atoms, orbitals, and projectors:   7371   9072  66339

outcell: Unit cell vectors (Ang):
        4.268600    0.000000    0.000000
       -2.134300    3.696716    0.000000
        0.000000    0.000000    4.635114

outcell: Cell vector modules (Ang)   :    4.268600    4.268600    4.635114
outcell: Cell angles (23,13,12) (deg):     90.0000     90.0000    120.0000
outcell: Cell volume (Ang**3)        :     73.1412
<dSpData1D:S at geom step 0
  <sparsity:sparsity for geom step 0
    nrows_g=16 nrows=2 sparsity=15.8008 nnzs=4045, refcount: 7>
  <dData1D:(new from dSpData1D) n=4045, refcount: 1>
refcount: 1>
new_DM -- step:     1
Initializing Density Matrix...
DM filled with atomic data:
<dSpData2D:DM initialized from atoms
  <sparsity:sparsity for geom step 0
    nrows_g=16 nrows=2 sparsity=15.8008 nnzs=4045, refcount: 8>
  <dData2D:DM n=4045 m=1, refcount: 1>
refcount: 1>
No. of atoms with KB's overlaping orbs in proc 0. Max # of overlaps:     348     361
New grid distribution:   1
           1       1:   20    1:    7    1:    7
           2       1:   20    1:    7    8:   13
           3       1:   20    1:    7   14:   19
           4       1:   20    1:    7   20:   25
           5       1:   20    8:   14    1:    7
           6       1:   20    8:   14    8:   13
           7       1:   20    8:   14   14:   19
           8       1:   20    8:   14   20:   25
           9       1:   20   15:   20    1:    7
          10       1:   20   15:   20    8:   13
          11       1:   20   15:   20   14:   19
          12       1:   20   15:   20   20:   25

InitMesh: MESH =    40 x    40 x    50 =       80000
InitMesh: (bp) =    20 x    20 x    25 =       10000
InitMesh: Mesh cutoff (required, used) =   300.000   321.604 Ry
ExtMesh (bp) on 0 =   160 x   147 x   143 =     3363360
New grid distribution:   2
           1       8:   20    1:   10    1:    7
           2       1:    7    1:   10    1:   13
           3       8:   20    1:   10    8:   13
           4       8:   20    1:   10   20:   25
           5       8:   20   11:   20    1:    7
           6       8:   20   11:   20   14:   19
           7       1:    7    1:   10   14:   25
           8       8:   20    1:   10   14:   19
           9       1:    7   11:   20    1:   13
          10       8:   20   11:   20    8:   13
          11       1:    7   11:   20   14:   25
          12       8:   20   11:   20   20:   25
New grid distribution:   3
           1       8:   20    1:   10    1:    7
           2       1:    7    1:   10    1:   13
           3       8:   20    1:   10    8:   13
           4       8:   20    1:   10   20:   25
           5       8:   20   11:   20    1:    7
           6       8:   20   11:   20   14:   19
           7       1:    7    1:   10   14:   25
           8       8:   20    1:   10   14:   19
           9       1:    7   11:   20    1:   13
          10       8:   20   11:   20    8:   13
          11       1:    7   11:   20   14:   25
          12       8:   20   11:   20   20:   25
Setting up quadratic distribution...
ExtMesh (bp) on 0 =   153 x   150 x   143 =     3281850
PhiOnMesh: Number of (b)points on node 0 =                  910
PhiOnMesh: nlist on node 0 =               173735

stepf: Fermi-Dirac step function

siesta: Program's energy decomposition (eV):
siesta: Ebs     =      -189.212006
siesta: Eions   =       380.620085
siesta: Ena     =        83.893526
siesta: Ekin    =       318.956851
siesta: Enl     =        19.847906
siesta: Eso     =         0.000000
siesta: Edftu   =         0.000000
siesta: DEna    =       -60.691706
siesta: DUscf   =        42.290766
siesta: DUext   =         0.000000
siesta: Exc     =      -194.092193
siesta: eta*DQ  =         0.000000
siesta: Emadel  =         0.000000
siesta: Emeta   =         0.000000
siesta: Emolmec =        -8.343895
siesta: Ekinion =         0.000000
siesta: Eharris =       -80.734327
siesta: Etot    =      -178.758831
siesta: FreeEng =      -178.764743

        iscf     Eharris(eV)        E_KS(eV)     FreeEng(eV)     dDmax    Ef(eV) dHmax(eV)
   scf:    1      -80.734327     -178.758831     -178.764743  7.431515-12.578173 20.756571
timer: Routine,Calls,Time,% = IterSCF        1       0.993  15.55
   scf:    2     -194.531175     -187.034948     -187.041412  1.356917-12.347559 12.514632
   scf:    3     -169.507414     -188.311501     -188.326673  9.967510 -7.269309 11.102778
   scf:    4     -196.648499     -192.892389     -192.915434  3.197423 -8.230234  6.924292
   scf:    5     -193.173189     -193.033460     -193.055842  0.086843 -8.327955  6.694334
   scf:    6     -194.806945     -193.959071     -193.972513  0.645473 -9.260057  4.853876
   scf:    7     -194.854880     -194.425732     -194.435474  0.431578 -9.864750  3.581126
   scf:    8     -192.876199     -194.530402     -194.549115  2.669519-11.416664  2.756813
   scf:    9     -195.310968     -195.154836     -195.162329  1.132564-10.967774  0.110939
   scf:   10     -195.139585     -195.149491     -195.157257  0.136139-10.781946  0.373589
   scf:   11     -195.154828     -195.152256     -195.159930  0.028962-10.833080  0.274369
   scf:   12     -195.151539     -195.151900     -195.159585  0.004407-10.826341  0.288457
   scf:   13     -195.157839     -195.155744     -195.163233  0.086212-10.968980  0.003067
   scf:   14     -195.155755     -195.155751     -195.163253  0.002822-10.970265  0.000748
   scf:   15     -195.155751     -195.155751     -195.163253  0.000105-10.969876  0.000669

SCF Convergence by FreeE+DM+H criterion
|FreeE_i-FreeE_(i-1)| (eV) <     0.00100000
max |DM_out - DM_in|         :     0.0001051626
max |H_out - H_in|      (eV) :     0.0006688303
SCF cycle converged after 15 iterations

Using DM_out to compute the final energy and forces
No. of atoms with KB's overlaping orbs in proc 0. Max # of overlaps:     348     361

MM-Stress (kbar):       85.22       85.22      319.62       -0.00        0.00       -0.00

siesta: E_KS(eV) =             -195.1558

siesta: E_KS - E_eggbox =      -195.1558

siesta: Atomic forces (eV/Ang):
     1    0.000000   -0.000000    0.000000
     2   -1.121222    0.000057   -0.561862
     3    1.121222   -0.000057    0.561862
     4    0.560660   -0.970979   -0.561862
     5   -0.560660    0.970979    0.561862
     6    0.560682    0.971129   -0.562016
     7   -0.560682   -0.971129    0.562016
     8    1.121222   -0.000057   -0.561862
     9   -1.121222    0.000057    0.561862
    10   -0.560660    0.970979   -0.561862
    11    0.560660   -0.970979    0.561862
    12   -0.560682   -0.971129   -0.562016
    13    0.560682    0.971129    0.562016
----------------------------------------
   Tot    0.000000   -0.000000    0.000000
----------------------------------------
   Max    1.121222
   Res    0.695699    sqrt( Sum f_i^2 / 3N )
----------------------------------------
   Max    1.121222    constrained

Stress tensor Voigt[x,y,z,yz,xz,xy] (kbar):    -2776.46    -2776.49     -365.86        0.00       -0.00       -0.03
(Free)E + p*V (eV/cell)     -105.0975
Target enthalpy (eV/cell)     -195.1633

siesta: Eigenvalues (eV):
  ik is       eps
   1  1  -23.9085  -20.5686  -20.5686  -16.9549  -14.2220  -13.7364  -13.7364  -13.6259  -13.6257    3.2818
          12.2824   12.3709   12.3710   17.1898   17.1898   17.2860
   2  1  -24.0128  -20.7632  -18.4820  -16.7623  -16.2614  -14.1111  -12.7600  -11.1870   -9.5765   -3.5121
          11.3540   13.7200   15.8783   17.5506   20.0762   20.1763
   3  1  -24.0128  -20.7633  -18.4820  -16.7623  -16.2613  -14.1110  -12.7600  -11.1869   -9.5768   -3.5121
          11.3540   13.7201   15.8783   17.5506   20.0762   20.1762
   4  1  -24.0128  -20.7632  -18.4820  -16.7623  -16.2614  -14.1111  -12.7600  -11.1870   -9.5765   -3.5121
          11.3540   13.7200   15.8783   17.5506   20.0762   20.1763
   5  1  -24.1383  -18.6775  -16.0046  -16.0046  -15.3618  -10.0660  -10.0659   -9.3005   -0.6220   -0.6217
           7.4564    7.4565    7.5557    7.5558   18.7043   21.1485
   6  1  -24.0490  -20.4711  -20.4710  -20.0318  -19.8883  -19.8883  -12.1108  -11.0985  -11.0982   -4.1019
          14.3563   14.4419   14.4419   16.9153   16.9154   17.0936
   7  1  -24.0668  -20.7750  -20.1390  -19.7296  -17.2389  -16.4059  -13.7666  -12.8232  -10.9095   -5.5270
          -1.6491    9.7633   12.5152   16.3239   16.5294   17.1868
   8  1  -24.0668  -20.7750  -20.1390  -19.7296  -17.2389  -16.4059  -13.7666  -12.8232  -10.9093   -5.5270
          -1.6494    9.7633   12.5152   16.3239   16.5295   17.1868
   9  1  -24.0668  -20.7750  -20.1390  -19.7296  -17.2389  -16.4059  -13.7666  -12.8232  -10.9095   -5.5270
          -1.6491    9.7633   12.5152   16.3239   16.5294   17.1868
  10  1  -24.2050  -20.8513  -15.9399  -15.9398  -15.2101  -14.0043   -7.8323   -7.8323   -1.2518   -1.2517
           7.8538    7.8539   14.5693   14.5694   19.1253   20.3255
  11  1  -24.0668  -20.7750  -20.1390  -19.7296  -17.2389  -16.4059  -13.7666  -12.8232  -10.9095   -5.5270
          -1.6491    9.7633   12.5152   16.3239   16.5294   17.1868
  12  1  -24.0668  -20.7750  -20.1390  -19.7296  -17.2389  -16.4059  -13.7666  -12.8232  -10.9093   -5.5270
          -1.6494    9.7633   12.5152   16.3239   16.5295   17.1868
  13  1  -24.0668  -20.7750  -20.1390  -19.7296  -17.2389  -16.4059  -13.7666  -12.8232  -10.9095   -5.5270
          -1.6491    9.7633   12.5152   16.3239   16.5294   17.1868
  14  1  -24.0490  -20.4711  -20.4710  -20.0318  -19.8883  -19.8883  -12.1108  -11.0985  -11.0982   -4.1019
          14.3563   14.4419   14.4419   16.9153   16.9154   17.0936
siesta: Fermi energy =     -10.969876 eV

siesta: Program's energy decomposition (eV):
siesta: Ebs     =      -281.260313
siesta: Eions   =       380.620085
siesta: Ena     =        83.893526
siesta: Ekin    =       264.155359
siesta: Enl     =        42.553794
siesta: Eso     =         0.000000
siesta: Edftu   =         0.000000
siesta: DEna    =       -25.391114
siesta: DUscf   =         9.889103
siesta: DUext   =         0.000000
siesta: Exc     =      -181.292438
siesta: eta*DQ  =         0.000000
siesta: Emadel  =         0.000000
siesta: Emeta   =         0.000000
siesta: Emolmec =        -8.343895
siesta: Ekinion =         0.000000
siesta: Eharris =      -195.155751
siesta: Etot    =      -195.155751
siesta: FreeEng =      -195.163253

siesta: Final energy (eV):
siesta:  Band Struct. =    -281.260313
siesta:       Kinetic =     264.155359
siesta:       Hartree =      98.312089
siesta:       Edftu   =       0.000000
siesta:       Eso     =       0.000000
siesta:    Ext. field =       0.000000
siesta:   Exch.-corr. =    -181.292438
siesta:  Ion-electron =    -547.926262
siesta:       Ion-ion =     179.939396
siesta:       Ekinion =       0.000000
siesta:         Total =    -195.155751
siesta:         Fermi =     -10.969876

siesta: Atomic forces (eV/Ang):
siesta:      1    0.000000   -0.000000    0.000000
siesta:      2   -1.121222    0.000057   -0.561862
siesta:      3    1.121222   -0.000057    0.561862
siesta:      4    0.560660   -0.970979   -0.561862
siesta:      5   -0.560660    0.970979    0.561862
siesta:      6    0.560682    0.971129   -0.562016
siesta:      7   -0.560682   -0.971129    0.562016
siesta:      8    1.121222   -0.000057   -0.561862
siesta:      9   -1.121222    0.000057    0.561862
siesta:     10   -0.560660    0.970979   -0.561862
siesta:     11    0.560660   -0.970979    0.561862
siesta:     12   -0.560682   -0.971129   -0.562016
siesta:     13    0.560682    0.971129    0.562016
siesta: ----------------------------------------
siesta:    Tot    0.000000   -0.000000    0.000000

siesta: Stress tensor (static) (eV/Ang**3):
siesta:    -1.732909   -0.000018   -0.000000
siesta:    -0.000018   -1.732930    0.000000
siesta:    -0.000000    0.000000   -0.228350

siesta: Cell volume =         73.141182 Ang**3

siesta: Pressure (static):
siesta:                Solid            Molecule  Units
siesta:           0.01341148          0.01254756  Ry/Bohr**3
siesta:           1.23139656          1.15207397  eV/Ang**3
siesta:        1972.93612761       1845.84594336  kBar
(Free)E+ p_basis*V_orbitals  =        -178.996639
(Free)Eharris+ p_basis*V_orbitals  =        -178.996640

cite: Please see "LiC12_scf.bib" for an exhaustive BiBTeX file.
cite: Please clearly indicate Siesta version in published work: 4.1.5
cite: This calculation has made use of the following articles
cite: which are encouraged to be cited in a published work.
        Primary SIESTA paper
          DOI: www.doi.org/10.1088/0953-8984/14/11/302

>> End of run:   9-NOV-2022  14:36:07
Job completed
