Siesta Version  : 4.1.5
Architecture    : x86_64-unknown-linux-gnu--unknown
Compiler version: GNU Fortran (GCC) 11.3.0
Compiler flags  : mpif90 -g -O2 -fallow-argument-mismatch
PP flags        : -DMPI -DFC_HAVE_FLUSH -DFC_HAVE_ABORT
Libraries       :  -I/global/software/sl-7.x86_64/modules/intel/2020.4.304/mkl/include  /globall/software/sl-7.x86_64/modules/intel/2020.4.304/mkl/lib/intel64/libmkl_scalapack_lp64.a -Wl,--start-group /global/software/sl-7.x86_64/modules/intel/2020.4.304/mkl/lib/intel64/libmkl_intel_lp64.a /global/software/sl-7.x86_64/modules/intel/2020.4.304/mkl/lib/intel64/libmkl_sequential.a /global/software/sl-7.x86_64/modules/intel/2020.4.304/mkl/lib/intel64/libmkl_core.a /global/software/sl-7.x86_64/modules/intel/2020.4.304/mkl/lib/intel64/libmkl_blacs_openmpi_lp64.a -Wl,--end-group -lpthread -lm -ldl
PARALLEL version

* Running on 12 nodes in parallel
>> Start of run:   9-NOV-2022  14:34:46

                           ***********************       
                           *  WELCOME TO SIESTA  *       
                           ***********************       

reinit: Reading from standard input
reinit: Dumped input in INPUT_TMP.53091
************************** Dump of input data file ****************************
SystemName LiC12_scf
SystemLabel LiC12_scf
NumberOfAtoms   13
NumberOfSpecies 2
%block ChemicalSpeciesLabel
1  3   Li-gga
2  6   C-gga
%endblock ChemicalSpeciesLabel
PAO.BasisSize  SZ
PAO.EnergyShift  10 meV
%block PS.Lmax
C-gga   2
Li-gga  2
%endblock PS.Lmax
LatticeConstant 1.000000 Ang
%block LatticeVectors
	4.2686000000	0.0000000000	0.0000000000
	-2.1343000000	3.6967160386	0.0000000000
	0.0000000000	0.0000000000	5.0564880000
%endblock LatticeVectors
AtomicCoordinatesFormat Ang
%block AtomicCoordinatesAndAtomicSpecies
	0.00000000	0.00000000	0.00000000	2
	1.42144380	0.00000000	1.26412200	1
	2.84715620	0.00000000	3.79236600	1
	-0.71072190	1.23100644	1.26412200	1
	-1.42357810	2.46570960	3.79236600	1
	1.42357810	2.46570960	1.26412200	1
	0.71072190	1.23100644	3.79236600	1
	2.84715620	0.00000000	1.26412200	1
	1.42144380	0.00000000	3.79236600	1
	-1.42357810	2.46570960	1.26412200	1
	-0.71072190	1.23100644	3.79236600	1
	0.71072190	1.23100644	1.26412200	1
	1.42357810	2.46570960	3.79236600	1
%endblock AtomicCoordinatesAndAtomicSpecies
Kgrid_NoTRS  T
%block kgrid_MonkhorstPack
3       0       0       0.0
0       3       0       0.0
0       0       3       0.0
%endblock kgrid_MonkhorstPack
AtomCoorFormatOut Ang
BlockSize 1
#ProcessorY 12
Diag.ParallelOverK   T
Diag.DivideAndConquer F
MeshCutoff   300 Ry
SCF.FreeE.Tolerance 1E-3 eV
SCF.EDM.Tolerance   5E-3 eV
DM.Tolerance  1E-3
DM.Require.Energy.Convergence T
DM.NumberPulay 4
XC.Functional GGA
XC.Authors    PBE
UseSaveData        F
MD.TypeOfRun       CG
MD.VariableCell    F
MD.NumCGsteps      00
MD.MaxCGDispl      0.200000 Bohr
MD.MaxStressTol    1.000000 GPa
MD.MaxForceTol     0.010000 eV/Ang
WriteMDHistory T
WriteCoorStep T
WriteForces T
WriteCoorStep    T
WriteEigenValues T
WriteDM    F
MM.UnitsDistance Ang  # what this program prints out DO NOT CHANGE
MM.UnitsEnergy    eV  # what this program prints out DO NOT CHANGE
MM.Grimme.S6     0.75 # Grimme-paper for PBE (correct for your functional)
MM.Grimme.D     20.   # Grimme-paper (correct for your functional)
%block MM.Potentials
  1   1 Grimme     16.69      1.650 # Li, 10.1002/jcc.20495
  1   2 Grimme     17.40      2.277 # Li / C
  2   2 Grimme     18.14      2.904 # C, 10.1002/jcc.20495
%endblock MM.Potentials
#%block ProjectedDensityOfStates
# -200.0  120.0  0.4  12800  eV
#%endblock ProjectedDensityOfStates
************************** End of input data file *****************************

reinit: -----------------------------------------------------------------------
reinit: System Name: LiC12_scf
reinit: -----------------------------------------------------------------------
reinit: System Label: LiC12_scf
reinit: -----------------------------------------------------------------------
Reading two-body potentials
Grimme - two-body potential between 1 and 1
Grimme - two-body potential between 1 and 2
Grimme - two-body potential between 2 and 2

initatom: Reading input for the pseudopotentials and atomic orbitals ----------
Species number:   1 Atomic number:    3 Label: Li-gga
Species number:   2 Atomic number:    6 Label: C-gga

Ground state valence configuration:   2s01
Reading pseudopotential information in formatted form from Li-gga.psf

Valence configuration for pseudopotential generation:
2s( 1.00) rc: 2.28
2p( 0.00) rc: 2.28
3d( 0.00) rc: 2.59
4f( 0.00) rc: 2.59
Ground state valence configuration:   2s02  2p02
Reading pseudopotential information in formatted form from C-gga.psf

Valence configuration for pseudopotential generation:
2s( 2.00) rc: 1.56
2p( 2.00) rc: 1.56
3d( 0.00) rc: 1.56
4f( 0.00) rc: 1.56
relmxkb: Read Max KB Ang. Momentum=    2 for species C-gga
relmxkb: Read Max KB Ang. Momentum=    2 for species Li-gga

<basis_specs>
===============================================================================
Li-gga               Z=   3    Mass=  6.9400        Charge= 0.17977+309
Lmxo=0 Lmxkb= 2    BasisType=split      Semic=F
L=0  Nsemic=0  Cnfigmx=2
          i=1  nzeta=1  polorb=0  (2s)
            splnorm:   0.15000    
               vcte:    0.0000    
               rinn:    0.0000    
               qcoe:    0.0000    
               qyuk:    0.0000    
               qwid:   0.10000E-01
                rcs:    0.0000    
            lambdas:    1.0000    
-------------------------------------------------------------------------------
L=0  Nkbl=1  erefs: 0.17977+309
L=1  Nkbl=1  erefs: 0.17977+309
L=2  Nkbl=1  erefs: 0.17977+309
===============================================================================
</basis_specs>

atom: Called for Li-gga                (Z =   3)

read_vps: Pseudopotential generation method:
read_vps: ATM 3.2.2 Troullier-Martins                       
Valence charge for ps generation:    1.00000

read_vps: Pseudopotential includes a core correction:
read_vps: Pseudo-core for xc-correction

xc_check: Exchange-correlation functional:
xc_check: GGA Perdew, Burke & Ernzerhof 1996
V l=0 = -2*Zval/r beyond r=  2.2278
V l=1 = -2*Zval/r beyond r=  2.2278
V l=2 = -2*Zval/r beyond r=  2.5245
All V_l potentials equal beyond r=  2.4622
This should be close to max(r_c) in ps generation
All pots = -2*Zval/r beyond r=  2.5245

VLOCAL1: 99.0% of the norm of Vloc inside      7.160 Ry
VLOCAL1: 99.9% of the norm of Vloc inside     16.318 Ry
atom: Maximum radius for 4*pi*r*r*local-pseudopot. charge    2.86079
atom: Maximum radius for r*vlocal+2*Zval:    2.43160
GHOST: No ghost state for L =  0
GHOST: No ghost state for L =  1
GHOST: No ghost state for L =  2

KBgen: Kleinman-Bylander projectors: 
   l= 0   rc=  2.654023   el= -0.211234   Ekb=  1.742119   kbcos=  0.228463
   l= 1   rc=  2.721230   el= -0.080095   Ekb= -1.122375   kbcos= -0.147941
   l= 2   rc=  2.825246   el=  0.002001   Ekb= -0.207076   kbcos= -0.031965

KBgen: Total number of Kleinman-Bylander projectors:    9
atom: -------------------------------------------------------------------------

atom: SANKEY-TYPE ORBITALS:

SPLIT: Orbitals with angular momentum L= 0

SPLIT: Basis orbitals for state 2s

SPLIT: PAO cut-off radius determined from an
SPLIT: energy shift=  0.000735 Ry

   izeta = 1
                 lambda =    1.000000
                     rc =   11.897381
                 energy =   -0.210580
                kinetic =    0.143382
    potential(screened) =   -0.353962
       potential(ionic) =   -0.533453
atom: Total number of Sankey-type orbitals:  1

atm_pop: Valence configuration (for local Pseudopot. screening):
 2s( 1.00)                                                            
Vna: chval, zval:    1.00000   1.00000

Vna:  Cut-off radius for the neutral-atom potential:  11.897381
comcore: Pseudo-core radius Rcore=  3.450946

atom: _________________________________________________________________________

<basis_specs>
===============================================================================
C-gga                Z=   6    Mass=  12.010        Charge= 0.17977+309
Lmxo=1 Lmxkb= 2    BasisType=split      Semic=F
L=0  Nsemic=0  Cnfigmx=2
          i=1  nzeta=1  polorb=0  (2s)
            splnorm:   0.15000    
               vcte:    0.0000    
               rinn:    0.0000    
               qcoe:    0.0000    
               qyuk:    0.0000    
               qwid:   0.10000E-01
                rcs:    0.0000    
            lambdas:    1.0000    
L=1  Nsemic=0  Cnfigmx=2
          i=1  nzeta=1  polorb=0  (2p)
            splnorm:   0.15000    
               vcte:    0.0000    
               rinn:    0.0000    
               qcoe:    0.0000    
               qyuk:    0.0000    
               qwid:   0.10000E-01
                rcs:    0.0000    
            lambdas:    1.0000    
-------------------------------------------------------------------------------
L=0  Nkbl=1  erefs: 0.17977+309
L=1  Nkbl=1  erefs: 0.17977+309
L=2  Nkbl=1  erefs: 0.17977+309
===============================================================================
</basis_specs>

atom: Called for C-gga                 (Z =   6)

read_vps: Pseudopotential generation method:
read_vps: ATM 3.2.2 Troullier-Martins                       
Valence charge for ps generation:    4.00000

xc_check: Exchange-correlation functional:
xc_check: GGA Perdew, Burke & Ernzerhof 1996
V l=0 = -2*Zval/r beyond r=  1.5227
V l=1 = -2*Zval/r beyond r=  1.5227
V l=2 = -2*Zval/r beyond r=  1.5227
All V_l potentials equal beyond r=  1.4851
This should be close to max(r_c) in ps generation
All pots = -2*Zval/r beyond r=  1.5227

VLOCAL1: 99.0% of the norm of Vloc inside     19.682 Ry
VLOCAL1: 99.9% of the norm of Vloc inside     44.856 Ry
atom: Maximum radius for 4*pi*r*r*local-pseudopot. charge    1.79142
atom: Maximum radius for r*vlocal+2*Zval:    1.54183
GHOST: No ghost state for L =  0
GHOST: No ghost state for L =  1
GHOST: No ghost state for L =  2

KBgen: Kleinman-Bylander projectors: 
   l= 0   rc=  1.661951   el= -1.010689   Ekb=  5.289847   kbcos=  0.316429
   l= 1   rc=  1.661951   el= -0.388490   Ekb= -4.102504   kbcos= -0.351025
   l= 2   rc=  1.747182   el=  0.001971   Ekb= -1.006005   kbcos= -0.008530

KBgen: Total number of Kleinman-Bylander projectors:    9
atom: -------------------------------------------------------------------------

atom: SANKEY-TYPE ORBITALS:

SPLIT: Orbitals with angular momentum L= 0

SPLIT: Basis orbitals for state 2s

SPLIT: PAO cut-off radius determined from an
SPLIT: energy shift=  0.000735 Ry

   izeta = 1
                 lambda =    1.000000
                     rc =    5.948690
                 energy =   -1.010099
                kinetic =    0.827121
    potential(screened) =   -1.837220
       potential(ionic) =   -5.392783

SPLIT: Orbitals with angular momentum L= 1

SPLIT: Basis orbitals for state 2p

SPLIT: PAO cut-off radius determined from an
SPLIT: energy shift=  0.000735 Ry

   izeta = 1
                 lambda =    1.000000
                     rc =    7.638387
                 energy =   -0.387843
                kinetic =    2.314739
    potential(screened) =   -2.702582
       potential(ionic) =   -6.092371
atom: Total number of Sankey-type orbitals:  4

atm_pop: Valence configuration (for local Pseudopot. screening):
 2s( 2.00)                                                            
 2p( 2.00)                                                            
Vna: chval, zval:    4.00000   4.00000

Vna:  Cut-off radius for the neutral-atom potential:   7.638387

atom: _________________________________________________________________________

prinput: Basis input ----------------------------------------------------------

PAO.BasisType split     

%block ChemicalSpeciesLabel
    1    3 Li-gga                  # Species index, atomic number, species label
    2    6 C-gga                   # Species index, atomic number, species label
%endblock ChemicalSpeciesLabel

%block PAO.Basis                 # Define Basis set
Li-gga                1                    # Species label, number of l-shells
 n=2   0   1                         # n, l, Nzeta 
  11.897   
   1.000   
C-gga                 2                    # Species label, number of l-shells
 n=2   0   1                         # n, l, Nzeta 
   5.949   
   1.000   
 n=2   1   1                         # n, l, Nzeta 
   7.638   
   1.000   
%endblock PAO.Basis

prinput: ----------------------------------------------------------------------

coor:   Atomic-coordinates input format  =     Cartesian coordinates
coor:                                          (in Angstroms)

siesta: Atomic coordinates (Bohr) and species
siesta:      0.00000   0.00000   0.00000  2        1
siesta:      2.68614   0.00000   2.38885  1        2
siesta:      5.38035   0.00000   7.16654  1        3
siesta:     -1.34307   2.32627   2.38885  1        4
siesta:     -2.69017   4.65952   7.16654  1        5
siesta:      2.69017   4.65952   2.38885  1        6
siesta:      1.34307   2.32627   7.16654  1        7
siesta:      5.38035   0.00000   2.38885  1        8
siesta:      2.68614   0.00000   7.16654  1        9
siesta:     -2.69017   4.65952   2.38885  1       10
siesta:     -1.34307   2.32627   7.16654  1       11
siesta:      1.34307   2.32627   2.38885  1       12
siesta:      2.69017   4.65952   7.16654  1       13

siesta: System type = bulk      

initatomlists: Number of atoms, orbitals, and projectors:     13    16   117

siesta: ******************** Simulation parameters ****************************
siesta:
siesta: The following are some of the parameters of the simulation.
siesta: A complete list of the parameters used, including default values,
siesta: can be found in file out.fdf
siesta:
redata: Spin configuration                          = none
redata: Number of spin components                   = 1
redata: Time-Reversal Symmetry                      = T
redata: Spin spiral                                 = F
redata: Long output                                 =   F
redata: Number of Atomic Species                    =        2
redata: Charge density info will appear in .RHO file
redata: Write Mulliken Pop.                         = NO
redata: Matel table size (NRTAB)                    =     1024
redata: Mesh Cutoff                                 =   300.0000 Ry
redata: Net charge of the system                    =     0.0000 |e|
redata: Min. number of SCF Iter                     =        0
redata: Max. number of SCF Iter                     =     1000
redata: SCF convergence failure will abort job
redata: SCF mix quantity                            = Hamiltonian
redata: Mix DM or H after convergence               =   F
redata: Recompute H after scf cycle                 =   F
redata: Mix DM in first SCF step                    =   T
redata: Write Pulay info on disk                    =   F
redata: New DM Occupancy tolerance                  = 0.000000000001
redata: No kicks to SCF
redata: DM Mixing Weight for Kicks                  =     0.5000
redata: Require Harris convergence for SCF          =   F
redata: Harris energy tolerance for SCF             =     0.000100 eV
redata: Require DM convergence for SCF              =   T
redata: DM tolerance for SCF                        =     0.001000
redata: Require EDM convergence for SCF             =   F
redata: EDM tolerance for SCF                       =     0.005000 eV
redata: Require H convergence for SCF               =   T
redata: Hamiltonian tolerance for SCF               =     0.001000 eV
redata: Require (free) Energy convergence for SCF   =   T
redata: (free) Energy tolerance for SCF             =     0.001000 eV
redata: Using Saved Data (generic)                  =   F
redata: Use continuation files for DM               =   F
redata: Neglect nonoverlap interactions             =   F
redata: Method of Calculation                       = Diagonalization
redata: Electronic Temperature                      =   299.9869 K
redata: Fix the spin of the system                  =   F
redata: Dynamics option                             = Single-point calculation
mix.SCF: Pulay mixing                            = Pulay
mix.SCF:    Variant                              = stable
mix.SCF:    History steps                        = 4
mix.SCF:    Linear mixing weight                 =     0.250000
mix.SCF:    Mixing weight                        =     0.250000
mix.SCF:    SVD condition                        = 0.1000E-07
redata: ***********************************************************************

%block SCF.Mixers
  Pulay
%endblock SCF.Mixers

%block SCF.Mixer.Pulay
  # Mixing method
  method pulay
  variant stable

  # Mixing options
  weight 0.2500
  weight.linear 0.2500
  history 4
%endblock SCF.Mixer.Pulay

DM_history_depth set to one: no extrapolation allowed by default for geometry relaxation
Size of DM history Fstack: 1
Total number of electrons:    16.000000
Total ionic charge:    16.000000

* ProcessorY, Blocksize:    3   1


* Orbital distribution balance (max,min):     2     1

 Kpoints in:           18 . Kpoints trimmed:           14

siesta: k-grid: Number of k-points =    14
siesta: k-grid: Cutoff (effective) =     6.403 Ang
siesta: k-grid: Supercell and displacements
siesta: k-grid:    3   0   0      0.000
siesta: k-grid:    0   3   0      0.000
siesta: k-grid:    0   0   3      0.000

diag: Algorithm                                     = Expert
diag: Parallel over k                               =   T
diag: Use parallel 2D distribution                  =   T
diag: Parallel block-size                           = 1
diag: Parallel distribution                         =     3 x     4
diag: Used triangular part                          = Lower
diag: Absolute tolerance                            =  0.100E-15
diag: Orthogonalization factor                      =  0.100E-05
diag: Memory factor                                 =  1.0000

superc: Internal auxiliary supercell:     9 x     9 x     7  =     567
superc: Number of atoms, orbitals, and projectors:   7371   9072  66339


ts: **************************************************************
ts: Save H and S matrices                           =    F
ts: Save DM and EDM matrices                        =    F
ts: Only save the overlap matrix S                  =    F
ts: **************************************************************

************************ Begin: TS CHECKS AND WARNINGS ************************
************************ End: TS CHECKS AND WARNINGS **************************


                     ====================================
                        Single-point calculation
                     ====================================

outcoor: Atomic coordinates (Ang):                          
    0.00000000    0.00000000    0.00000000   2       1  C-gga
    1.42144380    0.00000000    1.26412200   1       2  Li-gga
    2.84715620    0.00000000    3.79236600   1       3  Li-gga
   -0.71072190    1.23100644    1.26412200   1       4  Li-gga
   -1.42357810    2.46570960    3.79236600   1       5  Li-gga
    1.42357810    2.46570960    1.26412200   1       6  Li-gga
    0.71072190    1.23100644    3.79236600   1       7  Li-gga
    2.84715620    0.00000000    1.26412200   1       8  Li-gga
    1.42144380    0.00000000    3.79236600   1       9  Li-gga
   -1.42357810    2.46570960    1.26412200   1      10  Li-gga
   -0.71072190    1.23100644    3.79236600   1      11  Li-gga
    0.71072190    1.23100644    1.26412200   1      12  Li-gga
    1.42357810    2.46570960    3.79236600   1      13  Li-gga

superc: Internal auxiliary supercell:     9 x     9 x     7  =     567
superc: Number of atoms, orbitals, and projectors:   7371   9072  66339

outcell: Unit cell vectors (Ang):
        4.268600    0.000000    0.000000
       -2.134300    3.696716    0.000000
        0.000000    0.000000    5.056488

outcell: Cell vector modules (Ang)   :    4.268600    4.268600    5.056488
outcell: Cell angles (23,13,12) (deg):     90.0000     90.0000    120.0000
outcell: Cell volume (Ang**3)        :     79.7904
<dSpData1D:S at geom step 0
  <sparsity:sparsity for geom step 0
    nrows_g=16 nrows=2 sparsity=13.5156 nnzs=3460, refcount: 7>
  <dData1D:(new from dSpData1D) n=3460, refcount: 1>
refcount: 1>
new_DM -- step:     1
Initializing Density Matrix...
DM filled with atomic data:
<dSpData2D:DM initialized from atoms
  <sparsity:sparsity for geom step 0
    nrows_g=16 nrows=2 sparsity=13.5156 nnzs=3460, refcount: 8>
  <dData2D:DM n=3460 m=1, refcount: 1>
refcount: 1>
No. of atoms with KB's overlaping orbs in proc 0. Max # of overlaps:     301     318
New grid distribution:   1
           1       1:   20    1:    7    1:    7
           2       1:   20    1:    7    8:   14
           3       1:   20    1:    7   15:   21
           4       1:   20    1:    7   22:   27
           5       1:   20    8:   14    1:    7
           6       1:   20    8:   14    8:   14
           7       1:   20    8:   14   15:   21
           8       1:   20    8:   14   22:   27
           9       1:   20   15:   20    1:    7
          10       1:   20   15:   20    8:   14
          11       1:   20   15:   20   15:   21
          12       1:   20   15:   20   22:   27

InitMesh: MESH =    40 x    40 x    54 =       86400
InitMesh: (bp) =    20 x    20 x    27 =       10800
InitMesh: Mesh cutoff (required, used) =   300.000   315.204 Ry
ExtMesh (bp) on 0 =   160 x   147 x   143 =     3363360
New grid distribution:   2
           1       1:    7    1:   10    1:   14
           2       8:   20    1:   10    8:   14
           3       1:    7    1:   10   15:   27
           4       8:   20    1:   10   15:   20
           5       8:   20   11:   20    1:    7
           6       8:   20   11:   20    8:   14
           7       1:    7   11:   20   15:   27
           8       8:   20    1:   10   21:   27
           9       1:    7   11:   20    1:   14
          10       8:   20    1:   10    1:    7
          11       8:   20   11:   20   15:   20
          12       8:   20   11:   20   21:   27
New grid distribution:   3
           1       1:    7    1:   10    1:   14
           2       8:   20    1:   10    8:   14
           3       1:    7    1:   10   15:   27
           4       8:   20    1:   10   22:   27
           5       8:   20    1:   10    1:    7
           6       8:   20   11:   20    8:   14
           7       8:   20    1:   10   15:   21
           8       1:    7   11:   20   15:   27
           9       1:    7   11:   20    1:   14
          10       8:   20   11:   20    1:    7
          11       8:   20   11:   20   15:   21
          12       8:   20   11:   20   22:   27
Setting up quadratic distribution...
ExtMesh (bp) on 0 =   147 x   150 x   150 =     3307500
PhiOnMesh: Number of (b)points on node 0 =                  980
PhiOnMesh: nlist on node 0 =               170866

stepf: Fermi-Dirac step function

siesta: Program's energy decomposition (eV):
siesta: Ebs     =      -155.733286
siesta: Eions   =       380.620085
siesta: Ena     =        89.073383
siesta: Ekin    =       307.600863
siesta: Enl     =        22.235069
siesta: Eso     =         0.000000
siesta: Edftu   =         0.000000
siesta: DEna    =       -59.778777
siesta: DUscf   =        43.089780
siesta: DUext   =         0.000000
siesta: Exc     =      -190.935112
siesta: eta*DQ  =         0.000000
siesta: Emadel  =         0.000000
siesta: Emeta   =         0.000000
siesta: Emolmec =        -7.289887
siesta: Ekinion =         0.000000
siesta: Eharris =       -73.802803
siesta: Etot    =      -176.624766
siesta: FreeEng =      -176.640373

        iscf     Eharris(eV)        E_KS(eV)     FreeEng(eV)     dDmax    Ef(eV) dHmax(eV)
   scf:    1      -73.802803     -176.624766     -176.640373  5.749053-11.493837 21.715338
timer: Routine,Calls,Time,% = IterSCF        1       0.871  14.31
   scf:    2     -200.650880     -189.942883     -189.958493  2.105557-12.003430 10.523830
   scf:    3     -194.221189     -194.901647     -194.925285  3.696054 -7.845541  2.982989
   scf:    4     -187.746849     -192.907055     -192.922688  2.866303-10.758330  6.663714
   scf:    5     -196.263528     -195.285437     -195.295237  1.955257 -9.368822  0.832365
   scf:    6     -195.320031     -195.316745     -195.328666  0.262137 -8.982979  0.206522
   scf:    7     -195.316822     -195.316784     -195.328695  0.002291 -8.985266  0.206925
   scf:    8     -195.320322     -195.318733     -195.330277  0.030278 -9.044244  0.080797
   scf:    9     -195.319614     -195.319245     -195.330557  0.018743 -9.081359  0.002532
   scf:   10     -195.319255     -195.319250     -195.330557  0.000084 -9.081740  0.001224
   scf:   11     -195.319266     -195.319258     -195.330557  0.000503 -9.082763  0.000359

SCF Convergence by FreeE+DM+H criterion
|FreeE_i-FreeE_(i-1)| (eV) <     0.00100000
max |DM_out - DM_in|         :     0.0005031151
max |H_out - H_in|      (eV) :     0.0003593051
SCF cycle converged after 11 iterations

Using DM_out to compute the final energy and forces
No. of atoms with KB's overlaping orbs in proc 0. Max # of overlaps:     301     318

MM-Stress (kbar):       55.95       55.95      198.28        0.00       -0.00       -0.00

siesta: E_KS(eV) =             -195.3193

siesta: E_KS - E_eggbox =      -195.3193

siesta: Atomic forces (eV/Ang):
     1    0.000000   -0.000000    0.000000
     2   -1.035883    0.000078   -0.770341
     3    1.035883   -0.000078    0.770341
     4    0.518009   -0.897061   -0.770341
     5   -0.518009    0.897061    0.770341
     6    0.518036    0.897265   -0.770525
     7   -0.518036   -0.897265    0.770525
     8    1.035883   -0.000078   -0.770341
     9   -1.035883    0.000078    0.770341
    10   -0.518009    0.897061   -0.770341
    11    0.518009   -0.897061    0.770341
    12   -0.518036   -0.897265   -0.770525
    13    0.518036    0.897265    0.770525
----------------------------------------
   Tot    0.000000    0.000000   -0.000000
----------------------------------------
   Max    1.035883
   Res    0.716123    sqrt( Sum f_i^2 / 3N )
----------------------------------------
   Max    1.035883    constrained

Stress tensor Voigt[x,y,z,yz,xz,xy] (kbar):    -2597.45    -2597.48      220.25        0.00       -0.00       -0.03
(Free)E + p*V (eV/cell)     -112.7497
Target enthalpy (eV/cell)     -195.3306

siesta: Eigenvalues (eV):
  ik is       eps
   1  1  -22.1999  -19.1270  -19.1269  -15.8354  -13.3146  -13.3146  -13.2688  -11.7268  -11.7266    0.3455
          13.3949   13.4173   13.4173   18.6705   18.6706   18.6708
   2  1  -22.3581  -19.2853  -16.5485  -15.4088  -15.1004  -12.9032  -12.2389   -9.5707   -7.9124   -5.1245
          12.4462   14.6408   17.9047   18.3977   20.2250   36.8549
   3  1  -22.3581  -19.2854  -16.5485  -15.4088  -15.1004  -12.9032  -12.2388   -9.5706   -7.9126   -5.1245
          12.4462   14.6408   17.9047   18.3977   20.2250   36.8548
   4  1  -22.3581  -19.2853  -16.5485  -15.4088  -15.1004  -12.9032  -12.2389   -9.5707   -7.9124   -5.1245
          12.4462   14.6408   17.9047   18.3977   20.2250   36.8549
   5  1  -22.5940  -17.1380  -14.5468  -13.9262  -13.9262   -8.6687   -7.6344   -7.6344    1.0557    1.0559
          12.3066   12.3067   12.3332   12.3333   20.0789   21.6095
   6  1  -22.3196  -18.9673  -18.9672  -18.4370  -17.9966  -17.9966  -11.1140   -9.1591   -9.1589   -3.6232
          15.3865   15.4332   15.4332   18.2009   18.2010   18.3025
   7  1  -22.4021  -19.3173  -18.5737  -17.9601  -15.3430  -14.3497  -12.2932  -11.3436   -9.0304   -5.0290
           0.0098    8.8089   13.7670   17.7859   17.8815   18.1430
   8  1  -22.4021  -19.3173  -18.5737  -17.9601  -15.3430  -14.3497  -12.2932  -11.3436   -9.0303   -5.0289
           0.0096    8.8090   13.7670   17.7859   17.8815   18.1430
   9  1  -22.4021  -19.3173  -18.5737  -17.9601  -15.3430  -14.3497  -12.2932  -11.3436   -9.0304   -5.0290
           0.0098    8.8089   13.7670   17.7859   17.8815   18.1430
  10  1  -22.6474  -19.5820  -13.8058  -13.8058  -13.6597  -12.3835   -5.1429   -5.1428   -0.4522   -0.4521
           6.0051    6.0052   16.6383   16.6384   20.8295   21.5798
  11  1  -22.4021  -19.3173  -18.5737  -17.9601  -15.3430  -14.3497  -12.2932  -11.3436   -9.0304   -5.0290
           0.0098    8.8089   13.7670   17.7859   17.8815   18.1430
  12  1  -22.4021  -19.3173  -18.5737  -17.9601  -15.3430  -14.3497  -12.2932  -11.3436   -9.0303   -5.0289
           0.0096    8.8090   13.7670   17.7859   17.8815   18.1430
  13  1  -22.4021  -19.3173  -18.5737  -17.9601  -15.3430  -14.3497  -12.2932  -11.3436   -9.0304   -5.0290
           0.0098    8.8089   13.7670   17.7859   17.8815   18.1430
  14  1  -22.3196  -18.9673  -18.9672  -18.4370  -17.9966  -17.9966  -11.1140   -9.1591   -9.1589   -3.6232
          15.3865   15.4332   15.4332   18.2009   18.2010   18.3025
siesta: Fermi energy =      -9.082763 eV

siesta: Program's energy decomposition (eV):
siesta: Ebs     =      -256.158556
siesta: Eions   =       380.620085
siesta: Ena     =        89.073383
siesta: Ekin    =       252.338879
siesta: Enl     =        42.796297
siesta: Eso     =         0.000000
siesta: Edftu   =         0.000000
siesta: DEna    =       -23.189122
siesta: DUscf   =         8.934882
siesta: DUext   =         0.000000
siesta: Exc     =      -177.363605
siesta: eta*DQ  =         0.000000
siesta: Emadel  =         0.000000
siesta: Emeta   =         0.000000
siesta: Emolmec =        -7.289887
siesta: Ekinion =         0.000000
siesta: Eharris =      -195.319266
siesta: Etot    =      -195.319258
siesta: FreeEng =      -195.330557

siesta: Final energy (eV):
siesta:  Band Struct. =    -256.158556
siesta:       Kinetic =     252.338879
siesta:       Hartree =      99.234273
siesta:       Edftu   =       0.000000
siesta:       Eso     =       0.000000
siesta:    Ext. field =       0.000000
siesta:   Exch.-corr. =    -177.363605
siesta:  Ion-electron =    -517.653233
siesta:       Ion-ion =     155.414315
siesta:       Ekinion =       0.000000
siesta:         Total =    -195.319258
siesta:         Fermi =      -9.082763

siesta: Atomic forces (eV/Ang):
siesta:      1    0.000000   -0.000000    0.000000
siesta:      2   -1.035883    0.000078   -0.770341
siesta:      3    1.035883   -0.000078    0.770341
siesta:      4    0.518009   -0.897061   -0.770341
siesta:      5   -0.518009    0.897061    0.770341
siesta:      6    0.518036    0.897265   -0.770525
siesta:      7   -0.518036   -0.897265    0.770525
siesta:      8    1.035883   -0.000078   -0.770341
siesta:      9   -1.035883    0.000078    0.770341
siesta:     10   -0.518009    0.897061   -0.770341
siesta:     11    0.518009   -0.897061    0.770341
siesta:     12   -0.518036   -0.897265   -0.770525
siesta:     13    0.518036    0.897265    0.770525
siesta: ----------------------------------------
siesta:    Tot    0.000000    0.000000   -0.000000

siesta: Stress tensor (static) (eV/Ang**3):
siesta:    -1.621181   -0.000020   -0.000000
siesta:    -0.000020   -1.621204    0.000000
siesta:    -0.000000    0.000000    0.137466

siesta: Cell volume =         79.790380 Ang**3

siesta: Pressure (static):
siesta:                Solid            Molecule  Units
siesta:           0.01127218          0.01033724  Ry/Bohr**3
siesta:           1.03497289          0.94912982  eV/Ang**3
siesta:        1658.22729776       1520.69005258  kBar
(Free)E+ p_basis*V_orbitals  =        -179.163944
(Free)Eharris+ p_basis*V_orbitals  =        -179.163952

cite: Please see "LiC12_scf.bib" for an exhaustive BiBTeX file.
cite: Please clearly indicate Siesta version in published work: 4.1.5
cite: This calculation has made use of the following articles
cite: which are encouraged to be cited in a published work.
        Primary SIESTA paper
          DOI: www.doi.org/10.1088/0953-8984/14/11/302

>> End of run:   9-NOV-2022  14:35:00
Job completed
