Siesta Version  : 4.1.5
Architecture    : x86_64-unknown-linux-gnu--unknown
Compiler version: GNU Fortran (GCC) 11.3.0
Compiler flags  : mpif90 -g -O2 -fallow-argument-mismatch
PP flags        : -DMPI -DFC_HAVE_FLUSH -DFC_HAVE_ABORT
Libraries       :  -I/global/software/sl-7.x86_64/modules/intel/2020.4.304/mkl/include  /globall/software/sl-7.x86_64/modules/intel/2020.4.304/mkl/lib/intel64/libmkl_scalapack_lp64.a -Wl,--start-group /global/software/sl-7.x86_64/modules/intel/2020.4.304/mkl/lib/intel64/libmkl_intel_lp64.a /global/software/sl-7.x86_64/modules/intel/2020.4.304/mkl/lib/intel64/libmkl_sequential.a /global/software/sl-7.x86_64/modules/intel/2020.4.304/mkl/lib/intel64/libmkl_core.a /global/software/sl-7.x86_64/modules/intel/2020.4.304/mkl/lib/intel64/libmkl_blacs_openmpi_lp64.a -Wl,--end-group -lpthread -lm -ldl
PARALLEL version

* Running on 12 nodes in parallel
>> Start of run:   9-NOV-2022  14:36:08

                           ***********************       
                           *  WELCOME TO SIESTA  *       
                           ***********************       

reinit: Reading from standard input
reinit: Dumped input in INPUT_TMP.35408
************************** Dump of input data file ****************************
SystemName LiC12_scf
SystemLabel LiC12_scf
NumberOfAtoms   13
NumberOfSpecies 2
%block ChemicalSpeciesLabel
1  3   Li-gga
2  6   C-gga
%endblock ChemicalSpeciesLabel
PAO.BasisSize  SZ
PAO.EnergyShift  10 meV
%block PS.Lmax
C-gga   2
Li-gga  2
%endblock PS.Lmax
LatticeConstant 1.000000 Ang
%block LatticeVectors
	4.2686000000	0.0000000000	0.0000000000
	-2.1343000000	3.6967160386	0.0000000000
	0.0000000000	0.0000000000	4.4946560000
%endblock LatticeVectors
AtomicCoordinatesFormat Ang
%block AtomicCoordinatesAndAtomicSpecies
	0.00000000	0.00000000	0.00000000	2
	1.42144380	0.00000000	1.12366400	1
	2.84715620	0.00000000	3.37099200	1
	-0.71072190	1.23100644	1.12366400	1
	-1.42357810	2.46570960	3.37099200	1
	1.42357810	2.46570960	1.12366400	1
	0.71072190	1.23100644	3.37099200	1
	2.84715620	0.00000000	1.12366400	1
	1.42144380	0.00000000	3.37099200	1
	-1.42357810	2.46570960	1.12366400	1
	-0.71072190	1.23100644	3.37099200	1
	0.71072190	1.23100644	1.12366400	1
	1.42357810	2.46570960	3.37099200	1
%endblock AtomicCoordinatesAndAtomicSpecies
Kgrid_NoTRS  T
%block kgrid_MonkhorstPack
3       0       0       0.0
0       3       0       0.0
0       0       3       0.0
%endblock kgrid_MonkhorstPack
AtomCoorFormatOut Ang
BlockSize 1
#ProcessorY 12
Diag.ParallelOverK   T
Diag.DivideAndConquer F
MeshCutoff   300 Ry
SCF.FreeE.Tolerance 1E-3 eV
SCF.EDM.Tolerance   5E-3 eV
DM.Tolerance  1E-3
DM.Require.Energy.Convergence T
DM.NumberPulay 4
XC.Functional GGA
XC.Authors    PBE
UseSaveData        F
MD.TypeOfRun       CG
MD.VariableCell    F
MD.NumCGsteps      00
MD.MaxCGDispl      0.200000 Bohr
MD.MaxStressTol    1.000000 GPa
MD.MaxForceTol     0.010000 eV/Ang
WriteMDHistory T
WriteCoorStep T
WriteForces T
WriteCoorStep    T
WriteEigenValues T
WriteDM    F
MM.UnitsDistance Ang  # what this program prints out DO NOT CHANGE
MM.UnitsEnergy    eV  # what this program prints out DO NOT CHANGE
MM.Grimme.S6     0.75 # Grimme-paper for PBE (correct for your functional)
MM.Grimme.D     20.   # Grimme-paper (correct for your functional)
%block MM.Potentials
  1   1 Grimme     16.69      1.650 # Li, 10.1002/jcc.20495
  1   2 Grimme     17.40      2.277 # Li / C
  2   2 Grimme     18.14      2.904 # C, 10.1002/jcc.20495
%endblock MM.Potentials
#%block ProjectedDensityOfStates
# -200.0  120.0  0.4  12800  eV
#%endblock ProjectedDensityOfStates
************************** End of input data file *****************************

reinit: -----------------------------------------------------------------------
reinit: System Name: LiC12_scf
reinit: -----------------------------------------------------------------------
reinit: System Label: LiC12_scf
reinit: -----------------------------------------------------------------------
Reading two-body potentials
Grimme - two-body potential between 1 and 1
Grimme - two-body potential between 1 and 2
Grimme - two-body potential between 2 and 2

initatom: Reading input for the pseudopotentials and atomic orbitals ----------
Species number:   1 Atomic number:    3 Label: Li-gga
Species number:   2 Atomic number:    6 Label: C-gga

Ground state valence configuration:   2s01
Reading pseudopotential information in formatted form from Li-gga.psf

Valence configuration for pseudopotential generation:
2s( 1.00) rc: 2.28
2p( 0.00) rc: 2.28
3d( 0.00) rc: 2.59
4f( 0.00) rc: 2.59
Ground state valence configuration:   2s02  2p02
Reading pseudopotential information in formatted form from C-gga.psf

Valence configuration for pseudopotential generation:
2s( 2.00) rc: 1.56
2p( 2.00) rc: 1.56
3d( 0.00) rc: 1.56
4f( 0.00) rc: 1.56
relmxkb: Read Max KB Ang. Momentum=    2 for species C-gga
relmxkb: Read Max KB Ang. Momentum=    2 for species Li-gga

<basis_specs>
===============================================================================
Li-gga               Z=   3    Mass=  6.9400        Charge= 0.17977+309
Lmxo=0 Lmxkb= 2    BasisType=split      Semic=F
L=0  Nsemic=0  Cnfigmx=2
          i=1  nzeta=1  polorb=0  (2s)
            splnorm:   0.15000    
               vcte:    0.0000    
               rinn:    0.0000    
               qcoe:    0.0000    
               qyuk:    0.0000    
               qwid:   0.10000E-01
                rcs:    0.0000    
            lambdas:    1.0000    
-------------------------------------------------------------------------------
L=0  Nkbl=1  erefs: 0.17977+309
L=1  Nkbl=1  erefs: 0.17977+309
L=2  Nkbl=1  erefs: 0.17977+309
===============================================================================
</basis_specs>

atom: Called for Li-gga                (Z =   3)

read_vps: Pseudopotential generation method:
read_vps: ATM 3.2.2 Troullier-Martins                       
Valence charge for ps generation:    1.00000

read_vps: Pseudopotential includes a core correction:
read_vps: Pseudo-core for xc-correction

xc_check: Exchange-correlation functional:
xc_check: GGA Perdew, Burke & Ernzerhof 1996
V l=0 = -2*Zval/r beyond r=  2.2278
V l=1 = -2*Zval/r beyond r=  2.2278
V l=2 = -2*Zval/r beyond r=  2.5245
All V_l potentials equal beyond r=  2.4622
This should be close to max(r_c) in ps generation
All pots = -2*Zval/r beyond r=  2.5245

VLOCAL1: 99.0% of the norm of Vloc inside      7.160 Ry
VLOCAL1: 99.9% of the norm of Vloc inside     16.318 Ry
atom: Maximum radius for 4*pi*r*r*local-pseudopot. charge    2.86079
atom: Maximum radius for r*vlocal+2*Zval:    2.43160
GHOST: No ghost state for L =  0
GHOST: No ghost state for L =  1
GHOST: No ghost state for L =  2

KBgen: Kleinman-Bylander projectors: 
   l= 0   rc=  2.654023   el= -0.211234   Ekb=  1.742119   kbcos=  0.228463
   l= 1   rc=  2.721230   el= -0.080095   Ekb= -1.122375   kbcos= -0.147941
   l= 2   rc=  2.825246   el=  0.002001   Ekb= -0.207076   kbcos= -0.031965

KBgen: Total number of Kleinman-Bylander projectors:    9
atom: -------------------------------------------------------------------------

atom: SANKEY-TYPE ORBITALS:

SPLIT: Orbitals with angular momentum L= 0

SPLIT: Basis orbitals for state 2s

SPLIT: PAO cut-off radius determined from an
SPLIT: energy shift=  0.000735 Ry

   izeta = 1
                 lambda =    1.000000
                     rc =   11.897381
                 energy =   -0.210580
                kinetic =    0.143382
    potential(screened) =   -0.353962
       potential(ionic) =   -0.533453
atom: Total number of Sankey-type orbitals:  1

atm_pop: Valence configuration (for local Pseudopot. screening):
 2s( 1.00)                                                            
Vna: chval, zval:    1.00000   1.00000

Vna:  Cut-off radius for the neutral-atom potential:  11.897381
comcore: Pseudo-core radius Rcore=  3.450946

atom: _________________________________________________________________________

<basis_specs>
===============================================================================
C-gga                Z=   6    Mass=  12.010        Charge= 0.17977+309
Lmxo=1 Lmxkb= 2    BasisType=split      Semic=F
L=0  Nsemic=0  Cnfigmx=2
          i=1  nzeta=1  polorb=0  (2s)
            splnorm:   0.15000    
               vcte:    0.0000    
               rinn:    0.0000    
               qcoe:    0.0000    
               qyuk:    0.0000    
               qwid:   0.10000E-01
                rcs:    0.0000    
            lambdas:    1.0000    
L=1  Nsemic=0  Cnfigmx=2
          i=1  nzeta=1  polorb=0  (2p)
            splnorm:   0.15000    
               vcte:    0.0000    
               rinn:    0.0000    
               qcoe:    0.0000    
               qyuk:    0.0000    
               qwid:   0.10000E-01
                rcs:    0.0000    
            lambdas:    1.0000    
-------------------------------------------------------------------------------
L=0  Nkbl=1  erefs: 0.17977+309
L=1  Nkbl=1  erefs: 0.17977+309
L=2  Nkbl=1  erefs: 0.17977+309
===============================================================================
</basis_specs>

atom: Called for C-gga                 (Z =   6)

read_vps: Pseudopotential generation method:
read_vps: ATM 3.2.2 Troullier-Martins                       
Valence charge for ps generation:    4.00000

xc_check: Exchange-correlation functional:
xc_check: GGA Perdew, Burke & Ernzerhof 1996
V l=0 = -2*Zval/r beyond r=  1.5227
V l=1 = -2*Zval/r beyond r=  1.5227
V l=2 = -2*Zval/r beyond r=  1.5227
All V_l potentials equal beyond r=  1.4851
This should be close to max(r_c) in ps generation
All pots = -2*Zval/r beyond r=  1.5227

VLOCAL1: 99.0% of the norm of Vloc inside     19.682 Ry
VLOCAL1: 99.9% of the norm of Vloc inside     44.856 Ry
atom: Maximum radius for 4*pi*r*r*local-pseudopot. charge    1.79142
atom: Maximum radius for r*vlocal+2*Zval:    1.54183
GHOST: No ghost state for L =  0
GHOST: No ghost state for L =  1
GHOST: No ghost state for L =  2

KBgen: Kleinman-Bylander projectors: 
   l= 0   rc=  1.661951   el= -1.010689   Ekb=  5.289847   kbcos=  0.316429
   l= 1   rc=  1.661951   el= -0.388490   Ekb= -4.102504   kbcos= -0.351025
   l= 2   rc=  1.747182   el=  0.001971   Ekb= -1.006005   kbcos= -0.008530

KBgen: Total number of Kleinman-Bylander projectors:    9
atom: -------------------------------------------------------------------------

atom: SANKEY-TYPE ORBITALS:

SPLIT: Orbitals with angular momentum L= 0

SPLIT: Basis orbitals for state 2s

SPLIT: PAO cut-off radius determined from an
SPLIT: energy shift=  0.000735 Ry

   izeta = 1
                 lambda =    1.000000
                     rc =    5.948690
                 energy =   -1.010099
                kinetic =    0.827121
    potential(screened) =   -1.837220
       potential(ionic) =   -5.392783

SPLIT: Orbitals with angular momentum L= 1

SPLIT: Basis orbitals for state 2p

SPLIT: PAO cut-off radius determined from an
SPLIT: energy shift=  0.000735 Ry

   izeta = 1
                 lambda =    1.000000
                     rc =    7.638387
                 energy =   -0.387843
                kinetic =    2.314739
    potential(screened) =   -2.702582
       potential(ionic) =   -6.092371
atom: Total number of Sankey-type orbitals:  4

atm_pop: Valence configuration (for local Pseudopot. screening):
 2s( 2.00)                                                            
 2p( 2.00)                                                            
Vna: chval, zval:    4.00000   4.00000

Vna:  Cut-off radius for the neutral-atom potential:   7.638387

atom: _________________________________________________________________________

prinput: Basis input ----------------------------------------------------------

PAO.BasisType split     

%block ChemicalSpeciesLabel
    1    3 Li-gga                  # Species index, atomic number, species label
    2    6 C-gga                   # Species index, atomic number, species label
%endblock ChemicalSpeciesLabel

%block PAO.Basis                 # Define Basis set
Li-gga                1                    # Species label, number of l-shells
 n=2   0   1                         # n, l, Nzeta 
  11.897   
   1.000   
C-gga                 2                    # Species label, number of l-shells
 n=2   0   1                         # n, l, Nzeta 
   5.949   
   1.000   
 n=2   1   1                         # n, l, Nzeta 
   7.638   
   1.000   
%endblock PAO.Basis

prinput: ----------------------------------------------------------------------

coor:   Atomic-coordinates input format  =     Cartesian coordinates
coor:                                          (in Angstroms)

siesta: Atomic coordinates (Bohr) and species
siesta:      0.00000   0.00000   0.00000  2        1
siesta:      2.68614   0.00000   2.12342  1        2
siesta:      5.38035   0.00000   6.37025  1        3
siesta:     -1.34307   2.32627   2.12342  1        4
siesta:     -2.69017   4.65952   6.37025  1        5
siesta:      2.69017   4.65952   2.12342  1        6
siesta:      1.34307   2.32627   6.37025  1        7
siesta:      5.38035   0.00000   2.12342  1        8
siesta:      2.68614   0.00000   6.37025  1        9
siesta:     -2.69017   4.65952   2.12342  1       10
siesta:     -1.34307   2.32627   6.37025  1       11
siesta:      1.34307   2.32627   2.12342  1       12
siesta:      2.69017   4.65952   6.37025  1       13

siesta: System type = bulk      

initatomlists: Number of atoms, orbitals, and projectors:     13    16   117

siesta: ******************** Simulation parameters ****************************
siesta:
siesta: The following are some of the parameters of the simulation.
siesta: A complete list of the parameters used, including default values,
siesta: can be found in file out.fdf
siesta:
redata: Spin configuration                          = none
redata: Number of spin components                   = 1
redata: Time-Reversal Symmetry                      = T
redata: Spin spiral                                 = F
redata: Long output                                 =   F
redata: Number of Atomic Species                    =        2
redata: Charge density info will appear in .RHO file
redata: Write Mulliken Pop.                         = NO
redata: Matel table size (NRTAB)                    =     1024
redata: Mesh Cutoff                                 =   300.0000 Ry
redata: Net charge of the system                    =     0.0000 |e|
redata: Min. number of SCF Iter                     =        0
redata: Max. number of SCF Iter                     =     1000
redata: SCF convergence failure will abort job
redata: SCF mix quantity                            = Hamiltonian
redata: Mix DM or H after convergence               =   F
redata: Recompute H after scf cycle                 =   F
redata: Mix DM in first SCF step                    =   T
redata: Write Pulay info on disk                    =   F
redata: New DM Occupancy tolerance                  = 0.000000000001
redata: No kicks to SCF
redata: DM Mixing Weight for Kicks                  =     0.5000
redata: Require Harris convergence for SCF          =   F
redata: Harris energy tolerance for SCF             =     0.000100 eV
redata: Require DM convergence for SCF              =   T
redata: DM tolerance for SCF                        =     0.001000
redata: Require EDM convergence for SCF             =   F
redata: EDM tolerance for SCF                       =     0.005000 eV
redata: Require H convergence for SCF               =   T
redata: Hamiltonian tolerance for SCF               =     0.001000 eV
redata: Require (free) Energy convergence for SCF   =   T
redata: (free) Energy tolerance for SCF             =     0.001000 eV
redata: Using Saved Data (generic)                  =   F
redata: Use continuation files for DM               =   F
redata: Neglect nonoverlap interactions             =   F
redata: Method of Calculation                       = Diagonalization
redata: Electronic Temperature                      =   299.9869 K
redata: Fix the spin of the system                  =   F
redata: Dynamics option                             = Single-point calculation
mix.SCF: Pulay mixing                            = Pulay
mix.SCF:    Variant                              = stable
mix.SCF:    History steps                        = 4
mix.SCF:    Linear mixing weight                 =     0.250000
mix.SCF:    Mixing weight                        =     0.250000
mix.SCF:    SVD condition                        = 0.1000E-07
redata: ***********************************************************************

%block SCF.Mixers
  Pulay
%endblock SCF.Mixers

%block SCF.Mixer.Pulay
  # Mixing method
  method pulay
  variant stable

  # Mixing options
  weight 0.2500
  weight.linear 0.2500
  history 4
%endblock SCF.Mixer.Pulay

DM_history_depth set to one: no extrapolation allowed by default for geometry relaxation
Size of DM history Fstack: 1
Total number of electrons:    16.000000
Total ionic charge:    16.000000

* ProcessorY, Blocksize:    3   1


* Orbital distribution balance (max,min):     2     1

 Kpoints in:           18 . Kpoints trimmed:           14

siesta: k-grid: Number of k-points =    14
siesta: k-grid: Cutoff (effective) =     6.403 Ang
siesta: k-grid: Supercell and displacements
siesta: k-grid:    3   0   0      0.000
siesta: k-grid:    0   3   0      0.000
siesta: k-grid:    0   0   3      0.000

diag: Algorithm                                     = Expert
diag: Parallel over k                               =   T
diag: Use parallel 2D distribution                  =   T
diag: Parallel block-size                           = 1
diag: Parallel distribution                         =     3 x     4
diag: Used triangular part                          = Lower
diag: Absolute tolerance                            =  0.100E-15
diag: Orthogonalization factor                      =  0.100E-05
diag: Memory factor                                 =  1.0000

superc: Internal auxiliary supercell:     9 x     9 x     7  =     567
superc: Number of atoms, orbitals, and projectors:   7371   9072  66339


ts: **************************************************************
ts: Save H and S matrices                           =    F
ts: Save DM and EDM matrices                        =    F
ts: Only save the overlap matrix S                  =    F
ts: **************************************************************

************************ Begin: TS CHECKS AND WARNINGS ************************
************************ End: TS CHECKS AND WARNINGS **************************


                     ====================================
                        Single-point calculation
                     ====================================

outcoor: Atomic coordinates (Ang):                          
    0.00000000    0.00000000    0.00000000   2       1  C-gga
    1.42144380    0.00000000    1.12366400   1       2  Li-gga
    2.84715620    0.00000000    3.37099200   1       3  Li-gga
   -0.71072190    1.23100644    1.12366400   1       4  Li-gga
   -1.42357810    2.46570960    3.37099200   1       5  Li-gga
    1.42357810    2.46570960    1.12366400   1       6  Li-gga
    0.71072190    1.23100644    3.37099200   1       7  Li-gga
    2.84715620    0.00000000    1.12366400   1       8  Li-gga
    1.42144380    0.00000000    3.37099200   1       9  Li-gga
   -1.42357810    2.46570960    1.12366400   1      10  Li-gga
   -0.71072190    1.23100644    3.37099200   1      11  Li-gga
    0.71072190    1.23100644    1.12366400   1      12  Li-gga
    1.42357810    2.46570960    3.37099200   1      13  Li-gga

superc: Internal auxiliary supercell:     9 x     9 x     7  =     567
superc: Number of atoms, orbitals, and projectors:   7371   9072  66339

outcell: Unit cell vectors (Ang):
        4.268600    0.000000    0.000000
       -2.134300    3.696716    0.000000
        0.000000    0.000000    4.494656

outcell: Cell vector modules (Ang)   :    4.268600    4.268600    4.494656
outcell: Cell angles (23,13,12) (deg):     90.0000     90.0000    120.0000
outcell: Cell volume (Ang**3)        :     70.9248
<dSpData1D:S at geom step 0
  <sparsity:sparsity for geom step 0
    nrows_g=16 nrows=2 sparsity=16.1953 nnzs=4146, refcount: 7>
  <dData1D:(new from dSpData1D) n=4146, refcount: 1>
refcount: 1>
new_DM -- step:     1
Initializing Density Matrix...
DM filled with atomic data:
<dSpData2D:DM initialized from atoms
  <sparsity:sparsity for geom step 0
    nrows_g=16 nrows=2 sparsity=16.1953 nnzs=4146, refcount: 8>
  <dData2D:DM n=4146 m=1, refcount: 1>
refcount: 1>
No. of atoms with KB's overlaping orbs in proc 0. Max # of overlaps:     360     373
New grid distribution:   1
           1       1:   20    1:    7    1:    6
           2       1:   20    1:    7    7:   12
           3       1:   20    1:    7   13:   18
           4       1:   20    1:    7   19:   24
           5       1:   20    8:   14    1:    6
           6       1:   20    8:   14    7:   12
           7       1:   20    8:   14   13:   18
           8       1:   20    8:   14   19:   24
           9       1:   20   15:   20    1:    6
          10       1:   20   15:   20    7:   12
          11       1:   20   15:   20   13:   18
          12       1:   20   15:   20   19:   24

InitMesh: MESH =    40 x    40 x    48 =       76800
InitMesh: (bp) =    20 x    20 x    24 =        9600
InitMesh: Mesh cutoff (required, used) =   300.000   315.204 Ry
ExtMesh (bp) on 0 =   160 x   147 x   142 =     3339840
New grid distribution:   2
           1       1:    7    1:   10    1:   12
           2       8:   20   11:   20   13:   18
           3       1:    7    1:   10   13:   24
           4       8:   20    1:   10    1:    6
           5       8:   20   11:   20    1:    6
           6       8:   20    1:   10    7:   12
           7       1:    7   11:   20   13:   24
           8       8:   20    1:   10   19:   24
           9       1:    7   11:   20    1:   12
          10       8:   20    1:   10   13:   18
          11       8:   20   11:   20    7:   12
          12       8:   20   11:   20   19:   24
New grid distribution:   3
           1       1:    7    1:   10    1:   12
           2       8:   20   11:   20   13:   18
           3       1:    7    1:   10   13:   24
           4       8:   20    1:   10    1:    6
           5       8:   20   11:   20    1:    6
           6       8:   20    1:   10    7:   12
           7       1:    7   11:   20   13:   24
           8       8:   20    1:   10   19:   24
           9       1:    7   11:   20    1:   12
          10       8:   20    1:   10   13:   18
          11       8:   20   11:   20    7:   12
          12       8:   20   11:   20   19:   24
Setting up quadratic distribution...
ExtMesh (bp) on 0 =   147 x   150 x   148 =     3263400
PhiOnMesh: Number of (b)points on node 0 =                  840
PhiOnMesh: nlist on node 0 =               164841

stepf: Fermi-Dirac step function

siesta: Program's energy decomposition (eV):
siesta: Ebs     =      -197.561481
siesta: Eions   =       380.620085
siesta: Ena     =        82.212556
siesta: Ekin    =       323.410266
siesta: Enl     =        19.467854
siesta: Eso     =         0.000000
siesta: Edftu   =         0.000000
siesta: DEna    =       -61.547055
siesta: DUscf   =        43.232770
siesta: DUext   =         0.000000
siesta: Exc     =      -195.498163
siesta: eta*DQ  =         0.000000
siesta: Emadel  =         0.000000
siesta: Emeta   =         0.000000
siesta: Emolmec =        -8.824932
siesta: Ekinion =         0.000000
siesta: Eharris =       -79.775274
siesta: Etot    =      -178.166789
siesta: FreeEng =      -178.171965

        iscf     Eharris(eV)        E_KS(eV)     FreeEng(eV)     dDmax    Ef(eV) dHmax(eV)
   scf:    1      -79.775274     -178.166789     -178.171965  7.644475-13.216467 20.818383
timer: Routine,Calls,Time,% = IterSCF        1       0.989  15.48
   scf:    2     -194.441316     -186.746003     -186.751180  2.725981-12.877909 12.488464
   scf:    3     -170.821174     -188.322167     -188.337557 10.326708 -8.048271 10.530222
   scf:    4     -197.541089     -193.814129     -193.822621  4.415652-10.375077  3.581102
   scf:    5     -193.433925     -193.627803     -193.637040  0.211221-10.140750  4.129516
   scf:    6     -194.870136     -194.440730     -194.448223  1.510248-11.252919  0.824268
   scf:    7     -194.479243     -194.461507     -194.468665  0.129136-11.410025  0.468417
   scf:    8     -193.235709     -194.054765     -194.075355  1.100823-11.877890  2.150889
   scf:    9     -193.726209     -193.896454     -193.912722  0.187425-11.972752  2.607970
   scf:   10     -194.557348     -194.470522     -194.477901  1.151152-11.574988  0.071827
   scf:   11     -194.470089     -194.470328     -194.477533  0.014848-11.552926  0.113541
   scf:   12     -194.470342     -194.470335     -194.477530  0.000768-11.552238  0.113271
   scf:   13     -194.469922     -194.470134     -194.477295  0.007669-11.539733  0.133328
   scf:   14     -194.470069     -194.470333     -194.478149  0.047277-11.600085  0.002314
   scf:   15     -194.470347     -194.470340     -194.478150  0.000603-11.599272  0.000492

SCF Convergence by FreeE+DM+H criterion
|FreeE_i-FreeE_(i-1)| (eV) <     0.00100000
max |DM_out - DM_in|         :     0.0006027934
max |H_out - H_in|      (eV) :     0.0004924283
SCF cycle converged after 15 iterations

Using DM_out to compute the final energy and forces
No. of atoms with KB's overlaping orbs in proc 0. Max # of overlaps:     360     373

MM-Stress (kbar):       98.27       98.27      377.14       -0.00       -0.00        0.00

siesta: E_KS(eV) =             -194.4703

siesta: E_KS - E_eggbox =      -194.4703

siesta: Atomic forces (eV/Ang):
     1   -0.000000   -0.000000    0.000000
     2   -1.151932    0.000062   -0.507897
     3    1.151932   -0.000062    0.507897
     4    0.576019   -0.997571   -0.507897
     5   -0.576019    0.997571    0.507897
     6    0.576043    0.997737   -0.508048
     7   -0.576043   -0.997737    0.508048
     8    1.151932   -0.000062   -0.507897
     9   -1.151932    0.000062    0.507897
    10   -0.576019    0.997571   -0.507897
    11    0.576019   -0.997571    0.507897
    12   -0.576043   -0.997737   -0.508048
    13    0.576043    0.997737    0.508048
----------------------------------------
   Tot   -0.000000    0.000000   -0.000000
----------------------------------------
   Max    1.151932
   Res    0.698367    sqrt( Sum f_i^2 / 3N )
----------------------------------------
   Max    1.151932    constrained

Stress tensor Voigt[x,y,z,yz,xz,xy] (kbar):    -2863.74    -2863.78     -634.35       -0.00       -0.00       -0.03
(Free)E + p*V (eV/cell)     -100.6039
Target enthalpy (eV/cell)     -194.4781

siesta: Eigenvalues (eV):
  ik is       eps
   1  1  -24.4714  -21.0989  -21.0988  -17.3654  -14.5367  -14.2369  -14.2367  -13.8441  -13.8440    5.1130
          12.0335   12.1572   12.1573   16.4354   16.4354   16.5747
   2  1  -24.5639  -21.2985  -19.2458  -17.3177  -16.5131  -14.7134  -12.5633  -11.7211  -10.1407   -2.1965
          11.0515   13.0745   14.0077   15.0170   17.3367   19.8200
   3  1  -24.5639  -21.2986  -19.2458  -17.3177  -16.5131  -14.7132  -12.5633  -11.7210  -10.1410   -2.1965
          11.0515   13.0745   14.0076   15.0170   17.3367   19.8200
   4  1  -24.5639  -21.2985  -19.2458  -17.3177  -16.5131  -14.7134  -12.5633  -11.7211  -10.1407   -2.1965
          11.0515   13.0745   14.0077   15.0170   17.3367   19.8200
   5  1  -24.6527  -19.2126  -16.7076  -16.7075  -15.6525  -11.1081  -11.1081   -9.4686   -1.3760   -1.3757
           6.1390    6.1391    6.2555    6.2555   18.1649   21.0744
   6  1  -24.6080  -21.0248  -21.0248  -20.6431  -20.5692  -20.5691  -12.3817  -11.7516  -11.7513   -4.3838
          13.8393   13.9411   13.9411   16.3817   16.3818   16.5700
   7  1  -24.6076  -21.3100  -20.7397  -20.3412  -17.8338  -17.1562  -14.1729  -13.2803  -11.5394   -5.6273
          -1.9633   10.0122   11.9699   15.8015   15.9432   16.7472
   8  1  -24.6076  -21.3100  -20.7397  -20.3412  -17.8338  -17.1562  -14.1729  -13.2803  -11.5392   -5.6273
          -1.9636   10.0122   11.9699   15.8015   15.9432   16.7472
   9  1  -24.6076  -21.3100  -20.7397  -20.3412  -17.8338  -17.1562  -14.1729  -13.2803  -11.5394   -5.6273
          -1.9633   10.0122   11.9699   15.8015   15.9432   16.7472
  10  1  -24.7110  -21.3438  -16.6220  -16.6219  -15.8090  -14.5182   -8.6932   -8.6932   -1.4560   -1.4559
           8.8743    8.8744   14.0817   14.0818   18.3405   19.7927
  11  1  -24.6076  -21.3100  -20.7397  -20.3412  -17.8338  -17.1562  -14.1729  -13.2803  -11.5394   -5.6273
          -1.9633   10.0122   11.9699   15.8015   15.9432   16.7472
  12  1  -24.6076  -21.3100  -20.7397  -20.3412  -17.8338  -17.1562  -14.1729  -13.2803  -11.5392   -5.6273
          -1.9636   10.0122   11.9699   15.8015   15.9432   16.7472
  13  1  -24.6076  -21.3100  -20.7397  -20.3412  -17.8338  -17.1562  -14.1729  -13.2803  -11.5394   -5.6273
          -1.9633   10.0122   11.9699   15.8015   15.9432   16.7472
  14  1  -24.6080  -21.0248  -21.0248  -20.6431  -20.5692  -20.5691  -12.3817  -11.7516  -11.7513   -4.3838
          13.8393   13.9411   13.9411   16.3817   16.3818   16.5700
siesta: Fermi energy =     -11.599272 eV

siesta: Program's energy decomposition (eV):
siesta: Ebs     =      -289.739819
siesta: Eions   =       380.620085
siesta: Ena     =        82.212556
siesta: Ekin    =       269.129442
siesta: Enl     =        42.432132
siesta: Eso     =         0.000000
siesta: Edftu   =         0.000000
siesta: DEna    =       -26.382980
siesta: DUscf   =        10.374025
siesta: DUext   =         0.000000
siesta: Exc     =      -182.790498
siesta: eta*DQ  =         0.000000
siesta: Emadel  =         0.000000
siesta: Emeta   =         0.000000
siesta: Emolmec =        -8.824932
siesta: Ekinion =         0.000000
siesta: Eharris =      -194.470347
siesta: Etot    =      -194.470340
siesta: FreeEng =      -194.478150

siesta: Final energy (eV):
siesta:  Band Struct. =    -289.739819
siesta:       Kinetic =     269.129442
siesta:       Hartree =      98.483692
siesta:       Edftu   =       0.000000
siesta:       Eso     =       0.000000
siesta:    Ext. field =       0.000000
siesta:   Exch.-corr. =    -182.790498
siesta:  Ion-electron =    -559.904233
siesta:       Ion-ion =     189.436189
siesta:       Ekinion =       0.000000
siesta:         Total =    -194.470340
siesta:         Fermi =     -11.599272

siesta: Atomic forces (eV/Ang):
siesta:      1   -0.000000   -0.000000    0.000000
siesta:      2   -1.151932    0.000062   -0.507897
siesta:      3    1.151932   -0.000062    0.507897
siesta:      4    0.576019   -0.997571   -0.507897
siesta:      5   -0.576019    0.997571    0.507897
siesta:      6    0.576043    0.997737   -0.508048
siesta:      7   -0.576043   -0.997737    0.508048
siesta:      8    1.151932   -0.000062   -0.507897
siesta:      9   -1.151932    0.000062    0.507897
siesta:     10   -0.576019    0.997571   -0.507897
siesta:     11    0.576019   -0.997571    0.507897
siesta:     12   -0.576043   -0.997737   -0.508048
siesta:     13    0.576043    0.997737    0.508048
siesta: ----------------------------------------
siesta:    Tot   -0.000000    0.000000   -0.000000

siesta: Stress tensor (static) (eV/Ang**3):
siesta:    -1.787389   -0.000018    0.000000
siesta:    -0.000018   -1.787410   -0.000000
siesta:    -0.000000   -0.000000   -0.395924

siesta: Cell volume =         70.924782 Ang**3

siesta: Pressure (static):
siesta:                Solid            Molecule  Units
siesta:           0.01441541          0.01356041  Ry/Bohr**3
siesta:           1.32357430          1.24507080  eV/Ang**3
siesta:        2120.62274080       1994.84489808  kBar
(Free)E+ p_basis*V_orbitals  =        -178.311536
(Free)Eharris+ p_basis*V_orbitals  =        -178.311543

cite: Please see "LiC12_scf.bib" for an exhaustive BiBTeX file.
cite: Please clearly indicate Siesta version in published work: 4.1.5
cite: This calculation has made use of the following articles
cite: which are encouraged to be cited in a published work.
        Primary SIESTA paper
          DOI: www.doi.org/10.1088/0953-8984/14/11/302

>> End of run:   9-NOV-2022  14:36:27
Job completed
