Siesta Version  : 4.1.5
Architecture    : x86_64-unknown-linux-gnu--unknown
Compiler version: GNU Fortran (GCC) 11.3.0
Compiler flags  : mpif90 -g -O2 -fallow-argument-mismatch
PP flags        : -DMPI -DFC_HAVE_FLUSH -DFC_HAVE_ABORT
Libraries       :  -I/global/software/sl-7.x86_64/modules/intel/2020.4.304/mkl/include  /globall/software/sl-7.x86_64/modules/intel/2020.4.304/mkl/lib/intel64/libmkl_scalapack_lp64.a -Wl,--start-group /global/software/sl-7.x86_64/modules/intel/2020.4.304/mkl/lib/intel64/libmkl_intel_lp64.a /global/software/sl-7.x86_64/modules/intel/2020.4.304/mkl/lib/intel64/libmkl_sequential.a /global/software/sl-7.x86_64/modules/intel/2020.4.304/mkl/lib/intel64/libmkl_core.a /global/software/sl-7.x86_64/modules/intel/2020.4.304/mkl/lib/intel64/libmkl_blacs_openmpi_lp64.a -Wl,--end-group -lpthread -lm -ldl
PARALLEL version

* Running on 4 nodes in parallel
>> Start of run:   9-NOV-2022   3:39:48

                           ***********************       
                           *  WELCOME TO SIESTA  *       
                           ***********************       

reinit: Reading from standard input
reinit: Dumped input in INPUT_TMP.55280
************************** Dump of input data file ****************************
SystemName LiC6_scf
SystemLabel LiC6_scf
NumberOfAtoms   7
NumberOfSpecies 2
%block ChemicalSpeciesLabel
1  3   Li-gga
2  6   C-gga
%endblock ChemicalSpeciesLabel
PAO.BasisSize  DZP
PAO.EnergyShift  10 meV
%block PS.Lmax
C-gga   2
Li-gga  2
%endblock PS.Lmax
LatticeConstant 1.000000 Ang
%block LatticeVectors
	4.3161300000	0.0000000000	0.0000000000
	-2.1580650000	3.7378782260	0.0000000000
	0.0000000000	0.0000000000	3.8478544000
%endblock LatticeVectors
AtomicCoordinatesFormat Ang
%block AtomicCoordinatesAndAtomicSpecies
	0.00000000	0.00000000	0.00000000	2
	-0.70288177	1.21742694	1.92392720	1
	-1.45518323	2.52045129	1.92392720	1
	1.45518323	2.52045129	1.92392720	1
	0.70288177	1.21742694	1.92392720	1
	1.40576354	0.00000000	1.92392720	1
	2.91036646	0.00000000	1.92392720	1
%endblock AtomicCoordinatesAndAtomicSpecies
Kgrid_NoTRS  T
%block kgrid_MonkhorstPack
2       0       0       0.0
0       2       0       0.0
0       0       2       0.0
%endblock kgrid_MonkhorstPack
AtomCoorFormatOut Ang
BlockSize 1
#ProcessorY 12
Diag.ParallelOverK   T
Diag.DivideAndConquer F
MeshCutoff   300 Ry
SCF.FreeE.Tolerance 1E-3 eV
SCF.EDM.Tolerance   5E-3 eV
DM.Tolerance  1E-3
DM.Require.Energy.Convergence T
DM.NumberPulay 4
XC.Functional GGA
XC.Authors    PBE
UseSaveData        F
MD.TypeOfRun       CG
MD.VariableCell    F
MD.NumCGsteps      00
MD.MaxCGDispl      0.200000 Bohr
MD.MaxStressTol    1.000000 GPa
MD.MaxForceTol     0.010000 eV/Ang
WriteMDHistory T
WriteCoorStep T
WriteForces T
WriteCoorStep    T
WriteEigenValues T
WriteDM    F
MM.UnitsDistance Ang  # what this program prints out DO NOT CHANGE
MM.UnitsEnergy    eV  # what this program prints out DO NOT CHANGE
MM.Grimme.S6     0.75 # Grimme-paper for PBE (correct for your functional)
MM.Grimme.D     20.   # Grimme-paper (correct for your functional)
%block MM.Potentials
  1   1 Grimme     16.69      1.650 # Li, 10.1002/jcc.20495
  1   2 Grimme     17.40      2.277 # Li / C
  2   2 Grimme     18.14      2.904 # C, 10.1002/jcc.20495
%endblock MM.Potentials
#%block ProjectedDensityOfStates
# -200.0  120.0  0.4  12800  eV
#%endblock ProjectedDensityOfStates
************************** End of input data file *****************************

reinit: -----------------------------------------------------------------------
reinit: System Name: LiC6_scf
reinit: -----------------------------------------------------------------------
reinit: System Label: LiC6_scf
reinit: -----------------------------------------------------------------------
Reading two-body potentials
Grimme - two-body potential between 1 and 1
Grimme - two-body potential between 1 and 2
Grimme - two-body potential between 2 and 2

initatom: Reading input for the pseudopotentials and atomic orbitals ----------
Species number:   1 Atomic number:    3 Label: Li-gga
Species number:   2 Atomic number:    6 Label: C-gga

Ground state valence configuration:   2s01
Reading pseudopotential information in formatted form from Li-gga.psf

Valence configuration for pseudopotential generation:
2s( 1.00) rc: 2.28
2p( 0.00) rc: 2.28
3d( 0.00) rc: 2.59
4f( 0.00) rc: 2.59
Ground state valence configuration:   2s02  2p02
Reading pseudopotential information in formatted form from C-gga.psf

Valence configuration for pseudopotential generation:
2s( 2.00) rc: 1.56
2p( 2.00) rc: 1.56
3d( 0.00) rc: 1.56
4f( 0.00) rc: 1.56
relmxkb: Read Max KB Ang. Momentum=    2 for species C-gga
relmxkb: Read Max KB Ang. Momentum=    2 for species Li-gga

<basis_specs>
===============================================================================
Li-gga               Z=   3    Mass=  6.9400        Charge= 0.17977+309
Lmxo=0 Lmxkb= 2    BasisType=split      Semic=F
L=0  Nsemic=0  Cnfigmx=2
          i=1  nzeta=2  polorb=1  (2s)
            splnorm:   0.15000    
               vcte:    0.0000    
               rinn:    0.0000    
               qcoe:    0.0000    
               qyuk:    0.0000    
               qwid:   0.10000E-01
                rcs:    0.0000      0.0000    
            lambdas:    1.0000      1.0000    
-------------------------------------------------------------------------------
L=0  Nkbl=1  erefs: 0.17977+309
L=1  Nkbl=1  erefs: 0.17977+309
L=2  Nkbl=1  erefs: 0.17977+309
===============================================================================
</basis_specs>

atom: Called for Li-gga                (Z =   3)

read_vps: Pseudopotential generation method:
read_vps: ATM 3.2.2 Troullier-Martins                       
Valence charge for ps generation:    1.00000

read_vps: Pseudopotential includes a core correction:
read_vps: Pseudo-core for xc-correction

xc_check: Exchange-correlation functional:
xc_check: GGA Perdew, Burke & Ernzerhof 1996
V l=0 = -2*Zval/r beyond r=  2.2278
V l=1 = -2*Zval/r beyond r=  2.2278
V l=2 = -2*Zval/r beyond r=  2.5245
All V_l potentials equal beyond r=  2.4622
This should be close to max(r_c) in ps generation
All pots = -2*Zval/r beyond r=  2.5245

VLOCAL1: 99.0% of the norm of Vloc inside      7.160 Ry
VLOCAL1: 99.9% of the norm of Vloc inside     16.318 Ry
atom: Maximum radius for 4*pi*r*r*local-pseudopot. charge    2.86079
atom: Maximum radius for r*vlocal+2*Zval:    2.43160
GHOST: No ghost state for L =  0
GHOST: No ghost state for L =  1
GHOST: No ghost state for L =  2

KBgen: Kleinman-Bylander projectors: 
   l= 0   rc=  2.654023   el= -0.211234   Ekb=  1.742119   kbcos=  0.228463
   l= 1   rc=  2.721230   el= -0.080095   Ekb= -1.122375   kbcos= -0.147941
   l= 2   rc=  2.825246   el=  0.002001   Ekb= -0.207076   kbcos= -0.031965

KBgen: Total number of Kleinman-Bylander projectors:    9
atom: -------------------------------------------------------------------------

atom: SANKEY-TYPE ORBITALS:
atom: Selected multiple-zeta basis: split     

SPLIT: Orbitals with angular momentum L= 0

SPLIT: Basis orbitals for state 2s

SPLIT: PAO cut-off radius determined from an
SPLIT: energy shift=  0.000735 Ry

   izeta = 1
                 lambda =    1.000000
                     rc =   11.897381
                 energy =   -0.210580
                kinetic =    0.143382
    potential(screened) =   -0.353962
       potential(ionic) =   -0.533453

   izeta = 2
                 rmatch =    8.489163
              splitnorm =    0.150000
                 energy =   -0.186081
                kinetic =    0.225882
    potential(screened) =   -0.411964
       potential(ionic) =   -0.593024

POLgen: Perturbative polarization orbital with L=  1

POLgen: Polarization orbital for state 2s

   izeta = 1
                     rc =   11.897381
                 energy =   -0.027011
                kinetic =    0.282985
    potential(screened) =   -0.309997
       potential(ionic) =   -0.490997
atom: Total number of Sankey-type orbitals:  5

atm_pop: Valence configuration (for local Pseudopot. screening):
 2s( 1.00)                                                            
Vna: chval, zval:    1.00000   1.00000

Vna:  Cut-off radius for the neutral-atom potential:  11.897381
comcore: Pseudo-core radius Rcore=  3.450946

atom: _________________________________________________________________________

<basis_specs>
===============================================================================
C-gga                Z=   6    Mass=  12.010        Charge= 0.17977+309
Lmxo=1 Lmxkb= 2    BasisType=split      Semic=F
L=0  Nsemic=0  Cnfigmx=2
          i=1  nzeta=2  polorb=0  (2s)
            splnorm:   0.15000    
               vcte:    0.0000    
               rinn:    0.0000    
               qcoe:    0.0000    
               qyuk:    0.0000    
               qwid:   0.10000E-01
                rcs:    0.0000      0.0000    
            lambdas:    1.0000      1.0000    
L=1  Nsemic=0  Cnfigmx=2
          i=1  nzeta=2  polorb=1  (2p)
            splnorm:   0.15000    
               vcte:    0.0000    
               rinn:    0.0000    
               qcoe:    0.0000    
               qyuk:    0.0000    
               qwid:   0.10000E-01
                rcs:    0.0000      0.0000    
            lambdas:    1.0000      1.0000    
-------------------------------------------------------------------------------
L=0  Nkbl=1  erefs: 0.17977+309
L=1  Nkbl=1  erefs: 0.17977+309
L=2  Nkbl=1  erefs: 0.17977+309
===============================================================================
</basis_specs>

atom: Called for C-gga                 (Z =   6)

read_vps: Pseudopotential generation method:
read_vps: ATM 3.2.2 Troullier-Martins                       
Valence charge for ps generation:    4.00000

xc_check: Exchange-correlation functional:
xc_check: GGA Perdew, Burke & Ernzerhof 1996
V l=0 = -2*Zval/r beyond r=  1.5227
V l=1 = -2*Zval/r beyond r=  1.5227
V l=2 = -2*Zval/r beyond r=  1.5227
All V_l potentials equal beyond r=  1.4851
This should be close to max(r_c) in ps generation
All pots = -2*Zval/r beyond r=  1.5227

VLOCAL1: 99.0% of the norm of Vloc inside     19.682 Ry
VLOCAL1: 99.9% of the norm of Vloc inside     44.856 Ry
atom: Maximum radius for 4*pi*r*r*local-pseudopot. charge    1.79142
atom: Maximum radius for r*vlocal+2*Zval:    1.54183
GHOST: No ghost state for L =  0
GHOST: No ghost state for L =  1
GHOST: No ghost state for L =  2

KBgen: Kleinman-Bylander projectors: 
   l= 0   rc=  1.661951   el= -1.010689   Ekb=  5.289847   kbcos=  0.316429
   l= 1   rc=  1.661951   el= -0.388490   Ekb= -4.102504   kbcos= -0.351025
   l= 2   rc=  1.747182   el=  0.001971   Ekb= -1.006005   kbcos= -0.008530

KBgen: Total number of Kleinman-Bylander projectors:    9
atom: -------------------------------------------------------------------------

atom: SANKEY-TYPE ORBITALS:
atom: Selected multiple-zeta basis: split     

SPLIT: Orbitals with angular momentum L= 0

SPLIT: Basis orbitals for state 2s

SPLIT: PAO cut-off radius determined from an
SPLIT: energy shift=  0.000735 Ry

   izeta = 1
                 lambda =    1.000000
                     rc =    5.948690
                 energy =   -1.010099
                kinetic =    0.827121
    potential(screened) =   -1.837220
       potential(ionic) =   -5.392783

   izeta = 2
                 rmatch =    3.518811
              splitnorm =    0.150000
                 energy =   -0.877891
                kinetic =    1.289227
    potential(screened) =   -2.167118
       potential(ionic) =   -5.982073

SPLIT: Orbitals with angular momentum L= 1

SPLIT: Basis orbitals for state 2p

SPLIT: PAO cut-off radius determined from an
SPLIT: energy shift=  0.000735 Ry

   izeta = 1
                 lambda =    1.000000
                     rc =    7.638387
                 energy =   -0.387843
                kinetic =    2.314739
    potential(screened) =   -2.702582
       potential(ionic) =   -6.092371

   izeta = 2
                 rmatch =    3.840617
              splitnorm =    0.150000
                 energy =   -0.270479
                kinetic =    3.438347
    potential(screened) =   -3.708826
       potential(ionic) =   -7.497707

POLgen: Perturbative polarization orbital with L=  2

POLgen: Polarization orbital for state 2p

   izeta = 1
                     rc =    7.638387
                 energy =    0.921402
                kinetic =    1.955040
    potential(screened) =   -1.033637
       potential(ionic) =   -3.679558
atom: Total number of Sankey-type orbitals: 13

atm_pop: Valence configuration (for local Pseudopot. screening):
 2s( 2.00)                                                            
 2p( 2.00)                                                            
Vna: chval, zval:    4.00000   4.00000

Vna:  Cut-off radius for the neutral-atom potential:   7.638387

atom: _________________________________________________________________________

prinput: Basis input ----------------------------------------------------------

PAO.BasisType split     

%block ChemicalSpeciesLabel
    1    3 Li-gga                  # Species index, atomic number, species label
    2    6 C-gga                   # Species index, atomic number, species label
%endblock ChemicalSpeciesLabel

%block PAO.Basis                 # Define Basis set
Li-gga                1                    # Species label, number of l-shells
 n=2   0   2 P   1                   # n, l, Nzeta, Polarization, NzetaPol
  11.897      8.489   
   1.000      1.000   
C-gga                 2                    # Species label, number of l-shells
 n=2   0   2                         # n, l, Nzeta 
   5.949      3.519   
   1.000      1.000   
 n=2   1   2 P   1                   # n, l, Nzeta, Polarization, NzetaPol
   7.638      3.841   
   1.000      1.000   
%endblock PAO.Basis

prinput: ----------------------------------------------------------------------

coor:   Atomic-coordinates input format  =     Cartesian coordinates
coor:                                          (in Angstroms)

siesta: Atomic coordinates (Bohr) and species
siesta:      0.00000   0.00000   0.00000  2        1
siesta:     -1.32825   2.30060   3.63570  1        2
siesta:     -2.74990   4.76296   3.63570  1        3
siesta:      2.74990   4.76296   3.63570  1        4
siesta:      1.32825   2.30060   3.63570  1        5
siesta:      2.65651   0.00000   3.63570  1        6
siesta:      5.49980   0.00000   3.63570  1        7

siesta: System type = bulk      

initatomlists: Number of atoms, orbitals, and projectors:      7    43    63

siesta: ******************** Simulation parameters ****************************
siesta:
siesta: The following are some of the parameters of the simulation.
siesta: A complete list of the parameters used, including default values,
siesta: can be found in file out.fdf
siesta:
redata: Spin configuration                          = none
redata: Number of spin components                   = 1
redata: Time-Reversal Symmetry                      = T
redata: Spin spiral                                 = F
redata: Long output                                 =   F
redata: Number of Atomic Species                    =        2
redata: Charge density info will appear in .RHO file
redata: Write Mulliken Pop.                         = NO
redata: Matel table size (NRTAB)                    =     1024
redata: Mesh Cutoff                                 =   300.0000 Ry
redata: Net charge of the system                    =     0.0000 |e|
redata: Min. number of SCF Iter                     =        0
redata: Max. number of SCF Iter                     =     1000
redata: SCF convergence failure will abort job
redata: SCF mix quantity                            = Hamiltonian
redata: Mix DM or H after convergence               =   F
redata: Recompute H after scf cycle                 =   F
redata: Mix DM in first SCF step                    =   T
redata: Write Pulay info on disk                    =   F
redata: New DM Occupancy tolerance                  = 0.000000000001
redata: No kicks to SCF
redata: DM Mixing Weight for Kicks                  =     0.5000
redata: Require Harris convergence for SCF          =   F
redata: Harris energy tolerance for SCF             =     0.000100 eV
redata: Require DM convergence for SCF              =   T
redata: DM tolerance for SCF                        =     0.001000
redata: Require EDM convergence for SCF             =   F
redata: EDM tolerance for SCF                       =     0.005000 eV
redata: Require H convergence for SCF               =   T
redata: Hamiltonian tolerance for SCF               =     0.001000 eV
redata: Require (free) Energy convergence for SCF   =   T
redata: (free) Energy tolerance for SCF             =     0.001000 eV
redata: Using Saved Data (generic)                  =   F
redata: Use continuation files for DM               =   F
redata: Neglect nonoverlap interactions             =   F
redata: Method of Calculation                       = Diagonalization
redata: Electronic Temperature                      =   299.9869 K
redata: Fix the spin of the system                  =   F
redata: Dynamics option                             = Single-point calculation
mix.SCF: Pulay mixing                            = Pulay
mix.SCF:    Variant                              = stable
mix.SCF:    History steps                        = 4
mix.SCF:    Linear mixing weight                 =     0.250000
mix.SCF:    Mixing weight                        =     0.250000
mix.SCF:    SVD condition                        = 0.1000E-07
redata: ***********************************************************************

%block SCF.Mixers
  Pulay
%endblock SCF.Mixers

%block SCF.Mixer.Pulay
  # Mixing method
  method pulay
  variant stable

  # Mixing options
  weight 0.2500
  weight.linear 0.2500
  history 4
%endblock SCF.Mixer.Pulay

DM_history_depth set to one: no extrapolation allowed by default for geometry relaxation
Size of DM history Fstack: 1
Total number of electrons:    10.000000
Total ionic charge:    10.000000

* ProcessorY, Blocksize:    2   1


* Orbital distribution balance (max,min):    11    10

k-point displ. along   1 input, could be:     0.00    0.50
k-point displ. along   2 input, could be:     0.00    0.50
k-point displ. along   3 input, could be:     0.00    0.50
 Kpoints in:            8 . Kpoints trimmed:            8

siesta: k-grid: Number of k-points =     8
siesta: k-grid: Cutoff (effective) =     3.848 Ang
siesta: k-grid: Supercell and displacements
siesta: k-grid:    2   0   0      0.000
siesta: k-grid:    0   2   0      0.000
siesta: k-grid:    0   0   2      0.000

diag: Algorithm                                     = Expert
diag: Parallel over k                               =   T
diag: Use parallel 2D distribution                  =   T
diag: Parallel block-size                           = 1
diag: Parallel distribution                         =     2 x     2
diag: Used triangular part                          = Lower
diag: Absolute tolerance                            =  0.100E-15
diag: Orthogonalization factor                      =  0.100E-05
diag: Memory factor                                 =  1.0000

superc: Internal auxiliary supercell:     9 x     9 x     9  =     729
superc: Number of atoms, orbitals, and projectors:   5103  31347  45927


ts: **************************************************************
ts: Save H and S matrices                           =    F
ts: Save DM and EDM matrices                        =    F
ts: Only save the overlap matrix S                  =    F
ts: **************************************************************

************************ Begin: TS CHECKS AND WARNINGS ************************
************************ End: TS CHECKS AND WARNINGS **************************


                     ====================================
                        Single-point calculation
                     ====================================

outcoor: Atomic coordinates (Ang):                          
    0.00000000    0.00000000    0.00000000   2       1  C-gga
   -0.70288177    1.21742694    1.92392720   1       2  Li-gga
   -1.45518323    2.52045129    1.92392720   1       3  Li-gga
    1.45518323    2.52045129    1.92392720   1       4  Li-gga
    0.70288177    1.21742694    1.92392720   1       5  Li-gga
    1.40576354    0.00000000    1.92392720   1       6  Li-gga
    2.91036646    0.00000000    1.92392720   1       7  Li-gga

superc: Internal auxiliary supercell:     9 x     9 x     9  =     729
superc: Number of atoms, orbitals, and projectors:   5103  31347  45927

outcell: Unit cell vectors (Ang):
        4.316130    0.000000    0.000000
       -2.158065    3.737878    0.000000
        0.000000    0.000000    3.847854

outcell: Cell vector modules (Ang)   :    4.316130    4.316130    3.847854
outcell: Cell angles (23,13,12) (deg):     90.0000     90.0000    120.0000
outcell: Cell volume (Ang**3)        :     62.0781
<dSpData1D:S at geom step 0
  <sparsity:sparsity for geom step 0
    nrows_g=43 nrows=11 sparsity=36.2390 nnzs=67006, refcount: 7>
  <dData1D:(new from dSpData1D) n=67006, refcount: 1>
refcount: 1>
new_DM -- step:     1
Initializing Density Matrix...
DM filled with atomic data:
<dSpData2D:DM initialized from atoms
  <sparsity:sparsity for geom step 0
    nrows_g=43 nrows=11 sparsity=36.2390 nnzs=67006, refcount: 8>
  <dData2D:DM n=67006 m=1, refcount: 1>
refcount: 1>
No. of atoms with KB's overlaping orbs in proc 0. Max # of overlaps:     323     972
New grid distribution:   1
           1       1:   20    1:   10    1:   12
           2       1:   20    1:   10   13:   24
           3       1:   20   11:   20    1:   12
           4       1:   20   11:   20   13:   24

InitMesh: MESH =    40 x    40 x    48 =       76800
InitMesh: (bp) =    20 x    20 x    24 =        9600
InitMesh: Mesh cutoff (required, used) =   300.000   316.498 Ry
ExtMesh (bp) on 0 =   156 x   146 x   172 =     3917472
New grid distribution:   2
           1       1:   20    1:   10    1:   12
           2       1:   20    1:   10   13:   24
           3       1:   20   11:   20    1:   12
           4       1:   20   11:   20   13:   24
New grid distribution:   3
           1       1:   20    1:   10    1:   12
           2       1:   20    1:   10   13:   24
           3       1:   20   11:   20    1:   12
           4       1:   20   11:   20   13:   24
Setting up quadratic distribution...
ExtMesh (bp) on 0 =   156 x   146 x   172 =     3917472
PhiOnMesh: Number of (b)points on node 0 =                 2400
PhiOnMesh: nlist on node 0 =              1196570

stepf: Fermi-Dirac step function

siesta: Program's energy decomposition (eV):
siesta: Ebs     =      -128.971528
siesta: Eions   =       321.344870
siesta: Ena     =        88.055266
siesta: Ekin    =       152.112233
siesta: Enl     =        -0.042787
siesta: Eso     =         0.000000
siesta: Edftu   =         0.000000
siesta: DEna    =        -2.850384
siesta: DUscf   =         3.796011
siesta: DUext   =         0.000000
siesta: Exc     =      -103.495865
siesta: eta*DQ  =         0.000000
siesta: Emadel  =         0.000000
siesta: Emeta   =         0.000000
siesta: Emolmec =        -3.272858
siesta: Ekinion =         0.000000
siesta: Eharris =      -177.292863
siesta: Etot    =      -187.043253
siesta: FreeEng =      -187.048712

        iscf     Eharris(eV)        E_KS(eV)     FreeEng(eV)     dDmax    Ef(eV) dHmax(eV)
   scf:    1     -177.292863     -187.043253     -187.048712 23.543711-12.280409  6.584457
timer: Routine,Calls,Time,% = IterSCF        1      14.684  59.94
   scf:    2     -180.119923     -187.458333     -187.473094  3.329394-11.764630  5.785579
   scf:    3     -190.284555     -189.393344     -189.404459  1.365690-11.952036  1.229714
   scf:    4     -188.669354     -189.269129     -189.289621  1.727779-12.164237  1.863485
   scf:    5     -189.329803     -189.460920     -189.471361  0.617478-12.083100  0.579408
   scf:    6     -189.461197     -189.474924     -189.490867  0.306343-12.128226  0.146521
   scf:    7     -189.473686     -189.474327     -189.490525  0.033012-12.125969  0.148773
   scf:    8     -189.475609     -189.476779     -189.491348  0.103543-12.119374  0.095854
   scf:    9     -189.473702     -189.476009     -189.491707  0.069465-12.123832  0.061789
   scf:   10     -189.477124     -189.476680     -189.491966  0.027442-12.122491  0.002504
   scf:   11     -189.476675     -189.476678     -189.491966  0.000714-12.122597  0.002620
   scf:   12     -189.476718     -189.476698     -189.491966  0.001119-12.122563  0.000989
   scf:   13     -189.476678     -189.476688     -189.491967  0.000831-12.122582  0.000455

SCF Convergence by FreeE+DM+H criterion
|FreeE_i-FreeE_(i-1)| (eV) <     0.00100000
max |DM_out - DM_in|         :     0.0008305008
max |H_out - H_in|      (eV) :     0.0004554102
SCF cycle converged after 13 iterations

Using DM_out to compute the final energy and forces
No. of atoms with KB's overlaping orbs in proc 0. Max # of overlaps:     323     972

MM-Stress (kbar):       -4.71       -4.71       31.52        0.00       -0.00        0.00

siesta: E_KS(eV) =             -189.4767

siesta: E_KS - E_eggbox =      -189.4767

siesta: Atomic forces (eV/Ang):
     1    0.000000    0.000000    0.000000
     2    0.469178   -0.812668   -0.000000
     3   -0.469178    0.812667   -0.000000
     4    0.469071    0.812455   -0.000000
     5   -0.469071   -0.812455   -0.000000
     6   -0.938380   -0.000014   -0.000000
     7    0.938380    0.000014   -0.000000
----------------------------------------
   Tot   -0.000000   -0.000000   -0.000000
----------------------------------------
   Max    0.938380
   Res    0.501543    sqrt( Sum f_i^2 / 3N )
----------------------------------------
   Max    0.938380    constrained

Stress tensor Voigt[x,y,z,yz,xz,xy] (kbar):     -951.32     -951.35      537.29       -0.00       -0.00       -0.03
(Free)E + p*V (eV/cell)     -171.8578
Target enthalpy (eV/cell)     -189.4920

siesta: Eigenvalues (eV):
  ik is       eps
   1  1  -21.4359  -14.9823  -14.3903  -12.1346  -12.1345  -11.4577   -8.9679   -6.1586   -6.1586   -6.1000
          -0.5088   -0.5088   -0.4806   -0.4804   -0.2092    1.7299    1.7299    9.1625   10.9300   10.9302
   13.4090   13.4092   17.9190   17.9191   24.3650   24.6466   30.9916   30.9917   33.5658   36.0313
   36.0322   37.3543   37.3543   37.6106   37.6107   38.2379   46.8199   49.4720   59.9807   59.9809
   87.6075   87.6079  124.9450
   2  1  -21.3512  -15.1857  -14.3547  -13.1412  -12.5078   -9.9450   -9.5195   -8.4426   -4.1120   -3.9821
          -3.5364   -2.9013   -0.8255   -0.6129    1.6389    2.8103    3.4782    3.8510    5.1633    9.0472
   11.3563   14.7253   18.3924   18.7635   19.3565   20.5371   23.2386   25.7807   26.5899   26.7656
   29.6663   31.2572   36.1688   42.5843   46.7684   48.3266   50.9028   54.0629   68.7379   75.0792
   78.4179   84.0692  114.2419
   3  1  -21.3512  -15.1857  -14.3547  -13.1412  -12.5078   -9.9450   -9.5195   -8.4426   -4.1120   -3.9821
          -3.5364   -2.9013   -0.8255   -0.6129    1.6389    2.8103    3.4782    3.8510    5.1632    9.0472
   11.3563   14.7253   18.3924   18.7635   19.3565   20.5371   23.2386   25.7807   26.5899   26.7656
   29.6663   31.2572   36.1688   42.5843   46.7684   48.3266   50.9028   54.0629   68.7379   75.0792
   78.4179   84.0692  114.2419
   4  1  -21.3512  -15.1857  -14.3547  -13.1412  -12.5079   -9.9449   -9.5195   -8.4427   -4.1121   -3.9821
          -3.5364   -2.9013   -0.8255   -0.6129    1.6388    2.8105    3.4781    3.8510    5.1634    9.0470
   11.3563   14.7253   18.3924   18.7636   19.3561   20.5371   23.2388   25.7806   26.5899   26.7653
   29.6663   31.2572   36.1688   42.5844   46.7683   48.3264   50.9027   54.0630   68.7377   75.0793
   78.4180   84.0689  114.2416
   5  1  -21.2041  -16.5473  -13.1491  -12.0140  -12.0139  -11.7121  -10.1748   -4.3842   -4.3841   -4.3453
          -4.3453   -4.1306   -4.1306   -3.4542    3.5292    3.5297    7.1473   14.5872   14.5872   18.7377
   18.9727   19.7019   19.7019   22.5612   24.5282   24.5291   24.6654   24.9632   24.9633   29.1321
   29.1322   34.8108   34.8110   38.8800   43.7586   45.8177   55.9305   56.3334   56.3336   71.1125
   71.1125   81.8625   81.8626
   6  1  -20.8320  -16.4309  -14.1724  -12.7045  -12.4514  -12.1838   -8.3793   -5.8731   -5.4912   -3.3528
          -1.6409   -1.5147   -0.8763    0.5038    1.1051    2.0498    3.4782    6.1924   11.9700   13.0503
   17.2849   17.3224   18.0722   19.6157   21.3658   21.3981   24.8899   25.0928   34.2915   34.8089
   35.7392   40.7064   43.6755   44.5289   47.0778   51.6888   56.2116   71.7846   77.3316   77.5165
   78.7936   78.8249  126.3876
   7  1  -20.8320  -16.4309  -14.1724  -12.7045  -12.4514  -12.1838   -8.3793   -5.8731   -5.4912   -3.3528
          -1.6409   -1.5147   -0.8763    0.5038    1.1051    2.0498    3.4782    6.1924   11.9700   13.0503
   17.2849   17.3224   18.0722   19.6157   21.3658   21.3981   24.8899   25.0928   34.2917   34.8089
   35.7392   40.7064   43.6755   44.5289   47.0778   51.6888   56.2116   71.7846   77.3316   77.5165
   78.7936   78.8249  126.3876
   8  1  -20.8320  -16.4309  -14.1724  -12.7045  -12.4514  -12.1838   -8.3792   -5.8729   -5.4912   -3.3528
          -1.6412   -1.5148   -0.8763    0.5037    1.1051    2.0498    3.4782    6.1923   11.9699   13.0502
   17.2849   17.3225   18.0722   19.6157   21.3663   21.3981   24.8898   25.0928   34.2915   34.8092
   35.7393   40.7065   43.6745   44.5289   47.0779   51.6889   56.2118   71.7845   77.3316   77.5165
   78.7935   78.8250  126.3875
siesta: Fermi energy =     -12.122582 eV

siesta: Program's energy decomposition (eV):
siesta: Ebs     =      -152.442350
siesta: Eions   =       321.344870
siesta: Ena     =        88.055266
siesta: Ekin    =       134.609499
siesta: Enl     =         6.339068
siesta: Eso     =         0.000000
siesta: Edftu   =         0.000000
siesta: DEna    =         4.701834
siesta: DUscf   =         1.017683
siesta: DUext   =         0.000000
siesta: Exc     =       -99.582311
siesta: eta*DQ  =         0.000000
siesta: Emadel  =         0.000000
siesta: Emeta   =         0.000000
siesta: Emolmec =        -3.272858
siesta: Ekinion =         0.000000
siesta: Eharris =      -189.476678
siesta: Etot    =      -189.476688
siesta: FreeEng =      -189.491967

siesta: Final energy (eV):
siesta:  Band Struct. =    -152.442350
siesta:       Kinetic =     134.609499
siesta:       Hartree =      45.063554
siesta:       Edftu   =       0.000000
siesta:       Eso     =       0.000000
siesta:    Ext. field =       0.000000
siesta:   Exch.-corr. =     -99.582311
siesta:  Ion-electron =    -267.440971
siesta:       Ion-ion =       1.146398
siesta:       Ekinion =       0.000000
siesta:         Total =    -189.476688
siesta:         Fermi =     -12.122582

siesta: Atomic forces (eV/Ang):
siesta:      1    0.000000    0.000000    0.000000
siesta:      2    0.469178   -0.812668   -0.000000
siesta:      3   -0.469178    0.812667   -0.000000
siesta:      4    0.469071    0.812455   -0.000000
siesta:      5   -0.469071   -0.812455   -0.000000
siesta:      6   -0.938380   -0.000014   -0.000000
siesta:      7    0.938380    0.000014   -0.000000
siesta: ----------------------------------------
siesta:    Tot   -0.000000   -0.000000   -0.000000

siesta: Stress tensor (static) (eV/Ang**3):
siesta:    -0.593762   -0.000018   -0.000000
siesta:    -0.000018   -0.593782    0.000000
siesta:    -0.000000   -0.000000    0.335349

siesta: Cell volume =         62.078083 Ang**3

siesta: Pressure (static):
siesta:                Solid            Molecule  Units
siesta:           0.00309383          0.00284614  Ry/Bohr**3
siesta:           0.28406486          0.26132303  eV/Ang**3
siesta:         455.12700824        418.69017238  kBar
(Free)E+ p_basis*V_orbitals  =        -170.058239
(Free)Eharris+ p_basis*V_orbitals  =        -170.058229

cite: Please see "LiC6_scf.bib" for an exhaustive BiBTeX file.
cite: Please clearly indicate Siesta version in published work: 4.1.5
cite: This calculation has made use of the following articles
cite: which are encouraged to be cited in a published work.
        Primary SIESTA paper
          DOI: www.doi.org/10.1088/0953-8984/14/11/302

>> End of run:   9-NOV-2022   3:42:44
Job completed
