Siesta Version  : 4.1.5
Architecture    : x86_64-unknown-linux-gnu--unknown
Compiler version: GNU Fortran (GCC) 11.3.0
Compiler flags  : mpif90 -g -O2 -fallow-argument-mismatch
PP flags        : -DMPI -DFC_HAVE_FLUSH -DFC_HAVE_ABORT
Libraries       :  -I/global/software/sl-7.x86_64/modules/intel/2020.4.304/mkl/include  /globall/software/sl-7.x86_64/modules/intel/2020.4.304/mkl/lib/intel64/libmkl_scalapack_lp64.a -Wl,--start-group /global/software/sl-7.x86_64/modules/intel/2020.4.304/mkl/lib/intel64/libmkl_intel_lp64.a /global/software/sl-7.x86_64/modules/intel/2020.4.304/mkl/lib/intel64/libmkl_sequential.a /global/software/sl-7.x86_64/modules/intel/2020.4.304/mkl/lib/intel64/libmkl_core.a /global/software/sl-7.x86_64/modules/intel/2020.4.304/mkl/lib/intel64/libmkl_blacs_openmpi_lp64.a -Wl,--end-group -lpthread -lm -ldl
PARALLEL version

* Running on 4 nodes in parallel
>> Start of run:   9-NOV-2022   4:13:02

                           ***********************       
                           *  WELCOME TO SIESTA  *       
                           ***********************       

reinit: Reading from standard input
reinit: Dumped input in INPUT_TMP.49771
************************** Dump of input data file ****************************
SystemName LiC6_scf
SystemLabel LiC6_scf
NumberOfAtoms   7
NumberOfSpecies 2
%block ChemicalSpeciesLabel
1  3   Li-gga
2  6   C-gga
%endblock ChemicalSpeciesLabel
PAO.BasisSize  DZP
PAO.EnergyShift  10 meV
%block PS.Lmax
C-gga   2
Li-gga  2
%endblock PS.Lmax
LatticeConstant 1.000000 Ang
%block LatticeVectors
	4.3161300000	0.0000000000	0.0000000000
	-2.1580650000	3.7378782260	0.0000000000
	0.0000000000	0.0000000000	4.4398320000
%endblock LatticeVectors
AtomicCoordinatesFormat Ang
%block AtomicCoordinatesAndAtomicSpecies
	0.00000000	0.00000000	0.00000000	2
	-0.70288177	1.21742694	2.21991600	1
	-1.45518323	2.52045129	2.21991600	1
	1.45518323	2.52045129	2.21991600	1
	0.70288177	1.21742694	2.21991600	1
	1.40576354	0.00000000	2.21991600	1
	2.91036646	0.00000000	2.21991600	1
%endblock AtomicCoordinatesAndAtomicSpecies
Kgrid_NoTRS  T
%block kgrid_MonkhorstPack
2       0       0       0.0
0       2       0       0.0
0       0       2       0.0
%endblock kgrid_MonkhorstPack
AtomCoorFormatOut Ang
BlockSize 1
#ProcessorY 12
Diag.ParallelOverK   T
Diag.DivideAndConquer F
MeshCutoff   300 Ry
SCF.FreeE.Tolerance 1E-3 eV
SCF.EDM.Tolerance   5E-3 eV
DM.Tolerance  1E-3
DM.Require.Energy.Convergence T
DM.NumberPulay 4
XC.Functional GGA
XC.Authors    PBE
UseSaveData        F
MD.TypeOfRun       CG
MD.VariableCell    F
MD.NumCGsteps      00
MD.MaxCGDispl      0.200000 Bohr
MD.MaxStressTol    1.000000 GPa
MD.MaxForceTol     0.010000 eV/Ang
WriteMDHistory T
WriteCoorStep T
WriteForces T
WriteCoorStep    T
WriteEigenValues T
WriteDM    F
MM.UnitsDistance Ang  # what this program prints out DO NOT CHANGE
MM.UnitsEnergy    eV  # what this program prints out DO NOT CHANGE
MM.Grimme.S6     0.75 # Grimme-paper for PBE (correct for your functional)
MM.Grimme.D     20.   # Grimme-paper (correct for your functional)
%block MM.Potentials
  1   1 Grimme     16.69      1.650 # Li, 10.1002/jcc.20495
  1   2 Grimme     17.40      2.277 # Li / C
  2   2 Grimme     18.14      2.904 # C, 10.1002/jcc.20495
%endblock MM.Potentials
#%block ProjectedDensityOfStates
# -200.0  120.0  0.4  12800  eV
#%endblock ProjectedDensityOfStates
************************** End of input data file *****************************

reinit: -----------------------------------------------------------------------
reinit: System Name: LiC6_scf
reinit: -----------------------------------------------------------------------
reinit: System Label: LiC6_scf
reinit: -----------------------------------------------------------------------
Reading two-body potentials
Grimme - two-body potential between 1 and 1
Grimme - two-body potential between 1 and 2
Grimme - two-body potential between 2 and 2

initatom: Reading input for the pseudopotentials and atomic orbitals ----------
Species number:   1 Atomic number:    3 Label: Li-gga
Species number:   2 Atomic number:    6 Label: C-gga

Ground state valence configuration:   2s01
Reading pseudopotential information in formatted form from Li-gga.psf

Valence configuration for pseudopotential generation:
2s( 1.00) rc: 2.28
2p( 0.00) rc: 2.28
3d( 0.00) rc: 2.59
4f( 0.00) rc: 2.59
Ground state valence configuration:   2s02  2p02
Reading pseudopotential information in formatted form from C-gga.psf

Valence configuration for pseudopotential generation:
2s( 2.00) rc: 1.56
2p( 2.00) rc: 1.56
3d( 0.00) rc: 1.56
4f( 0.00) rc: 1.56
relmxkb: Read Max KB Ang. Momentum=    2 for species C-gga
relmxkb: Read Max KB Ang. Momentum=    2 for species Li-gga

<basis_specs>
===============================================================================
Li-gga               Z=   3    Mass=  6.9400        Charge= 0.17977+309
Lmxo=0 Lmxkb= 2    BasisType=split      Semic=F
L=0  Nsemic=0  Cnfigmx=2
          i=1  nzeta=2  polorb=1  (2s)
            splnorm:   0.15000    
               vcte:    0.0000    
               rinn:    0.0000    
               qcoe:    0.0000    
               qyuk:    0.0000    
               qwid:   0.10000E-01
                rcs:    0.0000      0.0000    
            lambdas:    1.0000      1.0000    
-------------------------------------------------------------------------------
L=0  Nkbl=1  erefs: 0.17977+309
L=1  Nkbl=1  erefs: 0.17977+309
L=2  Nkbl=1  erefs: 0.17977+309
===============================================================================
</basis_specs>

atom: Called for Li-gga                (Z =   3)

read_vps: Pseudopotential generation method:
read_vps: ATM 3.2.2 Troullier-Martins                       
Valence charge for ps generation:    1.00000

read_vps: Pseudopotential includes a core correction:
read_vps: Pseudo-core for xc-correction

xc_check: Exchange-correlation functional:
xc_check: GGA Perdew, Burke & Ernzerhof 1996
V l=0 = -2*Zval/r beyond r=  2.2278
V l=1 = -2*Zval/r beyond r=  2.2278
V l=2 = -2*Zval/r beyond r=  2.5245
All V_l potentials equal beyond r=  2.4622
This should be close to max(r_c) in ps generation
All pots = -2*Zval/r beyond r=  2.5245

VLOCAL1: 99.0% of the norm of Vloc inside      7.160 Ry
VLOCAL1: 99.9% of the norm of Vloc inside     16.318 Ry
atom: Maximum radius for 4*pi*r*r*local-pseudopot. charge    2.86079
atom: Maximum radius for r*vlocal+2*Zval:    2.43160
GHOST: No ghost state for L =  0
GHOST: No ghost state for L =  1
GHOST: No ghost state for L =  2

KBgen: Kleinman-Bylander projectors: 
   l= 0   rc=  2.654023   el= -0.211234   Ekb=  1.742119   kbcos=  0.228463
   l= 1   rc=  2.721230   el= -0.080095   Ekb= -1.122375   kbcos= -0.147941
   l= 2   rc=  2.825246   el=  0.002001   Ekb= -0.207076   kbcos= -0.031965

KBgen: Total number of Kleinman-Bylander projectors:    9
atom: -------------------------------------------------------------------------

atom: SANKEY-TYPE ORBITALS:
atom: Selected multiple-zeta basis: split     

SPLIT: Orbitals with angular momentum L= 0

SPLIT: Basis orbitals for state 2s

SPLIT: PAO cut-off radius determined from an
SPLIT: energy shift=  0.000735 Ry

   izeta = 1
                 lambda =    1.000000
                     rc =   11.897381
                 energy =   -0.210580
                kinetic =    0.143382
    potential(screened) =   -0.353962
       potential(ionic) =   -0.533453

   izeta = 2
                 rmatch =    8.489163
              splitnorm =    0.150000
                 energy =   -0.186081
                kinetic =    0.225882
    potential(screened) =   -0.411964
       potential(ionic) =   -0.593024

POLgen: Perturbative polarization orbital with L=  1

POLgen: Polarization orbital for state 2s

   izeta = 1
                     rc =   11.897381
                 energy =   -0.027011
                kinetic =    0.282985
    potential(screened) =   -0.309997
       potential(ionic) =   -0.490997
atom: Total number of Sankey-type orbitals:  5

atm_pop: Valence configuration (for local Pseudopot. screening):
 2s( 1.00)                                                            
Vna: chval, zval:    1.00000   1.00000

Vna:  Cut-off radius for the neutral-atom potential:  11.897381
comcore: Pseudo-core radius Rcore=  3.450946

atom: _________________________________________________________________________

<basis_specs>
===============================================================================
C-gga                Z=   6    Mass=  12.010        Charge= 0.17977+309
Lmxo=1 Lmxkb= 2    BasisType=split      Semic=F
L=0  Nsemic=0  Cnfigmx=2
          i=1  nzeta=2  polorb=0  (2s)
            splnorm:   0.15000    
               vcte:    0.0000    
               rinn:    0.0000    
               qcoe:    0.0000    
               qyuk:    0.0000    
               qwid:   0.10000E-01
                rcs:    0.0000      0.0000    
            lambdas:    1.0000      1.0000    
L=1  Nsemic=0  Cnfigmx=2
          i=1  nzeta=2  polorb=1  (2p)
            splnorm:   0.15000    
               vcte:    0.0000    
               rinn:    0.0000    
               qcoe:    0.0000    
               qyuk:    0.0000    
               qwid:   0.10000E-01
                rcs:    0.0000      0.0000    
            lambdas:    1.0000      1.0000    
-------------------------------------------------------------------------------
L=0  Nkbl=1  erefs: 0.17977+309
L=1  Nkbl=1  erefs: 0.17977+309
L=2  Nkbl=1  erefs: 0.17977+309
===============================================================================
</basis_specs>

atom: Called for C-gga                 (Z =   6)

read_vps: Pseudopotential generation method:
read_vps: ATM 3.2.2 Troullier-Martins                       
Valence charge for ps generation:    4.00000

xc_check: Exchange-correlation functional:
xc_check: GGA Perdew, Burke & Ernzerhof 1996
V l=0 = -2*Zval/r beyond r=  1.5227
V l=1 = -2*Zval/r beyond r=  1.5227
V l=2 = -2*Zval/r beyond r=  1.5227
All V_l potentials equal beyond r=  1.4851
This should be close to max(r_c) in ps generation
All pots = -2*Zval/r beyond r=  1.5227

VLOCAL1: 99.0% of the norm of Vloc inside     19.682 Ry
VLOCAL1: 99.9% of the norm of Vloc inside     44.856 Ry
atom: Maximum radius for 4*pi*r*r*local-pseudopot. charge    1.79142
atom: Maximum radius for r*vlocal+2*Zval:    1.54183
GHOST: No ghost state for L =  0
GHOST: No ghost state for L =  1
GHOST: No ghost state for L =  2

KBgen: Kleinman-Bylander projectors: 
   l= 0   rc=  1.661951   el= -1.010689   Ekb=  5.289847   kbcos=  0.316429
   l= 1   rc=  1.661951   el= -0.388490   Ekb= -4.102504   kbcos= -0.351025
   l= 2   rc=  1.747182   el=  0.001971   Ekb= -1.006005   kbcos= -0.008530

KBgen: Total number of Kleinman-Bylander projectors:    9
atom: -------------------------------------------------------------------------

atom: SANKEY-TYPE ORBITALS:
atom: Selected multiple-zeta basis: split     

SPLIT: Orbitals with angular momentum L= 0

SPLIT: Basis orbitals for state 2s

SPLIT: PAO cut-off radius determined from an
SPLIT: energy shift=  0.000735 Ry

   izeta = 1
                 lambda =    1.000000
                     rc =    5.948690
                 energy =   -1.010099
                kinetic =    0.827121
    potential(screened) =   -1.837220
       potential(ionic) =   -5.392783

   izeta = 2
                 rmatch =    3.518811
              splitnorm =    0.150000
                 energy =   -0.877891
                kinetic =    1.289227
    potential(screened) =   -2.167118
       potential(ionic) =   -5.982073

SPLIT: Orbitals with angular momentum L= 1

SPLIT: Basis orbitals for state 2p

SPLIT: PAO cut-off radius determined from an
SPLIT: energy shift=  0.000735 Ry

   izeta = 1
                 lambda =    1.000000
                     rc =    7.638387
                 energy =   -0.387843
                kinetic =    2.314739
    potential(screened) =   -2.702582
       potential(ionic) =   -6.092371

   izeta = 2
                 rmatch =    3.840617
              splitnorm =    0.150000
                 energy =   -0.270479
                kinetic =    3.438347
    potential(screened) =   -3.708826
       potential(ionic) =   -7.497707

POLgen: Perturbative polarization orbital with L=  2

POLgen: Polarization orbital for state 2p

   izeta = 1
                     rc =    7.638387
                 energy =    0.921402
                kinetic =    1.955040
    potential(screened) =   -1.033637
       potential(ionic) =   -3.679558
atom: Total number of Sankey-type orbitals: 13

atm_pop: Valence configuration (for local Pseudopot. screening):
 2s( 2.00)                                                            
 2p( 2.00)                                                            
Vna: chval, zval:    4.00000   4.00000

Vna:  Cut-off radius for the neutral-atom potential:   7.638387

atom: _________________________________________________________________________

prinput: Basis input ----------------------------------------------------------

PAO.BasisType split     

%block ChemicalSpeciesLabel
    1    3 Li-gga                  # Species index, atomic number, species label
    2    6 C-gga                   # Species index, atomic number, species label
%endblock ChemicalSpeciesLabel

%block PAO.Basis                 # Define Basis set
Li-gga                1                    # Species label, number of l-shells
 n=2   0   2 P   1                   # n, l, Nzeta, Polarization, NzetaPol
  11.897      8.489   
   1.000      1.000   
C-gga                 2                    # Species label, number of l-shells
 n=2   0   2                         # n, l, Nzeta 
   5.949      3.519   
   1.000      1.000   
 n=2   1   2 P   1                   # n, l, Nzeta, Polarization, NzetaPol
   7.638      3.841   
   1.000      1.000   
%endblock PAO.Basis

prinput: ----------------------------------------------------------------------

coor:   Atomic-coordinates input format  =     Cartesian coordinates
coor:                                          (in Angstroms)

siesta: Atomic coordinates (Bohr) and species
siesta:      0.00000   0.00000   0.00000  2        1
siesta:     -1.32825   2.30060   4.19503  1        2
siesta:     -2.74990   4.76296   4.19503  1        3
siesta:      2.74990   4.76296   4.19503  1        4
siesta:      1.32825   2.30060   4.19503  1        5
siesta:      2.65651   0.00000   4.19503  1        6
siesta:      5.49980   0.00000   4.19503  1        7

siesta: System type = bulk      

initatomlists: Number of atoms, orbitals, and projectors:      7    43    63

siesta: ******************** Simulation parameters ****************************
siesta:
siesta: The following are some of the parameters of the simulation.
siesta: A complete list of the parameters used, including default values,
siesta: can be found in file out.fdf
siesta:
redata: Spin configuration                          = none
redata: Number of spin components                   = 1
redata: Time-Reversal Symmetry                      = T
redata: Spin spiral                                 = F
redata: Long output                                 =   F
redata: Number of Atomic Species                    =        2
redata: Charge density info will appear in .RHO file
redata: Write Mulliken Pop.                         = NO
redata: Matel table size (NRTAB)                    =     1024
redata: Mesh Cutoff                                 =   300.0000 Ry
redata: Net charge of the system                    =     0.0000 |e|
redata: Min. number of SCF Iter                     =        0
redata: Max. number of SCF Iter                     =     1000
redata: SCF convergence failure will abort job
redata: SCF mix quantity                            = Hamiltonian
redata: Mix DM or H after convergence               =   F
redata: Recompute H after scf cycle                 =   F
redata: Mix DM in first SCF step                    =   T
redata: Write Pulay info on disk                    =   F
redata: New DM Occupancy tolerance                  = 0.000000000001
redata: No kicks to SCF
redata: DM Mixing Weight for Kicks                  =     0.5000
redata: Require Harris convergence for SCF          =   F
redata: Harris energy tolerance for SCF             =     0.000100 eV
redata: Require DM convergence for SCF              =   T
redata: DM tolerance for SCF                        =     0.001000
redata: Require EDM convergence for SCF             =   F
redata: EDM tolerance for SCF                       =     0.005000 eV
redata: Require H convergence for SCF               =   T
redata: Hamiltonian tolerance for SCF               =     0.001000 eV
redata: Require (free) Energy convergence for SCF   =   T
redata: (free) Energy tolerance for SCF             =     0.001000 eV
redata: Using Saved Data (generic)                  =   F
redata: Use continuation files for DM               =   F
redata: Neglect nonoverlap interactions             =   F
redata: Method of Calculation                       = Diagonalization
redata: Electronic Temperature                      =   299.9869 K
redata: Fix the spin of the system                  =   F
redata: Dynamics option                             = Single-point calculation
mix.SCF: Pulay mixing                            = Pulay
mix.SCF:    Variant                              = stable
mix.SCF:    History steps                        = 4
mix.SCF:    Linear mixing weight                 =     0.250000
mix.SCF:    Mixing weight                        =     0.250000
mix.SCF:    SVD condition                        = 0.1000E-07
redata: ***********************************************************************

%block SCF.Mixers
  Pulay
%endblock SCF.Mixers

%block SCF.Mixer.Pulay
  # Mixing method
  method pulay
  variant stable

  # Mixing options
  weight 0.2500
  weight.linear 0.2500
  history 4
%endblock SCF.Mixer.Pulay

DM_history_depth set to one: no extrapolation allowed by default for geometry relaxation
Size of DM history Fstack: 1
Total number of electrons:    10.000000
Total ionic charge:    10.000000

* ProcessorY, Blocksize:    2   1


* Orbital distribution balance (max,min):    11    10

k-point displ. along   1 input, could be:     0.00    0.50
k-point displ. along   2 input, could be:     0.00    0.50
k-point displ. along   3 input, could be:     0.00    0.50
 Kpoints in:            8 . Kpoints trimmed:            8

siesta: k-grid: Number of k-points =     8
siesta: k-grid: Cutoff (effective) =     4.316 Ang
siesta: k-grid: Supercell and displacements
siesta: k-grid:    2   0   0      0.000
siesta: k-grid:    0   2   0      0.000
siesta: k-grid:    0   0   2      0.000

diag: Algorithm                                     = Expert
diag: Parallel over k                               =   T
diag: Use parallel 2D distribution                  =   T
diag: Parallel block-size                           = 1
diag: Parallel distribution                         =     2 x     2
diag: Used triangular part                          = Lower
diag: Absolute tolerance                            =  0.100E-15
diag: Orthogonalization factor                      =  0.100E-05
diag: Memory factor                                 =  1.0000

superc: Internal auxiliary supercell:     9 x     9 x     7  =     567
superc: Number of atoms, orbitals, and projectors:   3969  24381  35721


ts: **************************************************************
ts: Save H and S matrices                           =    F
ts: Save DM and EDM matrices                        =    F
ts: Only save the overlap matrix S                  =    F
ts: **************************************************************

************************ Begin: TS CHECKS AND WARNINGS ************************
************************ End: TS CHECKS AND WARNINGS **************************


                     ====================================
                        Single-point calculation
                     ====================================

outcoor: Atomic coordinates (Ang):                          
    0.00000000    0.00000000    0.00000000   2       1  C-gga
   -0.70288177    1.21742694    2.21991600   1       2  Li-gga
   -1.45518323    2.52045129    2.21991600   1       3  Li-gga
    1.45518323    2.52045129    2.21991600   1       4  Li-gga
    0.70288177    1.21742694    2.21991600   1       5  Li-gga
    1.40576354    0.00000000    2.21991600   1       6  Li-gga
    2.91036646    0.00000000    2.21991600   1       7  Li-gga

superc: Internal auxiliary supercell:     9 x     9 x     7  =     567
superc: Number of atoms, orbitals, and projectors:   3969  24381  35721

outcell: Unit cell vectors (Ang):
        4.316130    0.000000    0.000000
       -2.158065    3.737878    0.000000
        0.000000    0.000000    4.439832

outcell: Cell vector modules (Ang)   :    4.316130    4.316130    4.439832
outcell: Cell angles (23,13,12) (deg):     90.0000     90.0000    120.0000
outcell: Cell volume (Ang**3)        :     71.6286
<dSpData1D:S at geom step 0
  <sparsity:sparsity for geom step 0
    nrows_g=43 nrows=11 sparsity=28.2964 nnzs=52320, refcount: 7>
  <dData1D:(new from dSpData1D) n=52320, refcount: 1>
refcount: 1>
new_DM -- step:     1
Initializing Density Matrix...
DM filled with atomic data:
<dSpData2D:DM initialized from atoms
  <sparsity:sparsity for geom step 0
    nrows_g=43 nrows=11 sparsity=28.2964 nnzs=52320, refcount: 8>
  <dData2D:DM n=52320 m=1, refcount: 1>
refcount: 1>
No. of atoms with KB's overlaping orbs in proc 0. Max # of overlaps:     277     818
New grid distribution:   1
           1       1:   20    1:   10    1:   12
           2       1:   20    1:   10   13:   24
           3       1:   20   11:   20    1:   12
           4       1:   20   11:   20   13:   24

InitMesh: MESH =    40 x    40 x    48 =       76800
InitMesh: (bp) =    20 x    20 x    24 =        9600
InitMesh: Mesh cutoff (required, used) =   300.000   316.498 Ry
ExtMesh (bp) on 0 =   156 x   146 x   152 =     3461952
New grid distribution:   2
           1       1:   20    1:   10    1:   12
           2       1:   20    1:   10   13:   24
           3       1:   20   11:   20    1:   12
           4       1:   20   11:   20   13:   24
New grid distribution:   3
           1       1:   20    1:   10    1:   12
           2       1:   20    1:   10   13:   24
           3       1:   20   11:   20    1:   12
           4       1:   20   11:   20   13:   24
Setting up quadratic distribution...
ExtMesh (bp) on 0 =   156 x   146 x   152 =     3461952
PhiOnMesh: Number of (b)points on node 0 =                 2400
PhiOnMesh: nlist on node 0 =              1037406

stepf: Fermi-Dirac step function

siesta: Program's energy decomposition (eV):
siesta: Ebs     =      -148.201809
siesta: Eions   =       321.344870
siesta: Ena     =        92.069201
siesta: Ekin    =       110.083881
siesta: Enl     =        19.813761
siesta: Eso     =         0.000000
siesta: Edftu   =         0.000000
siesta: DEna    =         6.854110
siesta: DUscf   =         8.174475
siesta: DUext   =         0.000000
siesta: Exc     =       -94.526840
siesta: eta*DQ  =         0.000000
siesta: Emadel  =         0.000000
siesta: Emeta   =         0.000000
siesta: Emolmec =        -2.977013
siesta: Ekinion =         0.000000
siesta: Eharris =      -168.732828
siesta: Etot    =      -181.853294
siesta: FreeEng =      -181.877183

        iscf     Eharris(eV)        E_KS(eV)     FreeEng(eV)     dDmax    Ef(eV) dHmax(eV)
   scf:    1     -168.732828     -181.853294     -181.877183 22.935619-10.397178  7.929526
timer: Routine,Calls,Time,% = IterSCF        1      10.777  59.36
   scf:    2     -156.225319     -179.128732     -179.137577  8.164476-11.277309 11.257536
   scf:    3     -185.871126     -186.178279     -186.185231  3.930669-10.758528  0.728744
   scf:    4     -186.378163     -186.313031     -186.330723  1.177953-10.794261  0.197481
   scf:    5     -186.277971     -186.316113     -186.332424  0.920779-10.821932  0.349667
   scf:    6     -186.253808     -186.313767     -186.326971  1.240228-10.710175  0.213967
   scf:    7     -186.331570     -186.332688     -186.347550  0.675708-10.736705  0.092131
   scf:    8     -186.315955     -186.326703     -186.340432  0.313541-10.763439  0.267334
   scf:    9     -186.062852     -186.255940     -186.263525  1.548753-10.724563  0.661655
   scf:   10     -186.337784     -186.301831     -186.314182  0.441351-10.731212  0.391944
   scf:   11     -186.310500     -186.330672     -186.345162  1.007972-10.756929  0.141301
   scf:   12     -186.332189     -186.332911     -186.347960  0.246468-10.743139  0.004856
   scf:   13     -186.332618     -186.332782     -186.347852  0.024856-10.742482  0.021701
   scf:   14     -186.332657     -186.332915     -186.347924  0.094167-10.747556  0.021278
   scf:   15     -186.332632     -186.332878     -186.347963  0.065511-10.745468  0.013942
   scf:   16     -186.332975     -186.332946     -186.348006  0.028410-10.746482  0.001003
   scf:   17     -186.332945     -186.332945     -186.348006  0.001179-10.746550  0.000241
   scf:   18     -186.332948     -186.332947     -186.348006  0.000857-10.746583  0.000358

SCF Convergence by FreeE+DM+H criterion
|FreeE_i-FreeE_(i-1)| (eV) <     0.00100000
max |DM_out - DM_in|         :     0.0008571692
max |H_out - H_in|      (eV) :     0.0003583851
SCF cycle converged after 18 iterations

Using DM_out to compute the final energy and forces
No. of atoms with KB's overlaping orbs in proc 0. Max # of overlaps:     277     818

MM-Stress (kbar):       -1.37       -1.37       53.16        0.00        0.00        0.00

siesta: E_KS(eV) =             -186.3329

siesta: E_KS - E_eggbox =      -186.3329

siesta: Atomic forces (eV/Ang):
     1    0.000000    0.000000    0.000000
     2    0.333841   -0.578269   -0.000000
     3   -0.333841    0.578269   -0.000000
     4    0.333835    0.578220   -0.000000
     5   -0.333835   -0.578220   -0.000000
     6   -0.667716   -0.000019   -0.000000
     7    0.667716    0.000019   -0.000000
----------------------------------------
   Tot   -0.000000   -0.000000    0.000000
----------------------------------------
   Max    0.667716
   Res    0.356901    sqrt( Sum f_i^2 / 3N )
----------------------------------------
   Max    0.667716    constrained

Stress tensor Voigt[x,y,z,yz,xz,xy] (kbar):     -841.21     -841.23      464.08       -0.00       -0.00       -0.01
(Free)E + p*V (eV/cell)     -168.1917
Target enthalpy (eV/cell)     -186.3480

siesta: Eigenvalues (eV):
  ik is       eps
   1  1  -19.7731  -13.7521  -13.0877  -10.5556  -10.5554  -10.5271  -10.1697   -6.7965   -4.7320   -4.7320
          -2.2933   -1.3953   -1.3952   -0.8020   -0.8019    0.8483    0.8483    7.2390   10.1905   10.1906
   12.4943   12.4946   16.9392   16.9392   19.6407   25.0337   26.7892   30.2130   30.2131   30.3537
   30.3543   32.6253   32.6255   34.9169   34.9170   45.0034   46.8858   61.9741   81.5875   81.5877
   86.7980   86.7980  166.6005
   2  1  -19.6347  -13.7678  -12.9336  -12.0126  -10.9168  -10.7207   -9.3983   -8.6217   -4.8667   -3.8468
          -3.6211   -2.1688   -0.2387    1.3226    1.4134    1.7876    1.9267    2.0431    2.3223    8.4143
   11.2842   15.9045   18.0069   18.2956   18.7077   20.5220   21.3090   23.4194   24.9195   25.2000
   27.4288   27.9544   31.0612   32.3112   34.1776   38.7288   44.6078   50.0138   55.6583   58.2095
   59.6383   69.6370   71.0565
   3  1  -19.6347  -13.7678  -12.9336  -12.0126  -10.9168  -10.7207   -9.3983   -8.6217   -4.8667   -3.8468
          -3.6211   -2.1688   -0.2387    1.3226    1.4134    1.7876    1.9267    2.0431    2.3223    8.4143
   11.2842   15.9045   18.0069   18.2956   18.7077   20.5220   21.3090   23.4194   24.9195   25.2000
   27.4288   27.9544   31.0612   32.3112   34.1776   38.7288   44.6078   50.0138   55.6583   58.2095
   59.6383   69.6370   71.0565
   4  1  -19.6347  -13.7678  -12.9336  -12.0126  -10.9170  -10.7207   -9.3982   -8.6217   -4.8667   -3.8468
          -3.6212   -2.1688   -0.2386    1.3226    1.4135    1.7876    1.9266    2.0431    2.3224    8.4140
   11.2842   15.9045   18.0066   18.2956   18.7078   20.5221   21.3091   23.4194   24.9195   25.2000
   27.4292   27.9542   31.0611   32.3113   34.1776   38.7287   44.6078   50.0138   55.6583   58.2096
   59.6382   69.6370   71.0564
   5  1  -19.6479  -15.1598  -12.3442  -10.7111  -10.5118  -10.5116   -9.2861   -6.1094   -3.8465   -3.8465
          -3.7468   -3.7468   -2.7774   -2.7774    2.0266    2.0269    6.0124   11.5861   15.5653   17.4472
   17.4472   20.7214   20.7215   20.7727   20.7727   22.6203   22.6210   23.2719   23.2720   23.5484
   24.9666   30.1191   30.1192   36.5536   42.9575   47.6828   47.6830   47.7137   49.3214  121.7285
  121.7286  134.5294  134.5295
   6  1  -19.3717  -15.0156  -12.5144  -12.1753  -11.3052  -10.9127   -7.3157   -6.4761   -5.6356   -5.1704
          -1.6619   -1.6505   -1.5478   -1.0278    0.6743    1.2081    4.0127    7.2923   12.0044   12.8140
   12.9354   13.2049   13.6380   16.1583   18.4748   19.5772   20.2636   25.1189   25.6764   27.4309
   28.5700   32.2315   32.7156   36.0410   46.0337   51.0338   52.6784   54.8792   58.8662   60.0310
   60.7343  106.6698  117.8722
   7  1  -19.3717  -15.0156  -12.5144  -12.1753  -11.3052  -10.9127   -7.3157   -6.4761   -5.6356   -5.1704
          -1.6619   -1.6505   -1.5478   -1.0278    0.6743    1.2081    4.0127    7.2923   12.0044   12.8140
   12.9354   13.2049   13.6380   16.1583   18.4748   19.5772   20.2636   25.1189   25.6764   27.4309
   28.5700   32.2315   32.7156   36.0410   46.0337   51.0338   52.6784   54.8792   58.8662   60.0309
   60.7343  106.6698  117.8722
   8  1  -19.3717  -15.0156  -12.5143  -12.1753  -11.3052  -10.9129   -7.3157   -6.4761   -5.6354   -5.1704
          -1.6621   -1.6505   -1.5477   -1.0278    0.6743    1.2081    4.0127    7.2922   12.0043   12.8141
   12.9353   13.2051   13.6380   16.1583   18.4747   19.5775   20.2637   25.1189   25.6763   27.4309
   28.5703   32.2315   32.7150   36.0409   46.0337   51.0338   52.6785   54.8792   58.8663   60.0309
   60.7343  106.6698  117.8721
siesta: Fermi energy =     -10.746583 eV

siesta: Program's energy decomposition (eV):
siesta: Ebs     =      -139.039905
siesta: Eions   =       321.344870
siesta: Ena     =        92.069201
siesta: Ekin    =       128.698021
siesta: Enl     =         8.887618
siesta: Eso     =         0.000000
siesta: Edftu   =         0.000000
siesta: DEna    =         3.830682
siesta: DUscf   =         1.191381
siesta: DUext   =         0.000000
siesta: Exc     =       -96.687967
siesta: eta*DQ  =         0.000000
siesta: Emadel  =         0.000000
siesta: Emeta   =         0.000000
siesta: Emolmec =        -2.977013
siesta: Ekinion =         0.000000
siesta: Eharris =      -186.332948
siesta: Etot    =      -186.332947
siesta: FreeEng =      -186.348006

siesta: Final energy (eV):
siesta:  Band Struct. =    -139.039905
siesta:       Kinetic =     128.698021
siesta:       Hartree =      40.587424
siesta:       Edftu   =       0.000000
siesta:       Eso     =       0.000000
siesta:    Ext. field =       0.000000
siesta:   Exch.-corr. =     -96.687967
siesta:  Ion-electron =    -243.062745
siesta:       Ion-ion =     -12.890666
siesta:       Ekinion =       0.000000
siesta:         Total =    -186.332947
siesta:         Fermi =     -10.746583

siesta: Atomic forces (eV/Ang):
siesta:      1    0.000000    0.000000    0.000000
siesta:      2    0.333841   -0.578269   -0.000000
siesta:      3   -0.333841    0.578269   -0.000000
siesta:      4    0.333835    0.578220   -0.000000
siesta:      5   -0.333835   -0.578220   -0.000000
siesta:      6   -0.667716   -0.000019   -0.000000
siesta:      7    0.667716    0.000019   -0.000000
siesta: ----------------------------------------
siesta:    Tot   -0.000000   -0.000000    0.000000

siesta: Stress tensor (static) (eV/Ang**3):
siesta:    -0.525039   -0.000008    0.000000
siesta:    -0.000008   -0.525049    0.000000
siesta:    -0.000000   -0.000000    0.289653

siesta: Cell volume =         71.628557 Ang**3

siesta: Pressure (static):
siesta:                Solid            Molecule  Units
siesta:           0.00276070          0.00260795  Ry/Bohr**3
siesta:           0.25347817          0.23945270  eV/Ang**3
siesta:         406.12119568        383.64965978  kBar
(Free)E+ p_basis*V_orbitals  =        -166.914278
(Free)Eharris+ p_basis*V_orbitals  =        -166.914280

cite: Please see "LiC6_scf.bib" for an exhaustive BiBTeX file.
cite: Please clearly indicate Siesta version in published work: 4.1.5
cite: This calculation has made use of the following articles
cite: which are encouraged to be cited in a published work.
        Primary SIESTA paper
          DOI: www.doi.org/10.1088/0953-8984/14/11/302

>> End of run:   9-NOV-2022   4:15:38
Job completed
