Siesta Version  : 4.1.5
Architecture    : x86_64-unknown-linux-gnu--unknown
Compiler version: GNU Fortran (GCC) 11.3.0
Compiler flags  : mpif90 -g -O2 -fallow-argument-mismatch
PP flags        : -DMPI -DFC_HAVE_FLUSH -DFC_HAVE_ABORT
Libraries       :  -I/global/software/sl-7.x86_64/modules/intel/2020.4.304/mkl/include  /globall/software/sl-7.x86_64/modules/intel/2020.4.304/mkl/lib/intel64/libmkl_scalapack_lp64.a -Wl,--start-group /global/software/sl-7.x86_64/modules/intel/2020.4.304/mkl/lib/intel64/libmkl_intel_lp64.a /global/software/sl-7.x86_64/modules/intel/2020.4.304/mkl/lib/intel64/libmkl_sequential.a /global/software/sl-7.x86_64/modules/intel/2020.4.304/mkl/lib/intel64/libmkl_core.a /global/software/sl-7.x86_64/modules/intel/2020.4.304/mkl/lib/intel64/libmkl_blacs_openmpi_lp64.a -Wl,--end-group -lpthread -lm -ldl
PARALLEL version

* Running on 4 nodes in parallel
>> Start of run:   9-NOV-2022   3:04:34

                           ***********************       
                           *  WELCOME TO SIESTA  *       
                           ***********************       

reinit: Reading from standard input
reinit: Dumped input in INPUT_TMP.41369
************************** Dump of input data file ****************************
SystemName LiC6_scf
SystemLabel LiC6_scf
NumberOfAtoms   7
NumberOfSpecies 2
%block ChemicalSpeciesLabel
1  3   Li-gga
2  6   C-gga
%endblock ChemicalSpeciesLabel
PAO.BasisSize  DZP
PAO.EnergyShift  10 meV
%block PS.Lmax
C-gga   2
Li-gga  2
%endblock PS.Lmax
LatticeConstant 1.000000 Ang
%block LatticeVectors
	4.3161300000	0.0000000000	0.0000000000
	-2.1580650000	3.7378782260	0.0000000000
	0.0000000000	0.0000000000	2.5899020000
%endblock LatticeVectors
AtomicCoordinatesFormat Ang
%block AtomicCoordinatesAndAtomicSpecies
	0.00000000	0.00000000	0.00000000	2
	-0.70288177	1.21742694	1.29495100	1
	-1.45518323	2.52045129	1.29495100	1
	1.45518323	2.52045129	1.29495100	1
	0.70288177	1.21742694	1.29495100	1
	1.40576354	0.00000000	1.29495100	1
	2.91036646	0.00000000	1.29495100	1
%endblock AtomicCoordinatesAndAtomicSpecies
Kgrid_NoTRS  T
%block kgrid_MonkhorstPack
2       0       0       0.0
0       2       0       0.0
0       0       2       0.0
%endblock kgrid_MonkhorstPack
AtomCoorFormatOut Ang
BlockSize 1
#ProcessorY 12
Diag.ParallelOverK   T
Diag.DivideAndConquer F
MeshCutoff   300 Ry
SCF.FreeE.Tolerance 1E-3 eV
SCF.EDM.Tolerance   5E-3 eV
DM.Tolerance  1E-3
DM.Require.Energy.Convergence T
DM.NumberPulay 4
XC.Functional GGA
XC.Authors    PBE
UseSaveData        F
MD.TypeOfRun       CG
MD.VariableCell    F
MD.NumCGsteps      00
MD.MaxCGDispl      0.200000 Bohr
MD.MaxStressTol    1.000000 GPa
MD.MaxForceTol     0.010000 eV/Ang
WriteMDHistory T
WriteCoorStep T
WriteForces T
WriteCoorStep    T
WriteEigenValues T
WriteDM    F
MM.UnitsDistance Ang  # what this program prints out DO NOT CHANGE
MM.UnitsEnergy    eV  # what this program prints out DO NOT CHANGE
MM.Grimme.S6     0.75 # Grimme-paper for PBE (correct for your functional)
MM.Grimme.D     20.   # Grimme-paper (correct for your functional)
%block MM.Potentials
  1   1 Grimme     16.69      1.650 # Li, 10.1002/jcc.20495
  1   2 Grimme     17.40      2.277 # Li / C
  2   2 Grimme     18.14      2.904 # C, 10.1002/jcc.20495
%endblock MM.Potentials
#%block ProjectedDensityOfStates
# -200.0  120.0  0.4  12800  eV
#%endblock ProjectedDensityOfStates
************************** End of input data file *****************************

reinit: -----------------------------------------------------------------------
reinit: System Name: LiC6_scf
reinit: -----------------------------------------------------------------------
reinit: System Label: LiC6_scf
reinit: -----------------------------------------------------------------------
Reading two-body potentials
Grimme - two-body potential between 1 and 1
Grimme - two-body potential between 1 and 2
Grimme - two-body potential between 2 and 2

initatom: Reading input for the pseudopotentials and atomic orbitals ----------
Species number:   1 Atomic number:    3 Label: Li-gga
Species number:   2 Atomic number:    6 Label: C-gga

Ground state valence configuration:   2s01
Reading pseudopotential information in formatted form from Li-gga.psf

Valence configuration for pseudopotential generation:
2s( 1.00) rc: 2.28
2p( 0.00) rc: 2.28
3d( 0.00) rc: 2.59
4f( 0.00) rc: 2.59
Ground state valence configuration:   2s02  2p02
Reading pseudopotential information in formatted form from C-gga.psf

Valence configuration for pseudopotential generation:
2s( 2.00) rc: 1.56
2p( 2.00) rc: 1.56
3d( 0.00) rc: 1.56
4f( 0.00) rc: 1.56
relmxkb: Read Max KB Ang. Momentum=    2 for species C-gga
relmxkb: Read Max KB Ang. Momentum=    2 for species Li-gga

<basis_specs>
===============================================================================
Li-gga               Z=   3    Mass=  6.9400        Charge= 0.17977+309
Lmxo=0 Lmxkb= 2    BasisType=split      Semic=F
L=0  Nsemic=0  Cnfigmx=2
          i=1  nzeta=2  polorb=1  (2s)
            splnorm:   0.15000    
               vcte:    0.0000    
               rinn:    0.0000    
               qcoe:    0.0000    
               qyuk:    0.0000    
               qwid:   0.10000E-01
                rcs:    0.0000      0.0000    
            lambdas:    1.0000      1.0000    
-------------------------------------------------------------------------------
L=0  Nkbl=1  erefs: 0.17977+309
L=1  Nkbl=1  erefs: 0.17977+309
L=2  Nkbl=1  erefs: 0.17977+309
===============================================================================
</basis_specs>

atom: Called for Li-gga                (Z =   3)

read_vps: Pseudopotential generation method:
read_vps: ATM 3.2.2 Troullier-Martins                       
Valence charge for ps generation:    1.00000

read_vps: Pseudopotential includes a core correction:
read_vps: Pseudo-core for xc-correction

xc_check: Exchange-correlation functional:
xc_check: GGA Perdew, Burke & Ernzerhof 1996
V l=0 = -2*Zval/r beyond r=  2.2278
V l=1 = -2*Zval/r beyond r=  2.2278
V l=2 = -2*Zval/r beyond r=  2.5245
All V_l potentials equal beyond r=  2.4622
This should be close to max(r_c) in ps generation
All pots = -2*Zval/r beyond r=  2.5245

VLOCAL1: 99.0% of the norm of Vloc inside      7.160 Ry
VLOCAL1: 99.9% of the norm of Vloc inside     16.318 Ry
atom: Maximum radius for 4*pi*r*r*local-pseudopot. charge    2.86079
atom: Maximum radius for r*vlocal+2*Zval:    2.43160
GHOST: No ghost state for L =  0
GHOST: No ghost state for L =  1
GHOST: No ghost state for L =  2

KBgen: Kleinman-Bylander projectors: 
   l= 0   rc=  2.654023   el= -0.211234   Ekb=  1.742119   kbcos=  0.228463
   l= 1   rc=  2.721230   el= -0.080095   Ekb= -1.122375   kbcos= -0.147941
   l= 2   rc=  2.825246   el=  0.002001   Ekb= -0.207076   kbcos= -0.031965

KBgen: Total number of Kleinman-Bylander projectors:    9
atom: -------------------------------------------------------------------------

atom: SANKEY-TYPE ORBITALS:
atom: Selected multiple-zeta basis: split     

SPLIT: Orbitals with angular momentum L= 0

SPLIT: Basis orbitals for state 2s

SPLIT: PAO cut-off radius determined from an
SPLIT: energy shift=  0.000735 Ry

   izeta = 1
                 lambda =    1.000000
                     rc =   11.897381
                 energy =   -0.210580
                kinetic =    0.143382
    potential(screened) =   -0.353962
       potential(ionic) =   -0.533453

   izeta = 2
                 rmatch =    8.489163
              splitnorm =    0.150000
                 energy =   -0.186081
                kinetic =    0.225882
    potential(screened) =   -0.411964
       potential(ionic) =   -0.593024

POLgen: Perturbative polarization orbital with L=  1

POLgen: Polarization orbital for state 2s

   izeta = 1
                     rc =   11.897381
                 energy =   -0.027011
                kinetic =    0.282985
    potential(screened) =   -0.309997
       potential(ionic) =   -0.490997
atom: Total number of Sankey-type orbitals:  5

atm_pop: Valence configuration (for local Pseudopot. screening):
 2s( 1.00)                                                            
Vna: chval, zval:    1.00000   1.00000

Vna:  Cut-off radius for the neutral-atom potential:  11.897381
comcore: Pseudo-core radius Rcore=  3.450946

atom: _________________________________________________________________________

<basis_specs>
===============================================================================
C-gga                Z=   6    Mass=  12.010        Charge= 0.17977+309
Lmxo=1 Lmxkb= 2    BasisType=split      Semic=F
L=0  Nsemic=0  Cnfigmx=2
          i=1  nzeta=2  polorb=0  (2s)
            splnorm:   0.15000    
               vcte:    0.0000    
               rinn:    0.0000    
               qcoe:    0.0000    
               qyuk:    0.0000    
               qwid:   0.10000E-01
                rcs:    0.0000      0.0000    
            lambdas:    1.0000      1.0000    
L=1  Nsemic=0  Cnfigmx=2
          i=1  nzeta=2  polorb=1  (2p)
            splnorm:   0.15000    
               vcte:    0.0000    
               rinn:    0.0000    
               qcoe:    0.0000    
               qyuk:    0.0000    
               qwid:   0.10000E-01
                rcs:    0.0000      0.0000    
            lambdas:    1.0000      1.0000    
-------------------------------------------------------------------------------
L=0  Nkbl=1  erefs: 0.17977+309
L=1  Nkbl=1  erefs: 0.17977+309
L=2  Nkbl=1  erefs: 0.17977+309
===============================================================================
</basis_specs>

atom: Called for C-gga                 (Z =   6)

read_vps: Pseudopotential generation method:
read_vps: ATM 3.2.2 Troullier-Martins                       
Valence charge for ps generation:    4.00000

xc_check: Exchange-correlation functional:
xc_check: GGA Perdew, Burke & Ernzerhof 1996
V l=0 = -2*Zval/r beyond r=  1.5227
V l=1 = -2*Zval/r beyond r=  1.5227
V l=2 = -2*Zval/r beyond r=  1.5227
All V_l potentials equal beyond r=  1.4851
This should be close to max(r_c) in ps generation
All pots = -2*Zval/r beyond r=  1.5227

VLOCAL1: 99.0% of the norm of Vloc inside     19.682 Ry
VLOCAL1: 99.9% of the norm of Vloc inside     44.856 Ry
atom: Maximum radius for 4*pi*r*r*local-pseudopot. charge    1.79142
atom: Maximum radius for r*vlocal+2*Zval:    1.54183
GHOST: No ghost state for L =  0
GHOST: No ghost state for L =  1
GHOST: No ghost state for L =  2

KBgen: Kleinman-Bylander projectors: 
   l= 0   rc=  1.661951   el= -1.010689   Ekb=  5.289847   kbcos=  0.316429
   l= 1   rc=  1.661951   el= -0.388490   Ekb= -4.102504   kbcos= -0.351025
   l= 2   rc=  1.747182   el=  0.001971   Ekb= -1.006005   kbcos= -0.008530

KBgen: Total number of Kleinman-Bylander projectors:    9
atom: -------------------------------------------------------------------------

atom: SANKEY-TYPE ORBITALS:
atom: Selected multiple-zeta basis: split     

SPLIT: Orbitals with angular momentum L= 0

SPLIT: Basis orbitals for state 2s

SPLIT: PAO cut-off radius determined from an
SPLIT: energy shift=  0.000735 Ry

   izeta = 1
                 lambda =    1.000000
                     rc =    5.948690
                 energy =   -1.010099
                kinetic =    0.827121
    potential(screened) =   -1.837220
       potential(ionic) =   -5.392783

   izeta = 2
                 rmatch =    3.518811
              splitnorm =    0.150000
                 energy =   -0.877891
                kinetic =    1.289227
    potential(screened) =   -2.167118
       potential(ionic) =   -5.982073

SPLIT: Orbitals with angular momentum L= 1

SPLIT: Basis orbitals for state 2p

SPLIT: PAO cut-off radius determined from an
SPLIT: energy shift=  0.000735 Ry

   izeta = 1
                 lambda =    1.000000
                     rc =    7.638387
                 energy =   -0.387843
                kinetic =    2.314739
    potential(screened) =   -2.702582
       potential(ionic) =   -6.092371

   izeta = 2
                 rmatch =    3.840617
              splitnorm =    0.150000
                 energy =   -0.270479
                kinetic =    3.438347
    potential(screened) =   -3.708826
       potential(ionic) =   -7.497707

POLgen: Perturbative polarization orbital with L=  2

POLgen: Polarization orbital for state 2p

   izeta = 1
                     rc =    7.638387
                 energy =    0.921402
                kinetic =    1.955040
    potential(screened) =   -1.033637
       potential(ionic) =   -3.679558
atom: Total number of Sankey-type orbitals: 13

atm_pop: Valence configuration (for local Pseudopot. screening):
 2s( 2.00)                                                            
 2p( 2.00)                                                            
Vna: chval, zval:    4.00000   4.00000

Vna:  Cut-off radius for the neutral-atom potential:   7.638387

atom: _________________________________________________________________________

prinput: Basis input ----------------------------------------------------------

PAO.BasisType split     

%block ChemicalSpeciesLabel
    1    3 Li-gga                  # Species index, atomic number, species label
    2    6 C-gga                   # Species index, atomic number, species label
%endblock ChemicalSpeciesLabel

%block PAO.Basis                 # Define Basis set
Li-gga                1                    # Species label, number of l-shells
 n=2   0   2 P   1                   # n, l, Nzeta, Polarization, NzetaPol
  11.897      8.489   
   1.000      1.000   
C-gga                 2                    # Species label, number of l-shells
 n=2   0   2                         # n, l, Nzeta 
   5.949      3.519   
   1.000      1.000   
 n=2   1   2 P   1                   # n, l, Nzeta, Polarization, NzetaPol
   7.638      3.841   
   1.000      1.000   
%endblock PAO.Basis

prinput: ----------------------------------------------------------------------

coor:   Atomic-coordinates input format  =     Cartesian coordinates
coor:                                          (in Angstroms)

siesta: Atomic coordinates (Bohr) and species
siesta:      0.00000   0.00000   0.00000  2        1
siesta:     -1.32825   2.30060   2.44710  1        2
siesta:     -2.74990   4.76296   2.44710  1        3
siesta:      2.74990   4.76296   2.44710  1        4
siesta:      1.32825   2.30060   2.44710  1        5
siesta:      2.65651   0.00000   2.44710  1        6
siesta:      5.49980   0.00000   2.44710  1        7

siesta: System type = bulk      

initatomlists: Number of atoms, orbitals, and projectors:      7    43    63

siesta: ******************** Simulation parameters ****************************
siesta:
siesta: The following are some of the parameters of the simulation.
siesta: A complete list of the parameters used, including default values,
siesta: can be found in file out.fdf
siesta:
redata: Spin configuration                          = none
redata: Number of spin components                   = 1
redata: Time-Reversal Symmetry                      = T
redata: Spin spiral                                 = F
redata: Long output                                 =   F
redata: Number of Atomic Species                    =        2
redata: Charge density info will appear in .RHO file
redata: Write Mulliken Pop.                         = NO
redata: Matel table size (NRTAB)                    =     1024
redata: Mesh Cutoff                                 =   300.0000 Ry
redata: Net charge of the system                    =     0.0000 |e|
redata: Min. number of SCF Iter                     =        0
redata: Max. number of SCF Iter                     =     1000
redata: SCF convergence failure will abort job
redata: SCF mix quantity                            = Hamiltonian
redata: Mix DM or H after convergence               =   F
redata: Recompute H after scf cycle                 =   F
redata: Mix DM in first SCF step                    =   T
redata: Write Pulay info on disk                    =   F
redata: New DM Occupancy tolerance                  = 0.000000000001
redata: No kicks to SCF
redata: DM Mixing Weight for Kicks                  =     0.5000
redata: Require Harris convergence for SCF          =   F
redata: Harris energy tolerance for SCF             =     0.000100 eV
redata: Require DM convergence for SCF              =   T
redata: DM tolerance for SCF                        =     0.001000
redata: Require EDM convergence for SCF             =   F
redata: EDM tolerance for SCF                       =     0.005000 eV
redata: Require H convergence for SCF               =   T
redata: Hamiltonian tolerance for SCF               =     0.001000 eV
redata: Require (free) Energy convergence for SCF   =   T
redata: (free) Energy tolerance for SCF             =     0.001000 eV
redata: Using Saved Data (generic)                  =   F
redata: Use continuation files for DM               =   F
redata: Neglect nonoverlap interactions             =   F
redata: Method of Calculation                       = Diagonalization
redata: Electronic Temperature                      =   299.9869 K
redata: Fix the spin of the system                  =   F
redata: Dynamics option                             = Single-point calculation
mix.SCF: Pulay mixing                            = Pulay
mix.SCF:    Variant                              = stable
mix.SCF:    History steps                        = 4
mix.SCF:    Linear mixing weight                 =     0.250000
mix.SCF:    Mixing weight                        =     0.250000
mix.SCF:    SVD condition                        = 0.1000E-07
redata: ***********************************************************************

%block SCF.Mixers
  Pulay
%endblock SCF.Mixers

%block SCF.Mixer.Pulay
  # Mixing method
  method pulay
  variant stable

  # Mixing options
  weight 0.2500
  weight.linear 0.2500
  history 4
%endblock SCF.Mixer.Pulay

DM_history_depth set to one: no extrapolation allowed by default for geometry relaxation
Size of DM history Fstack: 1
Total number of electrons:    10.000000
Total ionic charge:    10.000000

* ProcessorY, Blocksize:    2   1


* Orbital distribution balance (max,min):    11    10

k-point displ. along   1 input, could be:     0.00    0.50
k-point displ. along   2 input, could be:     0.00    0.50
k-point displ. along   3 input, could be:     0.00    0.50
 Kpoints in:            8 . Kpoints trimmed:            8

siesta: k-grid: Number of k-points =     8
siesta: k-grid: Cutoff (effective) =     2.590 Ang
siesta: k-grid: Supercell and displacements
siesta: k-grid:    2   0   0      0.000
siesta: k-grid:    0   2   0      0.000
siesta: k-grid:    0   0   2      0.000

diag: Algorithm                                     = Expert
diag: Parallel over k                               =   T
diag: Use parallel 2D distribution                  =   T
diag: Parallel block-size                           = 1
diag: Parallel distribution                         =     2 x     2
diag: Used triangular part                          = Lower
diag: Absolute tolerance                            =  0.100E-15
diag: Orthogonalization factor                      =  0.100E-05
diag: Memory factor                                 =  1.0000

superc: Internal auxiliary supercell:     9 x     9 x    13  =    1053
superc: Number of atoms, orbitals, and projectors:   7371  45279  66339


ts: **************************************************************
ts: Save H and S matrices                           =    F
ts: Save DM and EDM matrices                        =    F
ts: Only save the overlap matrix S                  =    F
ts: **************************************************************

************************ Begin: TS CHECKS AND WARNINGS ************************
************************ End: TS CHECKS AND WARNINGS **************************


                     ====================================
                        Single-point calculation
                     ====================================

outcoor: Atomic coordinates (Ang):                          
    0.00000000    0.00000000    0.00000000   2       1  C-gga
   -0.70288177    1.21742694    1.29495100   1       2  Li-gga
   -1.45518323    2.52045129    1.29495100   1       3  Li-gga
    1.45518323    2.52045129    1.29495100   1       4  Li-gga
    0.70288177    1.21742694    1.29495100   1       5  Li-gga
    1.40576354    0.00000000    1.29495100   1       6  Li-gga
    2.91036646    0.00000000    1.29495100   1       7  Li-gga

superc: Internal auxiliary supercell:     9 x     9 x    13  =    1053
superc: Number of atoms, orbitals, and projectors:   7371  45279  66339

outcell: Unit cell vectors (Ang):
        4.316130    0.000000    0.000000
       -2.158065    3.737878    0.000000
        0.000000    0.000000    2.589902

outcell: Cell vector modules (Ang)   :    4.316130    4.316130    2.589902
outcell: Cell angles (23,13,12) (deg):     90.0000     90.0000    120.0000
outcell: Cell volume (Ang**3)        :     41.7833
<dSpData1D:S at geom step 0
  <sparsity:sparsity for geom step 0
    nrows_g=43 nrows=11 sparsity=55.5306 nnzs=102676, refcount: 7>
  <dData1D:(new from dSpData1D) n=102676, refcount: 1>
refcount: 1>
new_DM -- step:     1
Initializing Density Matrix...
DM filled with atomic data:
<dSpData2D:DM initialized from atoms
  <sparsity:sparsity for geom step 0
    nrows_g=43 nrows=11 sparsity=55.5306 nnzs=102676, refcount: 8>
  <dData2D:DM n=102676 m=1, refcount: 1>
refcount: 1>
No. of atoms with KB's overlaping orbs in proc 0. Max # of overlaps:     475    1426
New grid distribution:   1
           1       1:   20    1:   10    1:    8
           2       1:   20    1:   10    9:   15
           3       1:   20   11:   20    1:    8
           4       1:   20   11:   20    9:   15

InitMesh: MESH =    40 x    40 x    30 =       48000
InitMesh: (bp) =    20 x    20 x    15 =        6000
InitMesh: Mesh cutoff (required, used) =   300.000   316.498 Ry
ExtMesh (bp) on 0 =   156 x   146 x   156 =     3553056
New grid distribution:   2
           1       1:   10    1:   10    1:   15
           2      11:   20    1:   10    1:   15
           3       1:   10   11:   20    1:   15
           4      11:   20   11:   20    1:   15
New grid distribution:   3
           1       1:   10    1:   10    1:   15
           2      11:   20    1:   10    1:   15
           3       1:   10   11:   20    1:   15
           4      11:   20   11:   20    1:   15
Setting up quadratic distribution...
ExtMesh (bp) on 0 =   146 x   146 x   163 =     3474508
PhiOnMesh: Number of (b)points on node 0 =                 1500
PhiOnMesh: nlist on node 0 =              1108008

stepf: Fermi-Dirac step function

siesta: Program's energy decomposition (eV):
siesta: Ebs     =      -135.510137
siesta: Eions   =       321.344870
siesta: Ena     =        73.867761
siesta: Ekin    =       221.834236
siesta: Enl     =       -18.354393
siesta: Eso     =         0.000000
siesta: Edftu   =         0.000000
siesta: DEna    =       -35.107422
siesta: DUscf   =        21.659336
siesta: DUext   =         0.000000
siesta: Exc     =      -121.737586
siesta: eta*DQ  =         0.000000
siesta: Emadel  =         0.000000
siesta: Emeta   =         0.000000
siesta: Emolmec =        -3.791583
siesta: Ekinion =         0.000000
siesta: Eharris =      -146.818234
siesta: Etot    =      -182.974522
siesta: FreeEng =      -182.974525

        iscf     Eharris(eV)        E_KS(eV)     FreeEng(eV)     dDmax    Ef(eV) dHmax(eV)
   scf:    1     -146.818234     -182.974522     -182.974525 10.855908-16.529899 17.454754
timer: Routine,Calls,Time,% = IterSCF        1      21.255  61.13
   scf:    2     -199.648765     -193.299977     -193.312320  3.631667-15.453090  4.854921
   scf:    3     -187.373618     -192.771340     -192.788777  8.500494-14.890819  5.802727
   scf:    4     -194.969480     -194.135914     -194.156123  2.558998-14.748595  2.231925
   scf:    5     -191.565917     -193.693585     -193.705927  6.176083-15.080625  3.664269
   scf:    6     -192.310890     -194.001132     -194.023747  6.838593-14.844743  2.732921
   scf:    7     -194.512752     -194.335756     -194.362073  1.598399-14.823193  0.864373
   scf:    8     -194.330179     -194.332991     -194.359220  0.035118-14.822421  0.893740
   scf:    9     -194.108292     -194.234939     -194.257566  0.890013-14.850242  1.575976
   scf:   10     -193.342791     -194.148896     -194.171385  4.675417-14.874585  1.986499
   scf:   11     -194.290563     -194.369930     -194.397354  3.139543-14.843962  0.318247
   scf:   12     -194.375365     -194.375262     -194.402953  0.394578-14.853132  0.007523
   scf:   13     -194.375236     -194.375253     -194.402939  0.013360-14.853841  0.017307
   scf:   14     -194.375242     -194.375259     -194.402955  0.032150-14.853893  0.002340
   scf:   15     -194.375260     -194.375260     -194.402956  0.003253-14.854477  0.000404
   scf:   16     -194.375260     -194.375260     -194.402956  0.000655-14.854491  0.000243

SCF Convergence by FreeE+DM+H criterion
|FreeE_i-FreeE_(i-1)| (eV) <     0.00100000
max |DM_out - DM_in|         :     0.0006549049
max |H_out - H_in|      (eV) :     0.0002430474
SCF cycle converged after 16 iterations

Using DM_out to compute the final energy and forces
No. of atoms with KB's overlaping orbs in proc 0. Max # of overlaps:     475    1426

MM-Stress (kbar):       24.14       24.14      163.42        0.00       -0.00       -0.00

siesta: E_KS(eV) =             -194.3753

siesta: E_KS - E_eggbox =      -194.3753

siesta: Atomic forces (eV/Ang):
     1   -0.000000   -0.000000    0.000000
     2   -0.730255    1.264789   -0.000000
     3    0.730256   -1.264789   -0.000000
     4   -0.730211   -1.264762   -0.000000
     5    0.730210    1.264763   -0.000000
     6    1.460468   -0.000026   -0.000000
     7   -1.460468    0.000025   -0.000000
----------------------------------------
   Tot    0.000000   -0.000000   -0.000000
----------------------------------------
   Max    1.460468
   Res    0.780645    sqrt( Sum f_i^2 / 3N )
----------------------------------------
   Max    1.460468    constrained

Stress tensor Voigt[x,y,z,yz,xz,xy] (kbar):    -1580.54    -1580.58      257.56       -0.00       -0.00       -0.03
(Free)E + p*V (eV/cell)     -169.1625
Target enthalpy (eV/cell)     -194.4030

siesta: Eigenvalues (eV):
  ik is       eps
   1  1  -27.6077  -20.6253  -18.0401  -18.0399  -17.8761  -15.1369  -12.2554  -12.2554   -3.5238   -0.6291
          -0.4255   -0.4250    4.4920    4.4920    5.6989    5.6990    7.1382    9.4961    9.4961   16.4733
   17.5467   18.5288   18.5289   18.7473   18.7473   30.9226   30.9229   31.8647   31.8661   37.7378
   38.6233   42.4189   43.9121   45.3321   46.9228   46.9231   55.0736   55.0749   94.2455  143.3730
  143.3739  164.3096  164.3103
   2  1  -27.4713  -21.0442  -19.1529  -18.2952  -15.9020  -14.8260   -9.9141   -9.4808   -6.4881   -4.8302
          -3.4383   -0.7197    0.9698    2.6737    3.2291    5.4034    5.9619   10.5780   10.6975   15.0319
   17.8776   18.4798   18.5147   19.9863   23.1905   24.9867   26.3639   27.2971   35.5120   35.7243
   39.5660   43.2668   47.0990   48.7726   49.2173   57.6897   58.5390   72.9575   83.8809   87.4869
   91.2513   95.4139  108.5125
   3  1  -27.4713  -21.0442  -19.1529  -18.2952  -15.9020  -14.8260   -9.9141   -9.4808   -6.4881   -4.8302
          -3.4383   -0.7197    0.9698    2.6737    3.2291    5.4034    5.9619   10.5780   10.6975   15.0319
   17.8776   18.4798   18.5147   19.9863   23.1905   24.9867   26.3639   27.2971   35.5120   35.7243
   39.5660   43.2668   47.0990   48.7726   49.2173   57.6896   58.5390   72.9575   83.8809   87.4869
   91.2513   95.4139  108.5125
   4  1  -27.4713  -21.0442  -19.1529  -18.2954  -15.9019  -14.8260   -9.9141   -9.4808   -6.4881   -4.8301
          -3.4383   -0.7197    0.9698    2.6737    3.2286    5.4039    5.9619   10.5780   10.6980   15.0318
   17.8776   18.4793   18.5147   19.9865   23.1906   24.9863   26.3636   27.2969   35.5127   35.7242
   39.5660   43.2668   47.0991   48.7726   49.2174   57.6891   58.5391   72.9575   83.8805   87.4867
   91.2514   95.4137  108.5123
   5  1  -26.4990  -21.8631  -18.0809  -18.0807  -15.4484  -14.8111  -14.7846  -11.1461  -11.1461   -4.9636
          -4.9636   -4.9172   -4.9172    0.2769    0.2776    5.1229   10.6129   20.5249   20.5260   21.2005
   23.2231   23.2232   25.3968   27.6248   27.6248   29.6881   29.6882   30.6450   32.7666   32.7667
   39.4612   40.5072   40.5081   40.8087   42.8690   47.2681   86.2350   86.2352   87.7083   92.2117
   92.2118   92.7183   92.7186
   6  1  -25.8415  -21.8477  -21.0007  -18.7651  -14.8378  -14.5089  -14.4149   -9.8654   -6.1453   -5.3883
          -2.6490   -2.4743   -2.1926   -1.1589   -0.5296   -0.2325    0.5184    4.9267    7.6820   15.5363
   17.1262   18.5017   20.6384   23.7025   28.4677   30.7079   30.8267   34.0807   37.1063   41.9778
   47.1863   47.7562   49.0823   49.9219   59.2754   63.0279   65.8984   75.5570   79.8021   82.1161
   87.6295  108.9223  146.6436
   7  1  -25.8415  -21.8477  -21.0007  -18.7651  -14.8378  -14.5089  -14.4149   -9.8654   -6.1453   -5.3883
          -2.6490   -2.4743   -2.1926   -1.1589   -0.5296   -0.2325    0.5184    4.9267    7.6820   15.5363
   17.1262   18.5016   20.6384   23.7025   28.4677   30.7079   30.8267   34.0807   37.1063   41.9778
   47.1863   47.7567   49.0823   49.9219   59.2754   63.0280   65.8984   75.5570   79.8021   82.1161
   87.6295  108.9222  146.6436
   8  1  -25.8415  -21.8477  -21.0007  -18.7652  -14.8378  -14.5089  -14.4149   -9.8650   -6.1456   -5.3883
          -2.6490   -2.4743   -2.1926   -1.1589   -0.5296   -0.2325    0.5183    4.9267    7.6818   15.5363
   17.1269   18.5018   20.6383   23.7025   28.4678   30.7078   30.8268   34.0807   37.1050   41.9780
   47.1863   47.7558   49.0823   49.9220   59.2756   63.0277   65.8985   75.5572   79.8019   82.1165
   87.6295  108.9218  146.6438
siesta: Fermi energy =     -14.854491 eV

siesta: Program's energy decomposition (eV):
siesta: Ebs     =      -203.729222
siesta: Eions   =       321.344870
siesta: Ena     =        73.867761
siesta: Ekin    =       170.631526
siesta: Enl     =        -2.681064
siesta: Eso     =         0.000000
siesta: Edftu   =         0.000000
siesta: DEna    =        -2.863008
siesta: DUscf   =         2.818892
siesta: DUext   =         0.000000
siesta: Exc     =      -111.012914
siesta: eta*DQ  =         0.000000
siesta: Emadel  =         0.000000
siesta: Emeta   =         0.000000
siesta: Emolmec =        -3.791583
siesta: Ekinion =         0.000000
siesta: Eharris =      -194.375260
siesta: Etot    =      -194.375260
siesta: FreeEng =      -194.402956

siesta: Final energy (eV):
siesta:  Band Struct. =    -203.729222
siesta:       Kinetic =     170.631526
siesta:       Hartree =      64.380038
siesta:       Edftu   =       0.000000
siesta:       Eso     =       0.000000
siesta:    Ext. field =       0.000000
siesta:   Exch.-corr. =    -111.012914
siesta:  Ion-electron =    -378.728016
siesta:       Ion-ion =      64.145690
siesta:       Ekinion =       0.000000
siesta:         Total =    -194.375260
siesta:         Fermi =     -14.854491

siesta: Atomic forces (eV/Ang):
siesta:      1   -0.000000   -0.000000    0.000000
siesta:      2   -0.730255    1.264789   -0.000000
siesta:      3    0.730256   -1.264789   -0.000000
siesta:      4   -0.730211   -1.264762   -0.000000
siesta:      5    0.730210    1.264763   -0.000000
siesta:      6    1.460468   -0.000026   -0.000000
siesta:      7   -1.460468    0.000025   -0.000000
siesta: ----------------------------------------
siesta:    Tot    0.000000   -0.000000   -0.000000

siesta: Stress tensor (static) (eV/Ang**3):
siesta:    -0.986485   -0.000019    0.000000
siesta:    -0.000019   -0.986507   -0.000000
siesta:    -0.000000   -0.000000    0.160754

siesta: Cell volume =         41.783325 Ang**3

siesta: Pressure (static):
siesta:                Solid            Molecule  Units
siesta:           0.00657920          0.00715197  Ry/Bohr**3
siesta:           0.60407954          0.65666992  eV/Ang**3
siesta:         967.85259315       1052.11256944  kBar
(Free)E+ p_basis*V_orbitals  =        -174.969228
(Free)Eharris+ p_basis*V_orbitals  =        -174.969228

cite: Please see "LiC6_scf.bib" for an exhaustive BiBTeX file.
cite: Please clearly indicate Siesta version in published work: 4.1.5
cite: This calculation has made use of the following articles
cite: which are encouraged to be cited in a published work.
        Primary SIESTA paper
          DOI: www.doi.org/10.1088/0953-8984/14/11/302

>> End of run:   9-NOV-2022   3:09:10
Job completed
