Siesta Version  : 4.1.5
Architecture    : x86_64-unknown-linux-gnu--unknown
Compiler version: GNU Fortran (GCC) 11.3.0
Compiler flags  : mpif90 -g -O2 -fallow-argument-mismatch
PP flags        : -DMPI -DFC_HAVE_FLUSH -DFC_HAVE_ABORT
Libraries       :  -I/global/software/sl-7.x86_64/modules/intel/2020.4.304/mkl/include  /globall/software/sl-7.x86_64/modules/intel/2020.4.304/mkl/lib/intel64/libmkl_scalapack_lp64.a -Wl,--start-group /global/software/sl-7.x86_64/modules/intel/2020.4.304/mkl/lib/intel64/libmkl_intel_lp64.a /global/software/sl-7.x86_64/modules/intel/2020.4.304/mkl/lib/intel64/libmkl_sequential.a /global/software/sl-7.x86_64/modules/intel/2020.4.304/mkl/lib/intel64/libmkl_core.a /global/software/sl-7.x86_64/modules/intel/2020.4.304/mkl/lib/intel64/libmkl_blacs_openmpi_lp64.a -Wl,--end-group -lpthread -lm -ldl
PARALLEL version

* Running on 4 nodes in parallel
>> Start of run:   9-NOV-2022   3:45:18

                           ***********************       
                           *  WELCOME TO SIESTA  *       
                           ***********************       

reinit: Reading from standard input
reinit: Dumped input in INPUT_TMP.85374
************************** Dump of input data file ****************************
SystemName LiC6_scf
SystemLabel LiC6_scf
NumberOfAtoms   7
NumberOfSpecies 2
%block ChemicalSpeciesLabel
1  3   Li-gga
2  6   C-gga
%endblock ChemicalSpeciesLabel
PAO.BasisSize  DZP
PAO.EnergyShift  10 meV
%block PS.Lmax
C-gga   2
Li-gga  2
%endblock PS.Lmax
LatticeConstant 1.000000 Ang
%block LatticeVectors
	4.3161300000	0.0000000000	0.0000000000
	-2.1580650000	3.7378782260	0.0000000000
	0.0000000000	0.0000000000	3.9958488000
%endblock LatticeVectors
AtomicCoordinatesFormat Ang
%block AtomicCoordinatesAndAtomicSpecies
	0.00000000	0.00000000	0.00000000	2
	-0.70288177	1.21742694	1.99792440	1
	-1.45518323	2.52045129	1.99792440	1
	1.45518323	2.52045129	1.99792440	1
	0.70288177	1.21742694	1.99792440	1
	1.40576354	0.00000000	1.99792440	1
	2.91036646	0.00000000	1.99792440	1
%endblock AtomicCoordinatesAndAtomicSpecies
Kgrid_NoTRS  T
%block kgrid_MonkhorstPack
2       0       0       0.0
0       2       0       0.0
0       0       2       0.0
%endblock kgrid_MonkhorstPack
AtomCoorFormatOut Ang
BlockSize 1
#ProcessorY 12
Diag.ParallelOverK   T
Diag.DivideAndConquer F
MeshCutoff   300 Ry
SCF.FreeE.Tolerance 1E-3 eV
SCF.EDM.Tolerance   5E-3 eV
DM.Tolerance  1E-3
DM.Require.Energy.Convergence T
DM.NumberPulay 4
XC.Functional GGA
XC.Authors    PBE
UseSaveData        F
MD.TypeOfRun       CG
MD.VariableCell    F
MD.NumCGsteps      00
MD.MaxCGDispl      0.200000 Bohr
MD.MaxStressTol    1.000000 GPa
MD.MaxForceTol     0.010000 eV/Ang
WriteMDHistory T
WriteCoorStep T
WriteForces T
WriteCoorStep    T
WriteEigenValues T
WriteDM    F
MM.UnitsDistance Ang  # what this program prints out DO NOT CHANGE
MM.UnitsEnergy    eV  # what this program prints out DO NOT CHANGE
MM.Grimme.S6     0.75 # Grimme-paper for PBE (correct for your functional)
MM.Grimme.D     20.   # Grimme-paper (correct for your functional)
%block MM.Potentials
  1   1 Grimme     16.69      1.650 # Li, 10.1002/jcc.20495
  1   2 Grimme     17.40      2.277 # Li / C
  2   2 Grimme     18.14      2.904 # C, 10.1002/jcc.20495
%endblock MM.Potentials
#%block ProjectedDensityOfStates
# -200.0  120.0  0.4  12800  eV
#%endblock ProjectedDensityOfStates
************************** End of input data file *****************************

reinit: -----------------------------------------------------------------------
reinit: System Name: LiC6_scf
reinit: -----------------------------------------------------------------------
reinit: System Label: LiC6_scf
reinit: -----------------------------------------------------------------------
Reading two-body potentials
Grimme - two-body potential between 1 and 1
Grimme - two-body potential between 1 and 2
Grimme - two-body potential between 2 and 2

initatom: Reading input for the pseudopotentials and atomic orbitals ----------
Species number:   1 Atomic number:    3 Label: Li-gga
Species number:   2 Atomic number:    6 Label: C-gga

Ground state valence configuration:   2s01
Reading pseudopotential information in formatted form from Li-gga.psf

Valence configuration for pseudopotential generation:
2s( 1.00) rc: 2.28
2p( 0.00) rc: 2.28
3d( 0.00) rc: 2.59
4f( 0.00) rc: 2.59
Ground state valence configuration:   2s02  2p02
Reading pseudopotential information in formatted form from C-gga.psf

Valence configuration for pseudopotential generation:
2s( 2.00) rc: 1.56
2p( 2.00) rc: 1.56
3d( 0.00) rc: 1.56
4f( 0.00) rc: 1.56
relmxkb: Read Max KB Ang. Momentum=    2 for species C-gga
relmxkb: Read Max KB Ang. Momentum=    2 for species Li-gga

<basis_specs>
===============================================================================
Li-gga               Z=   3    Mass=  6.9400        Charge= 0.17977+309
Lmxo=0 Lmxkb= 2    BasisType=split      Semic=F
L=0  Nsemic=0  Cnfigmx=2
          i=1  nzeta=2  polorb=1  (2s)
            splnorm:   0.15000    
               vcte:    0.0000    
               rinn:    0.0000    
               qcoe:    0.0000    
               qyuk:    0.0000    
               qwid:   0.10000E-01
                rcs:    0.0000      0.0000    
            lambdas:    1.0000      1.0000    
-------------------------------------------------------------------------------
L=0  Nkbl=1  erefs: 0.17977+309
L=1  Nkbl=1  erefs: 0.17977+309
L=2  Nkbl=1  erefs: 0.17977+309
===============================================================================
</basis_specs>

atom: Called for Li-gga                (Z =   3)

read_vps: Pseudopotential generation method:
read_vps: ATM 3.2.2 Troullier-Martins                       
Valence charge for ps generation:    1.00000

read_vps: Pseudopotential includes a core correction:
read_vps: Pseudo-core for xc-correction

xc_check: Exchange-correlation functional:
xc_check: GGA Perdew, Burke & Ernzerhof 1996
V l=0 = -2*Zval/r beyond r=  2.2278
V l=1 = -2*Zval/r beyond r=  2.2278
V l=2 = -2*Zval/r beyond r=  2.5245
All V_l potentials equal beyond r=  2.4622
This should be close to max(r_c) in ps generation
All pots = -2*Zval/r beyond r=  2.5245

VLOCAL1: 99.0% of the norm of Vloc inside      7.160 Ry
VLOCAL1: 99.9% of the norm of Vloc inside     16.318 Ry
atom: Maximum radius for 4*pi*r*r*local-pseudopot. charge    2.86079
atom: Maximum radius for r*vlocal+2*Zval:    2.43160
GHOST: No ghost state for L =  0
GHOST: No ghost state for L =  1
GHOST: No ghost state for L =  2

KBgen: Kleinman-Bylander projectors: 
   l= 0   rc=  2.654023   el= -0.211234   Ekb=  1.742119   kbcos=  0.228463
   l= 1   rc=  2.721230   el= -0.080095   Ekb= -1.122375   kbcos= -0.147941
   l= 2   rc=  2.825246   el=  0.002001   Ekb= -0.207076   kbcos= -0.031965

KBgen: Total number of Kleinman-Bylander projectors:    9
atom: -------------------------------------------------------------------------

atom: SANKEY-TYPE ORBITALS:
atom: Selected multiple-zeta basis: split     

SPLIT: Orbitals with angular momentum L= 0

SPLIT: Basis orbitals for state 2s

SPLIT: PAO cut-off radius determined from an
SPLIT: energy shift=  0.000735 Ry

   izeta = 1
                 lambda =    1.000000
                     rc =   11.897381
                 energy =   -0.210580
                kinetic =    0.143382
    potential(screened) =   -0.353962
       potential(ionic) =   -0.533453

   izeta = 2
                 rmatch =    8.489163
              splitnorm =    0.150000
                 energy =   -0.186081
                kinetic =    0.225882
    potential(screened) =   -0.411964
       potential(ionic) =   -0.593024

POLgen: Perturbative polarization orbital with L=  1

POLgen: Polarization orbital for state 2s

   izeta = 1
                     rc =   11.897381
                 energy =   -0.027011
                kinetic =    0.282985
    potential(screened) =   -0.309997
       potential(ionic) =   -0.490997
atom: Total number of Sankey-type orbitals:  5

atm_pop: Valence configuration (for local Pseudopot. screening):
 2s( 1.00)                                                            
Vna: chval, zval:    1.00000   1.00000

Vna:  Cut-off radius for the neutral-atom potential:  11.897381
comcore: Pseudo-core radius Rcore=  3.450946

atom: _________________________________________________________________________

<basis_specs>
===============================================================================
C-gga                Z=   6    Mass=  12.010        Charge= 0.17977+309
Lmxo=1 Lmxkb= 2    BasisType=split      Semic=F
L=0  Nsemic=0  Cnfigmx=2
          i=1  nzeta=2  polorb=0  (2s)
            splnorm:   0.15000    
               vcte:    0.0000    
               rinn:    0.0000    
               qcoe:    0.0000    
               qyuk:    0.0000    
               qwid:   0.10000E-01
                rcs:    0.0000      0.0000    
            lambdas:    1.0000      1.0000    
L=1  Nsemic=0  Cnfigmx=2
          i=1  nzeta=2  polorb=1  (2p)
            splnorm:   0.15000    
               vcte:    0.0000    
               rinn:    0.0000    
               qcoe:    0.0000    
               qyuk:    0.0000    
               qwid:   0.10000E-01
                rcs:    0.0000      0.0000    
            lambdas:    1.0000      1.0000    
-------------------------------------------------------------------------------
L=0  Nkbl=1  erefs: 0.17977+309
L=1  Nkbl=1  erefs: 0.17977+309
L=2  Nkbl=1  erefs: 0.17977+309
===============================================================================
</basis_specs>

atom: Called for C-gga                 (Z =   6)

read_vps: Pseudopotential generation method:
read_vps: ATM 3.2.2 Troullier-Martins                       
Valence charge for ps generation:    4.00000

xc_check: Exchange-correlation functional:
xc_check: GGA Perdew, Burke & Ernzerhof 1996
V l=0 = -2*Zval/r beyond r=  1.5227
V l=1 = -2*Zval/r beyond r=  1.5227
V l=2 = -2*Zval/r beyond r=  1.5227
All V_l potentials equal beyond r=  1.4851
This should be close to max(r_c) in ps generation
All pots = -2*Zval/r beyond r=  1.5227

VLOCAL1: 99.0% of the norm of Vloc inside     19.682 Ry
VLOCAL1: 99.9% of the norm of Vloc inside     44.856 Ry
atom: Maximum radius for 4*pi*r*r*local-pseudopot. charge    1.79142
atom: Maximum radius for r*vlocal+2*Zval:    1.54183
GHOST: No ghost state for L =  0
GHOST: No ghost state for L =  1
GHOST: No ghost state for L =  2

KBgen: Kleinman-Bylander projectors: 
   l= 0   rc=  1.661951   el= -1.010689   Ekb=  5.289847   kbcos=  0.316429
   l= 1   rc=  1.661951   el= -0.388490   Ekb= -4.102504   kbcos= -0.351025
   l= 2   rc=  1.747182   el=  0.001971   Ekb= -1.006005   kbcos= -0.008530

KBgen: Total number of Kleinman-Bylander projectors:    9
atom: -------------------------------------------------------------------------

atom: SANKEY-TYPE ORBITALS:
atom: Selected multiple-zeta basis: split     

SPLIT: Orbitals with angular momentum L= 0

SPLIT: Basis orbitals for state 2s

SPLIT: PAO cut-off radius determined from an
SPLIT: energy shift=  0.000735 Ry

   izeta = 1
                 lambda =    1.000000
                     rc =    5.948690
                 energy =   -1.010099
                kinetic =    0.827121
    potential(screened) =   -1.837220
       potential(ionic) =   -5.392783

   izeta = 2
                 rmatch =    3.518811
              splitnorm =    0.150000
                 energy =   -0.877891
                kinetic =    1.289227
    potential(screened) =   -2.167118
       potential(ionic) =   -5.982073

SPLIT: Orbitals with angular momentum L= 1

SPLIT: Basis orbitals for state 2p

SPLIT: PAO cut-off radius determined from an
SPLIT: energy shift=  0.000735 Ry

   izeta = 1
                 lambda =    1.000000
                     rc =    7.638387
                 energy =   -0.387843
                kinetic =    2.314739
    potential(screened) =   -2.702582
       potential(ionic) =   -6.092371

   izeta = 2
                 rmatch =    3.840617
              splitnorm =    0.150000
                 energy =   -0.270479
                kinetic =    3.438347
    potential(screened) =   -3.708826
       potential(ionic) =   -7.497707

POLgen: Perturbative polarization orbital with L=  2

POLgen: Polarization orbital for state 2p

   izeta = 1
                     rc =    7.638387
                 energy =    0.921402
                kinetic =    1.955040
    potential(screened) =   -1.033637
       potential(ionic) =   -3.679558
atom: Total number of Sankey-type orbitals: 13

atm_pop: Valence configuration (for local Pseudopot. screening):
 2s( 2.00)                                                            
 2p( 2.00)                                                            
Vna: chval, zval:    4.00000   4.00000

Vna:  Cut-off radius for the neutral-atom potential:   7.638387

atom: _________________________________________________________________________

prinput: Basis input ----------------------------------------------------------

PAO.BasisType split     

%block ChemicalSpeciesLabel
    1    3 Li-gga                  # Species index, atomic number, species label
    2    6 C-gga                   # Species index, atomic number, species label
%endblock ChemicalSpeciesLabel

%block PAO.Basis                 # Define Basis set
Li-gga                1                    # Species label, number of l-shells
 n=2   0   2 P   1                   # n, l, Nzeta, Polarization, NzetaPol
  11.897      8.489   
   1.000      1.000   
C-gga                 2                    # Species label, number of l-shells
 n=2   0   2                         # n, l, Nzeta 
   5.949      3.519   
   1.000      1.000   
 n=2   1   2 P   1                   # n, l, Nzeta, Polarization, NzetaPol
   7.638      3.841   
   1.000      1.000   
%endblock PAO.Basis

prinput: ----------------------------------------------------------------------

coor:   Atomic-coordinates input format  =     Cartesian coordinates
coor:                                          (in Angstroms)

siesta: Atomic coordinates (Bohr) and species
siesta:      0.00000   0.00000   0.00000  2        1
siesta:     -1.32825   2.30060   3.77553  1        2
siesta:     -2.74990   4.76296   3.77553  1        3
siesta:      2.74990   4.76296   3.77553  1        4
siesta:      1.32825   2.30060   3.77553  1        5
siesta:      2.65651   0.00000   3.77553  1        6
siesta:      5.49980   0.00000   3.77553  1        7

siesta: System type = bulk      

initatomlists: Number of atoms, orbitals, and projectors:      7    43    63

siesta: ******************** Simulation parameters ****************************
siesta:
siesta: The following are some of the parameters of the simulation.
siesta: A complete list of the parameters used, including default values,
siesta: can be found in file out.fdf
siesta:
redata: Spin configuration                          = none
redata: Number of spin components                   = 1
redata: Time-Reversal Symmetry                      = T
redata: Spin spiral                                 = F
redata: Long output                                 =   F
redata: Number of Atomic Species                    =        2
redata: Charge density info will appear in .RHO file
redata: Write Mulliken Pop.                         = NO
redata: Matel table size (NRTAB)                    =     1024
redata: Mesh Cutoff                                 =   300.0000 Ry
redata: Net charge of the system                    =     0.0000 |e|
redata: Min. number of SCF Iter                     =        0
redata: Max. number of SCF Iter                     =     1000
redata: SCF convergence failure will abort job
redata: SCF mix quantity                            = Hamiltonian
redata: Mix DM or H after convergence               =   F
redata: Recompute H after scf cycle                 =   F
redata: Mix DM in first SCF step                    =   T
redata: Write Pulay info on disk                    =   F
redata: New DM Occupancy tolerance                  = 0.000000000001
redata: No kicks to SCF
redata: DM Mixing Weight for Kicks                  =     0.5000
redata: Require Harris convergence for SCF          =   F
redata: Harris energy tolerance for SCF             =     0.000100 eV
redata: Require DM convergence for SCF              =   T
redata: DM tolerance for SCF                        =     0.001000
redata: Require EDM convergence for SCF             =   F
redata: EDM tolerance for SCF                       =     0.005000 eV
redata: Require H convergence for SCF               =   T
redata: Hamiltonian tolerance for SCF               =     0.001000 eV
redata: Require (free) Energy convergence for SCF   =   T
redata: (free) Energy tolerance for SCF             =     0.001000 eV
redata: Using Saved Data (generic)                  =   F
redata: Use continuation files for DM               =   F
redata: Neglect nonoverlap interactions             =   F
redata: Method of Calculation                       = Diagonalization
redata: Electronic Temperature                      =   299.9869 K
redata: Fix the spin of the system                  =   F
redata: Dynamics option                             = Single-point calculation
mix.SCF: Pulay mixing                            = Pulay
mix.SCF:    Variant                              = stable
mix.SCF:    History steps                        = 4
mix.SCF:    Linear mixing weight                 =     0.250000
mix.SCF:    Mixing weight                        =     0.250000
mix.SCF:    SVD condition                        = 0.1000E-07
redata: ***********************************************************************

%block SCF.Mixers
  Pulay
%endblock SCF.Mixers

%block SCF.Mixer.Pulay
  # Mixing method
  method pulay
  variant stable

  # Mixing options
  weight 0.2500
  weight.linear 0.2500
  history 4
%endblock SCF.Mixer.Pulay

DM_history_depth set to one: no extrapolation allowed by default for geometry relaxation
Size of DM history Fstack: 1
Total number of electrons:    10.000000
Total ionic charge:    10.000000

* ProcessorY, Blocksize:    2   1


* Orbital distribution balance (max,min):    11    10

k-point displ. along   1 input, could be:     0.00    0.50
k-point displ. along   2 input, could be:     0.00    0.50
k-point displ. along   3 input, could be:     0.00    0.50
 Kpoints in:            8 . Kpoints trimmed:            8

siesta: k-grid: Number of k-points =     8
siesta: k-grid: Cutoff (effective) =     3.996 Ang
siesta: k-grid: Supercell and displacements
siesta: k-grid:    2   0   0      0.000
siesta: k-grid:    0   2   0      0.000
siesta: k-grid:    0   0   2      0.000

diag: Algorithm                                     = Expert
diag: Parallel over k                               =   T
diag: Use parallel 2D distribution                  =   T
diag: Parallel block-size                           = 1
diag: Parallel distribution                         =     2 x     2
diag: Used triangular part                          = Lower
diag: Absolute tolerance                            =  0.100E-15
diag: Orthogonalization factor                      =  0.100E-05
diag: Memory factor                                 =  1.0000

superc: Internal auxiliary supercell:     9 x     9 x     7  =     567
superc: Number of atoms, orbitals, and projectors:   3969  24381  35721


ts: **************************************************************
ts: Save H and S matrices                           =    F
ts: Save DM and EDM matrices                        =    F
ts: Only save the overlap matrix S                  =    F
ts: **************************************************************

************************ Begin: TS CHECKS AND WARNINGS ************************
************************ End: TS CHECKS AND WARNINGS **************************


                     ====================================
                        Single-point calculation
                     ====================================

outcoor: Atomic coordinates (Ang):                          
    0.00000000    0.00000000    0.00000000   2       1  C-gga
   -0.70288177    1.21742694    1.99792440   1       2  Li-gga
   -1.45518323    2.52045129    1.99792440   1       3  Li-gga
    1.45518323    2.52045129    1.99792440   1       4  Li-gga
    0.70288177    1.21742694    1.99792440   1       5  Li-gga
    1.40576354    0.00000000    1.99792440   1       6  Li-gga
    2.91036646    0.00000000    1.99792440   1       7  Li-gga

superc: Internal auxiliary supercell:     9 x     9 x     7  =     567
superc: Number of atoms, orbitals, and projectors:   3969  24381  35721

outcell: Unit cell vectors (Ang):
        4.316130    0.000000    0.000000
       -2.158065    3.737878    0.000000
        0.000000    0.000000    3.995849

outcell: Cell vector modules (Ang)   :    4.316130    4.316130    3.995849
outcell: Cell angles (23,13,12) (deg):     90.0000     90.0000    120.0000
outcell: Cell volume (Ang**3)        :     64.4657
<dSpData1D:S at geom step 0
  <sparsity:sparsity for geom step 0
    nrows_g=43 nrows=11 sparsity=32.8242 nnzs=60692, refcount: 7>
  <dData1D:(new from dSpData1D) n=60692, refcount: 1>
refcount: 1>
new_DM -- step:     1
Initializing Density Matrix...
DM filled with atomic data:
<dSpData2D:DM initialized from atoms
  <sparsity:sparsity for geom step 0
    nrows_g=43 nrows=11 sparsity=32.8242 nnzs=60692, refcount: 8>
  <dData2D:DM n=60692 m=1, refcount: 1>
refcount: 1>
No. of atoms with KB's overlaping orbs in proc 0. Max # of overlaps:     313     926
New grid distribution:   1
           1       1:   20    1:   10    1:   12
           2       1:   20    1:   10   13:   24
           3       1:   20   11:   20    1:   12
           4       1:   20   11:   20   13:   24

InitMesh: MESH =    40 x    40 x    48 =       76800
InitMesh: (bp) =    20 x    20 x    24 =        9600
InitMesh: Mesh cutoff (required, used) =   300.000   316.498 Ry
ExtMesh (bp) on 0 =   156 x   146 x   164 =     3735264
New grid distribution:   2
           1       1:   20    1:   10    1:   12
           2       1:   20    1:   10   13:   24
           3       1:   20   11:   20    1:   12
           4       1:   20   11:   20   13:   24
New grid distribution:   3
           1       1:   20    1:   10    1:   12
           2       1:   20    1:   10   13:   24
           3       1:   20   11:   20    1:   12
           4       1:   20   11:   20   13:   24
Setting up quadratic distribution...
ExtMesh (bp) on 0 =   156 x   146 x   164 =     3735264
PhiOnMesh: Number of (b)points on node 0 =                 2400
PhiOnMesh: nlist on node 0 =              1152270

stepf: Fermi-Dirac step function

siesta: Program's energy decomposition (eV):
siesta: Ebs     =      -146.674870
siesta: Eions   =       321.344870
siesta: Ena     =        89.212406
siesta: Ekin    =       135.514827
siesta: Enl     =         6.094699
siesta: Eso     =         0.000000
siesta: Edftu   =         0.000000
siesta: DEna    =         3.220340
siesta: DUscf   =         1.175268
siesta: DUext   =         0.000000
siesta: Exc     =       -99.301177
siesta: eta*DQ  =         0.000000
siesta: Emadel  =         0.000000
siesta: Emeta   =         0.000000
siesta: Emolmec =        -3.214553
siesta: Ekinion =         0.000000
siesta: Eharris =      -184.250306
siesta: Etot    =      -188.643060
siesta: FreeEng =      -188.653384

        iscf     Eharris(eV)        E_KS(eV)     FreeEng(eV)     dDmax    Ef(eV) dHmax(eV)
   scf:    1     -184.250306     -188.643060     -188.653384 27.867886-11.769106  1.196680
timer: Routine,Calls,Time,% = IterSCF        1      13.439  59.75
   scf:    2     -188.682854     -188.672886     -188.684550  0.457629-11.663730  0.336057
   scf:    3     -188.691025     -188.682631     -188.693050  0.577874-11.671979  0.324993
   scf:    4     -188.688950     -188.686677     -188.697066  0.791730-11.652851  0.103343
   scf:    5     -188.687083     -188.687068     -188.697495  0.065039-11.677768  0.026175
   scf:    6     -188.687090     -188.687079     -188.697504  0.010670-11.678592  0.021998
   scf:    7     -188.687133     -188.687111     -188.697523  0.024056-11.675809  0.000291
   scf:    8     -188.687112     -188.687111     -188.697523  0.000441-11.675746  0.000190

SCF Convergence by FreeE+DM+H criterion
|FreeE_i-FreeE_(i-1)| (eV) <     0.00100000
max |DM_out - DM_in|         :     0.0004414422
max |H_out - H_in|      (eV) :     0.0001900235
SCF cycle converged after 8 iterations

Using DM_out to compute the final energy and forces
No. of atoms with KB's overlaping orbs in proc 0. Max # of overlaps:     313     926

MM-Stress (kbar):       -1.39       -1.39       45.52        0.00       -0.00       -0.00

siesta: E_KS(eV) =             -188.6871

siesta: E_KS - E_eggbox =      -188.6871

siesta: Atomic forces (eV/Ang):
     1    0.000000    0.000000    0.000000
     2    0.434077   -0.751841   -0.000000
     3   -0.434077    0.751841   -0.000000
     4    0.433975    0.751666   -0.000000
     5   -0.433975   -0.751666   -0.000000
     6   -0.868152    0.000001   -0.000000
     7    0.868152   -0.000001   -0.000000
----------------------------------------
   Tot   -0.000000   -0.000000   -0.000000
----------------------------------------
   Max    0.868152
   Res    0.464011    sqrt( Sum f_i^2 / 3N )
----------------------------------------
   Max    0.868152    constrained

Stress tensor Voigt[x,y,z,yz,xz,xy] (kbar):     -919.28     -919.31      540.63       -0.00       -0.00       -0.03
(Free)E + p*V (eV/cell)     -171.2893
Target enthalpy (eV/cell)     -188.6975

siesta: Eigenvalues (eV):
  ik is       eps
   1  1  -20.9573  -14.6769  -14.0319  -11.6734  -11.6733  -11.1276   -9.3626   -6.3419   -5.7183   -5.7182
          -1.2697   -0.7284   -0.7282   -0.4272   -0.4271    1.7001    1.7002    8.3851   10.6580   10.6581
   13.1373   13.1374   18.3172   18.3172   23.1113   24.4766   30.8905   31.0982   31.0982   34.9119
   34.9128   36.4873   36.4873   36.8755   36.8756   44.6123   46.1395   48.5414   63.9185   63.9187
   92.7969   99.3071   99.3075
   2  1  -20.8706  -14.7560  -13.9790  -12.8559  -12.0494  -10.0124   -9.6804   -8.5389   -4.2161   -3.8674
          -3.6088   -2.7056   -0.5381   -0.1597    1.5977    2.3394    3.0779    3.2724    3.8472    8.7962
   11.4577   14.9174   17.8397   18.9530   19.0733   20.6415   23.1295   25.6462   25.7288   27.1322
   28.2236   29.5859   34.5769   37.7966   43.9001   49.2344   50.2556   56.2060   63.3380   69.1003
   76.9813   77.9918  107.1603
   3  1  -20.8706  -14.7560  -13.9790  -12.8559  -12.0494  -10.0124   -9.6804   -8.5389   -4.2161   -3.8674
          -3.6088   -2.7056   -0.5381   -0.1597    1.5977    2.3394    3.0779    3.2724    3.8472    8.7962
   11.4577   14.9174   17.8397   18.9530   19.0733   20.6415   23.1295   25.6462   25.7288   27.1322
   28.2236   29.5859   34.5769   37.7966   43.9001   49.2344   50.2555   56.2060   63.3380   69.1003
   76.9813   77.9918  107.1602
   4  1  -20.8706  -14.7560  -13.9790  -12.8558  -12.0495  -10.0124   -9.6803   -8.5390   -4.2160   -3.8675
          -3.6088   -2.7055   -0.5381   -0.1597    1.5977    2.3395    3.0779    3.2724    3.8473    8.7960
   11.4577   14.9174   17.8397   18.9531   19.0729   20.6415   23.1296   25.6462   25.7287   27.1319
   28.2237   29.5860   34.5769   37.7968   43.9000   49.2343   50.2555   56.2061   63.3381   69.1001
   76.9813   77.9917  107.1599
   5  1  -20.7541  -16.2160  -12.9059  -11.5794  -11.5793  -11.4458   -9.8410   -4.3225   -4.2800   -4.2800
          -4.0594   -4.0594   -3.9559   -3.9559    3.1887    3.1891    6.6030   15.9549   15.9549   16.2013
   18.0444   19.0899   19.0899   22.4540   24.1049   24.1057   24.3596   24.5437   24.5438   29.2472
   29.2474   29.4342   29.4343   36.1871   44.3851   47.0784   49.5046   53.7906   53.7908   79.4300
   79.4301   92.3231   92.3231
   6  1  -20.4105  -16.0679  -13.6573  -12.5446  -11.9893  -11.9183   -7.9767   -5.7008   -5.4371   -4.1964
          -1.5455   -1.5300   -0.9157    0.0135    1.0325    1.8446    3.9950    6.5800   12.0588   13.3809
   16.0353   16.7482   16.8737   18.6423   20.9248   20.9408   24.8156   25.1346   30.5840   32.4365
   33.1052   39.0496   41.1640   41.7594   46.6332   51.4394   55.0195   65.5112   75.7042   78.3289
   79.2255   94.5482  117.4480
   7  1  -20.4105  -16.0679  -13.6573  -12.5446  -11.9893  -11.9183   -7.9767   -5.7007   -5.4371   -4.1964
          -1.5455   -1.5300   -0.9157    0.0135    1.0325    1.8446    3.9950    6.5800   12.0588   13.3809
   16.0353   16.7482   16.8737   18.6423   20.9248   20.9408   24.8156   25.1346   30.5842   32.4365
   33.1052   39.0495   41.1639   41.7594   46.6332   51.4394   55.0195   65.5112   75.7041   78.3289
   79.2255   94.5482  117.4480
   8  1  -20.4105  -16.0679  -13.6573  -12.5447  -11.9894  -11.9183   -7.9766   -5.7005   -5.4371   -4.1964
          -1.5458   -1.5301   -0.9157    0.0134    1.0325    1.8446    3.9950    6.5799   12.0587   13.3808
   16.0352   16.7482   16.8738   18.6423   20.9253   20.9409   24.8155   25.1345   30.5841   32.4365
   33.1056   39.0496   41.1639   41.7585   46.6333   51.4395   55.0197   65.5111   75.7040   78.3289
   79.2255   94.5481  117.4480
siesta: Fermi energy =     -11.675746 eV

siesta: Program's energy decomposition (eV):
siesta: Ebs     =      -148.627057
siesta: Eions   =       321.344870
siesta: Ena     =        89.212406
siesta: Ekin    =       132.845894
siesta: Enl     =         6.639632
siesta: Eso     =         0.000000
siesta: Edftu   =         0.000000
siesta: DEna    =         4.860485
siesta: DUscf   =         1.060616
siesta: DUext   =         0.000000
siesta: Exc     =       -98.746721
siesta: eta*DQ  =         0.000000
siesta: Emadel  =         0.000000
siesta: Emeta   =         0.000000
siesta: Emolmec =        -3.214553
siesta: Ekinion =         0.000000
siesta: Eharris =      -188.687112
siesta: Etot    =      -188.687111
siesta: FreeEng =      -188.697523

siesta: Final energy (eV):
siesta:  Band Struct. =    -148.627057
siesta:       Kinetic =     132.845894
siesta:       Hartree =      43.778216
siesta:       Edftu   =       0.000000
siesta:       Eso     =       0.000000
siesta:    Ext. field =       0.000000
siesta:   Exch.-corr. =     -98.746721
siesta:  Ion-electron =    -260.384509
siesta:       Ion-ion =      -2.965438
siesta:       Ekinion =       0.000000
siesta:         Total =    -188.687111
siesta:         Fermi =     -11.675746

siesta: Atomic forces (eV/Ang):
siesta:      1    0.000000    0.000000    0.000000
siesta:      2    0.434077   -0.751841   -0.000000
siesta:      3   -0.434077    0.751841   -0.000000
siesta:      4    0.433975    0.751666   -0.000000
siesta:      5   -0.433975   -0.751666   -0.000000
siesta:      6   -0.868152    0.000001   -0.000000
siesta:      7    0.868152   -0.000001   -0.000000
siesta: ----------------------------------------
siesta:    Tot   -0.000000   -0.000000   -0.000000

siesta: Stress tensor (static) (eV/Ang**3):
siesta:    -0.573764   -0.000017   -0.000000
siesta:    -0.000017   -0.573783   -0.000000
siesta:    -0.000000   -0.000000    0.337432

siesta: Cell volume =         64.465701 Ang**3

siesta: Pressure (static):
siesta:                Solid            Molecule  Units
siesta:           0.00294107          0.00272040  Ry/Bohr**3
siesta:           0.27003861          0.24977788  eV/Ang**3
siesta:         432.65423005        400.19260999  kBar
(Free)E+ p_basis*V_orbitals  =        -169.263795
(Free)Eharris+ p_basis*V_orbitals  =        -169.263795

cite: Please see "LiC6_scf.bib" for an exhaustive BiBTeX file.
cite: Please clearly indicate Siesta version in published work: 4.1.5
cite: This calculation has made use of the following articles
cite: which are encouraged to be cited in a published work.
        Primary SIESTA paper
          DOI: www.doi.org/10.1088/0953-8984/14/11/302

>> End of run:   9-NOV-2022   3:47:20
Job completed
