Siesta Version  : 4.1.5
Architecture    : x86_64-unknown-linux-gnu--unknown
Compiler version: GNU Fortran (GCC) 11.3.0
Compiler flags  : mpif90 -g -O2 -fallow-argument-mismatch
PP flags        : -DMPI -DFC_HAVE_FLUSH -DFC_HAVE_ABORT
Libraries       :  -I/global/software/sl-7.x86_64/modules/intel/2020.4.304/mkl/include  /globall/software/sl-7.x86_64/modules/intel/2020.4.304/mkl/lib/intel64/libmkl_scalapack_lp64.a -Wl,--start-group /global/software/sl-7.x86_64/modules/intel/2020.4.304/mkl/lib/intel64/libmkl_intel_lp64.a /global/software/sl-7.x86_64/modules/intel/2020.4.304/mkl/lib/intel64/libmkl_sequential.a /global/software/sl-7.x86_64/modules/intel/2020.4.304/mkl/lib/intel64/libmkl_core.a /global/software/sl-7.x86_64/modules/intel/2020.4.304/mkl/lib/intel64/libmkl_blacs_openmpi_lp64.a -Wl,--end-group -lpthread -lm -ldl
PARALLEL version

* Running on 4 nodes in parallel
>> Start of run:   9-NOV-2022  10:21:06

                           ***********************       
                           *  WELCOME TO SIESTA  *       
                           ***********************       

reinit: Reading from standard input
reinit: Dumped input in INPUT_TMP.33114
************************** Dump of input data file ****************************
SystemName LiC6_scf
SystemLabel LiC6_scf
NumberOfAtoms   7
NumberOfSpecies 2
%block ChemicalSpeciesLabel
1  3   Li-gga
2  6   C-gga
%endblock ChemicalSpeciesLabel
PAO.BasisSize  DZ
PAO.EnergyShift  10 meV
%block PS.Lmax
C-gga   2
Li-gga  2
%endblock PS.Lmax
LatticeConstant 1.000000 Ang
%block LatticeVectors
	4.3161300000	0.0000000000	0.0000000000
	-2.1580650000	3.7378782260	0.0000000000
	0.0000000000	0.0000000000	4.4398320000
%endblock LatticeVectors
AtomicCoordinatesFormat Ang
%block AtomicCoordinatesAndAtomicSpecies
	0.00000000	0.00000000	0.00000000	2
	-0.70288177	1.21742694	2.21991600	1
	-1.45518323	2.52045129	2.21991600	1
	1.45518323	2.52045129	2.21991600	1
	0.70288177	1.21742694	2.21991600	1
	1.40576354	0.00000000	2.21991600	1
	2.91036646	0.00000000	2.21991600	1
%endblock AtomicCoordinatesAndAtomicSpecies
Kgrid_NoTRS  T
%block kgrid_MonkhorstPack
3       0       0       0.0
0       3       0       0.0
0       0       3       0.0
%endblock kgrid_MonkhorstPack
AtomCoorFormatOut Ang
BlockSize 1
#ProcessorY 12
Diag.ParallelOverK   T
Diag.DivideAndConquer F
MeshCutoff   300 Ry
SCF.FreeE.Tolerance 1E-3 eV
SCF.EDM.Tolerance   5E-3 eV
DM.Tolerance  1E-3
DM.Require.Energy.Convergence T
DM.NumberPulay 4
XC.Functional GGA
XC.Authors    PBE
UseSaveData        F
MD.TypeOfRun       CG
MD.VariableCell    F
MD.NumCGsteps      00
MD.MaxCGDispl      0.200000 Bohr
MD.MaxStressTol    1.000000 GPa
MD.MaxForceTol     0.010000 eV/Ang
WriteMDHistory T
WriteCoorStep T
WriteForces T
WriteCoorStep    T
WriteEigenValues T
WriteDM    F
MM.UnitsDistance Ang  # what this program prints out DO NOT CHANGE
MM.UnitsEnergy    eV  # what this program prints out DO NOT CHANGE
MM.Grimme.S6     0.75 # Grimme-paper for PBE (correct for your functional)
MM.Grimme.D     20.   # Grimme-paper (correct for your functional)
%block MM.Potentials
  1   1 Grimme     16.69      1.650 # Li, 10.1002/jcc.20495
  1   2 Grimme     17.40      2.277 # Li / C
  2   2 Grimme     18.14      2.904 # C, 10.1002/jcc.20495
%endblock MM.Potentials
#%block ProjectedDensityOfStates
# -200.0  120.0  0.4  12800  eV
#%endblock ProjectedDensityOfStates
************************** End of input data file *****************************

reinit: -----------------------------------------------------------------------
reinit: System Name: LiC6_scf
reinit: -----------------------------------------------------------------------
reinit: System Label: LiC6_scf
reinit: -----------------------------------------------------------------------
Reading two-body potentials
Grimme - two-body potential between 1 and 1
Grimme - two-body potential between 1 and 2
Grimme - two-body potential between 2 and 2

initatom: Reading input for the pseudopotentials and atomic orbitals ----------
Species number:   1 Atomic number:    3 Label: Li-gga
Species number:   2 Atomic number:    6 Label: C-gga

Ground state valence configuration:   2s01
Reading pseudopotential information in formatted form from Li-gga.psf

Valence configuration for pseudopotential generation:
2s( 1.00) rc: 2.28
2p( 0.00) rc: 2.28
3d( 0.00) rc: 2.59
4f( 0.00) rc: 2.59
Ground state valence configuration:   2s02  2p02
Reading pseudopotential information in formatted form from C-gga.psf

Valence configuration for pseudopotential generation:
2s( 2.00) rc: 1.56
2p( 2.00) rc: 1.56
3d( 0.00) rc: 1.56
4f( 0.00) rc: 1.56
relmxkb: Read Max KB Ang. Momentum=    2 for species C-gga
relmxkb: Read Max KB Ang. Momentum=    2 for species Li-gga

<basis_specs>
===============================================================================
Li-gga               Z=   3    Mass=  6.9400        Charge= 0.17977+309
Lmxo=0 Lmxkb= 2    BasisType=split      Semic=F
L=0  Nsemic=0  Cnfigmx=2
          i=1  nzeta=2  polorb=0  (2s)
            splnorm:   0.15000    
               vcte:    0.0000    
               rinn:    0.0000    
               qcoe:    0.0000    
               qyuk:    0.0000    
               qwid:   0.10000E-01
                rcs:    0.0000      0.0000    
            lambdas:    1.0000      1.0000    
-------------------------------------------------------------------------------
L=0  Nkbl=1  erefs: 0.17977+309
L=1  Nkbl=1  erefs: 0.17977+309
L=2  Nkbl=1  erefs: 0.17977+309
===============================================================================
</basis_specs>

atom: Called for Li-gga                (Z =   3)

read_vps: Pseudopotential generation method:
read_vps: ATM 3.2.2 Troullier-Martins                       
Valence charge for ps generation:    1.00000

read_vps: Pseudopotential includes a core correction:
read_vps: Pseudo-core for xc-correction

xc_check: Exchange-correlation functional:
xc_check: GGA Perdew, Burke & Ernzerhof 1996
V l=0 = -2*Zval/r beyond r=  2.2278
V l=1 = -2*Zval/r beyond r=  2.2278
V l=2 = -2*Zval/r beyond r=  2.5245
All V_l potentials equal beyond r=  2.4622
This should be close to max(r_c) in ps generation
All pots = -2*Zval/r beyond r=  2.5245

VLOCAL1: 99.0% of the norm of Vloc inside      7.160 Ry
VLOCAL1: 99.9% of the norm of Vloc inside     16.318 Ry
atom: Maximum radius for 4*pi*r*r*local-pseudopot. charge    2.86079
atom: Maximum radius for r*vlocal+2*Zval:    2.43160
GHOST: No ghost state for L =  0
GHOST: No ghost state for L =  1
GHOST: No ghost state for L =  2

KBgen: Kleinman-Bylander projectors: 
   l= 0   rc=  2.654023   el= -0.211234   Ekb=  1.742119   kbcos=  0.228463
   l= 1   rc=  2.721230   el= -0.080095   Ekb= -1.122375   kbcos= -0.147941
   l= 2   rc=  2.825246   el=  0.002001   Ekb= -0.207076   kbcos= -0.031965

KBgen: Total number of Kleinman-Bylander projectors:    9
atom: -------------------------------------------------------------------------

atom: SANKEY-TYPE ORBITALS:
atom: Selected multiple-zeta basis: split     

SPLIT: Orbitals with angular momentum L= 0

SPLIT: Basis orbitals for state 2s

SPLIT: PAO cut-off radius determined from an
SPLIT: energy shift=  0.000735 Ry

   izeta = 1
                 lambda =    1.000000
                     rc =   11.897381
                 energy =   -0.210580
                kinetic =    0.143382
    potential(screened) =   -0.353962
       potential(ionic) =   -0.533453

   izeta = 2
                 rmatch =    8.489163
              splitnorm =    0.150000
                 energy =   -0.186081
                kinetic =    0.225882
    potential(screened) =   -0.411964
       potential(ionic) =   -0.593024
atom: Total number of Sankey-type orbitals:  2

atm_pop: Valence configuration (for local Pseudopot. screening):
 2s( 1.00)                                                            
Vna: chval, zval:    1.00000   1.00000

Vna:  Cut-off radius for the neutral-atom potential:  11.897381
comcore: Pseudo-core radius Rcore=  3.450946

atom: _________________________________________________________________________

<basis_specs>
===============================================================================
C-gga                Z=   6    Mass=  12.010        Charge= 0.17977+309
Lmxo=1 Lmxkb= 2    BasisType=split      Semic=F
L=0  Nsemic=0  Cnfigmx=2
          i=1  nzeta=2  polorb=0  (2s)
            splnorm:   0.15000    
               vcte:    0.0000    
               rinn:    0.0000    
               qcoe:    0.0000    
               qyuk:    0.0000    
               qwid:   0.10000E-01
                rcs:    0.0000      0.0000    
            lambdas:    1.0000      1.0000    
L=1  Nsemic=0  Cnfigmx=2
          i=1  nzeta=2  polorb=0  (2p)
            splnorm:   0.15000    
               vcte:    0.0000    
               rinn:    0.0000    
               qcoe:    0.0000    
               qyuk:    0.0000    
               qwid:   0.10000E-01
                rcs:    0.0000      0.0000    
            lambdas:    1.0000      1.0000    
-------------------------------------------------------------------------------
L=0  Nkbl=1  erefs: 0.17977+309
L=1  Nkbl=1  erefs: 0.17977+309
L=2  Nkbl=1  erefs: 0.17977+309
===============================================================================
</basis_specs>

atom: Called for C-gga                 (Z =   6)

read_vps: Pseudopotential generation method:
read_vps: ATM 3.2.2 Troullier-Martins                       
Valence charge for ps generation:    4.00000

xc_check: Exchange-correlation functional:
xc_check: GGA Perdew, Burke & Ernzerhof 1996
V l=0 = -2*Zval/r beyond r=  1.5227
V l=1 = -2*Zval/r beyond r=  1.5227
V l=2 = -2*Zval/r beyond r=  1.5227
All V_l potentials equal beyond r=  1.4851
This should be close to max(r_c) in ps generation
All pots = -2*Zval/r beyond r=  1.5227

VLOCAL1: 99.0% of the norm of Vloc inside     19.682 Ry
VLOCAL1: 99.9% of the norm of Vloc inside     44.856 Ry
atom: Maximum radius for 4*pi*r*r*local-pseudopot. charge    1.79142
atom: Maximum radius for r*vlocal+2*Zval:    1.54183
GHOST: No ghost state for L =  0
GHOST: No ghost state for L =  1
GHOST: No ghost state for L =  2

KBgen: Kleinman-Bylander projectors: 
   l= 0   rc=  1.661951   el= -1.010689   Ekb=  5.289847   kbcos=  0.316429
   l= 1   rc=  1.661951   el= -0.388490   Ekb= -4.102504   kbcos= -0.351025
   l= 2   rc=  1.747182   el=  0.001971   Ekb= -1.006005   kbcos= -0.008530

KBgen: Total number of Kleinman-Bylander projectors:    9
atom: -------------------------------------------------------------------------

atom: SANKEY-TYPE ORBITALS:
atom: Selected multiple-zeta basis: split     

SPLIT: Orbitals with angular momentum L= 0

SPLIT: Basis orbitals for state 2s

SPLIT: PAO cut-off radius determined from an
SPLIT: energy shift=  0.000735 Ry

   izeta = 1
                 lambda =    1.000000
                     rc =    5.948690
                 energy =   -1.010099
                kinetic =    0.827121
    potential(screened) =   -1.837220
       potential(ionic) =   -5.392783

   izeta = 2
                 rmatch =    3.518811
              splitnorm =    0.150000
                 energy =   -0.877891
                kinetic =    1.289227
    potential(screened) =   -2.167118
       potential(ionic) =   -5.982073

SPLIT: Orbitals with angular momentum L= 1

SPLIT: Basis orbitals for state 2p

SPLIT: PAO cut-off radius determined from an
SPLIT: energy shift=  0.000735 Ry

   izeta = 1
                 lambda =    1.000000
                     rc =    7.638387
                 energy =   -0.387843
                kinetic =    2.314739
    potential(screened) =   -2.702582
       potential(ionic) =   -6.092371

   izeta = 2
                 rmatch =    3.840617
              splitnorm =    0.150000
                 energy =   -0.270479
                kinetic =    3.438347
    potential(screened) =   -3.708826
       potential(ionic) =   -7.497707
atom: Total number of Sankey-type orbitals:  8

atm_pop: Valence configuration (for local Pseudopot. screening):
 2s( 2.00)                                                            
 2p( 2.00)                                                            
Vna: chval, zval:    4.00000   4.00000

Vna:  Cut-off radius for the neutral-atom potential:   7.638387

atom: _________________________________________________________________________

prinput: Basis input ----------------------------------------------------------

PAO.BasisType split     

%block ChemicalSpeciesLabel
    1    3 Li-gga                  # Species index, atomic number, species label
    2    6 C-gga                   # Species index, atomic number, species label
%endblock ChemicalSpeciesLabel

%block PAO.Basis                 # Define Basis set
Li-gga                1                    # Species label, number of l-shells
 n=2   0   2                         # n, l, Nzeta 
  11.897      8.489   
   1.000      1.000   
C-gga                 2                    # Species label, number of l-shells
 n=2   0   2                         # n, l, Nzeta 
   5.949      3.519   
   1.000      1.000   
 n=2   1   2                         # n, l, Nzeta 
   7.638      3.841   
   1.000      1.000   
%endblock PAO.Basis

prinput: ----------------------------------------------------------------------

coor:   Atomic-coordinates input format  =     Cartesian coordinates
coor:                                          (in Angstroms)

siesta: Atomic coordinates (Bohr) and species
siesta:      0.00000   0.00000   0.00000  2        1
siesta:     -1.32825   2.30060   4.19503  1        2
siesta:     -2.74990   4.76296   4.19503  1        3
siesta:      2.74990   4.76296   4.19503  1        4
siesta:      1.32825   2.30060   4.19503  1        5
siesta:      2.65651   0.00000   4.19503  1        6
siesta:      5.49980   0.00000   4.19503  1        7

siesta: System type = bulk      

initatomlists: Number of atoms, orbitals, and projectors:      7    20    63

siesta: ******************** Simulation parameters ****************************
siesta:
siesta: The following are some of the parameters of the simulation.
siesta: A complete list of the parameters used, including default values,
siesta: can be found in file out.fdf
siesta:
redata: Spin configuration                          = none
redata: Number of spin components                   = 1
redata: Time-Reversal Symmetry                      = T
redata: Spin spiral                                 = F
redata: Long output                                 =   F
redata: Number of Atomic Species                    =        2
redata: Charge density info will appear in .RHO file
redata: Write Mulliken Pop.                         = NO
redata: Matel table size (NRTAB)                    =     1024
redata: Mesh Cutoff                                 =   300.0000 Ry
redata: Net charge of the system                    =     0.0000 |e|
redata: Min. number of SCF Iter                     =        0
redata: Max. number of SCF Iter                     =     1000
redata: SCF convergence failure will abort job
redata: SCF mix quantity                            = Hamiltonian
redata: Mix DM or H after convergence               =   F
redata: Recompute H after scf cycle                 =   F
redata: Mix DM in first SCF step                    =   T
redata: Write Pulay info on disk                    =   F
redata: New DM Occupancy tolerance                  = 0.000000000001
redata: No kicks to SCF
redata: DM Mixing Weight for Kicks                  =     0.5000
redata: Require Harris convergence for SCF          =   F
redata: Harris energy tolerance for SCF             =     0.000100 eV
redata: Require DM convergence for SCF              =   T
redata: DM tolerance for SCF                        =     0.001000
redata: Require EDM convergence for SCF             =   F
redata: EDM tolerance for SCF                       =     0.005000 eV
redata: Require H convergence for SCF               =   T
redata: Hamiltonian tolerance for SCF               =     0.001000 eV
redata: Require (free) Energy convergence for SCF   =   T
redata: (free) Energy tolerance for SCF             =     0.001000 eV
redata: Using Saved Data (generic)                  =   F
redata: Use continuation files for DM               =   F
redata: Neglect nonoverlap interactions             =   F
redata: Method of Calculation                       = Diagonalization
redata: Electronic Temperature                      =   299.9869 K
redata: Fix the spin of the system                  =   F
redata: Dynamics option                             = Single-point calculation
mix.SCF: Pulay mixing                            = Pulay
mix.SCF:    Variant                              = stable
mix.SCF:    History steps                        = 4
mix.SCF:    Linear mixing weight                 =     0.250000
mix.SCF:    Mixing weight                        =     0.250000
mix.SCF:    SVD condition                        = 0.1000E-07
redata: ***********************************************************************

%block SCF.Mixers
  Pulay
%endblock SCF.Mixers

%block SCF.Mixer.Pulay
  # Mixing method
  method pulay
  variant stable

  # Mixing options
  weight 0.2500
  weight.linear 0.2500
  history 4
%endblock SCF.Mixer.Pulay

DM_history_depth set to one: no extrapolation allowed by default for geometry relaxation
Size of DM history Fstack: 1
Total number of electrons:    10.000000
Total ionic charge:    10.000000

* ProcessorY, Blocksize:    2   1


* Orbital distribution balance (max,min):     5     5

 Kpoints in:           18 . Kpoints trimmed:           14

siesta: k-grid: Number of k-points =    14
siesta: k-grid: Cutoff (effective) =     6.474 Ang
siesta: k-grid: Supercell and displacements
siesta: k-grid:    3   0   0      0.000
siesta: k-grid:    0   3   0      0.000
siesta: k-grid:    0   0   3      0.000

diag: Algorithm                                     = Expert
diag: Parallel over k                               =   T
diag: Use parallel 2D distribution                  =   T
diag: Parallel block-size                           = 1
diag: Parallel distribution                         =     2 x     2
diag: Used triangular part                          = Lower
diag: Absolute tolerance                            =  0.100E-15
diag: Orthogonalization factor                      =  0.100E-05
diag: Memory factor                                 =  1.0000

superc: Internal auxiliary supercell:     9 x     9 x     7  =     567
superc: Number of atoms, orbitals, and projectors:   3969  11340  35721


ts: **************************************************************
ts: Save H and S matrices                           =    F
ts: Save DM and EDM matrices                        =    F
ts: Only save the overlap matrix S                  =    F
ts: **************************************************************

************************ Begin: TS CHECKS AND WARNINGS ************************
************************ End: TS CHECKS AND WARNINGS **************************


                     ====================================
                        Single-point calculation
                     ====================================

outcoor: Atomic coordinates (Ang):                          
    0.00000000    0.00000000    0.00000000   2       1  C-gga
   -0.70288177    1.21742694    2.21991600   1       2  Li-gga
   -1.45518323    2.52045129    2.21991600   1       3  Li-gga
    1.45518323    2.52045129    2.21991600   1       4  Li-gga
    0.70288177    1.21742694    2.21991600   1       5  Li-gga
    1.40576354    0.00000000    2.21991600   1       6  Li-gga
    2.91036646    0.00000000    2.21991600   1       7  Li-gga

superc: Internal auxiliary supercell:     9 x     9 x     7  =     567
superc: Number of atoms, orbitals, and projectors:   3969  11340  35721

outcell: Unit cell vectors (Ang):
        4.316130    0.000000    0.000000
       -2.158065    3.737878    0.000000
        0.000000    0.000000    4.439832

outcell: Cell vector modules (Ang)   :    4.316130    4.316130    4.439832
outcell: Cell angles (23,13,12) (deg):     90.0000     90.0000    120.0000
outcell: Cell volume (Ang**3)        :     71.6286
<dSpData1D:S at geom step 0
  <sparsity:sparsity for geom step 0
    nrows_g=20 nrows=5 sparsity=23.6775 nnzs=9471, refcount: 7>
  <dData1D:(new from dSpData1D) n=9471, refcount: 1>
refcount: 1>
new_DM -- step:     1
Initializing Density Matrix...
DM filled with atomic data:
<dSpData2D:DM initialized from atoms
  <sparsity:sparsity for geom step 0
    nrows_g=20 nrows=5 sparsity=23.6775 nnzs=9471, refcount: 8>
  <dData2D:DM n=9471 m=1, refcount: 1>
refcount: 1>
No. of atoms with KB's overlaping orbs in proc 0. Max # of overlaps:     250     283
New grid distribution:   1
           1       1:   20    1:   10    1:   12
           2       1:   20    1:   10   13:   24
           3       1:   20   11:   20    1:   12
           4       1:   20   11:   20   13:   24

InitMesh: MESH =    40 x    40 x    48 =       76800
InitMesh: (bp) =    20 x    20 x    24 =        9600
InitMesh: Mesh cutoff (required, used) =   300.000   316.498 Ry
ExtMesh (bp) on 0 =   156 x   146 x   152 =     3461952
New grid distribution:   2
           1       1:   20    1:   10    1:   12
           2       1:   20    1:   10   13:   24
           3       1:   20   11:   20    1:   12
           4       1:   20   11:   20   13:   24
New grid distribution:   3
           1       1:   20    1:   10    1:   12
           2       1:   20    1:   10   13:   24
           3       1:   20   11:   20    1:   12
           4       1:   20   11:   20   13:   24
Setting up quadratic distribution...
ExtMesh (bp) on 0 =   156 x   146 x   152 =     3461952
PhiOnMesh: Number of (b)points on node 0 =                 2400
PhiOnMesh: nlist on node 0 =               337137

stepf: Fermi-Dirac step function

siesta: Program's energy decomposition (eV):
siesta: Ebs     =      -105.264275
siesta: Eions   =       321.344870
siesta: Ena     =        92.069201
siesta: Ekin    =       139.021382
siesta: Enl     =        13.840824
siesta: Eso     =         0.000000
siesta: Edftu   =         0.000000
siesta: DEna    =        -0.251564
siesta: DUscf   =         3.752433
siesta: DUext   =         0.000000
siesta: Exc     =      -100.553340
siesta: eta*DQ  =         0.000000
siesta: Emadel  =         0.000000
siesta: Emeta   =         0.000000
siesta: Emolmec =        -2.977013
siesta: Ekinion =         0.000000
siesta: Eharris =      -160.516701
siesta: Etot    =      -176.442946
siesta: FreeEng =      -176.448545

        iscf     Eharris(eV)        E_KS(eV)     FreeEng(eV)     dDmax    Ef(eV) dHmax(eV)
   scf:    1     -160.516701     -176.442946     -176.448545 24.584871 -9.653810  6.804254
timer: Routine,Calls,Time,% = IterSCF        1       1.246  24.20
   scf:    2     -174.157045     -177.972035     -177.982407 12.561719 -8.892828  4.146964
   scf:    3     -178.097925     -178.714828     -178.735770  6.784746 -9.200514  1.081337
   scf:    4     -177.474875     -178.197743     -178.205359  1.807181 -9.199776  3.170015
   scf:    5     -176.753717     -178.406180     -178.419255  8.047383 -9.182130  2.460417
   scf:    6     -178.529475     -178.469154     -178.485776  0.322485 -9.199587  2.237695
   scf:    7     -174.341217     -177.659042     -177.666855  8.230707 -9.333633  4.522079
   scf:    8     -179.208920     -178.588055     -178.601212  3.861942 -9.247312  1.924325
   scf:    9     -178.684943     -178.638076     -178.654416  0.252093 -9.249150  1.662236
   scf:   10     -178.100493     -178.665430     -178.692656  5.016723 -9.214671  1.439504
   scf:   11     -178.795719     -178.801664     -178.832483  2.570483 -9.235138  0.069080
   scf:   12     -178.612981     -178.737162     -178.761253  1.599962 -9.247458  1.041527
   scf:   13     -178.753998     -178.797108     -178.828567  2.104166 -9.233465  0.246323
   scf:   14     -178.801994     -178.801759     -178.832699  0.448774 -9.236454  0.016668
   scf:   15     -178.801624     -178.801708     -178.832713  0.038067 -9.236171  0.006601
   scf:   16     -178.801782     -178.801756     -178.832707  0.032311 -9.236372  0.011658
   scf:   17     -178.801704     -178.801734     -178.832717  0.018874 -9.236286  0.000909
   scf:   18     -178.801730     -178.801732     -178.832717  0.000985 -9.236300  0.000354

SCF Convergence by FreeE+DM+H criterion
|FreeE_i-FreeE_(i-1)| (eV) <     0.00100000
max |DM_out - DM_in|         :     0.0009845426
max |H_out - H_in|      (eV) :     0.0003538322
SCF cycle converged after 18 iterations

Using DM_out to compute the final energy and forces
No. of atoms with KB's overlaping orbs in proc 0. Max # of overlaps:     250     283

MM-Stress (kbar):       -1.37       -1.37       53.16        0.00        0.00        0.00

siesta: E_KS(eV) =             -178.8017

siesta: E_KS - E_eggbox =      -178.8017

siesta: Atomic forces (eV/Ang):
     1    0.000000    0.000000    0.000000
     2    0.190739   -0.330383   -0.000000
     3   -0.190739    0.330383   -0.000000
     4    0.190693    0.330291   -0.000000
     5   -0.190693   -0.330291   -0.000000
     6   -0.381490   -0.000006   -0.000000
     7    0.381490    0.000006   -0.000000
----------------------------------------
   Tot   -0.000000   -0.000000   -0.000000
----------------------------------------
   Max    0.381490
   Res    0.203897    sqrt( Sum f_i^2 / 3N )
----------------------------------------
   Max    0.381490    constrained

Stress tensor Voigt[x,y,z,yz,xz,xy] (kbar):    -1202.46    -1202.48      716.65        0.00       -0.00       -0.02
(Free)E + p*V (eV/cell)     -153.6735
Target enthalpy (eV/cell)     -178.8327

siesta: Eigenvalues (eV):
  ik is       eps
   1  1  -18.2362  -13.0479  -13.0479  -11.9395   -9.3365   -8.0477   -8.0475    1.2326    4.3172    4.3175
           6.2146   12.6572   12.6573   13.8394   20.0815   20.0815   21.7079   58.2725   58.6779   58.6780
   2  1  -18.3528  -13.2898  -12.2948  -10.3821   -9.5077   -7.9276   -4.5739   -1.6280    0.0819    0.5735
           7.2405    7.5203   14.0611   20.0293   20.1798   21.5943   27.0265   39.0131   50.6073   53.6212
   3  1  -18.3528  -13.2898  -12.2948  -10.3821   -9.5077   -7.9275   -4.5739   -1.6281    0.0819    0.5735
           7.2407    7.5202   14.0612   20.0294   20.1798   21.5943   27.0265   39.0131   50.6073   53.6212
   4  1  -18.3528  -13.2898  -12.2948  -10.3821   -9.5077   -7.9276   -4.5739   -1.6280    0.0819    0.5735
           7.2405    7.5203   14.0611   20.0293   20.1798   21.5943   27.0265   39.0131   50.6073   53.6212
   5  1  -18.5588  -12.9524  -11.6048   -9.0081   -9.0080   -3.4358   -1.4598    4.1832    4.1833    4.7800
           4.7803    8.7075   24.0337   25.3136   25.3137   45.7148   45.7149   53.4025   53.4026  164.9495
   6  1  -17.9195  -13.4691  -12.1973  -12.1973   -9.9943   -9.9942   -5.9188   -2.9306   -2.9304   -0.6506
           9.9406   11.3033   11.3034   16.2622   18.3359   18.3360   22.7255   26.3962   26.3962   28.5615
   7  1  -18.0081  -13.7380  -12.1357  -10.0552   -9.2539   -9.2369   -5.2030   -3.5403   -1.8582    2.5746
           4.2312    5.1266    9.8412   13.4392   20.8698   21.3538   22.4141   28.7066   39.0836   52.5584
   8  1  -18.0081  -13.7380  -12.1358  -10.0551   -9.2539   -9.2369   -5.2029   -3.5403   -1.8582    2.5748
           4.2310    5.1266    9.8412   13.4392   20.8698   21.3538   22.4141   28.7067   39.0836   52.5584
   9  1  -18.0081  -13.7380  -12.1357  -10.0552   -9.2539   -9.2369   -5.2030   -3.5403   -1.8582    2.5746
           4.2312    5.1266    9.8412   13.4392   20.8698   21.3538   22.4141   28.7066   39.0836   52.5584
  10  1  -18.2383  -14.1884  -10.2727   -8.8834   -8.8833   -6.6997   -0.4530   -0.4530    0.0595    0.0596
           1.0780    7.7299    7.7301   12.0692   15.9156   15.9157   23.5450   23.5450   23.6562   52.0172
  11  1  -18.0081  -13.7380  -12.1357  -10.0552   -9.2539   -9.2369   -5.2030   -3.5403   -1.8582    2.5746
           4.2312    5.1266    9.8412   13.4392   20.8698   21.3538   22.4141   28.7066   39.0836   52.5584
  12  1  -18.0081  -13.7380  -12.1358  -10.0551   -9.2539   -9.2369   -5.2029   -3.5403   -1.8582    2.5748
           4.2310    5.1266    9.8412   13.4392   20.8698   21.3538   22.4141   28.7067   39.0836   52.5584
  13  1  -18.0081  -13.7380  -12.1357  -10.0552   -9.2539   -9.2369   -5.2030   -3.5403   -1.8582    2.5746
           4.2312    5.1266    9.8412   13.4392   20.8698   21.3538   22.4141   28.7066   39.0836   52.5584
  14  1  -17.9195  -13.4691  -12.1973  -12.1973   -9.9943   -9.9942   -5.9188   -2.9306   -2.9304   -0.6506
           9.9406   11.3033   11.3034   16.2622   18.3359   18.3360   22.7255   26.3962   26.3962   28.5615
siesta: Fermi energy =      -9.236300 eV

siesta: Program's energy decomposition (eV):
siesta: Ebs     =      -127.589868
siesta: Eions   =       321.344870
siesta: Ena     =        92.069201
siesta: Ekin    =       120.684160
siesta: Enl     =        23.037557
siesta: Eso     =         0.000000
siesta: Edftu   =         0.000000
siesta: DEna    =         5.877291
siesta: DUscf   =         0.406633
siesta: DUext   =         0.000000
siesta: Exc     =       -96.554692
siesta: eta*DQ  =         0.000000
siesta: Emadel  =         0.000000
siesta: Emeta   =         0.000000
siesta: Emolmec =        -2.977013
siesta: Ekinion =         0.000000
siesta: Eharris =      -178.801730
siesta: Etot    =      -178.801732
siesta: FreeEng =      -178.832717

siesta: Final energy (eV):
siesta:  Band Struct. =    -127.589868
siesta:       Kinetic =     120.684160
siesta:       Hartree =      44.188454
siesta:       Edftu   =       0.000000
siesta:       Eso     =       0.000000
siesta:    Ext. field =       0.000000
siesta:   Exch.-corr. =     -96.554692
siesta:  Ion-electron =    -231.251974
siesta:       Ion-ion =     -12.890666
siesta:       Ekinion =       0.000000
siesta:         Total =    -178.801732
siesta:         Fermi =      -9.236300

siesta: Atomic forces (eV/Ang):
siesta:      1    0.000000    0.000000    0.000000
siesta:      2    0.190739   -0.330383   -0.000000
siesta:      3   -0.190739    0.330383   -0.000000
siesta:      4    0.190693    0.330291   -0.000000
siesta:      5   -0.190693   -0.330291   -0.000000
siesta:      6   -0.381490   -0.000006   -0.000000
siesta:      7    0.381490    0.000006   -0.000000
siesta: ----------------------------------------
siesta:    Tot   -0.000000   -0.000000   -0.000000

siesta: Stress tensor (static) (eV/Ang**3):
siesta:    -0.750507   -0.000011   -0.000000
siesta:    -0.000011   -0.750519    0.000000
siesta:    -0.000000    0.000000    0.447291

siesta: Cell volume =         71.628557 Ang**3

siesta: Pressure (static):
siesta:                Solid            Molecule  Units
siesta:           0.00382551          0.00373824  Ry/Bohr**3
siesta:           0.35124495          0.34323223  eV/Ang**3
siesta:         562.76252749        549.92460546  kBar
(Free)E+ p_basis*V_orbitals  =        -167.573399
(Free)Eharris+ p_basis*V_orbitals  =        -167.573397

cite: Please see "LiC6_scf.bib" for an exhaustive BiBTeX file.
cite: Please clearly indicate Siesta version in published work: 4.1.5
cite: This calculation has made use of the following articles
cite: which are encouraged to be cited in a published work.
        Primary SIESTA paper
          DOI: www.doi.org/10.1088/0953-8984/14/11/302

>> End of run:   9-NOV-2022  10:21:25
Job completed
