Siesta Version  : 4.1.5
Architecture    : x86_64-unknown-linux-gnu--unknown
Compiler version: GNU Fortran (GCC) 11.3.0
Compiler flags  : mpif90 -g -O2 -fallow-argument-mismatch
PP flags        : -DMPI -DFC_HAVE_FLUSH -DFC_HAVE_ABORT
Libraries       :  -I/global/software/sl-7.x86_64/modules/intel/2020.4.304/mkl/include  /globall/software/sl-7.x86_64/modules/intel/2020.4.304/mkl/lib/intel64/libmkl_scalapack_lp64.a -Wl,--start-group /global/software/sl-7.x86_64/modules/intel/2020.4.304/mkl/lib/intel64/libmkl_intel_lp64.a /global/software/sl-7.x86_64/modules/intel/2020.4.304/mkl/lib/intel64/libmkl_sequential.a /global/software/sl-7.x86_64/modules/intel/2020.4.304/mkl/lib/intel64/libmkl_core.a /global/software/sl-7.x86_64/modules/intel/2020.4.304/mkl/lib/intel64/libmkl_blacs_openmpi_lp64.a -Wl,--end-group -lpthread -lm -ldl
PARALLEL version

* Running on 4 nodes in parallel
>> Start of run:   9-NOV-2022  10:20:50

                           ***********************       
                           *  WELCOME TO SIESTA  *       
                           ***********************       

reinit: Reading from standard input
reinit: Dumped input in INPUT_TMP.17839
************************** Dump of input data file ****************************
SystemName LiC6_scf
SystemLabel LiC6_scf
NumberOfAtoms   7
NumberOfSpecies 2
%block ChemicalSpeciesLabel
1  3   Li-gga
2  6   C-gga
%endblock ChemicalSpeciesLabel
PAO.BasisSize  DZ
PAO.EnergyShift  10 meV
%block PS.Lmax
C-gga   2
Li-gga  2
%endblock PS.Lmax
LatticeConstant 1.000000 Ang
%block LatticeVectors
	4.3161300000	0.0000000000	0.0000000000
	-2.1580650000	3.7378782260	0.0000000000
	0.0000000000	0.0000000000	4.7358208000
%endblock LatticeVectors
AtomicCoordinatesFormat Ang
%block AtomicCoordinatesAndAtomicSpecies
	0.00000000	0.00000000	0.00000000	2
	-0.70288177	1.21742694	2.36791040	1
	-1.45518323	2.52045129	2.36791040	1
	1.45518323	2.52045129	2.36791040	1
	0.70288177	1.21742694	2.36791040	1
	1.40576354	0.00000000	2.36791040	1
	2.91036646	0.00000000	2.36791040	1
%endblock AtomicCoordinatesAndAtomicSpecies
Kgrid_NoTRS  T
%block kgrid_MonkhorstPack
3       0       0       0.0
0       3       0       0.0
0       0       3       0.0
%endblock kgrid_MonkhorstPack
AtomCoorFormatOut Ang
BlockSize 1
#ProcessorY 12
Diag.ParallelOverK   T
Diag.DivideAndConquer F
MeshCutoff   300 Ry
SCF.FreeE.Tolerance 1E-3 eV
SCF.EDM.Tolerance   5E-3 eV
DM.Tolerance  1E-3
DM.Require.Energy.Convergence T
DM.NumberPulay 4
XC.Functional GGA
XC.Authors    PBE
UseSaveData        F
MD.TypeOfRun       CG
MD.VariableCell    F
MD.NumCGsteps      00
MD.MaxCGDispl      0.200000 Bohr
MD.MaxStressTol    1.000000 GPa
MD.MaxForceTol     0.010000 eV/Ang
WriteMDHistory T
WriteCoorStep T
WriteForces T
WriteCoorStep    T
WriteEigenValues T
WriteDM    F
MM.UnitsDistance Ang  # what this program prints out DO NOT CHANGE
MM.UnitsEnergy    eV  # what this program prints out DO NOT CHANGE
MM.Grimme.S6     0.75 # Grimme-paper for PBE (correct for your functional)
MM.Grimme.D     20.   # Grimme-paper (correct for your functional)
%block MM.Potentials
  1   1 Grimme     16.69      1.650 # Li, 10.1002/jcc.20495
  1   2 Grimme     17.40      2.277 # Li / C
  2   2 Grimme     18.14      2.904 # C, 10.1002/jcc.20495
%endblock MM.Potentials
#%block ProjectedDensityOfStates
# -200.0  120.0  0.4  12800  eV
#%endblock ProjectedDensityOfStates
************************** End of input data file *****************************

reinit: -----------------------------------------------------------------------
reinit: System Name: LiC6_scf
reinit: -----------------------------------------------------------------------
reinit: System Label: LiC6_scf
reinit: -----------------------------------------------------------------------
Reading two-body potentials
Grimme - two-body potential between 1 and 1
Grimme - two-body potential between 1 and 2
Grimme - two-body potential between 2 and 2

initatom: Reading input for the pseudopotentials and atomic orbitals ----------
Species number:   1 Atomic number:    3 Label: Li-gga
Species number:   2 Atomic number:    6 Label: C-gga

Ground state valence configuration:   2s01
Reading pseudopotential information in formatted form from Li-gga.psf

Valence configuration for pseudopotential generation:
2s( 1.00) rc: 2.28
2p( 0.00) rc: 2.28
3d( 0.00) rc: 2.59
4f( 0.00) rc: 2.59
Ground state valence configuration:   2s02  2p02
Reading pseudopotential information in formatted form from C-gga.psf

Valence configuration for pseudopotential generation:
2s( 2.00) rc: 1.56
2p( 2.00) rc: 1.56
3d( 0.00) rc: 1.56
4f( 0.00) rc: 1.56
relmxkb: Read Max KB Ang. Momentum=    2 for species C-gga
relmxkb: Read Max KB Ang. Momentum=    2 for species Li-gga

<basis_specs>
===============================================================================
Li-gga               Z=   3    Mass=  6.9400        Charge= 0.17977+309
Lmxo=0 Lmxkb= 2    BasisType=split      Semic=F
L=0  Nsemic=0  Cnfigmx=2
          i=1  nzeta=2  polorb=0  (2s)
            splnorm:   0.15000    
               vcte:    0.0000    
               rinn:    0.0000    
               qcoe:    0.0000    
               qyuk:    0.0000    
               qwid:   0.10000E-01
                rcs:    0.0000      0.0000    
            lambdas:    1.0000      1.0000    
-------------------------------------------------------------------------------
L=0  Nkbl=1  erefs: 0.17977+309
L=1  Nkbl=1  erefs: 0.17977+309
L=2  Nkbl=1  erefs: 0.17977+309
===============================================================================
</basis_specs>

atom: Called for Li-gga                (Z =   3)

read_vps: Pseudopotential generation method:
read_vps: ATM 3.2.2 Troullier-Martins                       
Valence charge for ps generation:    1.00000

read_vps: Pseudopotential includes a core correction:
read_vps: Pseudo-core for xc-correction

xc_check: Exchange-correlation functional:
xc_check: GGA Perdew, Burke & Ernzerhof 1996
V l=0 = -2*Zval/r beyond r=  2.2278
V l=1 = -2*Zval/r beyond r=  2.2278
V l=2 = -2*Zval/r beyond r=  2.5245
All V_l potentials equal beyond r=  2.4622
This should be close to max(r_c) in ps generation
All pots = -2*Zval/r beyond r=  2.5245

VLOCAL1: 99.0% of the norm of Vloc inside      7.160 Ry
VLOCAL1: 99.9% of the norm of Vloc inside     16.318 Ry
atom: Maximum radius for 4*pi*r*r*local-pseudopot. charge    2.86079
atom: Maximum radius for r*vlocal+2*Zval:    2.43160
GHOST: No ghost state for L =  0
GHOST: No ghost state for L =  1
GHOST: No ghost state for L =  2

KBgen: Kleinman-Bylander projectors: 
   l= 0   rc=  2.654023   el= -0.211234   Ekb=  1.742119   kbcos=  0.228463
   l= 1   rc=  2.721230   el= -0.080095   Ekb= -1.122375   kbcos= -0.147941
   l= 2   rc=  2.825246   el=  0.002001   Ekb= -0.207076   kbcos= -0.031965

KBgen: Total number of Kleinman-Bylander projectors:    9
atom: -------------------------------------------------------------------------

atom: SANKEY-TYPE ORBITALS:
atom: Selected multiple-zeta basis: split     

SPLIT: Orbitals with angular momentum L= 0

SPLIT: Basis orbitals for state 2s

SPLIT: PAO cut-off radius determined from an
SPLIT: energy shift=  0.000735 Ry

   izeta = 1
                 lambda =    1.000000
                     rc =   11.897381
                 energy =   -0.210580
                kinetic =    0.143382
    potential(screened) =   -0.353962
       potential(ionic) =   -0.533453

   izeta = 2
                 rmatch =    8.489163
              splitnorm =    0.150000
                 energy =   -0.186081
                kinetic =    0.225882
    potential(screened) =   -0.411964
       potential(ionic) =   -0.593024
atom: Total number of Sankey-type orbitals:  2

atm_pop: Valence configuration (for local Pseudopot. screening):
 2s( 1.00)                                                            
Vna: chval, zval:    1.00000   1.00000

Vna:  Cut-off radius for the neutral-atom potential:  11.897381
comcore: Pseudo-core radius Rcore=  3.450946

atom: _________________________________________________________________________

<basis_specs>
===============================================================================
C-gga                Z=   6    Mass=  12.010        Charge= 0.17977+309
Lmxo=1 Lmxkb= 2    BasisType=split      Semic=F
L=0  Nsemic=0  Cnfigmx=2
          i=1  nzeta=2  polorb=0  (2s)
            splnorm:   0.15000    
               vcte:    0.0000    
               rinn:    0.0000    
               qcoe:    0.0000    
               qyuk:    0.0000    
               qwid:   0.10000E-01
                rcs:    0.0000      0.0000    
            lambdas:    1.0000      1.0000    
L=1  Nsemic=0  Cnfigmx=2
          i=1  nzeta=2  polorb=0  (2p)
            splnorm:   0.15000    
               vcte:    0.0000    
               rinn:    0.0000    
               qcoe:    0.0000    
               qyuk:    0.0000    
               qwid:   0.10000E-01
                rcs:    0.0000      0.0000    
            lambdas:    1.0000      1.0000    
-------------------------------------------------------------------------------
L=0  Nkbl=1  erefs: 0.17977+309
L=1  Nkbl=1  erefs: 0.17977+309
L=2  Nkbl=1  erefs: 0.17977+309
===============================================================================
</basis_specs>

atom: Called for C-gga                 (Z =   6)

read_vps: Pseudopotential generation method:
read_vps: ATM 3.2.2 Troullier-Martins                       
Valence charge for ps generation:    4.00000

xc_check: Exchange-correlation functional:
xc_check: GGA Perdew, Burke & Ernzerhof 1996
V l=0 = -2*Zval/r beyond r=  1.5227
V l=1 = -2*Zval/r beyond r=  1.5227
V l=2 = -2*Zval/r beyond r=  1.5227
All V_l potentials equal beyond r=  1.4851
This should be close to max(r_c) in ps generation
All pots = -2*Zval/r beyond r=  1.5227

VLOCAL1: 99.0% of the norm of Vloc inside     19.682 Ry
VLOCAL1: 99.9% of the norm of Vloc inside     44.856 Ry
atom: Maximum radius for 4*pi*r*r*local-pseudopot. charge    1.79142
atom: Maximum radius for r*vlocal+2*Zval:    1.54183
GHOST: No ghost state for L =  0
GHOST: No ghost state for L =  1
GHOST: No ghost state for L =  2

KBgen: Kleinman-Bylander projectors: 
   l= 0   rc=  1.661951   el= -1.010689   Ekb=  5.289847   kbcos=  0.316429
   l= 1   rc=  1.661951   el= -0.388490   Ekb= -4.102504   kbcos= -0.351025
   l= 2   rc=  1.747182   el=  0.001971   Ekb= -1.006005   kbcos= -0.008530

KBgen: Total number of Kleinman-Bylander projectors:    9
atom: -------------------------------------------------------------------------

atom: SANKEY-TYPE ORBITALS:
atom: Selected multiple-zeta basis: split     

SPLIT: Orbitals with angular momentum L= 0

SPLIT: Basis orbitals for state 2s

SPLIT: PAO cut-off radius determined from an
SPLIT: energy shift=  0.000735 Ry

   izeta = 1
                 lambda =    1.000000
                     rc =    5.948690
                 energy =   -1.010099
                kinetic =    0.827121
    potential(screened) =   -1.837220
       potential(ionic) =   -5.392783

   izeta = 2
                 rmatch =    3.518811
              splitnorm =    0.150000
                 energy =   -0.877891
                kinetic =    1.289227
    potential(screened) =   -2.167118
       potential(ionic) =   -5.982073

SPLIT: Orbitals with angular momentum L= 1

SPLIT: Basis orbitals for state 2p

SPLIT: PAO cut-off radius determined from an
SPLIT: energy shift=  0.000735 Ry

   izeta = 1
                 lambda =    1.000000
                     rc =    7.638387
                 energy =   -0.387843
                kinetic =    2.314739
    potential(screened) =   -2.702582
       potential(ionic) =   -6.092371

   izeta = 2
                 rmatch =    3.840617
              splitnorm =    0.150000
                 energy =   -0.270479
                kinetic =    3.438347
    potential(screened) =   -3.708826
       potential(ionic) =   -7.497707
atom: Total number of Sankey-type orbitals:  8

atm_pop: Valence configuration (for local Pseudopot. screening):
 2s( 2.00)                                                            
 2p( 2.00)                                                            
Vna: chval, zval:    4.00000   4.00000

Vna:  Cut-off radius for the neutral-atom potential:   7.638387

atom: _________________________________________________________________________

prinput: Basis input ----------------------------------------------------------

PAO.BasisType split     

%block ChemicalSpeciesLabel
    1    3 Li-gga                  # Species index, atomic number, species label
    2    6 C-gga                   # Species index, atomic number, species label
%endblock ChemicalSpeciesLabel

%block PAO.Basis                 # Define Basis set
Li-gga                1                    # Species label, number of l-shells
 n=2   0   2                         # n, l, Nzeta 
  11.897      8.489   
   1.000      1.000   
C-gga                 2                    # Species label, number of l-shells
 n=2   0   2                         # n, l, Nzeta 
   5.949      3.519   
   1.000      1.000   
 n=2   1   2                         # n, l, Nzeta 
   7.638      3.841   
   1.000      1.000   
%endblock PAO.Basis

prinput: ----------------------------------------------------------------------

coor:   Atomic-coordinates input format  =     Cartesian coordinates
coor:                                          (in Angstroms)

siesta: Atomic coordinates (Bohr) and species
siesta:      0.00000   0.00000   0.00000  2        1
siesta:     -1.32825   2.30060   4.47470  1        2
siesta:     -2.74990   4.76296   4.47470  1        3
siesta:      2.74990   4.76296   4.47470  1        4
siesta:      1.32825   2.30060   4.47470  1        5
siesta:      2.65651   0.00000   4.47470  1        6
siesta:      5.49980   0.00000   4.47470  1        7

siesta: System type = bulk      

initatomlists: Number of atoms, orbitals, and projectors:      7    20    63

siesta: ******************** Simulation parameters ****************************
siesta:
siesta: The following are some of the parameters of the simulation.
siesta: A complete list of the parameters used, including default values,
siesta: can be found in file out.fdf
siesta:
redata: Spin configuration                          = none
redata: Number of spin components                   = 1
redata: Time-Reversal Symmetry                      = T
redata: Spin spiral                                 = F
redata: Long output                                 =   F
redata: Number of Atomic Species                    =        2
redata: Charge density info will appear in .RHO file
redata: Write Mulliken Pop.                         = NO
redata: Matel table size (NRTAB)                    =     1024
redata: Mesh Cutoff                                 =   300.0000 Ry
redata: Net charge of the system                    =     0.0000 |e|
redata: Min. number of SCF Iter                     =        0
redata: Max. number of SCF Iter                     =     1000
redata: SCF convergence failure will abort job
redata: SCF mix quantity                            = Hamiltonian
redata: Mix DM or H after convergence               =   F
redata: Recompute H after scf cycle                 =   F
redata: Mix DM in first SCF step                    =   T
redata: Write Pulay info on disk                    =   F
redata: New DM Occupancy tolerance                  = 0.000000000001
redata: No kicks to SCF
redata: DM Mixing Weight for Kicks                  =     0.5000
redata: Require Harris convergence for SCF          =   F
redata: Harris energy tolerance for SCF             =     0.000100 eV
redata: Require DM convergence for SCF              =   T
redata: DM tolerance for SCF                        =     0.001000
redata: Require EDM convergence for SCF             =   F
redata: EDM tolerance for SCF                       =     0.005000 eV
redata: Require H convergence for SCF               =   T
redata: Hamiltonian tolerance for SCF               =     0.001000 eV
redata: Require (free) Energy convergence for SCF   =   T
redata: (free) Energy tolerance for SCF             =     0.001000 eV
redata: Using Saved Data (generic)                  =   F
redata: Use continuation files for DM               =   F
redata: Neglect nonoverlap interactions             =   F
redata: Method of Calculation                       = Diagonalization
redata: Electronic Temperature                      =   299.9869 K
redata: Fix the spin of the system                  =   F
redata: Dynamics option                             = Single-point calculation
mix.SCF: Pulay mixing                            = Pulay
mix.SCF:    Variant                              = stable
mix.SCF:    History steps                        = 4
mix.SCF:    Linear mixing weight                 =     0.250000
mix.SCF:    Mixing weight                        =     0.250000
mix.SCF:    SVD condition                        = 0.1000E-07
redata: ***********************************************************************

%block SCF.Mixers
  Pulay
%endblock SCF.Mixers

%block SCF.Mixer.Pulay
  # Mixing method
  method pulay
  variant stable

  # Mixing options
  weight 0.2500
  weight.linear 0.2500
  history 4
%endblock SCF.Mixer.Pulay

DM_history_depth set to one: no extrapolation allowed by default for geometry relaxation
Size of DM history Fstack: 1
Total number of electrons:    10.000000
Total ionic charge:    10.000000

* ProcessorY, Blocksize:    2   1


* Orbital distribution balance (max,min):     5     5

 Kpoints in:           18 . Kpoints trimmed:           14

siesta: k-grid: Number of k-points =    14
siesta: k-grid: Cutoff (effective) =     6.474 Ang
siesta: k-grid: Supercell and displacements
siesta: k-grid:    3   0   0      0.000
siesta: k-grid:    0   3   0      0.000
siesta: k-grid:    0   0   3      0.000

diag: Algorithm                                     = Expert
diag: Parallel over k                               =   T
diag: Use parallel 2D distribution                  =   T
diag: Parallel block-size                           = 1
diag: Parallel distribution                         =     2 x     2
diag: Used triangular part                          = Lower
diag: Absolute tolerance                            =  0.100E-15
diag: Orthogonalization factor                      =  0.100E-05
diag: Memory factor                                 =  1.0000

superc: Internal auxiliary supercell:     9 x     9 x     5  =     405
superc: Number of atoms, orbitals, and projectors:   2835   8100  25515


ts: **************************************************************
ts: Save H and S matrices                           =    F
ts: Save DM and EDM matrices                        =    F
ts: Only save the overlap matrix S                  =    F
ts: **************************************************************

************************ Begin: TS CHECKS AND WARNINGS ************************
************************ End: TS CHECKS AND WARNINGS **************************


                     ====================================
                        Single-point calculation
                     ====================================

outcoor: Atomic coordinates (Ang):                          
    0.00000000    0.00000000    0.00000000   2       1  C-gga
   -0.70288177    1.21742694    2.36791040   1       2  Li-gga
   -1.45518323    2.52045129    2.36791040   1       3  Li-gga
    1.45518323    2.52045129    2.36791040   1       4  Li-gga
    0.70288177    1.21742694    2.36791040   1       5  Li-gga
    1.40576354    0.00000000    2.36791040   1       6  Li-gga
    2.91036646    0.00000000    2.36791040   1       7  Li-gga

superc: Internal auxiliary supercell:     9 x     9 x     5  =     405
superc: Number of atoms, orbitals, and projectors:   2835   8100  25515

outcell: Unit cell vectors (Ang):
        4.316130    0.000000    0.000000
       -2.158065    3.737878    0.000000
        0.000000    0.000000    4.735821

outcell: Cell vector modules (Ang)   :    4.316130    4.316130    4.735821
outcell: Cell angles (23,13,12) (deg):     90.0000     90.0000    120.0000
outcell: Cell volume (Ang**3)        :     76.4038
<dSpData1D:S at geom step 0
  <sparsity:sparsity for geom step 0
    nrows_g=20 nrows=5 sparsity=21.6675 nnzs=8667, refcount: 7>
  <dData1D:(new from dSpData1D) n=8667, refcount: 1>
refcount: 1>
new_DM -- step:     1
Initializing Density Matrix...
DM filled with atomic data:
<dSpData2D:DM initialized from atoms
  <sparsity:sparsity for geom step 0
    nrows_g=20 nrows=5 sparsity=21.6675 nnzs=8667, refcount: 8>
  <dData2D:DM n=8667 m=1, refcount: 1>
refcount: 1>
No. of atoms with KB's overlaping orbs in proc 0. Max # of overlaps:     235     259
New grid distribution:   1
           1       1:   20    1:   10    1:   13
           2       1:   20    1:   10   14:   25
           3       1:   20   11:   20    1:   13
           4       1:   20   11:   20   14:   25

InitMesh: MESH =    40 x    40 x    50 =       80000
InitMesh: (bp) =    20 x    20 x    25 =       10000
InitMesh: Mesh cutoff (required, used) =   300.000   308.071 Ry
ExtMesh (bp) on 0 =   156 x   146 x   149 =     3393624
New grid distribution:   2
           1       1:   20    1:   10    1:   12
           2       1:   20    1:   10   13:   25
           3       1:   20   11:   20    1:   12
           4       1:   20   11:   20   13:   25
New grid distribution:   3
           1       1:   20    1:   10    1:   13
           2       1:   20    1:   10   14:   25
           3       1:   20   11:   20    1:   13
           4       1:   20   11:   20   14:   25
Setting up quadratic distribution...
ExtMesh (bp) on 0 =   156 x   146 x   148 =     3370848
PhiOnMesh: Number of (b)points on node 0 =                 2400
PhiOnMesh: nlist on node 0 =               316693

stepf: Fermi-Dirac step function

siesta: Program's energy decomposition (eV):
siesta: Ebs     =      -104.816994
siesta: Eions   =       321.344870
siesta: Ena     =        93.528751
siesta: Ekin    =       131.568879
siesta: Enl     =        18.246239
siesta: Eso     =         0.000000
siesta: Edftu   =         0.000000
siesta: DEna    =         1.532718
siesta: DUscf   =         2.506802
siesta: DUext   =         0.000000
siesta: Exc     =       -98.364861
siesta: eta*DQ  =         0.000000
siesta: Emadel  =         0.000000
siesta: Emeta   =         0.000000
siesta: Emolmec =        -2.831027
siesta: Ekinion =         0.000000
siesta: Eharris =      -161.011291
siesta: Etot    =      -175.157368
siesta: FreeEng =      -175.161293

        iscf     Eharris(eV)        E_KS(eV)     FreeEng(eV)     dDmax    Ef(eV) dHmax(eV)
   scf:    1     -161.011291     -175.157368     -175.161293 32.720333 -8.749563  5.502321
timer: Routine,Calls,Time,% = IterSCF        1       1.189  26.12
   scf:    2     -174.540093     -176.431103     -176.441458 10.244712 -8.094127  3.062953
   scf:    3     -176.927060     -176.714631     -176.725884  2.838433 -8.414345  1.470157
   scf:    4     -176.391895     -176.719675     -176.750897  3.477445 -8.581521  1.160748
   scf:    5     -176.836730     -176.797095     -176.826358  1.119511 -8.562903  0.369218
   scf:    6     -176.728298     -176.788527     -176.808831  1.356079 -8.513191  0.621377
   scf:    7     -175.038851     -176.278249     -176.292675  4.833820 -8.600892  2.923928
   scf:    8     -176.812138     -176.806252     -176.833016  4.034018 -8.535200  0.080399
   scf:    9     -176.805714     -176.806095     -176.833384  0.090770 -8.537962  0.016319
   scf:   10     -176.805988     -176.806043     -176.833395  0.011151 -8.538478  0.007777
   scf:   11     -176.805926     -176.805986     -176.833399  0.010581 -8.538870  0.000459
   scf:   12     -176.805988     -176.805987     -176.833399  0.003629 -8.539035  0.000769
   scf:   13     -176.805982     -176.805984     -176.833399  0.000547 -8.539066  0.000345

SCF Convergence by FreeE+DM+H criterion
|FreeE_i-FreeE_(i-1)| (eV) <     0.00100000
max |DM_out - DM_in|         :     0.0005471605
max |H_out - H_in|      (eV) :     0.0003446698
SCF cycle converged after 13 iterations

Using DM_out to compute the final energy and forces
No. of atoms with KB's overlaping orbs in proc 0. Max # of overlaps:     235     259

MM-Stress (kbar):       -4.07       -4.07       44.04       -0.00        0.00       -0.00

siesta: E_KS(eV) =             -176.8060

siesta: E_KS - E_eggbox =      -176.8060

siesta: Atomic forces (eV/Ang):
     1    0.000000   -0.000000    0.000000
     2   -0.008266    0.014297   -0.000000
     3    0.008266   -0.014297   -0.000000
     4   -0.008305   -0.014385   -0.000000
     5    0.008305    0.014385   -0.000000
     6    0.016514   -0.000010   -0.000000
     7   -0.016514    0.000010   -0.000000
----------------------------------------
   Tot   -0.000000   -0.000000   -0.000000
----------------------------------------
   Max    0.016514
   Res    0.008844    sqrt( Sum f_i^2 / 3N )
----------------------------------------
   Max    0.016514    constrained

Stress tensor Voigt[x,y,z,yz,xz,xy] (kbar):    -1172.97    -1172.98      635.79       -0.00       -0.00       -0.01
(Free)E + p*V (eV/cell)     -149.6492
Target enthalpy (eV/cell)     -176.8334

siesta: Eigenvalues (eV):
  ik is       eps
   1  1  -17.4572  -12.6138  -12.6138  -11.0480   -9.8406   -7.6958   -7.6957    1.3040    3.5250    3.5252
           4.9656   13.1812   17.1521   17.1522   20.4877   20.4877   21.4007   39.0863   39.0863   63.2206
   2  1  -17.5687  -12.8090  -11.4112  -10.4697   -8.8154   -7.5940   -3.8621   -1.7347    0.2341    0.5507
           7.5770    7.6887   15.1931   18.3307   18.9412   20.4347   21.5556   49.2420   50.5641   55.6362
   3  1  -17.5687  -12.8090  -11.4112  -10.4697   -8.8155   -7.5939   -3.8620   -1.7348    0.2341    0.5507
           7.5770    7.6888   15.1931   18.3307   18.9412   20.4346   21.5556   49.2420   50.5641   55.6362
   4  1  -17.5687  -12.8090  -11.4112  -10.4697   -8.8154   -7.5940   -3.8621   -1.7347    0.2341    0.5507
           7.5770    7.6887   15.1931   18.3307   18.9412   20.4347   21.5556   49.2420   50.5641   55.6362
   5  1  -17.7917  -12.0897  -11.7144   -8.3244   -8.3243   -2.9419   -1.2081    4.1882    4.1884    5.3860
           5.3861   10.5289   23.7257   23.7257   24.2916   25.9117   25.9118   31.8100   31.8100  139.0341
   6  1  -17.2146  -12.8346  -11.9185  -11.9185   -9.4444   -9.4444   -6.4819   -3.2585   -3.2584   -0.7991
          10.5930   10.5931   10.6116   14.4816   16.1011   16.1011   20.9077   22.6367   22.6367   24.3933
   7  1  -17.2719  -13.2685  -11.6158   -9.4249   -8.5719   -8.5270   -4.5975   -3.6660   -2.1839    2.5562
           4.9547    5.3664   11.2789   12.6069   20.9574   21.1535   22.9695   28.3424   36.5079   54.9826
   8  1  -17.2719  -13.2685  -11.6158   -9.4249   -8.5719   -8.5271   -4.5975   -3.6660   -2.1839    2.5563
           4.9545    5.3664   11.2789   12.6069   20.9575   21.1535   22.9695   28.3424   36.5079   54.9826
   9  1  -17.2719  -13.2685  -11.6158   -9.4249   -8.5719   -8.5270   -4.5975   -3.6660   -2.1839    2.5562
           4.9547    5.3664   11.2789   12.6069   20.9574   21.1535   22.9695   28.3424   36.5079   54.9826
  10  1  -17.4804  -13.7724   -9.3719   -8.1610   -8.1609   -5.8154   -0.5196   -0.5195    0.0570    0.0571
           2.5970    8.1288    8.1290   12.7149   16.9007   16.9007   24.2861   24.3574   24.3575   51.0774
  11  1  -17.2719  -13.2685  -11.6158   -9.4249   -8.5719   -8.5270   -4.5975   -3.6660   -2.1839    2.5562
           4.9547    5.3664   11.2789   12.6069   20.9574   21.1535   22.9695   28.3424   36.5079   54.9826
  12  1  -17.2719  -13.2685  -11.6158   -9.4249   -8.5719   -8.5271   -4.5975   -3.6660   -2.1839    2.5563
           4.9545    5.3664   11.2789   12.6069   20.9575   21.1535   22.9695   28.3424   36.5079   54.9826
  13  1  -17.2719  -13.2685  -11.6158   -9.4249   -8.5719   -8.5270   -4.5975   -3.6660   -2.1839    2.5562
           4.9547    5.3664   11.2789   12.6069   20.9574   21.1535   22.9695   28.3424   36.5079   54.9826
  14  1  -17.2146  -12.8346  -11.9185  -11.9185   -9.4444   -9.4444   -6.4819   -3.2585   -3.2584   -0.7991
          10.5930   10.5931   10.6116   14.4816   16.1011   16.1011   20.9077   22.6367   22.6367   24.3933
siesta: Fermi energy =      -8.539066 eV

siesta: Program's energy decomposition (eV):
siesta: Ebs     =      -121.949488
siesta: Eions   =       321.344870
siesta: Ena     =        93.528751
siesta: Ekin    =       118.030146
siesta: Enl     =        25.328378
siesta: Eso     =         0.000000
siesta: Edftu   =         0.000000
siesta: DEna    =         5.537830
siesta: DUscf   =         0.336477
siesta: DUext   =         0.000000
siesta: Exc     =       -95.391669
siesta: eta*DQ  =         0.000000
siesta: Emadel  =         0.000000
siesta: Emeta   =         0.000000
siesta: Emolmec =        -2.831027
siesta: Ekinion =         0.000000
siesta: Eharris =      -176.805982
siesta: Etot    =      -176.805984
siesta: FreeEng =      -176.833399

siesta: Final energy (eV):
siesta:  Band Struct. =    -121.949488
siesta:       Kinetic =     118.030146
siesta:       Hartree =      42.550171
siesta:       Edftu   =       0.000000
siesta:       Eso     =       0.000000
siesta:    Ext. field =       0.000000
siesta:   Exch.-corr. =     -95.391669
siesta:  Ion-electron =    -221.290370
siesta:       Ion-ion =     -17.873235
siesta:       Ekinion =       0.000000
siesta:         Total =    -176.805984
siesta:         Fermi =      -8.539066

siesta: Atomic forces (eV/Ang):
siesta:      1    0.000000   -0.000000    0.000000
siesta:      2   -0.008266    0.014297   -0.000000
siesta:      3    0.008266   -0.014297   -0.000000
siesta:      4   -0.008305   -0.014385   -0.000000
siesta:      5    0.008305    0.014385   -0.000000
siesta:      6    0.016514   -0.000010   -0.000000
siesta:      7   -0.016514    0.000010   -0.000000
siesta: ----------------------------------------
siesta:    Tot   -0.000000   -0.000000   -0.000000

siesta: Stress tensor (static) (eV/Ang**3):
siesta:    -0.732100   -0.000008   -0.000000
siesta:    -0.000008   -0.732110   -0.000000
siesta:    -0.000000   -0.000000    0.396823

siesta: Cell volume =         76.403794 Ang**3

siesta: Pressure (static):
siesta:                Solid            Molecule  Units
siesta:           0.00387507          0.00387862  Ry/Bohr**3
siesta:           0.35579593          0.35612177  eV/Ang**3
siesta:         570.05408270        570.57614388  kBar
(Free)E+ p_basis*V_orbitals  =        -165.574081
(Free)Eharris+ p_basis*V_orbitals  =        -165.574078

cite: Please see "LiC6_scf.bib" for an exhaustive BiBTeX file.
cite: Please clearly indicate Siesta version in published work: 4.1.5
cite: This calculation has made use of the following articles
cite: which are encouraged to be cited in a published work.
        Primary SIESTA paper
          DOI: www.doi.org/10.1088/0953-8984/14/11/302

>> End of run:   9-NOV-2022  10:21:05
Job completed
