Siesta Version  : 4.1.5
Architecture    : x86_64-unknown-linux-gnu--unknown
Compiler version: GNU Fortran (GCC) 11.3.0
Compiler flags  : mpif90 -g -O2 -fallow-argument-mismatch
PP flags        : -DMPI -DFC_HAVE_FLUSH -DFC_HAVE_ABORT
Libraries       :  -I/global/software/sl-7.x86_64/modules/intel/2020.4.304/mkl/include  /globall/software/sl-7.x86_64/modules/intel/2020.4.304/mkl/lib/intel64/libmkl_scalapack_lp64.a -Wl,--start-group /global/software/sl-7.x86_64/modules/intel/2020.4.304/mkl/lib/intel64/libmkl_intel_lp64.a /global/software/sl-7.x86_64/modules/intel/2020.4.304/mkl/lib/intel64/libmkl_sequential.a /global/software/sl-7.x86_64/modules/intel/2020.4.304/mkl/lib/intel64/libmkl_core.a /global/software/sl-7.x86_64/modules/intel/2020.4.304/mkl/lib/intel64/libmkl_blacs_openmpi_lp64.a -Wl,--end-group -lpthread -lm -ldl
PARALLEL version

* Running on 4 nodes in parallel
>> Start of run:   9-NOV-2022  10:08:18

                           ***********************       
                           *  WELCOME TO SIESTA  *       
                           ***********************       

reinit: Reading from standard input
reinit: Dumped input in INPUT_TMP.65994
************************** Dump of input data file ****************************
SystemName LiC6_scf
SystemLabel LiC6_scf
NumberOfAtoms   7
NumberOfSpecies 2
%block ChemicalSpeciesLabel
1  3   Li-gga
2  6   C-gga
%endblock ChemicalSpeciesLabel
PAO.BasisSize  DZ
PAO.EnergyShift  10 meV
%block PS.Lmax
C-gga   2
Li-gga  2
%endblock PS.Lmax
LatticeConstant 1.000000 Ang
%block LatticeVectors
	4.3161300000	0.0000000000	0.0000000000
	-2.1580650000	3.7378782260	0.0000000000
	0.0000000000	0.0000000000	3.3298740000
%endblock LatticeVectors
AtomicCoordinatesFormat Ang
%block AtomicCoordinatesAndAtomicSpecies
	0.00000000	0.00000000	0.00000000	2
	-0.70288177	1.21742694	1.66493700	1
	-1.45518323	2.52045129	1.66493700	1
	1.45518323	2.52045129	1.66493700	1
	0.70288177	1.21742694	1.66493700	1
	1.40576354	0.00000000	1.66493700	1
	2.91036646	0.00000000	1.66493700	1
%endblock AtomicCoordinatesAndAtomicSpecies
Kgrid_NoTRS  T
%block kgrid_MonkhorstPack
3       0       0       0.0
0       3       0       0.0
0       0       3       0.0
%endblock kgrid_MonkhorstPack
AtomCoorFormatOut Ang
BlockSize 1
#ProcessorY 12
Diag.ParallelOverK   T
Diag.DivideAndConquer F
MeshCutoff   300 Ry
SCF.FreeE.Tolerance 1E-3 eV
SCF.EDM.Tolerance   5E-3 eV
DM.Tolerance  1E-3
DM.Require.Energy.Convergence T
DM.NumberPulay 4
XC.Functional GGA
XC.Authors    PBE
UseSaveData        F
MD.TypeOfRun       CG
MD.VariableCell    F
MD.NumCGsteps      00
MD.MaxCGDispl      0.200000 Bohr
MD.MaxStressTol    1.000000 GPa
MD.MaxForceTol     0.010000 eV/Ang
WriteMDHistory T
WriteCoorStep T
WriteForces T
WriteCoorStep    T
WriteEigenValues T
WriteDM    F
MM.UnitsDistance Ang  # what this program prints out DO NOT CHANGE
MM.UnitsEnergy    eV  # what this program prints out DO NOT CHANGE
MM.Grimme.S6     0.75 # Grimme-paper for PBE (correct for your functional)
MM.Grimme.D     20.   # Grimme-paper (correct for your functional)
%block MM.Potentials
  1   1 Grimme     16.69      1.650 # Li, 10.1002/jcc.20495
  1   2 Grimme     17.40      2.277 # Li / C
  2   2 Grimme     18.14      2.904 # C, 10.1002/jcc.20495
%endblock MM.Potentials
#%block ProjectedDensityOfStates
# -200.0  120.0  0.4  12800  eV
#%endblock ProjectedDensityOfStates
************************** End of input data file *****************************

reinit: -----------------------------------------------------------------------
reinit: System Name: LiC6_scf
reinit: -----------------------------------------------------------------------
reinit: System Label: LiC6_scf
reinit: -----------------------------------------------------------------------
Reading two-body potentials
Grimme - two-body potential between 1 and 1
Grimme - two-body potential between 1 and 2
Grimme - two-body potential between 2 and 2

initatom: Reading input for the pseudopotentials and atomic orbitals ----------
Species number:   1 Atomic number:    3 Label: Li-gga
Species number:   2 Atomic number:    6 Label: C-gga

Ground state valence configuration:   2s01
Reading pseudopotential information in formatted form from Li-gga.psf

Valence configuration for pseudopotential generation:
2s( 1.00) rc: 2.28
2p( 0.00) rc: 2.28
3d( 0.00) rc: 2.59
4f( 0.00) rc: 2.59
Ground state valence configuration:   2s02  2p02
Reading pseudopotential information in formatted form from C-gga.psf

Valence configuration for pseudopotential generation:
2s( 2.00) rc: 1.56
2p( 2.00) rc: 1.56
3d( 0.00) rc: 1.56
4f( 0.00) rc: 1.56
relmxkb: Read Max KB Ang. Momentum=    2 for species C-gga
relmxkb: Read Max KB Ang. Momentum=    2 for species Li-gga

<basis_specs>
===============================================================================
Li-gga               Z=   3    Mass=  6.9400        Charge= 0.17977+309
Lmxo=0 Lmxkb= 2    BasisType=split      Semic=F
L=0  Nsemic=0  Cnfigmx=2
          i=1  nzeta=2  polorb=0  (2s)
            splnorm:   0.15000    
               vcte:    0.0000    
               rinn:    0.0000    
               qcoe:    0.0000    
               qyuk:    0.0000    
               qwid:   0.10000E-01
                rcs:    0.0000      0.0000    
            lambdas:    1.0000      1.0000    
-------------------------------------------------------------------------------
L=0  Nkbl=1  erefs: 0.17977+309
L=1  Nkbl=1  erefs: 0.17977+309
L=2  Nkbl=1  erefs: 0.17977+309
===============================================================================
</basis_specs>

atom: Called for Li-gga                (Z =   3)

read_vps: Pseudopotential generation method:
read_vps: ATM 3.2.2 Troullier-Martins                       
Valence charge for ps generation:    1.00000

read_vps: Pseudopotential includes a core correction:
read_vps: Pseudo-core for xc-correction

xc_check: Exchange-correlation functional:
xc_check: GGA Perdew, Burke & Ernzerhof 1996
V l=0 = -2*Zval/r beyond r=  2.2278
V l=1 = -2*Zval/r beyond r=  2.2278
V l=2 = -2*Zval/r beyond r=  2.5245
All V_l potentials equal beyond r=  2.4622
This should be close to max(r_c) in ps generation
All pots = -2*Zval/r beyond r=  2.5245

VLOCAL1: 99.0% of the norm of Vloc inside      7.160 Ry
VLOCAL1: 99.9% of the norm of Vloc inside     16.318 Ry
atom: Maximum radius for 4*pi*r*r*local-pseudopot. charge    2.86079
atom: Maximum radius for r*vlocal+2*Zval:    2.43160
GHOST: No ghost state for L =  0
GHOST: No ghost state for L =  1
GHOST: No ghost state for L =  2

KBgen: Kleinman-Bylander projectors: 
   l= 0   rc=  2.654023   el= -0.211234   Ekb=  1.742119   kbcos=  0.228463
   l= 1   rc=  2.721230   el= -0.080095   Ekb= -1.122375   kbcos= -0.147941
   l= 2   rc=  2.825246   el=  0.002001   Ekb= -0.207076   kbcos= -0.031965

KBgen: Total number of Kleinman-Bylander projectors:    9
atom: -------------------------------------------------------------------------

atom: SANKEY-TYPE ORBITALS:
atom: Selected multiple-zeta basis: split     

SPLIT: Orbitals with angular momentum L= 0

SPLIT: Basis orbitals for state 2s

SPLIT: PAO cut-off radius determined from an
SPLIT: energy shift=  0.000735 Ry

   izeta = 1
                 lambda =    1.000000
                     rc =   11.897381
                 energy =   -0.210580
                kinetic =    0.143382
    potential(screened) =   -0.353962
       potential(ionic) =   -0.533453

   izeta = 2
                 rmatch =    8.489163
              splitnorm =    0.150000
                 energy =   -0.186081
                kinetic =    0.225882
    potential(screened) =   -0.411964
       potential(ionic) =   -0.593024
atom: Total number of Sankey-type orbitals:  2

atm_pop: Valence configuration (for local Pseudopot. screening):
 2s( 1.00)                                                            
Vna: chval, zval:    1.00000   1.00000

Vna:  Cut-off radius for the neutral-atom potential:  11.897381
comcore: Pseudo-core radius Rcore=  3.450946

atom: _________________________________________________________________________

<basis_specs>
===============================================================================
C-gga                Z=   6    Mass=  12.010        Charge= 0.17977+309
Lmxo=1 Lmxkb= 2    BasisType=split      Semic=F
L=0  Nsemic=0  Cnfigmx=2
          i=1  nzeta=2  polorb=0  (2s)
            splnorm:   0.15000    
               vcte:    0.0000    
               rinn:    0.0000    
               qcoe:    0.0000    
               qyuk:    0.0000    
               qwid:   0.10000E-01
                rcs:    0.0000      0.0000    
            lambdas:    1.0000      1.0000    
L=1  Nsemic=0  Cnfigmx=2
          i=1  nzeta=2  polorb=0  (2p)
            splnorm:   0.15000    
               vcte:    0.0000    
               rinn:    0.0000    
               qcoe:    0.0000    
               qyuk:    0.0000    
               qwid:   0.10000E-01
                rcs:    0.0000      0.0000    
            lambdas:    1.0000      1.0000    
-------------------------------------------------------------------------------
L=0  Nkbl=1  erefs: 0.17977+309
L=1  Nkbl=1  erefs: 0.17977+309
L=2  Nkbl=1  erefs: 0.17977+309
===============================================================================
</basis_specs>

atom: Called for C-gga                 (Z =   6)

read_vps: Pseudopotential generation method:
read_vps: ATM 3.2.2 Troullier-Martins                       
Valence charge for ps generation:    4.00000

xc_check: Exchange-correlation functional:
xc_check: GGA Perdew, Burke & Ernzerhof 1996
V l=0 = -2*Zval/r beyond r=  1.5227
V l=1 = -2*Zval/r beyond r=  1.5227
V l=2 = -2*Zval/r beyond r=  1.5227
All V_l potentials equal beyond r=  1.4851
This should be close to max(r_c) in ps generation
All pots = -2*Zval/r beyond r=  1.5227

VLOCAL1: 99.0% of the norm of Vloc inside     19.682 Ry
VLOCAL1: 99.9% of the norm of Vloc inside     44.856 Ry
atom: Maximum radius for 4*pi*r*r*local-pseudopot. charge    1.79142
atom: Maximum radius for r*vlocal+2*Zval:    1.54183
GHOST: No ghost state for L =  0
GHOST: No ghost state for L =  1
GHOST: No ghost state for L =  2

KBgen: Kleinman-Bylander projectors: 
   l= 0   rc=  1.661951   el= -1.010689   Ekb=  5.289847   kbcos=  0.316429
   l= 1   rc=  1.661951   el= -0.388490   Ekb= -4.102504   kbcos= -0.351025
   l= 2   rc=  1.747182   el=  0.001971   Ekb= -1.006005   kbcos= -0.008530

KBgen: Total number of Kleinman-Bylander projectors:    9
atom: -------------------------------------------------------------------------

atom: SANKEY-TYPE ORBITALS:
atom: Selected multiple-zeta basis: split     

SPLIT: Orbitals with angular momentum L= 0

SPLIT: Basis orbitals for state 2s

SPLIT: PAO cut-off radius determined from an
SPLIT: energy shift=  0.000735 Ry

   izeta = 1
                 lambda =    1.000000
                     rc =    5.948690
                 energy =   -1.010099
                kinetic =    0.827121
    potential(screened) =   -1.837220
       potential(ionic) =   -5.392783

   izeta = 2
                 rmatch =    3.518811
              splitnorm =    0.150000
                 energy =   -0.877891
                kinetic =    1.289227
    potential(screened) =   -2.167118
       potential(ionic) =   -5.982073

SPLIT: Orbitals with angular momentum L= 1

SPLIT: Basis orbitals for state 2p

SPLIT: PAO cut-off radius determined from an
SPLIT: energy shift=  0.000735 Ry

   izeta = 1
                 lambda =    1.000000
                     rc =    7.638387
                 energy =   -0.387843
                kinetic =    2.314739
    potential(screened) =   -2.702582
       potential(ionic) =   -6.092371

   izeta = 2
                 rmatch =    3.840617
              splitnorm =    0.150000
                 energy =   -0.270479
                kinetic =    3.438347
    potential(screened) =   -3.708826
       potential(ionic) =   -7.497707
atom: Total number of Sankey-type orbitals:  8

atm_pop: Valence configuration (for local Pseudopot. screening):
 2s( 2.00)                                                            
 2p( 2.00)                                                            
Vna: chval, zval:    4.00000   4.00000

Vna:  Cut-off radius for the neutral-atom potential:   7.638387

atom: _________________________________________________________________________

prinput: Basis input ----------------------------------------------------------

PAO.BasisType split     

%block ChemicalSpeciesLabel
    1    3 Li-gga                  # Species index, atomic number, species label
    2    6 C-gga                   # Species index, atomic number, species label
%endblock ChemicalSpeciesLabel

%block PAO.Basis                 # Define Basis set
Li-gga                1                    # Species label, number of l-shells
 n=2   0   2                         # n, l, Nzeta 
  11.897      8.489   
   1.000      1.000   
C-gga                 2                    # Species label, number of l-shells
 n=2   0   2                         # n, l, Nzeta 
   5.949      3.519   
   1.000      1.000   
 n=2   1   2                         # n, l, Nzeta 
   7.638      3.841   
   1.000      1.000   
%endblock PAO.Basis

prinput: ----------------------------------------------------------------------

coor:   Atomic-coordinates input format  =     Cartesian coordinates
coor:                                          (in Angstroms)

siesta: Atomic coordinates (Bohr) and species
siesta:      0.00000   0.00000   0.00000  2        1
siesta:     -1.32825   2.30060   3.14628  1        2
siesta:     -2.74990   4.76296   3.14628  1        3
siesta:      2.74990   4.76296   3.14628  1        4
siesta:      1.32825   2.30060   3.14628  1        5
siesta:      2.65651   0.00000   3.14628  1        6
siesta:      5.49980   0.00000   3.14628  1        7

siesta: System type = bulk      

initatomlists: Number of atoms, orbitals, and projectors:      7    20    63

siesta: ******************** Simulation parameters ****************************
siesta:
siesta: The following are some of the parameters of the simulation.
siesta: A complete list of the parameters used, including default values,
siesta: can be found in file out.fdf
siesta:
redata: Spin configuration                          = none
redata: Number of spin components                   = 1
redata: Time-Reversal Symmetry                      = T
redata: Spin spiral                                 = F
redata: Long output                                 =   F
redata: Number of Atomic Species                    =        2
redata: Charge density info will appear in .RHO file
redata: Write Mulliken Pop.                         = NO
redata: Matel table size (NRTAB)                    =     1024
redata: Mesh Cutoff                                 =   300.0000 Ry
redata: Net charge of the system                    =     0.0000 |e|
redata: Min. number of SCF Iter                     =        0
redata: Max. number of SCF Iter                     =     1000
redata: SCF convergence failure will abort job
redata: SCF mix quantity                            = Hamiltonian
redata: Mix DM or H after convergence               =   F
redata: Recompute H after scf cycle                 =   F
redata: Mix DM in first SCF step                    =   T
redata: Write Pulay info on disk                    =   F
redata: New DM Occupancy tolerance                  = 0.000000000001
redata: No kicks to SCF
redata: DM Mixing Weight for Kicks                  =     0.5000
redata: Require Harris convergence for SCF          =   F
redata: Harris energy tolerance for SCF             =     0.000100 eV
redata: Require DM convergence for SCF              =   T
redata: DM tolerance for SCF                        =     0.001000
redata: Require EDM convergence for SCF             =   F
redata: EDM tolerance for SCF                       =     0.005000 eV
redata: Require H convergence for SCF               =   T
redata: Hamiltonian tolerance for SCF               =     0.001000 eV
redata: Require (free) Energy convergence for SCF   =   T
redata: (free) Energy tolerance for SCF             =     0.001000 eV
redata: Using Saved Data (generic)                  =   F
redata: Use continuation files for DM               =   F
redata: Neglect nonoverlap interactions             =   F
redata: Method of Calculation                       = Diagonalization
redata: Electronic Temperature                      =   299.9869 K
redata: Fix the spin of the system                  =   F
redata: Dynamics option                             = Single-point calculation
mix.SCF: Pulay mixing                            = Pulay
mix.SCF:    Variant                              = stable
mix.SCF:    History steps                        = 4
mix.SCF:    Linear mixing weight                 =     0.250000
mix.SCF:    Mixing weight                        =     0.250000
mix.SCF:    SVD condition                        = 0.1000E-07
redata: ***********************************************************************

%block SCF.Mixers
  Pulay
%endblock SCF.Mixers

%block SCF.Mixer.Pulay
  # Mixing method
  method pulay
  variant stable

  # Mixing options
  weight 0.2500
  weight.linear 0.2500
  history 4
%endblock SCF.Mixer.Pulay

DM_history_depth set to one: no extrapolation allowed by default for geometry relaxation
Size of DM history Fstack: 1
Total number of electrons:    10.000000
Total ionic charge:    10.000000

* ProcessorY, Blocksize:    2   1


* Orbital distribution balance (max,min):     5     5

 Kpoints in:           18 . Kpoints trimmed:           14

siesta: k-grid: Number of k-points =    14
siesta: k-grid: Cutoff (effective) =     4.995 Ang
siesta: k-grid: Supercell and displacements
siesta: k-grid:    3   0   0      0.000
siesta: k-grid:    0   3   0      0.000
siesta: k-grid:    0   0   3      0.000

diag: Algorithm                                     = Expert
diag: Parallel over k                               =   T
diag: Use parallel 2D distribution                  =   T
diag: Parallel block-size                           = 1
diag: Parallel distribution                         =     2 x     2
diag: Used triangular part                          = Lower
diag: Absolute tolerance                            =  0.100E-15
diag: Orthogonalization factor                      =  0.100E-05
diag: Memory factor                                 =  1.0000

superc: Internal auxiliary supercell:     9 x     9 x     9  =     729
superc: Number of atoms, orbitals, and projectors:   5103  14580  45927


ts: **************************************************************
ts: Save H and S matrices                           =    F
ts: Save DM and EDM matrices                        =    F
ts: Only save the overlap matrix S                  =    F
ts: **************************************************************

************************ Begin: TS CHECKS AND WARNINGS ************************
************************ End: TS CHECKS AND WARNINGS **************************


                     ====================================
                        Single-point calculation
                     ====================================

outcoor: Atomic coordinates (Ang):                          
    0.00000000    0.00000000    0.00000000   2       1  C-gga
   -0.70288177    1.21742694    1.66493700   1       2  Li-gga
   -1.45518323    2.52045129    1.66493700   1       3  Li-gga
    1.45518323    2.52045129    1.66493700   1       4  Li-gga
    0.70288177    1.21742694    1.66493700   1       5  Li-gga
    1.40576354    0.00000000    1.66493700   1       6  Li-gga
    2.91036646    0.00000000    1.66493700   1       7  Li-gga

superc: Internal auxiliary supercell:     9 x     9 x     9  =     729
superc: Number of atoms, orbitals, and projectors:   5103  14580  45927

outcell: Unit cell vectors (Ang):
        4.316130    0.000000    0.000000
       -2.158065    3.737878    0.000000
        0.000000    0.000000    3.329874

outcell: Cell vector modules (Ang)   :    4.316130    4.316130    3.329874
outcell: Cell angles (23,13,12) (deg):     90.0000     90.0000    120.0000
outcell: Cell volume (Ang**3)        :     53.7214
<dSpData1D:S at geom step 0
  <sparsity:sparsity for geom step 0
    nrows_g=20 nrows=5 sparsity=35.9925 nnzs=14397, refcount: 7>
  <dData1D:(new from dSpData1D) n=14397, refcount: 1>
refcount: 1>
new_DM -- step:     1
Initializing Density Matrix...
DM filled with atomic data:
<dSpData2D:DM initialized from atoms
  <sparsity:sparsity for geom step 0
    nrows_g=20 nrows=5 sparsity=35.9925 nnzs=14397, refcount: 8>
  <dData2D:DM n=14397 m=1, refcount: 1>
refcount: 1>
No. of atoms with KB's overlaping orbs in proc 0. Max # of overlaps:     356     391
New grid distribution:   1
           1       1:   20    1:   10    1:    9
           2       1:   20    1:   10   10:   18
           3       1:   20   11:   20    1:    9
           4       1:   20   11:   20   10:   18

InitMesh: MESH =    40 x    40 x    36 =       57600
InitMesh: (bp) =    20 x    20 x    18 =        7200
InitMesh: Mesh cutoff (required, used) =   300.000   316.498 Ry
ExtMesh (bp) on 0 =   156 x   146 x   149 =     3393624
New grid distribution:   2
           1       1:   10    1:   10    1:   18
           2      11:   20    1:   10    1:   18
           3       1:   10   11:   20    1:   18
           4      11:   20   11:   20    1:   18
New grid distribution:   3
           1       1:   10    1:   10    1:   18
           2      11:   20    1:   10    1:   18
           3       1:   10   11:   20    1:   18
           4      11:   20   11:   20    1:   18
Setting up quadratic distribution...
ExtMesh (bp) on 0 =   146 x   146 x   158 =     3367928
PhiOnMesh: Number of (b)points on node 0 =                 1800
PhiOnMesh: nlist on node 0 =               336217

stepf: Fermi-Dirac step function

siesta: Program's energy decomposition (eV):
siesta: Ebs     =      -122.938415
siesta: Eions   =       321.344870
siesta: Ena     =        83.111523
siesta: Ekin    =       179.561296
siesta: Enl     =        -3.610816
siesta: Eso     =         0.000000
siesta: Edftu   =         0.000000
siesta: DEna    =       -16.690516
siesta: DUscf   =         9.729860
siesta: DUext   =         0.000000
siesta: Exc     =      -110.920249
siesta: eta*DQ  =         0.000000
siesta: Emadel  =         0.000000
siesta: Emeta   =         0.000000
siesta: Emolmec =        -3.317186
siesta: Ekinion =         0.000000
siesta: Eharris =      -160.766176
siesta: Etot    =      -183.480957
siesta: FreeEng =      -183.491950

        iscf     Eharris(eV)        E_KS(eV)     FreeEng(eV)     dDmax    Ef(eV) dHmax(eV)
   scf:    1     -160.766176     -183.480957     -183.491950 34.635449-12.029036 11.240454
timer: Routine,Calls,Time,% = IterSCF        1       1.701  25.97
   scf:    2     -191.569634     -189.335021     -189.343640  6.152131-12.090650  0.867379
   scf:    3     -189.388043     -189.369818     -189.378439  0.402867-12.140183  0.127351
   scf:    4     -189.370578     -189.371992     -189.380612  0.438932-12.249603  0.218946
   scf:    5     -189.375060     -189.373819     -189.382437  0.126011-12.253844  0.081820
   scf:    6     -189.374188     -189.374101     -189.382719  0.081134-12.256287  0.000363
   scf:    7     -189.374101     -189.374101     -189.382719  0.003099-12.255857  0.000032
   scf:    8     -189.374101     -189.374101     -189.382719  0.000056-12.255854  0.000029

SCF Convergence by FreeE+DM+H criterion
|FreeE_i-FreeE_(i-1)| (eV) <     0.00100000
max |DM_out - DM_in|         :     0.0000564877
max |H_out - H_in|      (eV) :     0.0000288618
SCF cycle converged after 8 iterations

Using DM_out to compute the final energy and forces
No. of atoms with KB's overlaping orbs in proc 0. Max # of overlaps:     356     391

MM-Stress (kbar):      -17.30      -17.30        1.72        0.00       -0.00       -0.00

siesta: E_KS(eV) =             -189.3741

siesta: E_KS - E_eggbox =      -189.3741

siesta: Atomic forces (eV/Ang):
     1   -0.000000    0.000000    0.000000
     2    0.564130   -0.977081   -0.000000
     3   -0.564130    0.977081   -0.000000
     4    0.564159    0.977152   -0.000000
     5   -0.564159   -0.977152   -0.000000
     6   -1.128242    0.000010   -0.000000
     7    1.128242   -0.000010   -0.000000
----------------------------------------
   Tot   -0.000000    0.000000    0.000000
----------------------------------------
   Max    1.128242
   Res    0.603084    sqrt( Sum f_i^2 / 3N )
----------------------------------------
   Max    1.128242    constrained

Stress tensor Voigt[x,y,z,yz,xz,xy] (kbar):    -1276.51    -1276.54      664.35        0.00        0.00       -0.02
(Free)E + p*V (eV/cell)     -168.2734
Target enthalpy (eV/cell)     -189.3827

siesta: Eigenvalues (eV):
  ik is       eps
   1  1  -22.4792  -16.2430  -16.2430  -15.0096  -11.4463  -11.4461   -5.9166    1.3896    1.5049    2.4509
           2.4513    8.1527    8.1527   14.5108   20.0211   20.0212   23.8421   42.4488   57.9057   57.9057
   2  1  -22.6569  -16.6503  -15.2337  -13.7235  -13.4791  -10.9241   -4.8308   -2.5341   -0.2342    3.8999
           3.9268   11.4727   18.2264   18.7448   20.1920   23.7318   31.3805   37.1605   42.5750   56.3617
   3  1  -22.6569  -16.6503  -15.2337  -13.7236  -13.4791  -10.9240   -4.8309   -2.5340   -0.2342    3.8997
           3.9270   11.4727   18.2264   18.7448   20.1919   23.7317   31.3805   37.1605   42.5749   56.3615
   4  1  -22.6569  -16.6503  -15.2337  -13.7235  -13.4791  -10.9241   -4.8308   -2.5341   -0.2342    3.8999
           3.9268   11.4727   18.2264   18.7448   20.1920   23.7318   31.3805   37.1605   42.5750   56.3617
   5  1  -22.9287  -15.6460  -15.0037  -13.3987  -13.3986   -2.3279   -1.4437   -1.4436    0.1186    2.1873
           2.1877   22.2428   22.2430   22.2506   23.4737   52.3757   84.4162   84.4163   87.2365   87.2365
   6  1  -22.0600  -16.8010  -15.4567  -15.4567  -12.2843  -12.2842   -4.0579   -2.9733   -2.9728   -0.9244
           2.9361   17.7335   17.7336   20.7043   20.7926   20.7927   35.4599   35.4599   37.7856   45.2950
   7  1  -22.1912  -16.8725  -15.5638  -13.7710  -13.2450  -11.9651   -7.8564   -2.0780   -1.7216   -1.0036
           1.0272    6.2481    8.5005   14.1502   18.1131   19.5200   20.9416   39.2626   43.6412   47.1008
   8  1  -22.1912  -16.8725  -15.5638  -13.7711  -13.2450  -11.9651   -7.8562   -2.0782   -1.7215   -1.0036
           1.0271    6.2481    8.5004   14.1503   18.1132   19.5200   20.9416   39.2626   43.6412   47.1008
   9  1  -22.1912  -16.8725  -15.5638  -13.7710  -13.2450  -11.9651   -7.8564   -2.0780   -1.7216   -1.0036
           1.0272    6.2481    8.5005   14.1502   18.1131   19.5200   20.9416   39.2626   43.6412   47.1008
  10  1  -22.4956  -17.2776  -14.6196  -13.3769  -13.3767  -10.0454   -2.0273   -2.0273   -1.0493    1.9509
           1.9511    3.9659    3.9661   13.0428   15.5570   15.5570   23.1199   25.2285   25.2286   69.8811
  11  1  -22.1912  -16.8725  -15.5638  -13.7710  -13.2450  -11.9651   -7.8564   -2.0780   -1.7216   -1.0036
           1.0272    6.2481    8.5005   14.1502   18.1131   19.5200   20.9416   39.2626   43.6412   47.1008
  12  1  -22.1912  -16.8725  -15.5638  -13.7711  -13.2450  -11.9651   -7.8562   -2.0782   -1.7215   -1.0036
           1.0271    6.2481    8.5004   14.1503   18.1132   19.5200   20.9416   39.2626   43.6412   47.1008
  13  1  -22.1912  -16.8725  -15.5638  -13.7710  -13.2450  -11.9651   -7.8564   -2.0780   -1.7216   -1.0036
           1.0272    6.2481    8.5005   14.1502   18.1131   19.5200   20.9416   39.2626   43.6412   47.1008
  14  1  -22.0600  -16.8010  -15.4567  -15.4567  -12.2843  -12.2842   -4.0579   -2.9733   -2.9728   -0.9244
           2.9361   17.7335   17.7336   20.7043   20.7926   20.7927   35.4599   35.4599   37.7856   45.2950
siesta: Fermi energy =     -12.255854 eV

siesta: Program's energy decomposition (eV):
siesta: Ebs     =      -163.378301
siesta: Eions   =       321.344870
siesta: Ena     =        83.111523
siesta: Ekin    =       144.126747
siesta: Enl     =         8.281566
siesta: Eso     =         0.000000
siesta: Edftu   =         0.000000
siesta: DEna    =         2.204327
siesta: DUscf   =         1.142607
siesta: DUext   =         0.000000
siesta: Exc     =      -103.578815
siesta: eta*DQ  =         0.000000
siesta: Emadel  =         0.000000
siesta: Emeta   =         0.000000
siesta: Emolmec =        -3.317186
siesta: Ekinion =         0.000000
siesta: Eharris =      -189.374101
siesta: Etot    =      -189.374101
siesta: FreeEng =      -189.382719

siesta: Final energy (eV):
siesta:  Band Struct. =    -163.378301
siesta:       Kinetic =     144.126747
siesta:       Hartree =      53.595072
siesta:       Edftu   =       0.000000
siesta:       Eso     =       0.000000
siesta:    Ext. field =       0.000000
siesta:   Exch.-corr. =    -103.578815
siesta:  Ion-electron =    -299.958488
siesta:       Ion-ion =      19.758570
siesta:       Ekinion =       0.000000
siesta:         Total =    -189.374101
siesta:         Fermi =     -12.255854

siesta: Atomic forces (eV/Ang):
siesta:      1   -0.000000    0.000000    0.000000
siesta:      2    0.564130   -0.977081   -0.000000
siesta:      3   -0.564130    0.977081   -0.000000
siesta:      4    0.564159    0.977152   -0.000000
siesta:      5   -0.564159   -0.977152   -0.000000
siesta:      6   -1.128242    0.000010   -0.000000
siesta:      7    1.128242   -0.000010   -0.000000
siesta: ----------------------------------------
siesta:    Tot   -0.000000    0.000000    0.000000

siesta: Stress tensor (static) (eV/Ang**3):
siesta:    -0.796728   -0.000014    0.000000
siesta:    -0.000014   -0.796743    0.000000
siesta:     0.000000    0.000000    0.414649

siesta: Cell volume =         53.721418 Ang**3

siesta: Pressure (static):
siesta:                Solid            Molecule  Units
siesta:           0.00427962          0.00393546  Ry/Bohr**3
siesta:           0.39294052          0.36134056  eV/Ang**3
siesta:         629.56691682        578.93766729  kBar
(Free)E+ p_basis*V_orbitals  =        -178.123401
(Free)Eharris+ p_basis*V_orbitals  =        -178.123401

cite: Please see "LiC6_scf.bib" for an exhaustive BiBTeX file.
cite: Please clearly indicate Siesta version in published work: 4.1.5
cite: This calculation has made use of the following articles
cite: which are encouraged to be cited in a published work.
        Primary SIESTA paper
          DOI: www.doi.org/10.1088/0953-8984/14/11/302

>> End of run:   9-NOV-2022  10:08:35
Job completed
