BEGIN_CFG
 Size
    189
 Supercell
        13.036821      0.050269      0.000000
        -6.474878     11.315351      0.000000
         0.000000      0.000000     10.684313
 AtomData:  id type       cartes_x      cartes_y      cartes_z           fx          fy          fz
             1    0      -0.000200      0.001000     -0.000200     0.001600   -0.004300    0.004700
             2    0      -0.000200      0.001100      3.563200     0.001700   -0.004500   -0.030100
             3    0      -0.000200      0.001000      7.121200     0.001800   -0.004200    0.029500
             4    0      -2.158400      3.773200     -0.000200     0.000600   -0.004900    0.003600
             5    0      -4.315500      7.541800     -0.000200    -0.005600    0.006300    0.004200
             6    0       4.373000      7.576100     -0.000200     0.006100    0.002600    0.004700
             7    0       2.186100      3.790400     -0.000200     0.005500   -0.006600    0.003700
             8    0       4.346700      0.016800     -0.000200    -0.004500    0.000300    0.004400
             9    0       8.691300      0.033800     -0.000300     0.000300   -0.000900    0.004900
            10    0      -2.158400      3.773300      3.563200     0.000500   -0.005100   -0.030200
            11    0      -4.315500      7.541800      7.121100    -0.005500    0.006200    0.029900
            12    0       4.373000      7.576000      3.563300     0.006200    0.003000   -0.031100
            13    0       2.186100      3.790500      7.121100     0.005300   -0.006900    0.031100
            14    0       4.346800      0.016800      3.563200    -0.004600    0.000100   -0.030300
            15    0       8.691300      0.033700      7.121100     0.000200   -0.000800    0.029900
            16    0      -4.315500      7.541700      3.563200    -0.005600    0.006500   -0.030200
            17    0      -2.158400      3.773200      7.121100     0.000500   -0.005000    0.030800
            18    0       2.186100      3.790500      3.563200     0.005400   -0.006900   -0.030700
            19    0       4.372900      7.576100      7.121100     0.006200    0.002600    0.030400
            20    0       8.691200      0.033800      3.563200     0.000300   -0.001000   -0.030700
            21    0       4.346800      0.016800      7.121100    -0.004600    0.000300    0.029900
            22    0       0.028600      7.559100     -0.000200     0.001000    0.004100    0.004400
            23    0       6.532700      3.806000     -0.000200    -0.000100   -0.001600    0.003700
            24    0       0.028700      7.559000      3.563200     0.000900    0.004400   -0.030800
            25    0       6.532700      3.806000      7.121100    -0.000000   -0.001600    0.030900
            26    0       6.532700      3.806000      3.563200     0.000000   -0.001700   -0.030500
            27    0       0.028700      7.559100      7.121100     0.000700    0.004000    0.030600
            28    1      -0.757600      1.298100      1.780800     0.437600   -5.212600    0.001600
            29    1      -5.716700     10.017300      8.903500    -0.448800    5.225500   -0.002300
            30    1       5.951800     10.308500      1.780900    -5.381100   -9.315900    0.002500
            31    1       0.610700      1.057000      8.903500     5.376900    9.322500   -0.003500
            32    1       1.503400     -0.007700      1.780800    -4.750200   -2.220800    0.001700
            33    1      11.534000      0.057800      8.903500     4.729000    2.221800   -0.002300
            34    1      -5.716700     10.017300      1.780800    -0.448300    5.225100    0.001600
            35    1      -0.757600      1.298100      8.903500     0.438400   -5.213300   -0.002300
            36    1       0.610700      1.057000      1.780800     5.376700    9.322400    0.002500
            37    1       5.951800     10.308500      8.903500    -5.381100   -9.316100   -0.003600
            38    1      11.534100      0.057800      1.780800     4.727600    2.222100    0.001600
            39    1       1.503400     -0.007700      8.903500    -4.751200   -2.220500   -0.002300
            40    1      -0.757600      1.298200      5.342200     0.444100   -5.217800    0.000100
            41    1      -5.716700     10.017200      5.342200    -0.454300    5.230000   -0.000000
            42    1       5.951700     10.308300      5.342200    -5.381400   -9.316500   -0.000000
            43    1       0.610800      1.057200      5.342200     5.377100    9.322800    0.000200
            44    1       1.503400     -0.007700      5.342100    -4.757100   -2.217900    0.000100
            45    1      11.534000      0.057800      5.342200     4.735400    2.219200    0.000000
            46    1      -2.916400      5.070000      1.780800     0.447000   -5.222500    0.001700
            47    1      -3.558800      6.245500      8.903500    -0.443900    5.219400   -0.002400
            48    1       3.764600      6.519800      1.780900    -5.387800   -9.324800    0.002400
            49    1       2.797900      4.845500      8.903500     5.380900    9.327000   -0.003300
            50    1       5.848600      0.009300      1.780800    -4.728100   -2.223200    0.001600
            51    1       7.188000      0.041200      8.903500     4.734800    2.219800   -0.002400
            52    1      -3.558800      6.245500      1.780800    -0.443300    5.218700    0.001600
            53    1      -2.916400      5.070000      8.903500     0.447600   -5.223100   -0.002300
            54    1       2.797900      4.845500      1.780900     5.381000    9.327000    0.002500
            55    1       3.764500      6.519800      8.903500    -5.387800   -9.324900   -0.003500
            56    1       7.188000      0.041200      1.780800     4.733700    2.220100    0.001600
            57    1       5.848600      0.009300      8.903500    -4.729500   -2.222900   -0.002300
            58    1      -2.916400      5.070100      5.342100     0.453300   -5.227800    0.000000
            59    1      -3.558700      6.245400      5.342200    -0.449900    5.224200    0.000100
            60    1       3.764400      6.519600      5.342200    -5.388100   -9.325500    0.000200
            61    1       2.798000      4.845600      5.342100     5.381200    9.327500    0.000100
            62    1       5.848700      0.009300      5.342100    -4.736000   -2.220300    0.000000
            63    1       7.187900      0.041200      5.342200     4.741400    2.217200    0.000100
            64    1      -5.075300      8.841400      1.780800     0.453700   -5.227800    0.001800
            65    1      -1.399800      2.473900      8.903500    -0.445100    5.216300   -0.002300
            66    1       1.577600      2.731800      1.780900    -5.386200   -9.325300    0.002700
            67    1       4.984700      8.633400      8.903500     5.380600    9.329000   -0.003500
            68    1      10.194700      0.025800      1.780800    -4.737400   -2.220400    0.001700
            69    1       2.842400      0.024600      8.903500     4.749800    2.219300   -0.002400
            70    1      -1.399800      2.473900      1.780900    -0.444300    5.215400    0.001800
            71    1      -5.075300      8.841400      8.903500     0.454300   -5.228500   -0.002200
            72    1       4.984700      8.633400      1.780900     5.380500    9.328900    0.002700
            73    1       1.577600      2.731800      8.903500    -5.386300   -9.325300   -0.003800
            74    1       2.842400      0.024600      1.780800     4.748900    2.219600    0.001700
            75    1      10.194700      0.025800      8.903500    -4.738600   -2.220100   -0.002300
            76    1      -5.075300      8.841500      5.342100     0.459800   -5.232800   -0.000100
            77    1      -1.399800      2.473800      5.342100    -0.450700    5.220500   -0.000100
            78    1       1.577500      2.731600      5.342200    -5.386500   -9.325800   -0.000000
            79    1       4.984800      8.633600      5.342100     5.380900    9.329200    0.000000
            80    1      10.194700      0.025800      5.342200    -4.745100   -2.217500    0.000100
            81    1       2.842400      0.024600      5.342100     4.755900    2.216700    0.000100
            82    1       3.587600      1.315000      1.780800     0.450900   -5.230600    0.001600
            83    1       2.974500     10.050600      8.903500    -0.442700    5.216400   -0.002300
            84    1      10.268700      2.765700      1.780900    -5.382500   -9.327500    0.002700
            85    1      -3.707000      8.600200      8.903500     5.388000    9.324800   -0.003500
            86    1       5.877800      7.569100      1.780800    -4.763700   -2.223300    0.001700
            87    1       0.684500      3.796100      8.903500     4.743400    2.224900   -0.002300
            88    1       2.974500     10.050600      1.780800    -0.441800    5.215500    0.001700
            89    1       3.587600      1.315000      8.903500     0.451300   -5.230800   -0.002300
            90    1      -3.707000      8.600200      1.780900     5.387900    9.324600    0.002600
            91    1      10.268700      2.765600      8.903500    -5.382600   -9.327500   -0.003600
            92    1       0.684500      3.796100      1.780800     4.743100    2.225300    0.001800
            93    1       5.877800      7.569200      8.903500    -4.764800   -2.223100   -0.002400
            94    1      -0.654600      3.764400      8.903500    -4.752200   -2.225100   -0.002300
            95    1       7.216600      7.601200      1.780800     4.765500    2.227300    0.001700
            96    1      -2.739900     10.275200      8.903500    -5.376100   -9.320100   -0.003600
            97    1       9.301600      1.090300      1.780900     5.379000    9.322200    0.002500
            98    1       3.616400      8.874700      8.903500     0.441400   -5.211900   -0.002400
            99    1       2.945900      2.490700      1.780900    -0.453500    5.229800    0.001800
           100    1       7.216600      7.601200      8.903500     4.766300    2.227000   -0.002300
           101    1      -0.654600      3.764400      1.780800    -4.752200   -2.225500    0.001700
           102    1       9.301600      1.090300      8.903500     5.379200    9.322400   -0.003500
           103    1      -2.739800     10.275200      1.780900    -5.376100   -9.320100    0.002600
           104    1       2.945900      2.490700      8.903500    -0.453900    5.230100   -0.002400
           105    1       3.616400      8.874700      1.780800     0.440700   -5.211200    0.001800
           106    1       3.587600      1.315100      5.342200     0.456900   -5.235300    0.000100
           107    1       2.974500     10.050500      5.342100    -0.448500    5.221000   -0.000000
           108    1      10.268600      2.765500      5.342100    -5.382700   -9.327700   -0.000000
           109    1      -3.706900      8.600400      5.342100     5.388000    9.325000    0.000000
           110    1       5.877800      7.569200      5.342200    -4.771000   -2.220400    0.000100
           111    1       0.684400      3.796100      5.342100     4.750800    2.222200    0.000000
           112    1      -0.654600      3.764400      5.342100    -4.759800   -2.222600    0.000000
           113    1       7.216500      7.601200      5.342100     4.772600    2.224400    0.000000
           114    1      -2.739900     10.275100      5.342200    -5.376600   -9.320400   -0.000000
           115    1       9.301700      1.090400      5.342200     5.379500    9.322600    0.000200
           116    1       3.616400      8.874800      5.342100     0.447300   -5.216700   -0.000000
           117    1       2.945900      2.490600      5.342200    -0.459700    5.234700   -0.000000
           118    1       1.429600      5.086500      1.780800     0.444300   -5.222200    0.001700
           119    1       5.132800      6.278800      8.903500    -0.458500    5.241400   -0.002400
           120    1       1.606100     10.292000      1.780900    -5.379900   -9.319400    0.002500
           121    1       4.955900      1.074000      8.903500     5.382600    9.319000   -0.003400
           122    1      -2.813700      7.536000      1.780800    -4.740200   -2.226000    0.001600
           123    1       9.375300      3.829800      8.903500     4.748100    2.223100   -0.002300
           124    1       5.132800      6.278800      1.780800    -0.458000    5.241100    0.001700
           125    1       1.429600      5.086500      8.903500     0.444700   -5.222600   -0.002400
           126    1       4.955900      1.074000      1.780800     5.382600    9.318700    0.002500
           127    1       1.606100     10.292000      8.903500    -5.380000   -9.319500   -0.003500
           128    1       9.375300      3.829800      1.780800     4.747800    2.223300    0.001800
           129    1      -2.813700      7.536000      8.903500    -4.741000   -2.225700   -0.002200
           130    1       3.690800      3.781100      8.903500    -4.767900   -2.225700   -0.002300
           131    1       2.871400      7.584100      1.780800     4.746000    2.229800    0.001700
           132    1       8.109700      6.536900      8.903500    -5.381000   -9.327400   -0.003500
           133    1      -1.548100      4.828600      1.780900     5.384500    9.326200    0.002500
           134    1       7.933300      1.331800      8.903500     0.441100   -5.215200   -0.002300
           135    1      -1.371500     10.034100      1.780800    -0.436200    5.208100    0.001700
           136    1       2.871400      7.584100      8.903500     4.747000    2.229500   -0.002300
           137    1       3.690800      3.781100      1.780800    -4.767300   -2.226000    0.001800
           138    1      -1.548100      4.828600      8.903500     5.384500    9.326100   -0.003400
           139    1       8.109700      6.536900      1.780900    -5.380900   -9.327300    0.002400
           140    1      -1.371500     10.034100      8.903500    -0.436900    5.208700   -0.002300
           141    1       7.933300      1.331800      1.780800     0.440200   -5.214300    0.001600
           142    1       1.429600      5.086600      5.342100     0.450900   -5.227700   -0.000000
           143    1       5.132800      6.278700      5.342200    -0.464100    5.246100    0.000200
           144    1       1.606000     10.291800      5.342200    -5.380100   -9.319600    0.000000
           145    1       4.956000      1.074100      5.342200     5.382800    9.319200    0.000100
           146    1      -2.813600      7.536000      5.342200    -4.747900   -2.223000    0.000100
           147    1       9.375200      3.829700      5.342200     4.755300    2.220400   -0.000000
           148    1       3.690900      3.781100      5.342100    -4.774900   -2.223100   -0.000000
           149    1       2.871300      7.584100      5.342200     4.754200    2.226700    0.000100
           150    1       8.109600      6.536700      5.342200    -5.381200   -9.327800    0.000100
           151    1      -1.548000      4.828800      5.342100     5.384500    9.326400    0.000100
           152    1       7.933200      1.331800      5.342200     0.446700   -5.219600    0.000200
           153    1      -1.371500     10.034000      5.342200    -0.442800    5.213700   -0.000000
           154    1      -0.729500      8.858200      1.780900     0.443800   -5.212900    0.001800
           155    1       7.291000      2.507500      8.903500    -0.439100    5.211500   -0.002300
           156    1      -0.581000      6.503400      1.780900    -5.387200   -9.326200    0.002500
           157    1       7.142900      4.862400      8.903500     5.387900    9.323800   -0.003400
           158    1       1.532300      7.552500      1.780800    -4.753000   -2.224000    0.001700
           159    1       5.029600      3.813100      8.903500     4.768500    2.222100   -0.002300
           160    1       7.291000      2.507500      1.780800    -0.438400    5.210800    0.001800
           161    1      -0.729500      8.858200      8.903500     0.444600   -5.213900   -0.002300
           162    1       7.142900      4.862300      1.780900     5.387700    9.323900    0.002600
           163    1      -0.581000      6.503400      8.903500    -5.387200   -9.326300   -0.003600
           164    1       5.029600      3.813100      1.780800     4.768000    2.222200    0.001700
           165    1       1.532300      7.552500      8.903500    -4.753800   -2.223800   -0.002200
           166    1       8.036100      3.798100      8.903500    -4.742600   -2.227400   -0.002400
           167    1      -1.474500      7.567500      1.780800     4.746700    2.228300    0.001800
           168    1       5.922700      2.748800      8.903500    -5.378900   -9.330700   -0.003600
           169    1       0.638800      8.616600      1.780900     5.383600    9.328300    0.002700
           170    1       5.774700      5.103500      8.903500     0.458000   -5.240100   -0.002300
           171    1       0.787300      6.261900      1.780800    -0.452400    5.228800    0.001600
           172    1      -1.474500      7.567500      8.903500     4.747300    2.228000   -0.002500
           173    1       8.036100      3.798100      1.780800    -4.742300   -2.227600    0.001800
           174    1       0.638800      8.616600      8.903500     5.383700    9.328400   -0.003400
           175    1       5.922700      2.748900      1.780900    -5.378800   -9.330700    0.002600
           176    1       0.787300      6.261900      8.903500    -0.453100    5.229400   -0.002400
           177    1       5.774700      5.103500      1.780800     0.457400   -5.239600    0.001800
           178    1      -0.729500      8.858200      5.342200     0.450300   -5.218300   -0.000000
           179    1       7.291000      2.507500      5.342200    -0.444800    5.216100   -0.000000
           180    1      -0.581100      6.503300      5.342200    -5.387300   -9.326500    0.000200
           181    1       7.143000      4.862500      5.342100     5.387900    9.324400    0.000100
           182    1       1.532400      7.552500      5.342100    -4.761000   -2.221100    0.000000
           183    1       5.029500      3.813100      5.342100     4.775700    2.219300   -0.000000
           184    1       8.036100      3.798100      5.342100    -4.750000   -2.224700   -0.000000
           185    1      -1.474600      7.567500      5.342200     4.754400    2.225400    0.000100
           186    1       5.922600      2.748700      5.342100    -5.379100   -9.331100   -0.000000
           187    1       0.638900      8.616700      5.342100     5.383800    9.328700   -0.000100
           188    1       5.774600      5.103500      5.342100     0.463600   -5.244700    0.000000
           189    1       0.787400      6.261900      5.342200    -0.458900    5.234300    0.000100
 Energy
     -25065.897199999999
 PlusStress:  xx          yy          zz          yz          xz          xy
      -480.53800  -316.48400   -76.35800    -0.00000    -0.00000   142.00900
 Feature   EFS_by	  siesta
 Feature   mindist	1.338982
END_CFG

