Siesta Version  : 4.1.5
Architecture    : x86_64-unknown-linux-gnu--unknown
Compiler version: GNU Fortran (GCC) 11.3.0
Compiler flags  : mpif90 -g -O2 -fallow-argument-mismatch
PP flags        : -DMPI -DFC_HAVE_FLUSH -DFC_HAVE_ABORT
Libraries       :  -I/global/software/sl-7.x86_64/modules/intel/2020.4.304/mkl/include  /globall/software/sl-7.x86_64/modules/intel/2020.4.304/mkl/lib/intel64/libmkl_scalapack_lp64.a -Wl,--start-group /global/software/sl-7.x86_64/modules/intel/2020.4.304/mkl/lib/intel64/libmkl_intel_lp64.a /global/software/sl-7.x86_64/modules/intel/2020.4.304/mkl/lib/intel64/libmkl_sequential.a /global/software/sl-7.x86_64/modules/intel/2020.4.304/mkl/lib/intel64/libmkl_core.a /global/software/sl-7.x86_64/modules/intel/2020.4.304/mkl/lib/intel64/libmkl_blacs_openmpi_lp64.a -Wl,--end-group -lpthread -lm -ldl
PARALLEL version

* Running on 4 nodes in parallel
>> Start of run:   9-NOV-2022  10:17:27

                           ***********************       
                           *  WELCOME TO SIESTA  *       
                           ***********************       

reinit: Reading from standard input
reinit: Dumped input in INPUT_TMP.14738
************************** Dump of input data file ****************************
SystemName LiC6_scf
SystemLabel LiC6_scf
NumberOfAtoms   7
NumberOfSpecies 2
%block ChemicalSpeciesLabel
1  3   Li-gga
2  6   C-gga
%endblock ChemicalSpeciesLabel
PAO.BasisSize  DZ
PAO.EnergyShift  10 meV
%block PS.Lmax
C-gga   2
Li-gga  2
%endblock PS.Lmax
LatticeConstant 1.000000 Ang
%block LatticeVectors
	4.3161300000	0.0000000000	0.0000000000
	-2.1580650000	3.7378782260	0.0000000000
	0.0000000000	0.0000000000	3.9218516000
%endblock LatticeVectors
AtomicCoordinatesFormat Ang
%block AtomicCoordinatesAndAtomicSpecies
	0.00000000	0.00000000	0.00000000	2
	-0.70288177	1.21742694	1.96092580	1
	-1.45518323	2.52045129	1.96092580	1
	1.45518323	2.52045129	1.96092580	1
	0.70288177	1.21742694	1.96092580	1
	1.40576354	0.00000000	1.96092580	1
	2.91036646	0.00000000	1.96092580	1
%endblock AtomicCoordinatesAndAtomicSpecies
Kgrid_NoTRS  T
%block kgrid_MonkhorstPack
3       0       0       0.0
0       3       0       0.0
0       0       3       0.0
%endblock kgrid_MonkhorstPack
AtomCoorFormatOut Ang
BlockSize 1
#ProcessorY 12
Diag.ParallelOverK   T
Diag.DivideAndConquer F
MeshCutoff   300 Ry
SCF.FreeE.Tolerance 1E-3 eV
SCF.EDM.Tolerance   5E-3 eV
DM.Tolerance  1E-3
DM.Require.Energy.Convergence T
DM.NumberPulay 4
XC.Functional GGA
XC.Authors    PBE
UseSaveData        F
MD.TypeOfRun       CG
MD.VariableCell    F
MD.NumCGsteps      00
MD.MaxCGDispl      0.200000 Bohr
MD.MaxStressTol    1.000000 GPa
MD.MaxForceTol     0.010000 eV/Ang
WriteMDHistory T
WriteCoorStep T
WriteForces T
WriteCoorStep    T
WriteEigenValues T
WriteDM    F
MM.UnitsDistance Ang  # what this program prints out DO NOT CHANGE
MM.UnitsEnergy    eV  # what this program prints out DO NOT CHANGE
MM.Grimme.S6     0.75 # Grimme-paper for PBE (correct for your functional)
MM.Grimme.D     20.   # Grimme-paper (correct for your functional)
%block MM.Potentials
  1   1 Grimme     16.69      1.650 # Li, 10.1002/jcc.20495
  1   2 Grimme     17.40      2.277 # Li / C
  2   2 Grimme     18.14      2.904 # C, 10.1002/jcc.20495
%endblock MM.Potentials
#%block ProjectedDensityOfStates
# -200.0  120.0  0.4  12800  eV
#%endblock ProjectedDensityOfStates
************************** End of input data file *****************************

reinit: -----------------------------------------------------------------------
reinit: System Name: LiC6_scf
reinit: -----------------------------------------------------------------------
reinit: System Label: LiC6_scf
reinit: -----------------------------------------------------------------------
Reading two-body potentials
Grimme - two-body potential between 1 and 1
Grimme - two-body potential between 1 and 2
Grimme - two-body potential between 2 and 2

initatom: Reading input for the pseudopotentials and atomic orbitals ----------
Species number:   1 Atomic number:    3 Label: Li-gga
Species number:   2 Atomic number:    6 Label: C-gga

Ground state valence configuration:   2s01
Reading pseudopotential information in formatted form from Li-gga.psf

Valence configuration for pseudopotential generation:
2s( 1.00) rc: 2.28
2p( 0.00) rc: 2.28
3d( 0.00) rc: 2.59
4f( 0.00) rc: 2.59
Ground state valence configuration:   2s02  2p02
Reading pseudopotential information in formatted form from C-gga.psf

Valence configuration for pseudopotential generation:
2s( 2.00) rc: 1.56
2p( 2.00) rc: 1.56
3d( 0.00) rc: 1.56
4f( 0.00) rc: 1.56
relmxkb: Read Max KB Ang. Momentum=    2 for species C-gga
relmxkb: Read Max KB Ang. Momentum=    2 for species Li-gga

<basis_specs>
===============================================================================
Li-gga               Z=   3    Mass=  6.9400        Charge= 0.17977+309
Lmxo=0 Lmxkb= 2    BasisType=split      Semic=F
L=0  Nsemic=0  Cnfigmx=2
          i=1  nzeta=2  polorb=0  (2s)
            splnorm:   0.15000    
               vcte:    0.0000    
               rinn:    0.0000    
               qcoe:    0.0000    
               qyuk:    0.0000    
               qwid:   0.10000E-01
                rcs:    0.0000      0.0000    
            lambdas:    1.0000      1.0000    
-------------------------------------------------------------------------------
L=0  Nkbl=1  erefs: 0.17977+309
L=1  Nkbl=1  erefs: 0.17977+309
L=2  Nkbl=1  erefs: 0.17977+309
===============================================================================
</basis_specs>

atom: Called for Li-gga                (Z =   3)

read_vps: Pseudopotential generation method:
read_vps: ATM 3.2.2 Troullier-Martins                       
Valence charge for ps generation:    1.00000

read_vps: Pseudopotential includes a core correction:
read_vps: Pseudo-core for xc-correction

xc_check: Exchange-correlation functional:
xc_check: GGA Perdew, Burke & Ernzerhof 1996
V l=0 = -2*Zval/r beyond r=  2.2278
V l=1 = -2*Zval/r beyond r=  2.2278
V l=2 = -2*Zval/r beyond r=  2.5245
All V_l potentials equal beyond r=  2.4622
This should be close to max(r_c) in ps generation
All pots = -2*Zval/r beyond r=  2.5245

VLOCAL1: 99.0% of the norm of Vloc inside      7.160 Ry
VLOCAL1: 99.9% of the norm of Vloc inside     16.318 Ry
atom: Maximum radius for 4*pi*r*r*local-pseudopot. charge    2.86079
atom: Maximum radius for r*vlocal+2*Zval:    2.43160
GHOST: No ghost state for L =  0
GHOST: No ghost state for L =  1
GHOST: No ghost state for L =  2

KBgen: Kleinman-Bylander projectors: 
   l= 0   rc=  2.654023   el= -0.211234   Ekb=  1.742119   kbcos=  0.228463
   l= 1   rc=  2.721230   el= -0.080095   Ekb= -1.122375   kbcos= -0.147941
   l= 2   rc=  2.825246   el=  0.002001   Ekb= -0.207076   kbcos= -0.031965

KBgen: Total number of Kleinman-Bylander projectors:    9
atom: -------------------------------------------------------------------------

atom: SANKEY-TYPE ORBITALS:
atom: Selected multiple-zeta basis: split     

SPLIT: Orbitals with angular momentum L= 0

SPLIT: Basis orbitals for state 2s

SPLIT: PAO cut-off radius determined from an
SPLIT: energy shift=  0.000735 Ry

   izeta = 1
                 lambda =    1.000000
                     rc =   11.897381
                 energy =   -0.210580
                kinetic =    0.143382
    potential(screened) =   -0.353962
       potential(ionic) =   -0.533453

   izeta = 2
                 rmatch =    8.489163
              splitnorm =    0.150000
                 energy =   -0.186081
                kinetic =    0.225882
    potential(screened) =   -0.411964
       potential(ionic) =   -0.593024
atom: Total number of Sankey-type orbitals:  2

atm_pop: Valence configuration (for local Pseudopot. screening):
 2s( 1.00)                                                            
Vna: chval, zval:    1.00000   1.00000

Vna:  Cut-off radius for the neutral-atom potential:  11.897381
comcore: Pseudo-core radius Rcore=  3.450946

atom: _________________________________________________________________________

<basis_specs>
===============================================================================
C-gga                Z=   6    Mass=  12.010        Charge= 0.17977+309
Lmxo=1 Lmxkb= 2    BasisType=split      Semic=F
L=0  Nsemic=0  Cnfigmx=2
          i=1  nzeta=2  polorb=0  (2s)
            splnorm:   0.15000    
               vcte:    0.0000    
               rinn:    0.0000    
               qcoe:    0.0000    
               qyuk:    0.0000    
               qwid:   0.10000E-01
                rcs:    0.0000      0.0000    
            lambdas:    1.0000      1.0000    
L=1  Nsemic=0  Cnfigmx=2
          i=1  nzeta=2  polorb=0  (2p)
            splnorm:   0.15000    
               vcte:    0.0000    
               rinn:    0.0000    
               qcoe:    0.0000    
               qyuk:    0.0000    
               qwid:   0.10000E-01
                rcs:    0.0000      0.0000    
            lambdas:    1.0000      1.0000    
-------------------------------------------------------------------------------
L=0  Nkbl=1  erefs: 0.17977+309
L=1  Nkbl=1  erefs: 0.17977+309
L=2  Nkbl=1  erefs: 0.17977+309
===============================================================================
</basis_specs>

atom: Called for C-gga                 (Z =   6)

read_vps: Pseudopotential generation method:
read_vps: ATM 3.2.2 Troullier-Martins                       
Valence charge for ps generation:    4.00000

xc_check: Exchange-correlation functional:
xc_check: GGA Perdew, Burke & Ernzerhof 1996
V l=0 = -2*Zval/r beyond r=  1.5227
V l=1 = -2*Zval/r beyond r=  1.5227
V l=2 = -2*Zval/r beyond r=  1.5227
All V_l potentials equal beyond r=  1.4851
This should be close to max(r_c) in ps generation
All pots = -2*Zval/r beyond r=  1.5227

VLOCAL1: 99.0% of the norm of Vloc inside     19.682 Ry
VLOCAL1: 99.9% of the norm of Vloc inside     44.856 Ry
atom: Maximum radius for 4*pi*r*r*local-pseudopot. charge    1.79142
atom: Maximum radius for r*vlocal+2*Zval:    1.54183
GHOST: No ghost state for L =  0
GHOST: No ghost state for L =  1
GHOST: No ghost state for L =  2

KBgen: Kleinman-Bylander projectors: 
   l= 0   rc=  1.661951   el= -1.010689   Ekb=  5.289847   kbcos=  0.316429
   l= 1   rc=  1.661951   el= -0.388490   Ekb= -4.102504   kbcos= -0.351025
   l= 2   rc=  1.747182   el=  0.001971   Ekb= -1.006005   kbcos= -0.008530

KBgen: Total number of Kleinman-Bylander projectors:    9
atom: -------------------------------------------------------------------------

atom: SANKEY-TYPE ORBITALS:
atom: Selected multiple-zeta basis: split     

SPLIT: Orbitals with angular momentum L= 0

SPLIT: Basis orbitals for state 2s

SPLIT: PAO cut-off radius determined from an
SPLIT: energy shift=  0.000735 Ry

   izeta = 1
                 lambda =    1.000000
                     rc =    5.948690
                 energy =   -1.010099
                kinetic =    0.827121
    potential(screened) =   -1.837220
       potential(ionic) =   -5.392783

   izeta = 2
                 rmatch =    3.518811
              splitnorm =    0.150000
                 energy =   -0.877891
                kinetic =    1.289227
    potential(screened) =   -2.167118
       potential(ionic) =   -5.982073

SPLIT: Orbitals with angular momentum L= 1

SPLIT: Basis orbitals for state 2p

SPLIT: PAO cut-off radius determined from an
SPLIT: energy shift=  0.000735 Ry

   izeta = 1
                 lambda =    1.000000
                     rc =    7.638387
                 energy =   -0.387843
                kinetic =    2.314739
    potential(screened) =   -2.702582
       potential(ionic) =   -6.092371

   izeta = 2
                 rmatch =    3.840617
              splitnorm =    0.150000
                 energy =   -0.270479
                kinetic =    3.438347
    potential(screened) =   -3.708826
       potential(ionic) =   -7.497707
atom: Total number of Sankey-type orbitals:  8

atm_pop: Valence configuration (for local Pseudopot. screening):
 2s( 2.00)                                                            
 2p( 2.00)                                                            
Vna: chval, zval:    4.00000   4.00000

Vna:  Cut-off radius for the neutral-atom potential:   7.638387

atom: _________________________________________________________________________

prinput: Basis input ----------------------------------------------------------

PAO.BasisType split     

%block ChemicalSpeciesLabel
    1    3 Li-gga                  # Species index, atomic number, species label
    2    6 C-gga                   # Species index, atomic number, species label
%endblock ChemicalSpeciesLabel

%block PAO.Basis                 # Define Basis set
Li-gga                1                    # Species label, number of l-shells
 n=2   0   2                         # n, l, Nzeta 
  11.897      8.489   
   1.000      1.000   
C-gga                 2                    # Species label, number of l-shells
 n=2   0   2                         # n, l, Nzeta 
   5.949      3.519   
   1.000      1.000   
 n=2   1   2                         # n, l, Nzeta 
   7.638      3.841   
   1.000      1.000   
%endblock PAO.Basis

prinput: ----------------------------------------------------------------------

coor:   Atomic-coordinates input format  =     Cartesian coordinates
coor:                                          (in Angstroms)

siesta: Atomic coordinates (Bohr) and species
siesta:      0.00000   0.00000   0.00000  2        1
siesta:     -1.32825   2.30060   3.70561  1        2
siesta:     -2.74990   4.76296   3.70561  1        3
siesta:      2.74990   4.76296   3.70561  1        4
siesta:      1.32825   2.30060   3.70561  1        5
siesta:      2.65651   0.00000   3.70561  1        6
siesta:      5.49980   0.00000   3.70561  1        7

siesta: System type = bulk      

initatomlists: Number of atoms, orbitals, and projectors:      7    20    63

siesta: ******************** Simulation parameters ****************************
siesta:
siesta: The following are some of the parameters of the simulation.
siesta: A complete list of the parameters used, including default values,
siesta: can be found in file out.fdf
siesta:
redata: Spin configuration                          = none
redata: Number of spin components                   = 1
redata: Time-Reversal Symmetry                      = T
redata: Spin spiral                                 = F
redata: Long output                                 =   F
redata: Number of Atomic Species                    =        2
redata: Charge density info will appear in .RHO file
redata: Write Mulliken Pop.                         = NO
redata: Matel table size (NRTAB)                    =     1024
redata: Mesh Cutoff                                 =   300.0000 Ry
redata: Net charge of the system                    =     0.0000 |e|
redata: Min. number of SCF Iter                     =        0
redata: Max. number of SCF Iter                     =     1000
redata: SCF convergence failure will abort job
redata: SCF mix quantity                            = Hamiltonian
redata: Mix DM or H after convergence               =   F
redata: Recompute H after scf cycle                 =   F
redata: Mix DM in first SCF step                    =   T
redata: Write Pulay info on disk                    =   F
redata: New DM Occupancy tolerance                  = 0.000000000001
redata: No kicks to SCF
redata: DM Mixing Weight for Kicks                  =     0.5000
redata: Require Harris convergence for SCF          =   F
redata: Harris energy tolerance for SCF             =     0.000100 eV
redata: Require DM convergence for SCF              =   T
redata: DM tolerance for SCF                        =     0.001000
redata: Require EDM convergence for SCF             =   F
redata: EDM tolerance for SCF                       =     0.005000 eV
redata: Require H convergence for SCF               =   T
redata: Hamiltonian tolerance for SCF               =     0.001000 eV
redata: Require (free) Energy convergence for SCF   =   T
redata: (free) Energy tolerance for SCF             =     0.001000 eV
redata: Using Saved Data (generic)                  =   F
redata: Use continuation files for DM               =   F
redata: Neglect nonoverlap interactions             =   F
redata: Method of Calculation                       = Diagonalization
redata: Electronic Temperature                      =   299.9869 K
redata: Fix the spin of the system                  =   F
redata: Dynamics option                             = Single-point calculation
mix.SCF: Pulay mixing                            = Pulay
mix.SCF:    Variant                              = stable
mix.SCF:    History steps                        = 4
mix.SCF:    Linear mixing weight                 =     0.250000
mix.SCF:    Mixing weight                        =     0.250000
mix.SCF:    SVD condition                        = 0.1000E-07
redata: ***********************************************************************

%block SCF.Mixers
  Pulay
%endblock SCF.Mixers

%block SCF.Mixer.Pulay
  # Mixing method
  method pulay
  variant stable

  # Mixing options
  weight 0.2500
  weight.linear 0.2500
  history 4
%endblock SCF.Mixer.Pulay

DM_history_depth set to one: no extrapolation allowed by default for geometry relaxation
Size of DM history Fstack: 1
Total number of electrons:    10.000000
Total ionic charge:    10.000000

* ProcessorY, Blocksize:    2   1


* Orbital distribution balance (max,min):     5     5

 Kpoints in:           18 . Kpoints trimmed:           14

siesta: k-grid: Number of k-points =    14
siesta: k-grid: Cutoff (effective) =     5.883 Ang
siesta: k-grid: Supercell and displacements
siesta: k-grid:    3   0   0      0.000
siesta: k-grid:    0   3   0      0.000
siesta: k-grid:    0   0   3      0.000

diag: Algorithm                                     = Expert
diag: Parallel over k                               =   T
diag: Use parallel 2D distribution                  =   T
diag: Parallel block-size                           = 1
diag: Parallel distribution                         =     2 x     2
diag: Used triangular part                          = Lower
diag: Absolute tolerance                            =  0.100E-15
diag: Orthogonalization factor                      =  0.100E-05
diag: Memory factor                                 =  1.0000

superc: Internal auxiliary supercell:     9 x     9 x     7  =     567
superc: Number of atoms, orbitals, and projectors:   3969  11340  35721


ts: **************************************************************
ts: Save H and S matrices                           =    F
ts: Save DM and EDM matrices                        =    F
ts: Only save the overlap matrix S                  =    F
ts: **************************************************************

************************ Begin: TS CHECKS AND WARNINGS ************************
************************ End: TS CHECKS AND WARNINGS **************************


                     ====================================
                        Single-point calculation
                     ====================================

outcoor: Atomic coordinates (Ang):                          
    0.00000000    0.00000000    0.00000000   2       1  C-gga
   -0.70288177    1.21742694    1.96092580   1       2  Li-gga
   -1.45518323    2.52045129    1.96092580   1       3  Li-gga
    1.45518323    2.52045129    1.96092580   1       4  Li-gga
    0.70288177    1.21742694    1.96092580   1       5  Li-gga
    1.40576354    0.00000000    1.96092580   1       6  Li-gga
    2.91036646    0.00000000    1.96092580   1       7  Li-gga

superc: Internal auxiliary supercell:     9 x     9 x     7  =     567
superc: Number of atoms, orbitals, and projectors:   3969  11340  35721

outcell: Unit cell vectors (Ang):
        4.316130    0.000000    0.000000
       -2.158065    3.737878    0.000000
        0.000000    0.000000    3.921852

outcell: Cell vector modules (Ang)   :    4.316130    4.316130    3.921852
outcell: Cell angles (23,13,12) (deg):     90.0000     90.0000    120.0000
outcell: Cell volume (Ang**3)        :     63.2719
<dSpData1D:S at geom step 0
  <sparsity:sparsity for geom step 0
    nrows_g=20 nrows=5 sparsity=29.2825 nnzs=11713, refcount: 7>
  <dData1D:(new from dSpData1D) n=11713, refcount: 1>
refcount: 1>
new_DM -- step:     1
Initializing Density Matrix...
DM filled with atomic data:
<dSpData2D:DM initialized from atoms
  <sparsity:sparsity for geom step 0
    nrows_g=20 nrows=5 sparsity=29.2825 nnzs=11713, refcount: 8>
  <dData2D:DM n=11713 m=1, refcount: 1>
refcount: 1>
No. of atoms with KB's overlaping orbs in proc 0. Max # of overlaps:     288     337
New grid distribution:   1
           1       1:   20    1:   10    1:   12
           2       1:   20    1:   10   13:   24
           3       1:   20   11:   20    1:   12
           4       1:   20   11:   20   13:   24

InitMesh: MESH =    40 x    40 x    48 =       76800
InitMesh: (bp) =    20 x    20 x    24 =        9600
InitMesh: Mesh cutoff (required, used) =   300.000   316.498 Ry
ExtMesh (bp) on 0 =   156 x   146 x   168 =     3826368
New grid distribution:   2
           1       1:   20    1:   10    1:   12
           2       1:   20    1:   10   13:   24
           3       1:   20   11:   20    1:   12
           4       1:   20   11:   20   13:   24
New grid distribution:   3
           1       1:   20    1:   10    1:   12
           2       1:   20    1:   10   13:   24
           3       1:   20   11:   20    1:   12
           4       1:   20   11:   20   13:   24
Setting up quadratic distribution...
ExtMesh (bp) on 0 =   156 x   146 x   168 =     3826368
PhiOnMesh: Number of (b)points on node 0 =                 2400
PhiOnMesh: nlist on node 0 =               380950

stepf: Fermi-Dirac step function

siesta: Program's energy decomposition (eV):
siesta: Ebs     =      -114.340269
siesta: Eions   =       321.344870
siesta: Ena     =        88.647504
siesta: Ekin    =       152.780792
siesta: Enl     =         7.788071
siesta: Eso     =         0.000000
siesta: Edftu   =         0.000000
siesta: DEna    =        -6.015095
siesta: DUscf   =         5.191638
siesta: DUext   =         0.000000
siesta: Exc     =      -104.516960
siesta: eta*DQ  =         0.000000
siesta: Emadel  =         0.000000
siesta: Emeta   =         0.000000
siesta: Emolmec =        -3.246286
siesta: Ekinion =         0.000000
siesta: Eharris =      -163.815553
siesta: Etot    =      -180.715207
siesta: FreeEng =      -180.722523

        iscf     Eharris(eV)        E_KS(eV)     FreeEng(eV)     dDmax    Ef(eV) dHmax(eV)
   scf:    1     -163.815553     -180.715207     -180.722523 20.127813-10.819474  8.141441
timer: Routine,Calls,Time,% = IterSCF        1       1.623  24.19
   scf:    2     -183.640342     -183.671778     -183.687460  6.258490-10.618927  0.910350
   scf:    3     -183.603145     -183.685846     -183.697542  1.247415-10.655084  0.561701
   scf:    4     -177.524693     -181.699507     -181.714324  7.223353-10.591018  5.701781
   scf:    5     -184.201481     -183.700743     -183.716822  5.753332-10.689915  0.467764
   scf:    6     -183.716843     -183.714528     -183.729102  0.454443-10.696519  0.028511
   scf:    7     -183.714473     -183.714515     -183.729110  0.026991-10.694542  0.015622
   scf:    8     -183.714548     -183.714532     -183.729118  0.015733-10.695982  0.012342
   scf:    9     -183.714557     -183.714547     -183.729125  0.014274-10.697278  0.000884
   scf:   10     -183.714545     -183.714546     -183.729125  0.000670-10.697392  0.000131

SCF Convergence by FreeE+DM+H criterion
|FreeE_i-FreeE_(i-1)| (eV) <     0.00100000
max |DM_out - DM_in|         :     0.0006703968
max |H_out - H_in|      (eV) :     0.0001313728
SCF cycle converged after 10 iterations

Using DM_out to compute the final energy and forces
No. of atoms with KB's overlaping orbs in proc 0. Max # of overlaps:     288     337

MM-Stress (kbar):       -2.80       -2.80       39.19        0.00        0.00       -0.00

siesta: E_KS(eV) =             -183.7145

siesta: E_KS - E_eggbox =      -183.7145

siesta: Atomic forces (eV/Ang):
     1   -0.000000    0.000000    0.000000
     2    0.660989   -1.144863   -0.000000
     3   -0.660989    1.144863   -0.000000
     4    0.660946    1.144792   -0.000000
     5   -0.660946   -1.144792   -0.000000
     6   -1.321975    0.000002   -0.000000
     7    1.321975   -0.000002   -0.000000
----------------------------------------
   Tot   -0.000000   -0.000000   -0.000000
----------------------------------------
   Max    1.321975
   Res    0.706610    sqrt( Sum f_i^2 / 3N )
----------------------------------------
   Max    1.321975    constrained

Stress tensor Voigt[x,y,z,yz,xz,xy] (kbar):    -1214.95    -1214.97     1070.88       -0.00       -0.00       -0.02
(Free)E + p*V (eV/cell)     -165.8393
Target enthalpy (eV/cell)     -183.7291

siesta: Eigenvalues (eV):
  ik is       eps
   1  1  -19.9207  -14.1233  -14.1233  -13.5691   -9.1529   -9.1527   -7.5901    1.4385    3.2260    3.2263
           6.4817    6.4817    7.5131   10.2355   20.0104   20.0104   21.7895   34.9583   58.4675   58.4675
   2  1  -20.1488  -14.4722  -13.8619  -11.1754  -10.8567   -8.9319   -5.1220   -2.4756    0.1072    1.8928
           5.6619    6.5201   12.0926   19.5790   21.5110   22.3828   30.3326   32.2600   42.4453   57.3729
   3  1  -20.1488  -14.4722  -13.8619  -11.1755  -10.8567   -8.9317   -5.1219   -2.4757    0.1072    1.8929
           5.6617    6.5202   12.0926   19.5790   21.5111   22.3828   30.3326   32.2599   42.4452   57.3728
   4  1  -20.1488  -14.4722  -13.8619  -11.1754  -10.8567   -8.9319   -5.1220   -2.4756    0.1072    1.8928
           5.6619    6.5201   12.0926   19.5790   21.5110   22.3828   30.3326   32.2600   42.4453   57.3729
   5  1  -20.3175  -14.3962  -11.9021  -10.7305  -10.7304   -3.0556   -1.6614    1.6370    1.6371    3.5849
           3.5853    4.7664   23.5699   23.5700   23.9626   56.9478   56.9479   77.2788   77.2791  105.6269
   6  1  -19.5621  -15.0133  -13.0983  -13.0983  -10.9933  -10.9932   -4.6555   -2.1990   -2.1986   -0.9636
           7.3050   13.1776   13.1777   17.2762   19.0370   19.0370   23.8593   35.7015   35.7015   45.3315
   7  1  -19.6878  -15.0798  -13.3522  -11.4605  -10.9840  -10.6604   -6.1993   -2.8422   -2.1908    0.9266
           2.9495    5.8441    9.6063   15.9140   18.2887   20.2662   21.4956   25.6001   46.1019   50.4961
   8  1  -19.6878  -15.0798  -13.3522  -11.4605  -10.9841  -10.6604   -6.1991   -2.8423   -2.1908    0.9268
           2.9493    5.8441    9.6062   15.9141   18.2888   20.2662   21.4956   25.6001   46.1019   50.4961
   9  1  -19.6878  -15.0798  -13.3522  -11.4605  -10.9840  -10.6604   -6.1993   -2.8422   -2.1908    0.9266
           2.9495    5.8441    9.6063   15.9140   18.2887   20.2662   21.4956   25.6001   46.1019   50.4961
  10  1  -19.9584  -15.3700  -12.6751  -10.6107  -10.6105   -8.2883   -1.6195   -0.5084   -0.5084   -0.1462
          -0.1461    6.3710    6.3714   11.5154   14.5735   14.5735   22.7626   23.6995   23.6996   44.4697
  11  1  -19.6878  -15.0798  -13.3522  -11.4605  -10.9840  -10.6604   -6.1993   -2.8422   -2.1908    0.9266
           2.9495    5.8441    9.6063   15.9140   18.2887   20.2662   21.4956   25.6001   46.1019   50.4961
  12  1  -19.6878  -15.0798  -13.3522  -11.4605  -10.9841  -10.6604   -6.1991   -2.8423   -2.1908    0.9268
           2.9493    5.8441    9.6062   15.9141   18.2888   20.2662   21.4956   25.6001   46.1019   50.4961
  13  1  -19.6878  -15.0798  -13.3522  -11.4605  -10.9840  -10.6604   -6.1993   -2.8422   -2.1908    0.9266
           2.9495    5.8441    9.6063   15.9140   18.2887   20.2662   21.4956   25.6001   46.1019   50.4961
  14  1  -19.5621  -15.0133  -13.0983  -13.0983  -10.9933  -10.9932   -4.6555   -2.1990   -2.1986   -0.9636
           7.3050   13.1776   13.1777   17.2762   19.0370   19.0370   23.8593   35.7015   35.7015   45.3315
siesta: Fermi energy =     -10.697392 eV

siesta: Program's energy decomposition (eV):
siesta: Ebs     =      -141.462426
siesta: Eions   =       321.344870
siesta: Ena     =        88.647504
siesta: Ekin    =       129.467650
siesta: Enl     =        15.971199
siesta: Eso     =         0.000000
siesta: Edftu   =         0.000000
siesta: DEna    =         5.443629
siesta: DUscf   =         0.675784
siesta: DUext   =         0.000000
siesta: Exc     =       -99.329157
siesta: eta*DQ  =         0.000000
siesta: Emadel  =         0.000000
siesta: Emeta   =         0.000000
siesta: Emolmec =        -3.246286
siesta: Ekinion =         0.000000
siesta: Eharris =      -183.714545
siesta: Etot    =      -183.714546
siesta: FreeEng =      -183.729125

siesta: Final energy (eV):
siesta:  Band Struct. =    -141.462426
siesta:       Kinetic =     129.467650
siesta:       Hartree =      47.871524
siesta:       Edftu   =       0.000000
siesta:       Eso     =       0.000000
siesta:    Ext. field =       0.000000
siesta:   Exch.-corr. =     -99.329157
siesta:  Ion-electron =    -257.511934
siesta:       Ion-ion =      -0.966344
siesta:       Ekinion =       0.000000
siesta:         Total =    -183.714546
siesta:         Fermi =     -10.697392

siesta: Atomic forces (eV/Ang):
siesta:      1   -0.000000    0.000000    0.000000
siesta:      2    0.660989   -1.144863   -0.000000
siesta:      3   -0.660989    1.144863   -0.000000
siesta:      4    0.660946    1.144792   -0.000000
siesta:      5   -0.660946   -1.144792   -0.000000
siesta:      6   -1.321975    0.000002   -0.000000
siesta:      7    1.321975   -0.000002   -0.000000
siesta: ----------------------------------------
siesta:    Tot   -0.000000   -0.000000   -0.000000

siesta: Stress tensor (static) (eV/Ang**3):
siesta:    -0.758303   -0.000013   -0.000000
siesta:    -0.000013   -0.758318   -0.000000
siesta:    -0.000000   -0.000000    0.668385

siesta: Cell volume =         63.271892 Ang**3

siesta: Pressure (static):
siesta:                Solid            Molecule  Units
siesta:           0.00307946          0.00273708  Ry/Bohr**3
siesta:           0.28274535          0.25130951  eV/Ang**3
siesta:         453.01289478        402.64657674  kBar
(Free)E+ p_basis*V_orbitals  =        -172.469807
(Free)Eharris+ p_basis*V_orbitals  =        -172.469806

cite: Please see "LiC6_scf.bib" for an exhaustive BiBTeX file.
cite: Please clearly indicate Siesta version in published work: 4.1.5
cite: This calculation has made use of the following articles
cite: which are encouraged to be cited in a published work.
        Primary SIESTA paper
          DOI: www.doi.org/10.1088/0953-8984/14/11/302

>> End of run:   9-NOV-2022  10:17:46
Job completed
