Siesta Version  : 4.1.5
Architecture    : x86_64-unknown-linux-gnu--unknown
Compiler version: GNU Fortran (GCC) 11.3.0
Compiler flags  : mpif90 -g -O2 -fallow-argument-mismatch
PP flags        : -DMPI -DFC_HAVE_FLUSH -DFC_HAVE_ABORT
Libraries       :  -I/global/software/sl-7.x86_64/modules/intel/2020.4.304/mkl/include  /globall/software/sl-7.x86_64/modules/intel/2020.4.304/mkl/lib/intel64/libmkl_scalapack_lp64.a -Wl,--start-group /global/software/sl-7.x86_64/modules/intel/2020.4.304/mkl/lib/intel64/libmkl_intel_lp64.a /global/software/sl-7.x86_64/modules/intel/2020.4.304/mkl/lib/intel64/libmkl_sequential.a /global/software/sl-7.x86_64/modules/intel/2020.4.304/mkl/lib/intel64/libmkl_core.a /global/software/sl-7.x86_64/modules/intel/2020.4.304/mkl/lib/intel64/libmkl_blacs_openmpi_lp64.a -Wl,--end-group -lpthread -lm -ldl
PARALLEL version

* Running on 4 nodes in parallel
>> Start of run:   9-NOV-2022  10:16:09

                           ***********************       
                           *  WELCOME TO SIESTA  *       
                           ***********************       

reinit: Reading from standard input
reinit: Dumped input in INPUT_TMP.36441
************************** Dump of input data file ****************************
SystemName LiC6_scf
SystemLabel LiC6_scf
NumberOfAtoms   7
NumberOfSpecies 2
%block ChemicalSpeciesLabel
1  3   Li-gga
2  6   C-gga
%endblock ChemicalSpeciesLabel
PAO.BasisSize  DZ
PAO.EnergyShift  10 meV
%block PS.Lmax
C-gga   2
Li-gga  2
%endblock PS.Lmax
LatticeConstant 1.000000 Ang
%block LatticeVectors
	4.3161300000	0.0000000000	0.0000000000
	-2.1580650000	3.7378782260	0.0000000000
	0.0000000000	0.0000000000	1.8499300000
%endblock LatticeVectors
AtomicCoordinatesFormat Ang
%block AtomicCoordinatesAndAtomicSpecies
	0.00000000	0.00000000	0.00000000	2
	-0.70288177	1.21742694	0.92496500	1
	-1.45518323	2.52045129	0.92496500	1
	1.45518323	2.52045129	0.92496500	1
	0.70288177	1.21742694	0.92496500	1
	1.40576354	0.00000000	0.92496500	1
	2.91036646	0.00000000	0.92496500	1
%endblock AtomicCoordinatesAndAtomicSpecies
Kgrid_NoTRS  T
%block kgrid_MonkhorstPack
3       0       0       0.0
0       3       0       0.0
0       0       3       0.0
%endblock kgrid_MonkhorstPack
AtomCoorFormatOut Ang
BlockSize 1
#ProcessorY 12
Diag.ParallelOverK   T
Diag.DivideAndConquer F
MeshCutoff   300 Ry
SCF.FreeE.Tolerance 1E-3 eV
SCF.EDM.Tolerance   5E-3 eV
DM.Tolerance  1E-3
DM.Require.Energy.Convergence T
DM.NumberPulay 4
XC.Functional GGA
XC.Authors    PBE
UseSaveData        F
MD.TypeOfRun       CG
MD.VariableCell    F
MD.NumCGsteps      00
MD.MaxCGDispl      0.200000 Bohr
MD.MaxStressTol    1.000000 GPa
MD.MaxForceTol     0.010000 eV/Ang
WriteMDHistory T
WriteCoorStep T
WriteForces T
WriteCoorStep    T
WriteEigenValues T
WriteDM    F
MM.UnitsDistance Ang  # what this program prints out DO NOT CHANGE
MM.UnitsEnergy    eV  # what this program prints out DO NOT CHANGE
MM.Grimme.S6     0.75 # Grimme-paper for PBE (correct for your functional)
MM.Grimme.D     20.   # Grimme-paper (correct for your functional)
%block MM.Potentials
  1   1 Grimme     16.69      1.650 # Li, 10.1002/jcc.20495
  1   2 Grimme     17.40      2.277 # Li / C
  2   2 Grimme     18.14      2.904 # C, 10.1002/jcc.20495
%endblock MM.Potentials
#%block ProjectedDensityOfStates
# -200.0  120.0  0.4  12800  eV
#%endblock ProjectedDensityOfStates
************************** End of input data file *****************************

reinit: -----------------------------------------------------------------------
reinit: System Name: LiC6_scf
reinit: -----------------------------------------------------------------------
reinit: System Label: LiC6_scf
reinit: -----------------------------------------------------------------------
Reading two-body potentials
Grimme - two-body potential between 1 and 1
Grimme - two-body potential between 1 and 2
Grimme - two-body potential between 2 and 2

initatom: Reading input for the pseudopotentials and atomic orbitals ----------
Species number:   1 Atomic number:    3 Label: Li-gga
Species number:   2 Atomic number:    6 Label: C-gga

Ground state valence configuration:   2s01
Reading pseudopotential information in formatted form from Li-gga.psf

Valence configuration for pseudopotential generation:
2s( 1.00) rc: 2.28
2p( 0.00) rc: 2.28
3d( 0.00) rc: 2.59
4f( 0.00) rc: 2.59
Ground state valence configuration:   2s02  2p02
Reading pseudopotential information in formatted form from C-gga.psf

Valence configuration for pseudopotential generation:
2s( 2.00) rc: 1.56
2p( 2.00) rc: 1.56
3d( 0.00) rc: 1.56
4f( 0.00) rc: 1.56
relmxkb: Read Max KB Ang. Momentum=    2 for species C-gga
relmxkb: Read Max KB Ang. Momentum=    2 for species Li-gga

<basis_specs>
===============================================================================
Li-gga               Z=   3    Mass=  6.9400        Charge= 0.17977+309
Lmxo=0 Lmxkb= 2    BasisType=split      Semic=F
L=0  Nsemic=0  Cnfigmx=2
          i=1  nzeta=2  polorb=0  (2s)
            splnorm:   0.15000    
               vcte:    0.0000    
               rinn:    0.0000    
               qcoe:    0.0000    
               qyuk:    0.0000    
               qwid:   0.10000E-01
                rcs:    0.0000      0.0000    
            lambdas:    1.0000      1.0000    
-------------------------------------------------------------------------------
L=0  Nkbl=1  erefs: 0.17977+309
L=1  Nkbl=1  erefs: 0.17977+309
L=2  Nkbl=1  erefs: 0.17977+309
===============================================================================
</basis_specs>

atom: Called for Li-gga                (Z =   3)

read_vps: Pseudopotential generation method:
read_vps: ATM 3.2.2 Troullier-Martins                       
Valence charge for ps generation:    1.00000

read_vps: Pseudopotential includes a core correction:
read_vps: Pseudo-core for xc-correction

xc_check: Exchange-correlation functional:
xc_check: GGA Perdew, Burke & Ernzerhof 1996
V l=0 = -2*Zval/r beyond r=  2.2278
V l=1 = -2*Zval/r beyond r=  2.2278
V l=2 = -2*Zval/r beyond r=  2.5245
All V_l potentials equal beyond r=  2.4622
This should be close to max(r_c) in ps generation
All pots = -2*Zval/r beyond r=  2.5245

VLOCAL1: 99.0% of the norm of Vloc inside      7.160 Ry
VLOCAL1: 99.9% of the norm of Vloc inside     16.318 Ry
atom: Maximum radius for 4*pi*r*r*local-pseudopot. charge    2.86079
atom: Maximum radius for r*vlocal+2*Zval:    2.43160
GHOST: No ghost state for L =  0
GHOST: No ghost state for L =  1
GHOST: No ghost state for L =  2

KBgen: Kleinman-Bylander projectors: 
   l= 0   rc=  2.654023   el= -0.211234   Ekb=  1.742119   kbcos=  0.228463
   l= 1   rc=  2.721230   el= -0.080095   Ekb= -1.122375   kbcos= -0.147941
   l= 2   rc=  2.825246   el=  0.002001   Ekb= -0.207076   kbcos= -0.031965

KBgen: Total number of Kleinman-Bylander projectors:    9
atom: -------------------------------------------------------------------------

atom: SANKEY-TYPE ORBITALS:
atom: Selected multiple-zeta basis: split     

SPLIT: Orbitals with angular momentum L= 0

SPLIT: Basis orbitals for state 2s

SPLIT: PAO cut-off radius determined from an
SPLIT: energy shift=  0.000735 Ry

   izeta = 1
                 lambda =    1.000000
                     rc =   11.897381
                 energy =   -0.210580
                kinetic =    0.143382
    potential(screened) =   -0.353962
       potential(ionic) =   -0.533453

   izeta = 2
                 rmatch =    8.489163
              splitnorm =    0.150000
                 energy =   -0.186081
                kinetic =    0.225882
    potential(screened) =   -0.411964
       potential(ionic) =   -0.593024
atom: Total number of Sankey-type orbitals:  2

atm_pop: Valence configuration (for local Pseudopot. screening):
 2s( 1.00)                                                            
Vna: chval, zval:    1.00000   1.00000

Vna:  Cut-off radius for the neutral-atom potential:  11.897381
comcore: Pseudo-core radius Rcore=  3.450946

atom: _________________________________________________________________________

<basis_specs>
===============================================================================
C-gga                Z=   6    Mass=  12.010        Charge= 0.17977+309
Lmxo=1 Lmxkb= 2    BasisType=split      Semic=F
L=0  Nsemic=0  Cnfigmx=2
          i=1  nzeta=2  polorb=0  (2s)
            splnorm:   0.15000    
               vcte:    0.0000    
               rinn:    0.0000    
               qcoe:    0.0000    
               qyuk:    0.0000    
               qwid:   0.10000E-01
                rcs:    0.0000      0.0000    
            lambdas:    1.0000      1.0000    
L=1  Nsemic=0  Cnfigmx=2
          i=1  nzeta=2  polorb=0  (2p)
            splnorm:   0.15000    
               vcte:    0.0000    
               rinn:    0.0000    
               qcoe:    0.0000    
               qyuk:    0.0000    
               qwid:   0.10000E-01
                rcs:    0.0000      0.0000    
            lambdas:    1.0000      1.0000    
-------------------------------------------------------------------------------
L=0  Nkbl=1  erefs: 0.17977+309
L=1  Nkbl=1  erefs: 0.17977+309
L=2  Nkbl=1  erefs: 0.17977+309
===============================================================================
</basis_specs>

atom: Called for C-gga                 (Z =   6)

read_vps: Pseudopotential generation method:
read_vps: ATM 3.2.2 Troullier-Martins                       
Valence charge for ps generation:    4.00000

xc_check: Exchange-correlation functional:
xc_check: GGA Perdew, Burke & Ernzerhof 1996
V l=0 = -2*Zval/r beyond r=  1.5227
V l=1 = -2*Zval/r beyond r=  1.5227
V l=2 = -2*Zval/r beyond r=  1.5227
All V_l potentials equal beyond r=  1.4851
This should be close to max(r_c) in ps generation
All pots = -2*Zval/r beyond r=  1.5227

VLOCAL1: 99.0% of the norm of Vloc inside     19.682 Ry
VLOCAL1: 99.9% of the norm of Vloc inside     44.856 Ry
atom: Maximum radius for 4*pi*r*r*local-pseudopot. charge    1.79142
atom: Maximum radius for r*vlocal+2*Zval:    1.54183
GHOST: No ghost state for L =  0
GHOST: No ghost state for L =  1
GHOST: No ghost state for L =  2

KBgen: Kleinman-Bylander projectors: 
   l= 0   rc=  1.661951   el= -1.010689   Ekb=  5.289847   kbcos=  0.316429
   l= 1   rc=  1.661951   el= -0.388490   Ekb= -4.102504   kbcos= -0.351025
   l= 2   rc=  1.747182   el=  0.001971   Ekb= -1.006005   kbcos= -0.008530

KBgen: Total number of Kleinman-Bylander projectors:    9
atom: -------------------------------------------------------------------------

atom: SANKEY-TYPE ORBITALS:
atom: Selected multiple-zeta basis: split     

SPLIT: Orbitals with angular momentum L= 0

SPLIT: Basis orbitals for state 2s

SPLIT: PAO cut-off radius determined from an
SPLIT: energy shift=  0.000735 Ry

   izeta = 1
                 lambda =    1.000000
                     rc =    5.948690
                 energy =   -1.010099
                kinetic =    0.827121
    potential(screened) =   -1.837220
       potential(ionic) =   -5.392783

   izeta = 2
                 rmatch =    3.518811
              splitnorm =    0.150000
                 energy =   -0.877891
                kinetic =    1.289227
    potential(screened) =   -2.167118
       potential(ionic) =   -5.982073

SPLIT: Orbitals with angular momentum L= 1

SPLIT: Basis orbitals for state 2p

SPLIT: PAO cut-off radius determined from an
SPLIT: energy shift=  0.000735 Ry

   izeta = 1
                 lambda =    1.000000
                     rc =    7.638387
                 energy =   -0.387843
                kinetic =    2.314739
    potential(screened) =   -2.702582
       potential(ionic) =   -6.092371

   izeta = 2
                 rmatch =    3.840617
              splitnorm =    0.150000
                 energy =   -0.270479
                kinetic =    3.438347
    potential(screened) =   -3.708826
       potential(ionic) =   -7.497707
atom: Total number of Sankey-type orbitals:  8

atm_pop: Valence configuration (for local Pseudopot. screening):
 2s( 2.00)                                                            
 2p( 2.00)                                                            
Vna: chval, zval:    4.00000   4.00000

Vna:  Cut-off radius for the neutral-atom potential:   7.638387

atom: _________________________________________________________________________

prinput: Basis input ----------------------------------------------------------

PAO.BasisType split     

%block ChemicalSpeciesLabel
    1    3 Li-gga                  # Species index, atomic number, species label
    2    6 C-gga                   # Species index, atomic number, species label
%endblock ChemicalSpeciesLabel

%block PAO.Basis                 # Define Basis set
Li-gga                1                    # Species label, number of l-shells
 n=2   0   2                         # n, l, Nzeta 
  11.897      8.489   
   1.000      1.000   
C-gga                 2                    # Species label, number of l-shells
 n=2   0   2                         # n, l, Nzeta 
   5.949      3.519   
   1.000      1.000   
 n=2   1   2                         # n, l, Nzeta 
   7.638      3.841   
   1.000      1.000   
%endblock PAO.Basis

prinput: ----------------------------------------------------------------------

coor:   Atomic-coordinates input format  =     Cartesian coordinates
coor:                                          (in Angstroms)

siesta: Atomic coordinates (Bohr) and species
siesta:      0.00000   0.00000   0.00000  2        1
siesta:     -1.32825   2.30060   1.74793  1        2
siesta:     -2.74990   4.76296   1.74793  1        3
siesta:      2.74990   4.76296   1.74793  1        4
siesta:      1.32825   2.30060   1.74793  1        5
siesta:      2.65651   0.00000   1.74793  1        6
siesta:      5.49980   0.00000   1.74793  1        7

siesta: System type = bulk      

initatomlists: Number of atoms, orbitals, and projectors:      7    20    63

siesta: ******************** Simulation parameters ****************************
siesta:
siesta: The following are some of the parameters of the simulation.
siesta: A complete list of the parameters used, including default values,
siesta: can be found in file out.fdf
siesta:
redata: Spin configuration                          = none
redata: Number of spin components                   = 1
redata: Time-Reversal Symmetry                      = T
redata: Spin spiral                                 = F
redata: Long output                                 =   F
redata: Number of Atomic Species                    =        2
redata: Charge density info will appear in .RHO file
redata: Write Mulliken Pop.                         = NO
redata: Matel table size (NRTAB)                    =     1024
redata: Mesh Cutoff                                 =   300.0000 Ry
redata: Net charge of the system                    =     0.0000 |e|
redata: Min. number of SCF Iter                     =        0
redata: Max. number of SCF Iter                     =     1000
redata: SCF convergence failure will abort job
redata: SCF mix quantity                            = Hamiltonian
redata: Mix DM or H after convergence               =   F
redata: Recompute H after scf cycle                 =   F
redata: Mix DM in first SCF step                    =   T
redata: Write Pulay info on disk                    =   F
redata: New DM Occupancy tolerance                  = 0.000000000001
redata: No kicks to SCF
redata: DM Mixing Weight for Kicks                  =     0.5000
redata: Require Harris convergence for SCF          =   F
redata: Harris energy tolerance for SCF             =     0.000100 eV
redata: Require DM convergence for SCF              =   T
redata: DM tolerance for SCF                        =     0.001000
redata: Require EDM convergence for SCF             =   F
redata: EDM tolerance for SCF                       =     0.005000 eV
redata: Require H convergence for SCF               =   T
redata: Hamiltonian tolerance for SCF               =     0.001000 eV
redata: Require (free) Energy convergence for SCF   =   T
redata: (free) Energy tolerance for SCF             =     0.001000 eV
redata: Using Saved Data (generic)                  =   F
redata: Use continuation files for DM               =   F
redata: Neglect nonoverlap interactions             =   F
redata: Method of Calculation                       = Diagonalization
redata: Electronic Temperature                      =   299.9869 K
redata: Fix the spin of the system                  =   F
redata: Dynamics option                             = Single-point calculation
mix.SCF: Pulay mixing                            = Pulay
mix.SCF:    Variant                              = stable
mix.SCF:    History steps                        = 4
mix.SCF:    Linear mixing weight                 =     0.250000
mix.SCF:    Mixing weight                        =     0.250000
mix.SCF:    SVD condition                        = 0.1000E-07
redata: ***********************************************************************

%block SCF.Mixers
  Pulay
%endblock SCF.Mixers

%block SCF.Mixer.Pulay
  # Mixing method
  method pulay
  variant stable

  # Mixing options
  weight 0.2500
  weight.linear 0.2500
  history 4
%endblock SCF.Mixer.Pulay

DM_history_depth set to one: no extrapolation allowed by default for geometry relaxation
Size of DM history Fstack: 1
Total number of electrons:    10.000000
Total ionic charge:    10.000000

* ProcessorY, Blocksize:    2   1


* Orbital distribution balance (max,min):     5     5

 Kpoints in:           18 . Kpoints trimmed:           14

siesta: k-grid: Number of k-points =    14
siesta: k-grid: Cutoff (effective) =     2.775 Ang
siesta: k-grid: Supercell and displacements
siesta: k-grid:    3   0   0      0.000
siesta: k-grid:    0   3   0      0.000
siesta: k-grid:    0   0   3      0.000

diag: Algorithm                                     = Expert
diag: Parallel over k                               =   T
diag: Use parallel 2D distribution                  =   T
diag: Parallel block-size                           = 1
diag: Parallel distribution                         =     2 x     2
diag: Used triangular part                          = Lower
diag: Absolute tolerance                            =  0.100E-15
diag: Orthogonalization factor                      =  0.100E-05
diag: Memory factor                                 =  1.0000

superc: Internal auxiliary supercell:     9 x     9 x    17  =    1377
superc: Number of atoms, orbitals, and projectors:   9639  27540  86751


ts: **************************************************************
ts: Save H and S matrices                           =    F
ts: Save DM and EDM matrices                        =    F
ts: Only save the overlap matrix S                  =    F
ts: **************************************************************

************************ Begin: TS CHECKS AND WARNINGS ************************
************************ End: TS CHECKS AND WARNINGS **************************


                     ====================================
                        Single-point calculation
                     ====================================

outcoor: Atomic coordinates (Ang):                          
    0.00000000    0.00000000    0.00000000   2       1  C-gga
   -0.70288177    1.21742694    0.92496500   1       2  Li-gga
   -1.45518323    2.52045129    0.92496500   1       3  Li-gga
    1.45518323    2.52045129    0.92496500   1       4  Li-gga
    0.70288177    1.21742694    0.92496500   1       5  Li-gga
    1.40576354    0.00000000    0.92496500   1       6  Li-gga
    2.91036646    0.00000000    0.92496500   1       7  Li-gga

superc: Internal auxiliary supercell:     9 x     9 x    17  =    1377
superc: Number of atoms, orbitals, and projectors:   9639  27540  86751

outcell: Unit cell vectors (Ang):
        4.316130    0.000000    0.000000
       -2.158065    3.737878    0.000000
        0.000000    0.000000    1.849930

outcell: Cell vector modules (Ang)   :    4.316130    4.316130    1.849930
outcell: Cell angles (23,13,12) (deg):     90.0000     90.0000    120.0000
outcell: Cell volume (Ang**3)        :     29.8452
<dSpData1D:S at geom step 0
  <sparsity:sparsity for geom step 0
    nrows_g=20 nrows=5 sparsity=66.3925 nnzs=26557, refcount: 7>
  <dData1D:(new from dSpData1D) n=26557, refcount: 1>
refcount: 1>
new_DM -- step:     1
Initializing Density Matrix...
DM filled with atomic data:
<dSpData2D:DM initialized from atoms
  <sparsity:sparsity for geom step 0
    nrows_g=20 nrows=5 sparsity=66.3925 nnzs=26557, refcount: 8>
  <dData2D:DM n=26557 m=1, refcount: 1>
refcount: 1>
No. of atoms with KB's overlaping orbs in proc 0. Max # of overlaps:     632     689
New grid distribution:   1
           1       1:   20    1:   10    1:    5
           2       1:   20    1:   10    6:   10
           3       1:   20   11:   20    1:    5
           4       1:   20   11:   20    6:   10

InitMesh: MESH =    40 x    40 x    20 =       32000
InitMesh: (bp) =    20 x    20 x    10 =        4000
InitMesh: Mesh cutoff (required, used) =   300.000   316.498 Ry
ExtMesh (bp) on 0 =   156 x   146 x   145 =     3302520
New grid distribution:   2
           1       1:   10    1:   10    1:   10
           2      11:   20    1:   10    1:   10
           3       1:   10   11:   20    1:   10
           4      11:   20   11:   20    1:   10
New grid distribution:   3
           1       1:   10    1:   10    1:   10
           2      11:   20    1:   10    1:   10
           3       1:   10   11:   20    1:   10
           4      11:   20   11:   20    1:   10
Setting up quadratic distribution...
ExtMesh (bp) on 0 =   146 x   146 x   150 =     3197400
PhiOnMesh: Number of (b)points on node 0 =                 1000
PhiOnMesh: nlist on node 0 =               336217

stepf: Fermi-Dirac step function

siesta: Program's energy decomposition (eV):
siesta: Ebs     =      -184.561825
siesta: Eions   =       321.344870
siesta: Ena     =        63.828933
siesta: Ekin    =       266.389199
siesta: Enl     =       -18.058086
siesta: Eso     =         0.000000
siesta: Edftu   =         0.000000
siesta: DEna    =       -51.975609
siesta: DUscf   =        30.018598
siesta: DUext   =         0.000000
siesta: Exc     =      -133.298016
siesta: eta*DQ  =         0.000000
siesta: Emadel  =         0.000000
siesta: Emeta   =         0.000000
siesta: Emolmec =        -7.151215
siesta: Ekinion =         0.000000
siesta: Eharris =      -125.208514
siesta: Etot    =      -171.591066
siesta: FreeEng =      -171.601200

        iscf     Eharris(eV)        E_KS(eV)     FreeEng(eV)     dDmax    Ef(eV) dHmax(eV)
   scf:    1     -125.208514     -171.591066     -171.601200 69.420391-21.179067 22.201242
timer: Routine,Calls,Time,% = IterSCF        1       3.268  23.66
   scf:    2     -191.894251     -183.207502     -183.217642 35.230535-20.606968  8.925441
   scf:    3     -183.672732     -185.425774     -185.432950 73.704308-19.155593  3.921868
   scf:    4     -186.184680     -185.900008     -185.911582 18.966948-19.499517  1.082914
   scf:    5     -185.286264     -185.748804     -185.758944 20.399415-19.752102  2.448711
   scf:    6     -186.011529     -185.954391     -185.964718 15.507924-19.462537  0.022286
   scf:    7     -185.954414     -185.954407     -185.964731  0.127205-19.465146  0.006056
   scf:    8     -185.954383     -185.954395     -185.964735  0.083128-19.471888  0.004566
   scf:    9     -185.954389     -185.954392     -185.964735  0.014475-19.471951  0.002227
   scf:   10     -185.954381     -185.954387     -185.964736  0.019086-19.472081  0.000047
   scf:   11     -185.954387     -185.954387     -185.964736  0.000693-19.472044  0.000031

SCF Convergence by FreeE+DM+H criterion
|FreeE_i-FreeE_(i-1)| (eV) <     0.00100000
max |DM_out - DM_in|         :     0.0006930818
max |H_out - H_in|      (eV) :     0.0000309126
SCF cycle converged after 11 iterations

Using DM_out to compute the final energy and forces
No. of atoms with KB's overlaping orbs in proc 0. Max # of overlaps:     632     689

MM-Stress (kbar):      208.38      208.38      874.44        0.00        0.00        0.00

siesta: E_KS(eV) =             -185.9544

siesta: E_KS - E_eggbox =      -185.9544

siesta: Atomic forces (eV/Ang):
     1   -0.000000    0.000000   -0.000000
     2   -2.125271    3.682699    0.000000
     3    2.125274   -3.682698    0.000000
     4   -2.125642   -3.681717   -0.000000
     5    2.125639    3.681718    0.000000
     6    4.251947    0.000808    0.000000
     7   -4.251947   -0.000811    0.000000
----------------------------------------
   Tot   -0.000000    0.000000    0.000000
----------------------------------------
   Max    4.251947
   Res    2.272643    sqrt( Sum f_i^2 / 3N )
----------------------------------------
   Max    4.251947    constrained

Stress tensor Voigt[x,y,z,yz,xz,xy] (kbar):    -2503.28    -2503.53    -2975.59       -0.00       -0.00       -0.21
(Free)E + p*V (eV/cell)     -136.4000
Target enthalpy (eV/cell)     -185.9647

siesta: Eigenvalues (eV):
  ik is       eps
   1  1  -35.5557  -26.8039  -26.8038  -24.9561  -24.9561  -18.3399  -10.1605   -3.5320   -3.5317   -0.0245
           8.2266    8.2269   15.7284   25.7254   25.7255   35.6076   35.6077   37.3402   41.0641   54.7690
   2  1  -35.8009  -27.2512  -26.2510  -25.5165  -24.6726  -17.7689  -11.1328  -10.1436   -4.5194    0.7954
           6.9644    7.1264   16.3096   21.2567   24.1718   25.3354   36.6003   41.4726   53.8335   65.0386
   3  1  -35.8009  -27.2512  -26.2510  -25.5165  -24.6726  -17.7690  -11.1327  -10.1436   -4.5198    0.7953
           6.9645    7.1265   16.3094   21.2568   24.1718   25.3352   36.6003   41.4727   53.8335   65.0385
   4  1  -35.8009  -27.2512  -26.2510  -25.5165  -24.6726  -17.7689  -11.1328  -10.1436   -4.5194    0.7954
           6.9644    7.1264   16.3096   21.2567   24.1718   25.3354   36.6003   41.4726   53.8335   65.0386
   5  1  -36.0770  -27.5999  -25.9273  -25.9272  -18.5858  -18.5856  -10.1121   -6.3036   -6.3030    3.2923
          10.2351   17.4979   20.6707   20.6708   35.4792   48.2330   48.2333   61.2901   61.2904  303.2373
   6  1  -33.2307  -26.3892  -26.3890  -23.3867  -19.4857  -19.4854  -11.7226   -0.6959   -0.6959    1.3329
           5.0277    8.5533    8.5535   12.9557   12.9560   23.0979   34.7752   47.3862   47.3863   96.9057
   7  1  -33.1999  -26.9465  -25.1505  -24.5911  -19.9085  -19.0458  -10.6643   -7.0859    0.8246    4.8385
           5.6270    7.2893    9.0766   12.8661   14.9275   28.1400   41.5065   46.6235   49.7863   63.8735
   8  1  -33.1999  -26.9466  -25.1504  -24.5910  -19.9085  -19.0456  -10.6647   -7.0859    0.8247    4.8387
           5.6269    7.2892    9.0766   12.8660   14.9276   28.1399   41.5066   46.6234   49.7863   63.8736
   9  1  -33.1999  -26.9465  -25.1505  -24.5911  -19.9085  -19.0458  -10.6643   -7.0859    0.8246    4.8385
           5.6270    7.2893    9.0766   12.8661   14.9275   28.1400   41.5065   46.6235   49.7863   63.8735
  10  1  -33.3359  -27.3266  -25.0258  -25.0257  -19.5877  -14.8008  -14.8006   -5.8017   -5.3003   -5.3000
           5.5184    7.3658    9.3191    9.3193    9.7179    9.7182   22.5325   40.0586   82.7654   82.7656
  11  1  -33.1999  -26.9465  -25.1505  -24.5911  -19.9085  -19.0458  -10.6643   -7.0859    0.8246    4.8385
           5.6270    7.2893    9.0766   12.8661   14.9275   28.1400   41.5065   46.6235   49.7863   63.8735
  12  1  -33.1999  -26.9466  -25.1504  -24.5910  -19.9085  -19.0456  -10.6647   -7.0859    0.8247    4.8387
           5.6269    7.2892    9.0766   12.8660   14.9276   28.1399   41.5066   46.6234   49.7863   63.8736
  13  1  -33.1999  -26.9465  -25.1505  -24.5911  -19.9085  -19.0458  -10.6643   -7.0859    0.8246    4.8385
           5.6270    7.2893    9.0766   12.8661   14.9275   28.1400   41.5065   46.6235   49.7863   63.8735
  14  1  -33.2307  -26.3892  -26.3890  -23.3867  -19.4857  -19.4854  -11.7226   -0.6959   -0.6959    1.3329
           5.0277    8.5533    8.5535   12.9557   12.9560   23.0979   34.7752   47.3862   47.3863   96.9057
siesta: Fermi energy =     -19.472044 eV

siesta: Program's energy decomposition (eV):
siesta: Ebs     =      -265.466826
siesta: Eions   =       321.344870
siesta: Ena     =        63.828933
siesta: Ekin    =       213.787855
siesta: Enl     =        -0.955510
siesta: Eso     =         0.000000
siesta: Edftu   =         0.000000
siesta: DEna    =       -17.097960
siesta: DUscf   =         5.634661
siesta: DUext   =         0.000000
siesta: Exc     =      -122.656283
siesta: eta*DQ  =         0.000000
siesta: Emadel  =         0.000000
siesta: Emeta   =         0.000000
siesta: Emolmec =        -7.151215
siesta: Ekinion =         0.000000
siesta: Eharris =      -185.954387
siesta: Etot    =      -185.954387
siesta: FreeEng =      -185.964736

siesta: Final energy (eV):
siesta:  Band Struct. =    -265.466826
siesta:       Kinetic =     213.787855
siesta:       Hartree =      83.962363
siesta:       Edftu   =       0.000000
siesta:       Eso     =       0.000000
siesta:    Ext. field =       0.000000
siesta:   Exch.-corr. =    -122.656283
siesta:  Ion-electron =    -508.681204
siesta:       Ion-ion =     154.784096
siesta:       Ekinion =       0.000000
siesta:         Total =    -185.954387
siesta:         Fermi =     -19.472044

siesta: Atomic forces (eV/Ang):
siesta:      1   -0.000000    0.000000   -0.000000
siesta:      2   -2.125271    3.682699    0.000000
siesta:      3    2.125274   -3.682698    0.000000
siesta:      4   -2.125642   -3.681717   -0.000000
siesta:      5    2.125639    3.681718    0.000000
siesta:      6    4.251947    0.000808    0.000000
siesta:      7   -4.251947   -0.000811    0.000000
siesta: ----------------------------------------
siesta:    Tot   -0.000000    0.000000    0.000000

siesta: Stress tensor (static) (eV/Ang**3):
siesta:    -1.562410   -0.000132   -0.000000
siesta:    -0.000132   -1.562563   -0.000000
siesta:    -0.000000   -0.000000   -1.857199

siesta: Cell volume =         29.845232 Ang**3

siesta: Pressure (static):
siesta:                Solid            Molecule  Units
siesta:           0.01808740          0.02042189  Ry/Bohr**3
siesta:           1.66072385          1.87506825  eV/Ang**3
siesta:        2660.80170968       3004.22300557  kBar
(Free)E+ p_basis*V_orbitals  =        -174.705418
(Free)Eharris+ p_basis*V_orbitals  =        -174.705418

cite: Please see "LiC6_scf.bib" for an exhaustive BiBTeX file.
cite: Please clearly indicate Siesta version in published work: 4.1.5
cite: This calculation has made use of the following articles
cite: which are encouraged to be cited in a published work.
        Primary SIESTA paper
          DOI: www.doi.org/10.1088/0953-8984/14/11/302

>> End of run:   9-NOV-2022  10:16:50
Job completed
