Siesta Version  : 4.1.5
Architecture    : x86_64-unknown-linux-gnu--unknown
Compiler version: GNU Fortran (GCC) 11.3.0
Compiler flags  : mpif90 -g -O2 -fallow-argument-mismatch
PP flags        : -DMPI -DFC_HAVE_FLUSH -DFC_HAVE_ABORT
Libraries       :  -I/global/software/sl-7.x86_64/modules/intel/2020.4.304/mkl/include  /globall/software/sl-7.x86_64/modules/intel/2020.4.304/mkl/lib/intel64/libmkl_scalapack_lp64.a -Wl,--start-group /global/software/sl-7.x86_64/modules/intel/2020.4.304/mkl/lib/intel64/libmkl_intel_lp64.a /global/software/sl-7.x86_64/modules/intel/2020.4.304/mkl/lib/intel64/libmkl_sequential.a /global/software/sl-7.x86_64/modules/intel/2020.4.304/mkl/lib/intel64/libmkl_core.a /global/software/sl-7.x86_64/modules/intel/2020.4.304/mkl/lib/intel64/libmkl_blacs_openmpi_lp64.a -Wl,--end-group -lpthread -lm -ldl
PARALLEL version

* Running on 4 nodes in parallel
>> Start of run:   9-NOV-2022  10:09:02

                           ***********************       
                           *  WELCOME TO SIESTA  *       
                           ***********************       

reinit: Reading from standard input
reinit: Dumped input in INPUT_TMP.09455
************************** Dump of input data file ****************************
SystemName LiC6_scf
SystemLabel LiC6_scf
NumberOfAtoms   7
NumberOfSpecies 2
%block ChemicalSpeciesLabel
1  3   Li-gga
2  6   C-gga
%endblock ChemicalSpeciesLabel
PAO.BasisSize  DZ
PAO.EnergyShift  10 meV
%block PS.Lmax
C-gga   2
Li-gga  2
%endblock PS.Lmax
LatticeConstant 1.000000 Ang
%block LatticeVectors
	4.3161300000	0.0000000000	0.0000000000
	-2.1580650000	3.7378782260	0.0000000000
	0.0000000000	0.0000000000	2.8118936000
%endblock LatticeVectors
AtomicCoordinatesFormat Ang
%block AtomicCoordinatesAndAtomicSpecies
	0.00000000	0.00000000	0.00000000	2
	-0.70288177	1.21742694	1.40594680	1
	-1.45518323	2.52045129	1.40594680	1
	1.45518323	2.52045129	1.40594680	1
	0.70288177	1.21742694	1.40594680	1
	1.40576354	0.00000000	1.40594680	1
	2.91036646	0.00000000	1.40594680	1
%endblock AtomicCoordinatesAndAtomicSpecies
Kgrid_NoTRS  T
%block kgrid_MonkhorstPack
3       0       0       0.0
0       3       0       0.0
0       0       3       0.0
%endblock kgrid_MonkhorstPack
AtomCoorFormatOut Ang
BlockSize 1
#ProcessorY 12
Diag.ParallelOverK   T
Diag.DivideAndConquer F
MeshCutoff   300 Ry
SCF.FreeE.Tolerance 1E-3 eV
SCF.EDM.Tolerance   5E-3 eV
DM.Tolerance  1E-3
DM.Require.Energy.Convergence T
DM.NumberPulay 4
XC.Functional GGA
XC.Authors    PBE
UseSaveData        F
MD.TypeOfRun       CG
MD.VariableCell    F
MD.NumCGsteps      00
MD.MaxCGDispl      0.200000 Bohr
MD.MaxStressTol    1.000000 GPa
MD.MaxForceTol     0.010000 eV/Ang
WriteMDHistory T
WriteCoorStep T
WriteForces T
WriteCoorStep    T
WriteEigenValues T
WriteDM    F
MM.UnitsDistance Ang  # what this program prints out DO NOT CHANGE
MM.UnitsEnergy    eV  # what this program prints out DO NOT CHANGE
MM.Grimme.S6     0.75 # Grimme-paper for PBE (correct for your functional)
MM.Grimme.D     20.   # Grimme-paper (correct for your functional)
%block MM.Potentials
  1   1 Grimme     16.69      1.650 # Li, 10.1002/jcc.20495
  1   2 Grimme     17.40      2.277 # Li / C
  2   2 Grimme     18.14      2.904 # C, 10.1002/jcc.20495
%endblock MM.Potentials
#%block ProjectedDensityOfStates
# -200.0  120.0  0.4  12800  eV
#%endblock ProjectedDensityOfStates
************************** End of input data file *****************************

reinit: -----------------------------------------------------------------------
reinit: System Name: LiC6_scf
reinit: -----------------------------------------------------------------------
reinit: System Label: LiC6_scf
reinit: -----------------------------------------------------------------------
Reading two-body potentials
Grimme - two-body potential between 1 and 1
Grimme - two-body potential between 1 and 2
Grimme - two-body potential between 2 and 2

initatom: Reading input for the pseudopotentials and atomic orbitals ----------
Species number:   1 Atomic number:    3 Label: Li-gga
Species number:   2 Atomic number:    6 Label: C-gga

Ground state valence configuration:   2s01
Reading pseudopotential information in formatted form from Li-gga.psf

Valence configuration for pseudopotential generation:
2s( 1.00) rc: 2.28
2p( 0.00) rc: 2.28
3d( 0.00) rc: 2.59
4f( 0.00) rc: 2.59
Ground state valence configuration:   2s02  2p02
Reading pseudopotential information in formatted form from C-gga.psf

Valence configuration for pseudopotential generation:
2s( 2.00) rc: 1.56
2p( 2.00) rc: 1.56
3d( 0.00) rc: 1.56
4f( 0.00) rc: 1.56
relmxkb: Read Max KB Ang. Momentum=    2 for species C-gga
relmxkb: Read Max KB Ang. Momentum=    2 for species Li-gga

<basis_specs>
===============================================================================
Li-gga               Z=   3    Mass=  6.9400        Charge= 0.17977+309
Lmxo=0 Lmxkb= 2    BasisType=split      Semic=F
L=0  Nsemic=0  Cnfigmx=2
          i=1  nzeta=2  polorb=0  (2s)
            splnorm:   0.15000    
               vcte:    0.0000    
               rinn:    0.0000    
               qcoe:    0.0000    
               qyuk:    0.0000    
               qwid:   0.10000E-01
                rcs:    0.0000      0.0000    
            lambdas:    1.0000      1.0000    
-------------------------------------------------------------------------------
L=0  Nkbl=1  erefs: 0.17977+309
L=1  Nkbl=1  erefs: 0.17977+309
L=2  Nkbl=1  erefs: 0.17977+309
===============================================================================
</basis_specs>

atom: Called for Li-gga                (Z =   3)

read_vps: Pseudopotential generation method:
read_vps: ATM 3.2.2 Troullier-Martins                       
Valence charge for ps generation:    1.00000

read_vps: Pseudopotential includes a core correction:
read_vps: Pseudo-core for xc-correction

xc_check: Exchange-correlation functional:
xc_check: GGA Perdew, Burke & Ernzerhof 1996
V l=0 = -2*Zval/r beyond r=  2.2278
V l=1 = -2*Zval/r beyond r=  2.2278
V l=2 = -2*Zval/r beyond r=  2.5245
All V_l potentials equal beyond r=  2.4622
This should be close to max(r_c) in ps generation
All pots = -2*Zval/r beyond r=  2.5245

VLOCAL1: 99.0% of the norm of Vloc inside      7.160 Ry
VLOCAL1: 99.9% of the norm of Vloc inside     16.318 Ry
atom: Maximum radius for 4*pi*r*r*local-pseudopot. charge    2.86079
atom: Maximum radius for r*vlocal+2*Zval:    2.43160
GHOST: No ghost state for L =  0
GHOST: No ghost state for L =  1
GHOST: No ghost state for L =  2

KBgen: Kleinman-Bylander projectors: 
   l= 0   rc=  2.654023   el= -0.211234   Ekb=  1.742119   kbcos=  0.228463
   l= 1   rc=  2.721230   el= -0.080095   Ekb= -1.122375   kbcos= -0.147941
   l= 2   rc=  2.825246   el=  0.002001   Ekb= -0.207076   kbcos= -0.031965

KBgen: Total number of Kleinman-Bylander projectors:    9
atom: -------------------------------------------------------------------------

atom: SANKEY-TYPE ORBITALS:
atom: Selected multiple-zeta basis: split     

SPLIT: Orbitals with angular momentum L= 0

SPLIT: Basis orbitals for state 2s

SPLIT: PAO cut-off radius determined from an
SPLIT: energy shift=  0.000735 Ry

   izeta = 1
                 lambda =    1.000000
                     rc =   11.897381
                 energy =   -0.210580
                kinetic =    0.143382
    potential(screened) =   -0.353962
       potential(ionic) =   -0.533453

   izeta = 2
                 rmatch =    8.489163
              splitnorm =    0.150000
                 energy =   -0.186081
                kinetic =    0.225882
    potential(screened) =   -0.411964
       potential(ionic) =   -0.593024
atom: Total number of Sankey-type orbitals:  2

atm_pop: Valence configuration (for local Pseudopot. screening):
 2s( 1.00)                                                            
Vna: chval, zval:    1.00000   1.00000

Vna:  Cut-off radius for the neutral-atom potential:  11.897381
comcore: Pseudo-core radius Rcore=  3.450946

atom: _________________________________________________________________________

<basis_specs>
===============================================================================
C-gga                Z=   6    Mass=  12.010        Charge= 0.17977+309
Lmxo=1 Lmxkb= 2    BasisType=split      Semic=F
L=0  Nsemic=0  Cnfigmx=2
          i=1  nzeta=2  polorb=0  (2s)
            splnorm:   0.15000    
               vcte:    0.0000    
               rinn:    0.0000    
               qcoe:    0.0000    
               qyuk:    0.0000    
               qwid:   0.10000E-01
                rcs:    0.0000      0.0000    
            lambdas:    1.0000      1.0000    
L=1  Nsemic=0  Cnfigmx=2
          i=1  nzeta=2  polorb=0  (2p)
            splnorm:   0.15000    
               vcte:    0.0000    
               rinn:    0.0000    
               qcoe:    0.0000    
               qyuk:    0.0000    
               qwid:   0.10000E-01
                rcs:    0.0000      0.0000    
            lambdas:    1.0000      1.0000    
-------------------------------------------------------------------------------
L=0  Nkbl=1  erefs: 0.17977+309
L=1  Nkbl=1  erefs: 0.17977+309
L=2  Nkbl=1  erefs: 0.17977+309
===============================================================================
</basis_specs>

atom: Called for C-gga                 (Z =   6)

read_vps: Pseudopotential generation method:
read_vps: ATM 3.2.2 Troullier-Martins                       
Valence charge for ps generation:    4.00000

xc_check: Exchange-correlation functional:
xc_check: GGA Perdew, Burke & Ernzerhof 1996
V l=0 = -2*Zval/r beyond r=  1.5227
V l=1 = -2*Zval/r beyond r=  1.5227
V l=2 = -2*Zval/r beyond r=  1.5227
All V_l potentials equal beyond r=  1.4851
This should be close to max(r_c) in ps generation
All pots = -2*Zval/r beyond r=  1.5227

VLOCAL1: 99.0% of the norm of Vloc inside     19.682 Ry
VLOCAL1: 99.9% of the norm of Vloc inside     44.856 Ry
atom: Maximum radius for 4*pi*r*r*local-pseudopot. charge    1.79142
atom: Maximum radius for r*vlocal+2*Zval:    1.54183
GHOST: No ghost state for L =  0
GHOST: No ghost state for L =  1
GHOST: No ghost state for L =  2

KBgen: Kleinman-Bylander projectors: 
   l= 0   rc=  1.661951   el= -1.010689   Ekb=  5.289847   kbcos=  0.316429
   l= 1   rc=  1.661951   el= -0.388490   Ekb= -4.102504   kbcos= -0.351025
   l= 2   rc=  1.747182   el=  0.001971   Ekb= -1.006005   kbcos= -0.008530

KBgen: Total number of Kleinman-Bylander projectors:    9
atom: -------------------------------------------------------------------------

atom: SANKEY-TYPE ORBITALS:
atom: Selected multiple-zeta basis: split     

SPLIT: Orbitals with angular momentum L= 0

SPLIT: Basis orbitals for state 2s

SPLIT: PAO cut-off radius determined from an
SPLIT: energy shift=  0.000735 Ry

   izeta = 1
                 lambda =    1.000000
                     rc =    5.948690
                 energy =   -1.010099
                kinetic =    0.827121
    potential(screened) =   -1.837220
       potential(ionic) =   -5.392783

   izeta = 2
                 rmatch =    3.518811
              splitnorm =    0.150000
                 energy =   -0.877891
                kinetic =    1.289227
    potential(screened) =   -2.167118
       potential(ionic) =   -5.982073

SPLIT: Orbitals with angular momentum L= 1

SPLIT: Basis orbitals for state 2p

SPLIT: PAO cut-off radius determined from an
SPLIT: energy shift=  0.000735 Ry

   izeta = 1
                 lambda =    1.000000
                     rc =    7.638387
                 energy =   -0.387843
                kinetic =    2.314739
    potential(screened) =   -2.702582
       potential(ionic) =   -6.092371

   izeta = 2
                 rmatch =    3.840617
              splitnorm =    0.150000
                 energy =   -0.270479
                kinetic =    3.438347
    potential(screened) =   -3.708826
       potential(ionic) =   -7.497707
atom: Total number of Sankey-type orbitals:  8

atm_pop: Valence configuration (for local Pseudopot. screening):
 2s( 2.00)                                                            
 2p( 2.00)                                                            
Vna: chval, zval:    4.00000   4.00000

Vna:  Cut-off radius for the neutral-atom potential:   7.638387

atom: _________________________________________________________________________

prinput: Basis input ----------------------------------------------------------

PAO.BasisType split     

%block ChemicalSpeciesLabel
    1    3 Li-gga                  # Species index, atomic number, species label
    2    6 C-gga                   # Species index, atomic number, species label
%endblock ChemicalSpeciesLabel

%block PAO.Basis                 # Define Basis set
Li-gga                1                    # Species label, number of l-shells
 n=2   0   2                         # n, l, Nzeta 
  11.897      8.489   
   1.000      1.000   
C-gga                 2                    # Species label, number of l-shells
 n=2   0   2                         # n, l, Nzeta 
   5.949      3.519   
   1.000      1.000   
 n=2   1   2                         # n, l, Nzeta 
   7.638      3.841   
   1.000      1.000   
%endblock PAO.Basis

prinput: ----------------------------------------------------------------------

coor:   Atomic-coordinates input format  =     Cartesian coordinates
coor:                                          (in Angstroms)

siesta: Atomic coordinates (Bohr) and species
siesta:      0.00000   0.00000   0.00000  2        1
siesta:     -1.32825   2.30060   2.65686  1        2
siesta:     -2.74990   4.76296   2.65686  1        3
siesta:      2.74990   4.76296   2.65686  1        4
siesta:      1.32825   2.30060   2.65686  1        5
siesta:      2.65651   0.00000   2.65686  1        6
siesta:      5.49980   0.00000   2.65686  1        7

siesta: System type = bulk      

initatomlists: Number of atoms, orbitals, and projectors:      7    20    63

siesta: ******************** Simulation parameters ****************************
siesta:
siesta: The following are some of the parameters of the simulation.
siesta: A complete list of the parameters used, including default values,
siesta: can be found in file out.fdf
siesta:
redata: Spin configuration                          = none
redata: Number of spin components                   = 1
redata: Time-Reversal Symmetry                      = T
redata: Spin spiral                                 = F
redata: Long output                                 =   F
redata: Number of Atomic Species                    =        2
redata: Charge density info will appear in .RHO file
redata: Write Mulliken Pop.                         = NO
redata: Matel table size (NRTAB)                    =     1024
redata: Mesh Cutoff                                 =   300.0000 Ry
redata: Net charge of the system                    =     0.0000 |e|
redata: Min. number of SCF Iter                     =        0
redata: Max. number of SCF Iter                     =     1000
redata: SCF convergence failure will abort job
redata: SCF mix quantity                            = Hamiltonian
redata: Mix DM or H after convergence               =   F
redata: Recompute H after scf cycle                 =   F
redata: Mix DM in first SCF step                    =   T
redata: Write Pulay info on disk                    =   F
redata: New DM Occupancy tolerance                  = 0.000000000001
redata: No kicks to SCF
redata: DM Mixing Weight for Kicks                  =     0.5000
redata: Require Harris convergence for SCF          =   F
redata: Harris energy tolerance for SCF             =     0.000100 eV
redata: Require DM convergence for SCF              =   T
redata: DM tolerance for SCF                        =     0.001000
redata: Require EDM convergence for SCF             =   F
redata: EDM tolerance for SCF                       =     0.005000 eV
redata: Require H convergence for SCF               =   T
redata: Hamiltonian tolerance for SCF               =     0.001000 eV
redata: Require (free) Energy convergence for SCF   =   T
redata: (free) Energy tolerance for SCF             =     0.001000 eV
redata: Using Saved Data (generic)                  =   F
redata: Use continuation files for DM               =   F
redata: Neglect nonoverlap interactions             =   F
redata: Method of Calculation                       = Diagonalization
redata: Electronic Temperature                      =   299.9869 K
redata: Fix the spin of the system                  =   F
redata: Dynamics option                             = Single-point calculation
mix.SCF: Pulay mixing                            = Pulay
mix.SCF:    Variant                              = stable
mix.SCF:    History steps                        = 4
mix.SCF:    Linear mixing weight                 =     0.250000
mix.SCF:    Mixing weight                        =     0.250000
mix.SCF:    SVD condition                        = 0.1000E-07
redata: ***********************************************************************

%block SCF.Mixers
  Pulay
%endblock SCF.Mixers

%block SCF.Mixer.Pulay
  # Mixing method
  method pulay
  variant stable

  # Mixing options
  weight 0.2500
  weight.linear 0.2500
  history 4
%endblock SCF.Mixer.Pulay

DM_history_depth set to one: no extrapolation allowed by default for geometry relaxation
Size of DM history Fstack: 1
Total number of electrons:    10.000000
Total ionic charge:    10.000000

* ProcessorY, Blocksize:    2   1


* Orbital distribution balance (max,min):     5     5

 Kpoints in:           18 . Kpoints trimmed:           14

siesta: k-grid: Number of k-points =    14
siesta: k-grid: Cutoff (effective) =     4.218 Ang
siesta: k-grid: Supercell and displacements
siesta: k-grid:    3   0   0      0.000
siesta: k-grid:    0   3   0      0.000
siesta: k-grid:    0   0   3      0.000

diag: Algorithm                                     = Expert
diag: Parallel over k                               =   T
diag: Use parallel 2D distribution                  =   T
diag: Parallel block-size                           = 1
diag: Parallel distribution                         =     2 x     2
diag: Used triangular part                          = Lower
diag: Absolute tolerance                            =  0.100E-15
diag: Orthogonalization factor                      =  0.100E-05
diag: Memory factor                                 =  1.0000

superc: Internal auxiliary supercell:     9 x     9 x    11  =     891
superc: Number of atoms, orbitals, and projectors:   6237  17820  56133


ts: **************************************************************
ts: Save H and S matrices                           =    F
ts: Save DM and EDM matrices                        =    F
ts: Only save the overlap matrix S                  =    F
ts: **************************************************************

************************ Begin: TS CHECKS AND WARNINGS ************************
************************ End: TS CHECKS AND WARNINGS **************************


                     ====================================
                        Single-point calculation
                     ====================================

outcoor: Atomic coordinates (Ang):                          
    0.00000000    0.00000000    0.00000000   2       1  C-gga
   -0.70288177    1.21742694    1.40594680   1       2  Li-gga
   -1.45518323    2.52045129    1.40594680   1       3  Li-gga
    1.45518323    2.52045129    1.40594680   1       4  Li-gga
    0.70288177    1.21742694    1.40594680   1       5  Li-gga
    1.40576354    0.00000000    1.40594680   1       6  Li-gga
    2.91036646    0.00000000    1.40594680   1       7  Li-gga

superc: Internal auxiliary supercell:     9 x     9 x    11  =     891
superc: Number of atoms, orbitals, and projectors:   6237  17820  56133

outcell: Unit cell vectors (Ang):
        4.316130    0.000000    0.000000
       -2.158065    3.737878    0.000000
        0.000000    0.000000    2.811894

outcell: Cell vector modules (Ang)   :    4.316130    4.316130    2.811894
outcell: Cell angles (23,13,12) (deg):     90.0000     90.0000    120.0000
outcell: Cell volume (Ang**3)        :     45.3648
<dSpData1D:S at geom step 0
  <sparsity:sparsity for geom step 0
    nrows_g=20 nrows=5 sparsity=42.8325 nnzs=17133, refcount: 7>
  <dData1D:(new from dSpData1D) n=17133, refcount: 1>
refcount: 1>
new_DM -- step:     1
Initializing Density Matrix...
DM filled with atomic data:
<dSpData2D:DM initialized from atoms
  <sparsity:sparsity for geom step 0
    nrows_g=20 nrows=5 sparsity=42.8325 nnzs=17133, refcount: 8>
  <dData2D:DM n=17133 m=1, refcount: 1>
refcount: 1>
No. of atoms with KB's overlaping orbs in proc 0. Max # of overlaps:     410     465
New grid distribution:   1
           1       1:   20    1:   10    1:    8
           2       1:   20    1:   10    9:   15
           3       1:   20   11:   20    1:    8
           4       1:   20   11:   20    9:   15

InitMesh: MESH =    40 x    40 x    30 =       48000
InitMesh: (bp) =    20 x    20 x    15 =        6000
InitMesh: Mesh cutoff (required, used) =   300.000   314.591 Ry
ExtMesh (bp) on 0 =   156 x   146 x   144 =     3279744
New grid distribution:   2
           1       1:   10    1:   10    1:   15
           2      11:   20    1:   10    1:   15
           3       1:   10   11:   20    1:   15
           4      11:   20   11:   20    1:   15
New grid distribution:   3
           1       1:   10    1:   10    1:   15
           2      11:   20    1:   10    1:   15
           3       1:   10   11:   20    1:   15
           4      11:   20   11:   20    1:   15
Setting up quadratic distribution...
ExtMesh (bp) on 0 =   146 x   146 x   151 =     3218716
PhiOnMesh: Number of (b)points on node 0 =                 1500
PhiOnMesh: nlist on node 0 =               331865

stepf: Fermi-Dirac step function

siesta: Program's energy decomposition (eV):
siesta: Ebs     =      -120.961982
siesta: Eions   =       321.344870
siesta: Ena     =        76.844657
siesta: Ekin    =       214.616936
siesta: Enl     =       -13.020267
siesta: Eso     =         0.000000
siesta: Edftu   =         0.000000
siesta: DEna    =       -33.518253
siesta: DUscf   =        19.819543
siesta: DUext   =         0.000000
siesta: Exc     =      -119.570899
siesta: eta*DQ  =         0.000000
siesta: Emadel  =         0.000000
siesta: Emeta   =         0.000000
siesta: Emolmec =        -3.513839
siesta: Ekinion =         0.000000
siesta: Eharris =      -141.842337
siesta: Etot    =      -179.686991
siesta: FreeEng =      -179.701618

        iscf     Eharris(eV)        E_KS(eV)     FreeEng(eV)     dDmax    Ef(eV) dHmax(eV)
   scf:    1     -141.842337     -179.686991     -179.701618 36.394909-14.680728 16.252664
timer: Routine,Calls,Time,% = IterSCF        1       2.013  23.78
   scf:    2     -196.036574     -190.214525     -190.223999 11.710224-14.305357  3.544981
   scf:    3     -190.932989     -190.750007     -190.760222  4.117669-13.836708  0.075899
   scf:    4     -190.753519     -190.752333     -190.764566  1.118321-13.845621  0.120911
   scf:    5     -190.752352     -190.752463     -190.765794  0.945067-13.879781  0.024086
   scf:    6     -190.753178     -190.752934     -190.765666  0.185018-13.889925  0.055452
   scf:    7     -190.751836     -190.752497     -190.765799  0.159473-13.882812  0.020331
   scf:    8     -190.752873     -190.752694     -190.765821  0.048436-13.884498  0.000606
   scf:    9     -190.752688     -190.752691     -190.765821  0.001133-13.884433  0.000089
   scf:   10     -190.752698     -190.752695     -190.765821  0.002138-13.884436  0.000040
   scf:   11     -190.752693     -190.752694     -190.765821  0.000428-13.884447  0.000018

SCF Convergence by FreeE+DM+H criterion
|FreeE_i-FreeE_(i-1)| (eV) <     0.00100000
max |DM_out - DM_in|         :     0.0004276075
max |H_out - H_in|      (eV) :     0.0000175255
SCF cycle converged after 11 iterations

Using DM_out to compute the final energy and forces
No. of atoms with KB's overlaping orbs in proc 0. Max # of overlaps:     410     465

MM-Stress (kbar):        4.80        4.80       89.56        0.00        0.00        0.00

siesta: E_KS(eV) =             -190.7527

siesta: E_KS - E_eggbox =      -190.7527

siesta: Atomic forces (eV/Ang):
     1   -0.000000   -0.000000    0.000000
     2   -0.140018    0.242728   -0.000000
     3    0.140018   -0.242728   -0.000000
     4   -0.140164   -0.242772   -0.000000
     5    0.140164    0.242772   -0.000000
     6    0.280218    0.000105   -0.000000
     7   -0.280218   -0.000105   -0.000000
----------------------------------------
   Tot    0.000000   -0.000000    0.000000
----------------------------------------
   Max    0.280218
   Res    0.149803    sqrt( Sum f_i^2 / 3N )
----------------------------------------
   Max    0.280218    constrained

Stress tensor Voigt[x,y,z,yz,xz,xy] (kbar):    -1475.25    -1475.30     -190.00        0.00        0.00       -0.04
(Free)E + p*V (eV/cell)     -161.1251
Target enthalpy (eV/cell)     -190.7658

siesta: Eigenvalues (eV):
  ik is       eps
   1  1  -24.9835  -18.9502  -18.9502  -14.2251  -13.9346  -13.9344   -9.2575   -0.0187    2.1738    2.1741
           3.1870   19.7256   19.7257   21.3798   36.2035   36.2035   38.9753   42.7505   42.7505   71.5643
   2  1  -25.2118  -19.4544  -16.8798  -16.2541  -14.4011  -13.8696   -7.4562   -0.9181    1.2380    2.0447
           3.0461   11.8218   15.7432   17.7209   21.2421   22.4480   23.6997   45.4292   54.9615   64.6783
   3  1  -25.2118  -19.4544  -16.8798  -16.2542  -14.4010  -13.8695   -7.4563   -0.9180    1.2380    2.0449
           3.0459   11.8218   15.7432   17.7209   21.2420   22.4480   23.6996   45.4292   54.9615   64.6781
   4  1  -25.2118  -19.4544  -16.8798  -16.2541  -14.4011  -13.8696   -7.4562   -0.9181    1.2380    2.0447
           3.0461   11.8218   15.7432   17.7209   21.2421   22.4480   23.6997   45.4293   54.9615   64.6783
   5  1  -25.4408  -18.9029  -16.0657  -16.0656  -14.7623   -6.0196   -6.0196   -1.4171    0.5783    1.3810
           1.3814   14.6957   18.1104   21.6537   21.6538   40.8308  107.4273  107.4274  115.1328  115.1329
   6  1  -24.2727  -18.2568  -18.0546  -18.0546  -13.8041  -13.8041   -7.3574   -6.1767   -6.1765    1.3863
           3.3678    4.4151    4.4154   16.6942   16.6943   18.9078   37.8006   47.0082   47.0082   47.3188
   7  1  -24.4863  -18.7641  -17.7130  -16.3892  -14.9576  -13.6242   -7.6056   -3.1708   -0.9282    1.7698
           7.8703    9.0566   14.1730   14.8786   16.8591   17.8159   20.6173   39.6791   44.5983   50.6257
   8  1  -24.4863  -18.7641  -17.7130  -16.3893  -14.9575  -13.6242   -7.6055   -3.1711   -0.9281    1.7698
           7.8703    9.0567   14.1730   14.8786   16.8592   17.8159   20.6173   39.6791   44.5983   50.6257
   9  1  -24.4863  -18.7641  -17.7130  -16.3892  -14.9576  -13.6242   -7.6056   -3.1708   -0.9282    1.7698
           7.8703    9.0566   14.1730   14.8786   16.8591   17.8159   20.6173   39.6791   44.5983   50.6258
  10  1  -24.8353  -19.1939  -16.0223  -16.0223  -15.8267  -10.1326   -6.9523   -6.9522    1.2717    1.2722
           2.9578   15.5724   15.8276   15.8276   16.6469   16.6470   21.8442   43.5817   43.5818   76.4007
  11  1  -24.4863  -18.7641  -17.7130  -16.3892  -14.9576  -13.6242   -7.6056   -3.1708   -0.9282    1.7698
           7.8703    9.0566   14.1730   14.8786   16.8591   17.8159   20.6173   39.6791   44.5983   50.6258
  12  1  -24.4863  -18.7641  -17.7130  -16.3893  -14.9575  -13.6242   -7.6055   -3.1711   -0.9281    1.7698
           7.8703    9.0567   14.1730   14.8786   16.8592   17.8159   20.6173   39.6791   44.5983   50.6257
  13  1  -24.4863  -18.7641  -17.7130  -16.3892  -14.9576  -13.6242   -7.6056   -3.1708   -0.9282    1.7698
           7.8703    9.0566   14.1730   14.8786   16.8591   17.8159   20.6173   39.6791   44.5983   50.6257
  14  1  -24.2727  -18.2568  -18.0546  -18.0546  -13.8041  -13.8041   -7.3574   -6.1767   -6.1765    1.3863
           3.3678    4.4151    4.4154   16.6942   16.6943   18.9078   37.8006   47.0082   47.0082   47.3188
siesta: Fermi energy =     -13.884447 eV

siesta: Program's energy decomposition (eV):
siesta: Ebs     =      -184.308300
siesta: Eions   =       321.344870
siesta: Ena     =        76.844657
siesta: Ekin    =       163.944007
siesta: Enl     =         4.009940
siesta: Eso     =         0.000000
siesta: Edftu   =         0.000000
siesta: DEna    =        -4.117781
siesta: DUscf   =         2.533003
siesta: DUext   =         0.000000
siesta: Exc     =      -109.107811
siesta: eta*DQ  =         0.000000
siesta: Emadel  =         0.000000
siesta: Emeta   =         0.000000
siesta: Emolmec =        -3.513839
siesta: Ekinion =         0.000000
siesta: Eharris =      -190.752693
siesta: Etot    =      -190.752694
siesta: FreeEng =      -190.765821

siesta: Final energy (eV):
siesta:  Band Struct. =    -184.308300
siesta:       Kinetic =     163.944007
siesta:       Hartree =      63.365103
siesta:       Edftu   =       0.000000
siesta:       Eso     =       0.000000
siesta:    Ext. field =       0.000000
siesta:   Exch.-corr. =    -109.107811
siesta:  Ion-electron =    -353.217874
siesta:       Ion-ion =      47.777720
siesta:       Ekinion =       0.000000
siesta:         Total =    -190.752694
siesta:         Fermi =     -13.884447

siesta: Atomic forces (eV/Ang):
siesta:      1   -0.000000   -0.000000    0.000000
siesta:      2   -0.140018    0.242728   -0.000000
siesta:      3    0.140018   -0.242728   -0.000000
siesta:      4   -0.140164   -0.242772   -0.000000
siesta:      5    0.140164    0.242772   -0.000000
siesta:      6    0.280218    0.000105   -0.000000
siesta:      7   -0.280218   -0.000105   -0.000000
siesta: ----------------------------------------
siesta:    Tot    0.000000   -0.000000    0.000000

siesta: Stress tensor (static) (eV/Ang**3):
siesta:    -0.920770   -0.000027    0.000000
siesta:    -0.000027   -0.920801    0.000000
siesta:     0.000000    0.000000   -0.118590

siesta: Cell volume =         45.364753 Ang**3

siesta: Pressure (static):
siesta:                Solid            Molecule  Units
siesta:           0.00711622          0.00721745  Ry/Bohr**3
siesta:           0.65338676          0.66268191  eV/Ang**3
siesta:        1046.85231659       1061.74494918  kBar
(Free)E+ p_basis*V_orbitals  =        -179.506503
(Free)Eharris+ p_basis*V_orbitals  =        -179.506502

cite: Please see "LiC6_scf.bib" for an exhaustive BiBTeX file.
cite: Please clearly indicate Siesta version in published work: 4.1.5
cite: This calculation has made use of the following articles
cite: which are encouraged to be cited in a published work.
        Primary SIESTA paper
          DOI: www.doi.org/10.1088/0953-8984/14/11/302

>> End of run:   9-NOV-2022  10:09:26
Job completed
