Siesta Version  : 4.1.5
Architecture    : x86_64-unknown-linux-gnu--unknown
Compiler version: GNU Fortran (GCC) 11.3.0
Compiler flags  : mpif90 -g -O2 -fallow-argument-mismatch
PP flags        : -DMPI -DFC_HAVE_FLUSH -DFC_HAVE_ABORT
Libraries       :  -I/global/software/sl-7.x86_64/modules/intel/2020.4.304/mkl/include  /globall/software/sl-7.x86_64/modules/intel/2020.4.304/mkl/lib/intel64/libmkl_scalapack_lp64.a -Wl,--start-group /global/software/sl-7.x86_64/modules/intel/2020.4.304/mkl/lib/intel64/libmkl_intel_lp64.a /global/software/sl-7.x86_64/modules/intel/2020.4.304/mkl/lib/intel64/libmkl_sequential.a /global/software/sl-7.x86_64/modules/intel/2020.4.304/mkl/lib/intel64/libmkl_core.a /global/software/sl-7.x86_64/modules/intel/2020.4.304/mkl/lib/intel64/libmkl_blacs_openmpi_lp64.a -Wl,--end-group -lpthread -lm -ldl
PARALLEL version

* Running on 4 nodes in parallel
>> Start of run:   9-NOV-2022  10:22:16

                           ***********************       
                           *  WELCOME TO SIESTA  *       
                           ***********************       

reinit: Reading from standard input
reinit: Dumped input in INPUT_TMP.03107
************************** Dump of input data file ****************************
SystemName LiC6_scf
SystemLabel LiC6_scf
NumberOfAtoms   7
NumberOfSpecies 2
%block ChemicalSpeciesLabel
1  3   Li-gga
2  6   C-gga
%endblock ChemicalSpeciesLabel
PAO.BasisSize  DZ
PAO.EnergyShift  10 meV
%block PS.Lmax
C-gga   2
Li-gga  2
%endblock PS.Lmax
LatticeConstant 1.000000 Ang
%block LatticeVectors
	4.3161300000	0.0000000000	0.0000000000
	-2.1580650000	3.7378782260	0.0000000000
	0.0000000000	0.0000000000	4.8098180000
%endblock LatticeVectors
AtomicCoordinatesFormat Ang
%block AtomicCoordinatesAndAtomicSpecies
	0.00000000	0.00000000	0.00000000	2
	-0.70288177	1.21742694	2.40490900	1
	-1.45518323	2.52045129	2.40490900	1
	1.45518323	2.52045129	2.40490900	1
	0.70288177	1.21742694	2.40490900	1
	1.40576354	0.00000000	2.40490900	1
	2.91036646	0.00000000	2.40490900	1
%endblock AtomicCoordinatesAndAtomicSpecies
Kgrid_NoTRS  T
%block kgrid_MonkhorstPack
3       0       0       0.0
0       3       0       0.0
0       0       3       0.0
%endblock kgrid_MonkhorstPack
AtomCoorFormatOut Ang
BlockSize 1
#ProcessorY 12
Diag.ParallelOverK   T
Diag.DivideAndConquer F
MeshCutoff   300 Ry
SCF.FreeE.Tolerance 1E-3 eV
SCF.EDM.Tolerance   5E-3 eV
DM.Tolerance  1E-3
DM.Require.Energy.Convergence T
DM.NumberPulay 4
XC.Functional GGA
XC.Authors    PBE
UseSaveData        F
MD.TypeOfRun       CG
MD.VariableCell    F
MD.NumCGsteps      00
MD.MaxCGDispl      0.200000 Bohr
MD.MaxStressTol    1.000000 GPa
MD.MaxForceTol     0.010000 eV/Ang
WriteMDHistory T
WriteCoorStep T
WriteForces T
WriteCoorStep    T
WriteEigenValues T
WriteDM    F
MM.UnitsDistance Ang  # what this program prints out DO NOT CHANGE
MM.UnitsEnergy    eV  # what this program prints out DO NOT CHANGE
MM.Grimme.S6     0.75 # Grimme-paper for PBE (correct for your functional)
MM.Grimme.D     20.   # Grimme-paper (correct for your functional)
%block MM.Potentials
  1   1 Grimme     16.69      1.650 # Li, 10.1002/jcc.20495
  1   2 Grimme     17.40      2.277 # Li / C
  2   2 Grimme     18.14      2.904 # C, 10.1002/jcc.20495
%endblock MM.Potentials
#%block ProjectedDensityOfStates
# -200.0  120.0  0.4  12800  eV
#%endblock ProjectedDensityOfStates
************************** End of input data file *****************************

reinit: -----------------------------------------------------------------------
reinit: System Name: LiC6_scf
reinit: -----------------------------------------------------------------------
reinit: System Label: LiC6_scf
reinit: -----------------------------------------------------------------------
Reading two-body potentials
Grimme - two-body potential between 1 and 1
Grimme - two-body potential between 1 and 2
Grimme - two-body potential between 2 and 2

initatom: Reading input for the pseudopotentials and atomic orbitals ----------
Species number:   1 Atomic number:    3 Label: Li-gga
Species number:   2 Atomic number:    6 Label: C-gga

Ground state valence configuration:   2s01
Reading pseudopotential information in formatted form from Li-gga.psf

Valence configuration for pseudopotential generation:
2s( 1.00) rc: 2.28
2p( 0.00) rc: 2.28
3d( 0.00) rc: 2.59
4f( 0.00) rc: 2.59
Ground state valence configuration:   2s02  2p02
Reading pseudopotential information in formatted form from C-gga.psf

Valence configuration for pseudopotential generation:
2s( 2.00) rc: 1.56
2p( 2.00) rc: 1.56
3d( 0.00) rc: 1.56
4f( 0.00) rc: 1.56
relmxkb: Read Max KB Ang. Momentum=    2 for species C-gga
relmxkb: Read Max KB Ang. Momentum=    2 for species Li-gga

<basis_specs>
===============================================================================
Li-gga               Z=   3    Mass=  6.9400        Charge= 0.17977+309
Lmxo=0 Lmxkb= 2    BasisType=split      Semic=F
L=0  Nsemic=0  Cnfigmx=2
          i=1  nzeta=2  polorb=0  (2s)
            splnorm:   0.15000    
               vcte:    0.0000    
               rinn:    0.0000    
               qcoe:    0.0000    
               qyuk:    0.0000    
               qwid:   0.10000E-01
                rcs:    0.0000      0.0000    
            lambdas:    1.0000      1.0000    
-------------------------------------------------------------------------------
L=0  Nkbl=1  erefs: 0.17977+309
L=1  Nkbl=1  erefs: 0.17977+309
L=2  Nkbl=1  erefs: 0.17977+309
===============================================================================
</basis_specs>

atom: Called for Li-gga                (Z =   3)

read_vps: Pseudopotential generation method:
read_vps: ATM 3.2.2 Troullier-Martins                       
Valence charge for ps generation:    1.00000

read_vps: Pseudopotential includes a core correction:
read_vps: Pseudo-core for xc-correction

xc_check: Exchange-correlation functional:
xc_check: GGA Perdew, Burke & Ernzerhof 1996
V l=0 = -2*Zval/r beyond r=  2.2278
V l=1 = -2*Zval/r beyond r=  2.2278
V l=2 = -2*Zval/r beyond r=  2.5245
All V_l potentials equal beyond r=  2.4622
This should be close to max(r_c) in ps generation
All pots = -2*Zval/r beyond r=  2.5245

VLOCAL1: 99.0% of the norm of Vloc inside      7.160 Ry
VLOCAL1: 99.9% of the norm of Vloc inside     16.318 Ry
atom: Maximum radius for 4*pi*r*r*local-pseudopot. charge    2.86079
atom: Maximum radius for r*vlocal+2*Zval:    2.43160
GHOST: No ghost state for L =  0
GHOST: No ghost state for L =  1
GHOST: No ghost state for L =  2

KBgen: Kleinman-Bylander projectors: 
   l= 0   rc=  2.654023   el= -0.211234   Ekb=  1.742119   kbcos=  0.228463
   l= 1   rc=  2.721230   el= -0.080095   Ekb= -1.122375   kbcos= -0.147941
   l= 2   rc=  2.825246   el=  0.002001   Ekb= -0.207076   kbcos= -0.031965

KBgen: Total number of Kleinman-Bylander projectors:    9
atom: -------------------------------------------------------------------------

atom: SANKEY-TYPE ORBITALS:
atom: Selected multiple-zeta basis: split     

SPLIT: Orbitals with angular momentum L= 0

SPLIT: Basis orbitals for state 2s

SPLIT: PAO cut-off radius determined from an
SPLIT: energy shift=  0.000735 Ry

   izeta = 1
                 lambda =    1.000000
                     rc =   11.897381
                 energy =   -0.210580
                kinetic =    0.143382
    potential(screened) =   -0.353962
       potential(ionic) =   -0.533453

   izeta = 2
                 rmatch =    8.489163
              splitnorm =    0.150000
                 energy =   -0.186081
                kinetic =    0.225882
    potential(screened) =   -0.411964
       potential(ionic) =   -0.593024
atom: Total number of Sankey-type orbitals:  2

atm_pop: Valence configuration (for local Pseudopot. screening):
 2s( 1.00)                                                            
Vna: chval, zval:    1.00000   1.00000

Vna:  Cut-off radius for the neutral-atom potential:  11.897381
comcore: Pseudo-core radius Rcore=  3.450946

atom: _________________________________________________________________________

<basis_specs>
===============================================================================
C-gga                Z=   6    Mass=  12.010        Charge= 0.17977+309
Lmxo=1 Lmxkb= 2    BasisType=split      Semic=F
L=0  Nsemic=0  Cnfigmx=2
          i=1  nzeta=2  polorb=0  (2s)
            splnorm:   0.15000    
               vcte:    0.0000    
               rinn:    0.0000    
               qcoe:    0.0000    
               qyuk:    0.0000    
               qwid:   0.10000E-01
                rcs:    0.0000      0.0000    
            lambdas:    1.0000      1.0000    
L=1  Nsemic=0  Cnfigmx=2
          i=1  nzeta=2  polorb=0  (2p)
            splnorm:   0.15000    
               vcte:    0.0000    
               rinn:    0.0000    
               qcoe:    0.0000    
               qyuk:    0.0000    
               qwid:   0.10000E-01
                rcs:    0.0000      0.0000    
            lambdas:    1.0000      1.0000    
-------------------------------------------------------------------------------
L=0  Nkbl=1  erefs: 0.17977+309
L=1  Nkbl=1  erefs: 0.17977+309
L=2  Nkbl=1  erefs: 0.17977+309
===============================================================================
</basis_specs>

atom: Called for C-gga                 (Z =   6)

read_vps: Pseudopotential generation method:
read_vps: ATM 3.2.2 Troullier-Martins                       
Valence charge for ps generation:    4.00000

xc_check: Exchange-correlation functional:
xc_check: GGA Perdew, Burke & Ernzerhof 1996
V l=0 = -2*Zval/r beyond r=  1.5227
V l=1 = -2*Zval/r beyond r=  1.5227
V l=2 = -2*Zval/r beyond r=  1.5227
All V_l potentials equal beyond r=  1.4851
This should be close to max(r_c) in ps generation
All pots = -2*Zval/r beyond r=  1.5227

VLOCAL1: 99.0% of the norm of Vloc inside     19.682 Ry
VLOCAL1: 99.9% of the norm of Vloc inside     44.856 Ry
atom: Maximum radius for 4*pi*r*r*local-pseudopot. charge    1.79142
atom: Maximum radius for r*vlocal+2*Zval:    1.54183
GHOST: No ghost state for L =  0
GHOST: No ghost state for L =  1
GHOST: No ghost state for L =  2

KBgen: Kleinman-Bylander projectors: 
   l= 0   rc=  1.661951   el= -1.010689   Ekb=  5.289847   kbcos=  0.316429
   l= 1   rc=  1.661951   el= -0.388490   Ekb= -4.102504   kbcos= -0.351025
   l= 2   rc=  1.747182   el=  0.001971   Ekb= -1.006005   kbcos= -0.008530

KBgen: Total number of Kleinman-Bylander projectors:    9
atom: -------------------------------------------------------------------------

atom: SANKEY-TYPE ORBITALS:
atom: Selected multiple-zeta basis: split     

SPLIT: Orbitals with angular momentum L= 0

SPLIT: Basis orbitals for state 2s

SPLIT: PAO cut-off radius determined from an
SPLIT: energy shift=  0.000735 Ry

   izeta = 1
                 lambda =    1.000000
                     rc =    5.948690
                 energy =   -1.010099
                kinetic =    0.827121
    potential(screened) =   -1.837220
       potential(ionic) =   -5.392783

   izeta = 2
                 rmatch =    3.518811
              splitnorm =    0.150000
                 energy =   -0.877891
                kinetic =    1.289227
    potential(screened) =   -2.167118
       potential(ionic) =   -5.982073

SPLIT: Orbitals with angular momentum L= 1

SPLIT: Basis orbitals for state 2p

SPLIT: PAO cut-off radius determined from an
SPLIT: energy shift=  0.000735 Ry

   izeta = 1
                 lambda =    1.000000
                     rc =    7.638387
                 energy =   -0.387843
                kinetic =    2.314739
    potential(screened) =   -2.702582
       potential(ionic) =   -6.092371

   izeta = 2
                 rmatch =    3.840617
              splitnorm =    0.150000
                 energy =   -0.270479
                kinetic =    3.438347
    potential(screened) =   -3.708826
       potential(ionic) =   -7.497707
atom: Total number of Sankey-type orbitals:  8

atm_pop: Valence configuration (for local Pseudopot. screening):
 2s( 2.00)                                                            
 2p( 2.00)                                                            
Vna: chval, zval:    4.00000   4.00000

Vna:  Cut-off radius for the neutral-atom potential:   7.638387

atom: _________________________________________________________________________

prinput: Basis input ----------------------------------------------------------

PAO.BasisType split     

%block ChemicalSpeciesLabel
    1    3 Li-gga                  # Species index, atomic number, species label
    2    6 C-gga                   # Species index, atomic number, species label
%endblock ChemicalSpeciesLabel

%block PAO.Basis                 # Define Basis set
Li-gga                1                    # Species label, number of l-shells
 n=2   0   2                         # n, l, Nzeta 
  11.897      8.489   
   1.000      1.000   
C-gga                 2                    # Species label, number of l-shells
 n=2   0   2                         # n, l, Nzeta 
   5.949      3.519   
   1.000      1.000   
 n=2   1   2                         # n, l, Nzeta 
   7.638      3.841   
   1.000      1.000   
%endblock PAO.Basis

prinput: ----------------------------------------------------------------------

coor:   Atomic-coordinates input format  =     Cartesian coordinates
coor:                                          (in Angstroms)

siesta: Atomic coordinates (Bohr) and species
siesta:      0.00000   0.00000   0.00000  2        1
siesta:     -1.32825   2.30060   4.54462  1        2
siesta:     -2.74990   4.76296   4.54462  1        3
siesta:      2.74990   4.76296   4.54462  1        4
siesta:      1.32825   2.30060   4.54462  1        5
siesta:      2.65651   0.00000   4.54462  1        6
siesta:      5.49980   0.00000   4.54462  1        7

siesta: System type = bulk      

initatomlists: Number of atoms, orbitals, and projectors:      7    20    63

siesta: ******************** Simulation parameters ****************************
siesta:
siesta: The following are some of the parameters of the simulation.
siesta: A complete list of the parameters used, including default values,
siesta: can be found in file out.fdf
siesta:
redata: Spin configuration                          = none
redata: Number of spin components                   = 1
redata: Time-Reversal Symmetry                      = T
redata: Spin spiral                                 = F
redata: Long output                                 =   F
redata: Number of Atomic Species                    =        2
redata: Charge density info will appear in .RHO file
redata: Write Mulliken Pop.                         = NO
redata: Matel table size (NRTAB)                    =     1024
redata: Mesh Cutoff                                 =   300.0000 Ry
redata: Net charge of the system                    =     0.0000 |e|
redata: Min. number of SCF Iter                     =        0
redata: Max. number of SCF Iter                     =     1000
redata: SCF convergence failure will abort job
redata: SCF mix quantity                            = Hamiltonian
redata: Mix DM or H after convergence               =   F
redata: Recompute H after scf cycle                 =   F
redata: Mix DM in first SCF step                    =   T
redata: Write Pulay info on disk                    =   F
redata: New DM Occupancy tolerance                  = 0.000000000001
redata: No kicks to SCF
redata: DM Mixing Weight for Kicks                  =     0.5000
redata: Require Harris convergence for SCF          =   F
redata: Harris energy tolerance for SCF             =     0.000100 eV
redata: Require DM convergence for SCF              =   T
redata: DM tolerance for SCF                        =     0.001000
redata: Require EDM convergence for SCF             =   F
redata: EDM tolerance for SCF                       =     0.005000 eV
redata: Require H convergence for SCF               =   T
redata: Hamiltonian tolerance for SCF               =     0.001000 eV
redata: Require (free) Energy convergence for SCF   =   T
redata: (free) Energy tolerance for SCF             =     0.001000 eV
redata: Using Saved Data (generic)                  =   F
redata: Use continuation files for DM               =   F
redata: Neglect nonoverlap interactions             =   F
redata: Method of Calculation                       = Diagonalization
redata: Electronic Temperature                      =   299.9869 K
redata: Fix the spin of the system                  =   F
redata: Dynamics option                             = Single-point calculation
mix.SCF: Pulay mixing                            = Pulay
mix.SCF:    Variant                              = stable
mix.SCF:    History steps                        = 4
mix.SCF:    Linear mixing weight                 =     0.250000
mix.SCF:    Mixing weight                        =     0.250000
mix.SCF:    SVD condition                        = 0.1000E-07
redata: ***********************************************************************

%block SCF.Mixers
  Pulay
%endblock SCF.Mixers

%block SCF.Mixer.Pulay
  # Mixing method
  method pulay
  variant stable

  # Mixing options
  weight 0.2500
  weight.linear 0.2500
  history 4
%endblock SCF.Mixer.Pulay

DM_history_depth set to one: no extrapolation allowed by default for geometry relaxation
Size of DM history Fstack: 1
Total number of electrons:    10.000000
Total ionic charge:    10.000000

* ProcessorY, Blocksize:    2   1


* Orbital distribution balance (max,min):     5     5

 Kpoints in:           18 . Kpoints trimmed:           14

siesta: k-grid: Number of k-points =    14
siesta: k-grid: Cutoff (effective) =     6.474 Ang
siesta: k-grid: Supercell and displacements
siesta: k-grid:    3   0   0      0.000
siesta: k-grid:    0   3   0      0.000
siesta: k-grid:    0   0   3      0.000

diag: Algorithm                                     = Expert
diag: Parallel over k                               =   T
diag: Use parallel 2D distribution                  =   T
diag: Parallel block-size                           = 1
diag: Parallel distribution                         =     2 x     2
diag: Used triangular part                          = Lower
diag: Absolute tolerance                            =  0.100E-15
diag: Orthogonalization factor                      =  0.100E-05
diag: Memory factor                                 =  1.0000

superc: Internal auxiliary supercell:     9 x     9 x     5  =     405
superc: Number of atoms, orbitals, and projectors:   2835   8100  25515


ts: **************************************************************
ts: Save H and S matrices                           =    F
ts: Save DM and EDM matrices                        =    F
ts: Only save the overlap matrix S                  =    F
ts: **************************************************************

************************ Begin: TS CHECKS AND WARNINGS ************************
************************ End: TS CHECKS AND WARNINGS **************************


                     ====================================
                        Single-point calculation
                     ====================================

outcoor: Atomic coordinates (Ang):                          
    0.00000000    0.00000000    0.00000000   2       1  C-gga
   -0.70288177    1.21742694    2.40490900   1       2  Li-gga
   -1.45518323    2.52045129    2.40490900   1       3  Li-gga
    1.45518323    2.52045129    2.40490900   1       4  Li-gga
    0.70288177    1.21742694    2.40490900   1       5  Li-gga
    1.40576354    0.00000000    2.40490900   1       6  Li-gga
    2.91036646    0.00000000    2.40490900   1       7  Li-gga

superc: Internal auxiliary supercell:     9 x     9 x     5  =     405
superc: Number of atoms, orbitals, and projectors:   2835   8100  25515

outcell: Unit cell vectors (Ang):
        4.316130    0.000000    0.000000
       -2.158065    3.737878    0.000000
        0.000000    0.000000    4.809818

outcell: Cell vector modules (Ang)   :    4.316130    4.316130    4.809818
outcell: Cell angles (23,13,12) (deg):     90.0000     90.0000    120.0000
outcell: Cell volume (Ang**3)        :     77.5976
<dSpData1D:S at geom step 0
  <sparsity:sparsity for geom step 0
    nrows_g=20 nrows=5 sparsity=21.6675 nnzs=8667, refcount: 7>
  <dData1D:(new from dSpData1D) n=8667, refcount: 1>
refcount: 1>
new_DM -- step:     1
Initializing Density Matrix...
DM filled with atomic data:
<dSpData2D:DM initialized from atoms
  <sparsity:sparsity for geom step 0
    nrows_g=20 nrows=5 sparsity=21.6675 nnzs=8667, refcount: 8>
  <dData2D:DM n=8667 m=1, refcount: 1>
refcount: 1>
No. of atoms with KB's overlaping orbs in proc 0. Max # of overlaps:     235     259
New grid distribution:   1
           1       1:   20    1:   10    1:   14
           2       1:   20    1:   10   15:   27
           3       1:   20   11:   20    1:   14
           4       1:   20   11:   20   15:   27

InitMesh: MESH =    40 x    40 x    54 =       86400
InitMesh: (bp) =    20 x    20 x    27 =       10800
InitMesh: Mesh cutoff (required, used) =   300.000   316.498 Ry
ExtMesh (bp) on 0 =   156 x   146 x   158 =     3598608
New grid distribution:   2
           1       1:   20    1:   10    1:   13
           2       1:   20    1:   10   14:   27
           3       1:   20   11:   20    1:   13
           4       1:   20   11:   20   14:   27
New grid distribution:   3
           1       1:   20    1:   10    1:   14
           2       1:   20    1:   10   15:   27
           3       1:   20   11:   20    1:   14
           4       1:   20   11:   20   15:   27
Setting up quadratic distribution...
ExtMesh (bp) on 0 =   156 x   146 x   157 =     3575832
PhiOnMesh: Number of (b)points on node 0 =                 2600
PhiOnMesh: nlist on node 0 =               337649

stepf: Fermi-Dirac step function

siesta: Program's energy decomposition (eV):
siesta: Ebs     =      -105.279172
siesta: Eions   =       321.344870
siesta: Ena     =        93.846097
siesta: Ekin    =       129.760728
siesta: Enl     =        19.275349
siesta: Eso     =         0.000000
siesta: Edftu   =         0.000000
siesta: DEna    =         1.993508
siesta: DUscf   =         2.150915
siesta: DUext   =         0.000000
siesta: Exc     =       -97.792002
siesta: eta*DQ  =         0.000000
siesta: Emadel  =         0.000000
siesta: Emeta   =         0.000000
siesta: Emolmec =        -2.799115
siesta: Ekinion =         0.000000
siesta: Eharris =      -161.279893
siesta: Etot    =      -174.909389
siesta: FreeEng =      -174.919575

        iscf     Eharris(eV)        E_KS(eV)     FreeEng(eV)     dDmax    Ef(eV) dHmax(eV)
   scf:    1     -161.279893     -174.909389     -174.919575 32.180263 -8.589128  5.066219
timer: Routine,Calls,Time,% = IterSCF        1       1.240  26.15
   scf:    2     -174.701624     -176.072662     -176.083017 10.369975 -7.939094  2.652672
   scf:    3     -176.444544     -176.286483     -176.296976  2.645691 -8.226001  1.236277
   scf:    4     -176.336552     -176.341359     -176.362753  2.114919 -8.404306  0.206503
   scf:    5     -176.280528     -176.318144     -176.346443  0.794388 -8.406949  0.537736
   scf:    6     -176.339515     -176.342123     -176.363010  1.057026 -8.376243  0.153131
   scf:    7     -176.341792     -176.342115     -176.364124  0.115503 -8.379582  0.078712
   scf:    8     -176.340567     -176.341501     -176.364509  0.115875 -8.383269  0.002638
   scf:    9     -176.341443     -176.341472     -176.364510  0.003768 -8.383393  0.000480
   scf:   10     -176.341496     -176.341484     -176.364510  0.002076 -8.383342  0.000207
   scf:   11     -176.341485     -176.341485     -176.364510  0.000185 -8.383329  0.000091

SCF Convergence by FreeE+DM+H criterion
|FreeE_i-FreeE_(i-1)| (eV) <     0.00100000
max |DM_out - DM_in|         :     0.0001845323
max |H_out - H_in|      (eV) :     0.0000912152
SCF cycle converged after 11 iterations

Using DM_out to compute the final energy and forces
No. of atoms with KB's overlaping orbs in proc 0. Max # of overlaps:     235     259

MM-Stress (kbar):       -4.69       -4.69       41.52        0.00       -0.00       -0.00

siesta: E_KS(eV) =             -176.3415

siesta: E_KS - E_eggbox =      -176.3415

siesta: Atomic forces (eV/Ang):
     1    0.000000    0.000000    0.000000
     2   -0.045312    0.078457   -0.000000
     3    0.045312   -0.078457   -0.000000
     4   -0.045347   -0.078544   -0.000000
     5    0.045347    0.078544   -0.000000
     6    0.090601   -0.000013   -0.000000
     7   -0.090601    0.000013   -0.000000
----------------------------------------
   Tot    0.000000    0.000000   -0.000000
----------------------------------------
   Max    0.090601
   Res    0.048445    sqrt( Sum f_i^2 / 3N )
----------------------------------------
   Max    0.090601    constrained

Stress tensor Voigt[x,y,z,yz,xz,xy] (kbar):    -1165.20    -1165.22      619.66       -0.00        0.00       -0.01
(Free)E + p*V (eV/cell)     -148.7460
Target enthalpy (eV/cell)     -176.3645

siesta: Eigenvalues (eV):
  ik is       eps
   1  1  -17.2699  -12.4997  -12.4997  -10.8199   -9.9112   -7.6133   -7.6132    1.3533    3.2669    3.2670
           5.0154   13.1393   16.1731   16.1732   20.3068   20.3068   21.3372   39.3261   39.3261   63.7174
   2  1  -17.3850  -12.7109  -11.1832  -10.4933   -8.6571   -7.5242   -3.7097   -1.8029    0.2998    0.5579
           7.6824    7.7522   15.4374   17.1212   18.7030   20.2633   21.5152   51.0449   51.7424   56.2257
   3  1  -17.3850  -12.7109  -11.1832  -10.4933   -8.6571   -7.5242   -3.7096   -1.8030    0.2998    0.5579
           7.6824    7.7523   15.4374   17.1211   18.7030   20.2632   21.5152   51.0449   51.7423   56.2257
   4  1  -17.3850  -12.7109  -11.1832  -10.4933   -8.6571   -7.5242   -3.7097   -1.8029    0.2998    0.5579
           7.6824    7.7522   15.4374   17.1212   18.7030   20.2633   21.5152   51.0449   51.7424   56.2257
   5  1  -17.6124  -11.8635  -11.7500   -8.1652   -8.1651   -2.8282   -1.1224    4.0722    4.0724    5.5932
           5.5933   10.9460   23.0124   23.0125   23.5984   23.5985   24.2315   30.4321   30.4321  106.4173
   6  1  -17.0458  -12.6910  -11.8563  -11.8563   -9.3024   -9.3023   -6.5822   -3.2913   -3.2911   -0.8851
          10.6091   10.6092   10.7683   14.1769   15.5311   15.5311   20.5987   22.3186   22.3187   23.9946
   7  1  -17.0987  -13.1705  -11.4983   -9.2779   -8.4319   -8.3613   -4.4357   -3.6833   -2.3043    2.4724
           5.2225    5.4894   11.5397   12.5427   20.3948   21.2008   23.2033   27.6489   36.2978   54.9380
   8  1  -17.0987  -13.1705  -11.4984   -9.2778   -8.4319   -8.3614   -4.4356   -3.6833   -2.3043    2.4725
           5.2223    5.4894   11.5397   12.5427   20.3948   21.2008   23.2033   27.6489   36.2977   54.9380
   9  1  -17.0987  -13.1705  -11.4983   -9.2779   -8.4319   -8.3613   -4.4357   -3.6833   -2.3043    2.4724
           5.2225    5.4894   11.5397   12.5427   20.3948   21.2008   23.2033   27.6489   36.2978   54.9380
  10  1  -17.3038  -13.6801   -9.1864   -8.0010   -8.0009   -5.6061   -0.5765   -0.5765    0.0095    0.0095
           2.8868    8.2657    8.2659   12.8930   17.0856   17.0856   24.3929   24.5560   24.5560   51.6140
  11  1  -17.0987  -13.1705  -11.4983   -9.2779   -8.4319   -8.3613   -4.4357   -3.6833   -2.3043    2.4724
           5.2225    5.4894   11.5397   12.5427   20.3948   21.2008   23.2033   27.6489   36.2978   54.9380
  12  1  -17.0987  -13.1705  -11.4984   -9.2778   -8.4319   -8.3614   -4.4356   -3.6833   -2.3043    2.4725
           5.2223    5.4894   11.5397   12.5427   20.3948   21.2008   23.2033   27.6489   36.2977   54.9380
  13  1  -17.0987  -13.1705  -11.4983   -9.2779   -8.4319   -8.3613   -4.4357   -3.6833   -2.3043    2.4724
           5.2225    5.4894   11.5397   12.5427   20.3948   21.2008   23.2033   27.6489   36.2978   54.9380
  14  1  -17.0458  -12.6910  -11.8563  -11.8563   -9.3024   -9.3023   -6.5822   -3.2913   -3.2911   -0.8851
          10.6091   10.6092   10.7683   14.1769   15.5311   15.5311   20.5987   22.3186   22.3187   23.9946
siesta: Fermi energy =      -8.383329 eV

siesta: Program's energy decomposition (eV):
siesta: Ebs     =      -120.644140
siesta: Eions   =       321.344870
siesta: Ena     =        93.846097
siesta: Ekin    =       117.530130
siesta: Enl     =        25.828708
siesta: Eso     =         0.000000
siesta: Edftu   =         0.000000
siesta: DEna    =         5.411561
siesta: DUscf   =         0.334498
siesta: DUext   =         0.000000
siesta: Exc     =       -95.148494
siesta: eta*DQ  =         0.000000
siesta: Emadel  =         0.000000
siesta: Emeta   =         0.000000
siesta: Emolmec =        -2.799115
siesta: Ekinion =         0.000000
siesta: Eharris =      -176.341485
siesta: Etot    =      -176.341485
siesta: FreeEng =      -176.364510

siesta: Final energy (eV):
siesta:  Band Struct. =    -120.644140
siesta:       Kinetic =     117.530130
siesta:       Hartree =      42.249693
siesta:       Edftu   =       0.000000
siesta:       Eso     =       0.000000
siesta:    Ext. field =       0.000000
siesta:   Exch.-corr. =     -95.148494
siesta:  Ion-electron =    -219.224841
siesta:       Ion-ion =     -18.948857
siesta:       Ekinion =       0.000000
siesta:         Total =    -176.341485
siesta:         Fermi =      -8.383329

siesta: Atomic forces (eV/Ang):
siesta:      1    0.000000    0.000000    0.000000
siesta:      2   -0.045312    0.078457   -0.000000
siesta:      3    0.045312   -0.078457   -0.000000
siesta:      4   -0.045347   -0.078544   -0.000000
siesta:      5    0.045347    0.078544   -0.000000
siesta:      6    0.090601   -0.000013   -0.000000
siesta:      7   -0.090601    0.000013   -0.000000
siesta: ----------------------------------------
siesta:    Tot    0.000000    0.000000   -0.000000

siesta: Stress tensor (static) (eV/Ang**3):
siesta:    -0.727254   -0.000008    0.000000
siesta:    -0.000008   -0.727263   -0.000000
siesta:     0.000000   -0.000000    0.386758

siesta: Cell volume =         77.597604 Ang**3

siesta: Pressure (static):
siesta:                Solid            Molecule  Units
siesta:           0.00387642          0.00389556  Ry/Bohr**3
siesta:           0.35591961          0.35767696  eV/Ang**3
siesta:         570.25225408        573.06786317  kBar
(Free)E+ p_basis*V_orbitals  =        -165.105192
(Free)Eharris+ p_basis*V_orbitals  =        -165.105192

cite: Please see "LiC6_scf.bib" for an exhaustive BiBTeX file.
cite: Please clearly indicate Siesta version in published work: 4.1.5
cite: This calculation has made use of the following articles
cite: which are encouraged to be cited in a published work.
        Primary SIESTA paper
          DOI: www.doi.org/10.1088/0953-8984/14/11/302

>> End of run:   9-NOV-2022  10:22:30
Job completed
