Siesta Version  : 4.1.5
Architecture    : x86_64-unknown-linux-gnu--unknown
Compiler version: GNU Fortran (GCC) 11.3.0
Compiler flags  : mpif90 -g -O2 -fallow-argument-mismatch
PP flags        : -DMPI -DFC_HAVE_FLUSH -DFC_HAVE_ABORT
Libraries       :  -I/global/software/sl-7.x86_64/modules/intel/2020.4.304/mkl/include  /globall/software/sl-7.x86_64/modules/intel/2020.4.304/mkl/lib/intel64/libmkl_scalapack_lp64.a -Wl,--start-group /global/software/sl-7.x86_64/modules/intel/2020.4.304/mkl/lib/intel64/libmkl_intel_lp64.a /global/software/sl-7.x86_64/modules/intel/2020.4.304/mkl/lib/intel64/libmkl_sequential.a /global/software/sl-7.x86_64/modules/intel/2020.4.304/mkl/lib/intel64/libmkl_core.a /global/software/sl-7.x86_64/modules/intel/2020.4.304/mkl/lib/intel64/libmkl_blacs_openmpi_lp64.a -Wl,--end-group -lpthread -lm -ldl
PARALLEL version

* Running on 4 nodes in parallel
>> Start of run:   9-NOV-2022  10:10:24

                           ***********************       
                           *  WELCOME TO SIESTA  *       
                           ***********************       

reinit: Reading from standard input
reinit: Dumped input in INPUT_TMP.91783
************************** Dump of input data file ****************************
SystemName LiC6_scf
SystemLabel LiC6_scf
NumberOfAtoms   7
NumberOfSpecies 2
%block ChemicalSpeciesLabel
1  3   Li-gga
2  6   C-gga
%endblock ChemicalSpeciesLabel
PAO.BasisSize  DZ
PAO.EnergyShift  10 meV
%block PS.Lmax
C-gga   2
Li-gga  2
%endblock PS.Lmax
LatticeConstant 1.000000 Ang
%block LatticeVectors
	4.3161300000	0.0000000000	0.0000000000
	-2.1580650000	3.7378782260	0.0000000000
	0.0000000000	0.0000000000	2.9598880000
%endblock LatticeVectors
AtomicCoordinatesFormat Ang
%block AtomicCoordinatesAndAtomicSpecies
	0.00000000	0.00000000	0.00000000	2
	-0.70288177	1.21742694	1.47994400	1
	-1.45518323	2.52045129	1.47994400	1
	1.45518323	2.52045129	1.47994400	1
	0.70288177	1.21742694	1.47994400	1
	1.40576354	0.00000000	1.47994400	1
	2.91036646	0.00000000	1.47994400	1
%endblock AtomicCoordinatesAndAtomicSpecies
Kgrid_NoTRS  T
%block kgrid_MonkhorstPack
3       0       0       0.0
0       3       0       0.0
0       0       3       0.0
%endblock kgrid_MonkhorstPack
AtomCoorFormatOut Ang
BlockSize 1
#ProcessorY 12
Diag.ParallelOverK   T
Diag.DivideAndConquer F
MeshCutoff   300 Ry
SCF.FreeE.Tolerance 1E-3 eV
SCF.EDM.Tolerance   5E-3 eV
DM.Tolerance  1E-3
DM.Require.Energy.Convergence T
DM.NumberPulay 4
XC.Functional GGA
XC.Authors    PBE
UseSaveData        F
MD.TypeOfRun       CG
MD.VariableCell    F
MD.NumCGsteps      00
MD.MaxCGDispl      0.200000 Bohr
MD.MaxStressTol    1.000000 GPa
MD.MaxForceTol     0.010000 eV/Ang
WriteMDHistory T
WriteCoorStep T
WriteForces T
WriteCoorStep    T
WriteEigenValues T
WriteDM    F
MM.UnitsDistance Ang  # what this program prints out DO NOT CHANGE
MM.UnitsEnergy    eV  # what this program prints out DO NOT CHANGE
MM.Grimme.S6     0.75 # Grimme-paper for PBE (correct for your functional)
MM.Grimme.D     20.   # Grimme-paper (correct for your functional)
%block MM.Potentials
  1   1 Grimme     16.69      1.650 # Li, 10.1002/jcc.20495
  1   2 Grimme     17.40      2.277 # Li / C
  2   2 Grimme     18.14      2.904 # C, 10.1002/jcc.20495
%endblock MM.Potentials
#%block ProjectedDensityOfStates
# -200.0  120.0  0.4  12800  eV
#%endblock ProjectedDensityOfStates
************************** End of input data file *****************************

reinit: -----------------------------------------------------------------------
reinit: System Name: LiC6_scf
reinit: -----------------------------------------------------------------------
reinit: System Label: LiC6_scf
reinit: -----------------------------------------------------------------------
Reading two-body potentials
Grimme - two-body potential between 1 and 1
Grimme - two-body potential between 1 and 2
Grimme - two-body potential between 2 and 2

initatom: Reading input for the pseudopotentials and atomic orbitals ----------
Species number:   1 Atomic number:    3 Label: Li-gga
Species number:   2 Atomic number:    6 Label: C-gga

Ground state valence configuration:   2s01
Reading pseudopotential information in formatted form from Li-gga.psf

Valence configuration for pseudopotential generation:
2s( 1.00) rc: 2.28
2p( 0.00) rc: 2.28
3d( 0.00) rc: 2.59
4f( 0.00) rc: 2.59
Ground state valence configuration:   2s02  2p02
Reading pseudopotential information in formatted form from C-gga.psf

Valence configuration for pseudopotential generation:
2s( 2.00) rc: 1.56
2p( 2.00) rc: 1.56
3d( 0.00) rc: 1.56
4f( 0.00) rc: 1.56
relmxkb: Read Max KB Ang. Momentum=    2 for species C-gga
relmxkb: Read Max KB Ang. Momentum=    2 for species Li-gga

<basis_specs>
===============================================================================
Li-gga               Z=   3    Mass=  6.9400        Charge= 0.17977+309
Lmxo=0 Lmxkb= 2    BasisType=split      Semic=F
L=0  Nsemic=0  Cnfigmx=2
          i=1  nzeta=2  polorb=0  (2s)
            splnorm:   0.15000    
               vcte:    0.0000    
               rinn:    0.0000    
               qcoe:    0.0000    
               qyuk:    0.0000    
               qwid:   0.10000E-01
                rcs:    0.0000      0.0000    
            lambdas:    1.0000      1.0000    
-------------------------------------------------------------------------------
L=0  Nkbl=1  erefs: 0.17977+309
L=1  Nkbl=1  erefs: 0.17977+309
L=2  Nkbl=1  erefs: 0.17977+309
===============================================================================
</basis_specs>

atom: Called for Li-gga                (Z =   3)

read_vps: Pseudopotential generation method:
read_vps: ATM 3.2.2 Troullier-Martins                       
Valence charge for ps generation:    1.00000

read_vps: Pseudopotential includes a core correction:
read_vps: Pseudo-core for xc-correction

xc_check: Exchange-correlation functional:
xc_check: GGA Perdew, Burke & Ernzerhof 1996
V l=0 = -2*Zval/r beyond r=  2.2278
V l=1 = -2*Zval/r beyond r=  2.2278
V l=2 = -2*Zval/r beyond r=  2.5245
All V_l potentials equal beyond r=  2.4622
This should be close to max(r_c) in ps generation
All pots = -2*Zval/r beyond r=  2.5245

VLOCAL1: 99.0% of the norm of Vloc inside      7.160 Ry
VLOCAL1: 99.9% of the norm of Vloc inside     16.318 Ry
atom: Maximum radius for 4*pi*r*r*local-pseudopot. charge    2.86079
atom: Maximum radius for r*vlocal+2*Zval:    2.43160
GHOST: No ghost state for L =  0
GHOST: No ghost state for L =  1
GHOST: No ghost state for L =  2

KBgen: Kleinman-Bylander projectors: 
   l= 0   rc=  2.654023   el= -0.211234   Ekb=  1.742119   kbcos=  0.228463
   l= 1   rc=  2.721230   el= -0.080095   Ekb= -1.122375   kbcos= -0.147941
   l= 2   rc=  2.825246   el=  0.002001   Ekb= -0.207076   kbcos= -0.031965

KBgen: Total number of Kleinman-Bylander projectors:    9
atom: -------------------------------------------------------------------------

atom: SANKEY-TYPE ORBITALS:
atom: Selected multiple-zeta basis: split     

SPLIT: Orbitals with angular momentum L= 0

SPLIT: Basis orbitals for state 2s

SPLIT: PAO cut-off radius determined from an
SPLIT: energy shift=  0.000735 Ry

   izeta = 1
                 lambda =    1.000000
                     rc =   11.897381
                 energy =   -0.210580
                kinetic =    0.143382
    potential(screened) =   -0.353962
       potential(ionic) =   -0.533453

   izeta = 2
                 rmatch =    8.489163
              splitnorm =    0.150000
                 energy =   -0.186081
                kinetic =    0.225882
    potential(screened) =   -0.411964
       potential(ionic) =   -0.593024
atom: Total number of Sankey-type orbitals:  2

atm_pop: Valence configuration (for local Pseudopot. screening):
 2s( 1.00)                                                            
Vna: chval, zval:    1.00000   1.00000

Vna:  Cut-off radius for the neutral-atom potential:  11.897381
comcore: Pseudo-core radius Rcore=  3.450946

atom: _________________________________________________________________________

<basis_specs>
===============================================================================
C-gga                Z=   6    Mass=  12.010        Charge= 0.17977+309
Lmxo=1 Lmxkb= 2    BasisType=split      Semic=F
L=0  Nsemic=0  Cnfigmx=2
          i=1  nzeta=2  polorb=0  (2s)
            splnorm:   0.15000    
               vcte:    0.0000    
               rinn:    0.0000    
               qcoe:    0.0000    
               qyuk:    0.0000    
               qwid:   0.10000E-01
                rcs:    0.0000      0.0000    
            lambdas:    1.0000      1.0000    
L=1  Nsemic=0  Cnfigmx=2
          i=1  nzeta=2  polorb=0  (2p)
            splnorm:   0.15000    
               vcte:    0.0000    
               rinn:    0.0000    
               qcoe:    0.0000    
               qyuk:    0.0000    
               qwid:   0.10000E-01
                rcs:    0.0000      0.0000    
            lambdas:    1.0000      1.0000    
-------------------------------------------------------------------------------
L=0  Nkbl=1  erefs: 0.17977+309
L=1  Nkbl=1  erefs: 0.17977+309
L=2  Nkbl=1  erefs: 0.17977+309
===============================================================================
</basis_specs>

atom: Called for C-gga                 (Z =   6)

read_vps: Pseudopotential generation method:
read_vps: ATM 3.2.2 Troullier-Martins                       
Valence charge for ps generation:    4.00000

xc_check: Exchange-correlation functional:
xc_check: GGA Perdew, Burke & Ernzerhof 1996
V l=0 = -2*Zval/r beyond r=  1.5227
V l=1 = -2*Zval/r beyond r=  1.5227
V l=2 = -2*Zval/r beyond r=  1.5227
All V_l potentials equal beyond r=  1.4851
This should be close to max(r_c) in ps generation
All pots = -2*Zval/r beyond r=  1.5227

VLOCAL1: 99.0% of the norm of Vloc inside     19.682 Ry
VLOCAL1: 99.9% of the norm of Vloc inside     44.856 Ry
atom: Maximum radius for 4*pi*r*r*local-pseudopot. charge    1.79142
atom: Maximum radius for r*vlocal+2*Zval:    1.54183
GHOST: No ghost state for L =  0
GHOST: No ghost state for L =  1
GHOST: No ghost state for L =  2

KBgen: Kleinman-Bylander projectors: 
   l= 0   rc=  1.661951   el= -1.010689   Ekb=  5.289847   kbcos=  0.316429
   l= 1   rc=  1.661951   el= -0.388490   Ekb= -4.102504   kbcos= -0.351025
   l= 2   rc=  1.747182   el=  0.001971   Ekb= -1.006005   kbcos= -0.008530

KBgen: Total number of Kleinman-Bylander projectors:    9
atom: -------------------------------------------------------------------------

atom: SANKEY-TYPE ORBITALS:
atom: Selected multiple-zeta basis: split     

SPLIT: Orbitals with angular momentum L= 0

SPLIT: Basis orbitals for state 2s

SPLIT: PAO cut-off radius determined from an
SPLIT: energy shift=  0.000735 Ry

   izeta = 1
                 lambda =    1.000000
                     rc =    5.948690
                 energy =   -1.010099
                kinetic =    0.827121
    potential(screened) =   -1.837220
       potential(ionic) =   -5.392783

   izeta = 2
                 rmatch =    3.518811
              splitnorm =    0.150000
                 energy =   -0.877891
                kinetic =    1.289227
    potential(screened) =   -2.167118
       potential(ionic) =   -5.982073

SPLIT: Orbitals with angular momentum L= 1

SPLIT: Basis orbitals for state 2p

SPLIT: PAO cut-off radius determined from an
SPLIT: energy shift=  0.000735 Ry

   izeta = 1
                 lambda =    1.000000
                     rc =    7.638387
                 energy =   -0.387843
                kinetic =    2.314739
    potential(screened) =   -2.702582
       potential(ionic) =   -6.092371

   izeta = 2
                 rmatch =    3.840617
              splitnorm =    0.150000
                 energy =   -0.270479
                kinetic =    3.438347
    potential(screened) =   -3.708826
       potential(ionic) =   -7.497707
atom: Total number of Sankey-type orbitals:  8

atm_pop: Valence configuration (for local Pseudopot. screening):
 2s( 2.00)                                                            
 2p( 2.00)                                                            
Vna: chval, zval:    4.00000   4.00000

Vna:  Cut-off radius for the neutral-atom potential:   7.638387

atom: _________________________________________________________________________

prinput: Basis input ----------------------------------------------------------

PAO.BasisType split     

%block ChemicalSpeciesLabel
    1    3 Li-gga                  # Species index, atomic number, species label
    2    6 C-gga                   # Species index, atomic number, species label
%endblock ChemicalSpeciesLabel

%block PAO.Basis                 # Define Basis set
Li-gga                1                    # Species label, number of l-shells
 n=2   0   2                         # n, l, Nzeta 
  11.897      8.489   
   1.000      1.000   
C-gga                 2                    # Species label, number of l-shells
 n=2   0   2                         # n, l, Nzeta 
   5.949      3.519   
   1.000      1.000   
 n=2   1   2                         # n, l, Nzeta 
   7.638      3.841   
   1.000      1.000   
%endblock PAO.Basis

prinput: ----------------------------------------------------------------------

coor:   Atomic-coordinates input format  =     Cartesian coordinates
coor:                                          (in Angstroms)

siesta: Atomic coordinates (Bohr) and species
siesta:      0.00000   0.00000   0.00000  2        1
siesta:     -1.32825   2.30060   2.79669  1        2
siesta:     -2.74990   4.76296   2.79669  1        3
siesta:      2.74990   4.76296   2.79669  1        4
siesta:      1.32825   2.30060   2.79669  1        5
siesta:      2.65651   0.00000   2.79669  1        6
siesta:      5.49980   0.00000   2.79669  1        7

siesta: System type = bulk      

initatomlists: Number of atoms, orbitals, and projectors:      7    20    63

siesta: ******************** Simulation parameters ****************************
siesta:
siesta: The following are some of the parameters of the simulation.
siesta: A complete list of the parameters used, including default values,
siesta: can be found in file out.fdf
siesta:
redata: Spin configuration                          = none
redata: Number of spin components                   = 1
redata: Time-Reversal Symmetry                      = T
redata: Spin spiral                                 = F
redata: Long output                                 =   F
redata: Number of Atomic Species                    =        2
redata: Charge density info will appear in .RHO file
redata: Write Mulliken Pop.                         = NO
redata: Matel table size (NRTAB)                    =     1024
redata: Mesh Cutoff                                 =   300.0000 Ry
redata: Net charge of the system                    =     0.0000 |e|
redata: Min. number of SCF Iter                     =        0
redata: Max. number of SCF Iter                     =     1000
redata: SCF convergence failure will abort job
redata: SCF mix quantity                            = Hamiltonian
redata: Mix DM or H after convergence               =   F
redata: Recompute H after scf cycle                 =   F
redata: Mix DM in first SCF step                    =   T
redata: Write Pulay info on disk                    =   F
redata: New DM Occupancy tolerance                  = 0.000000000001
redata: No kicks to SCF
redata: DM Mixing Weight for Kicks                  =     0.5000
redata: Require Harris convergence for SCF          =   F
redata: Harris energy tolerance for SCF             =     0.000100 eV
redata: Require DM convergence for SCF              =   T
redata: DM tolerance for SCF                        =     0.001000
redata: Require EDM convergence for SCF             =   F
redata: EDM tolerance for SCF                       =     0.005000 eV
redata: Require H convergence for SCF               =   T
redata: Hamiltonian tolerance for SCF               =     0.001000 eV
redata: Require (free) Energy convergence for SCF   =   T
redata: (free) Energy tolerance for SCF             =     0.001000 eV
redata: Using Saved Data (generic)                  =   F
redata: Use continuation files for DM               =   F
redata: Neglect nonoverlap interactions             =   F
redata: Method of Calculation                       = Diagonalization
redata: Electronic Temperature                      =   299.9869 K
redata: Fix the spin of the system                  =   F
redata: Dynamics option                             = Single-point calculation
mix.SCF: Pulay mixing                            = Pulay
mix.SCF:    Variant                              = stable
mix.SCF:    History steps                        = 4
mix.SCF:    Linear mixing weight                 =     0.250000
mix.SCF:    Mixing weight                        =     0.250000
mix.SCF:    SVD condition                        = 0.1000E-07
redata: ***********************************************************************

%block SCF.Mixers
  Pulay
%endblock SCF.Mixers

%block SCF.Mixer.Pulay
  # Mixing method
  method pulay
  variant stable

  # Mixing options
  weight 0.2500
  weight.linear 0.2500
  history 4
%endblock SCF.Mixer.Pulay

DM_history_depth set to one: no extrapolation allowed by default for geometry relaxation
Size of DM history Fstack: 1
Total number of electrons:    10.000000
Total ionic charge:    10.000000

* ProcessorY, Blocksize:    2   1


* Orbital distribution balance (max,min):     5     5

 Kpoints in:           18 . Kpoints trimmed:           14

siesta: k-grid: Number of k-points =    14
siesta: k-grid: Cutoff (effective) =     4.440 Ang
siesta: k-grid: Supercell and displacements
siesta: k-grid:    3   0   0      0.000
siesta: k-grid:    0   3   0      0.000
siesta: k-grid:    0   0   3      0.000

diag: Algorithm                                     = Expert
diag: Parallel over k                               =   T
diag: Use parallel 2D distribution                  =   T
diag: Parallel block-size                           = 1
diag: Parallel distribution                         =     2 x     2
diag: Used triangular part                          = Lower
diag: Absolute tolerance                            =  0.100E-15
diag: Orthogonalization factor                      =  0.100E-05
diag: Memory factor                                 =  1.0000

superc: Internal auxiliary supercell:     9 x     9 x     9  =     729
superc: Number of atoms, orbitals, and projectors:   5103  14580  45927


ts: **************************************************************
ts: Save H and S matrices                           =    F
ts: Save DM and EDM matrices                        =    F
ts: Only save the overlap matrix S                  =    F
ts: **************************************************************

************************ Begin: TS CHECKS AND WARNINGS ************************
************************ End: TS CHECKS AND WARNINGS **************************


                     ====================================
                        Single-point calculation
                     ====================================

outcoor: Atomic coordinates (Ang):                          
    0.00000000    0.00000000    0.00000000   2       1  C-gga
   -0.70288177    1.21742694    1.47994400   1       2  Li-gga
   -1.45518323    2.52045129    1.47994400   1       3  Li-gga
    1.45518323    2.52045129    1.47994400   1       4  Li-gga
    0.70288177    1.21742694    1.47994400   1       5  Li-gga
    1.40576354    0.00000000    1.47994400   1       6  Li-gga
    2.91036646    0.00000000    1.47994400   1       7  Li-gga

superc: Internal auxiliary supercell:     9 x     9 x     9  =     729
superc: Number of atoms, orbitals, and projectors:   5103  14580  45927

outcell: Unit cell vectors (Ang):
        4.316130    0.000000    0.000000
       -2.158065    3.737878    0.000000
        0.000000    0.000000    2.959888

outcell: Cell vector modules (Ang)   :    4.316130    4.316130    2.959888
outcell: Cell angles (23,13,12) (deg):     90.0000     90.0000    120.0000
outcell: Cell volume (Ang**3)        :     47.7524
<dSpData1D:S at geom step 0
  <sparsity:sparsity for geom step 0
    nrows_g=20 nrows=5 sparsity=40.4325 nnzs=16173, refcount: 7>
  <dData1D:(new from dSpData1D) n=16173, refcount: 1>
refcount: 1>
new_DM -- step:     1
Initializing Density Matrix...
DM filled with atomic data:
<dSpData2D:DM initialized from atoms
  <sparsity:sparsity for geom step 0
    nrows_g=20 nrows=5 sparsity=40.4325 nnzs=16173, refcount: 8>
  <dData2D:DM n=16173 m=1, refcount: 1>
refcount: 1>
No. of atoms with KB's overlaping orbs in proc 0. Max # of overlaps:     388     437
New grid distribution:   1
           1       1:   20    1:   10    1:    8
           2       1:   20    1:   10    9:   16
           3       1:   20   11:   20    1:    8
           4       1:   20   11:   20    9:   16

InitMesh: MESH =    40 x    40 x    32 =       51200
InitMesh: (bp) =    20 x    20 x    16 =        6400
InitMesh: Mesh cutoff (required, used) =   300.000   316.498 Ry
ExtMesh (bp) on 0 =   156 x   146 x   148 =     3370848
New grid distribution:   2
           1       1:   10    1:   10    1:   16
           2      11:   20    1:   10    1:   16
           3       1:   10   11:   20    1:   16
           4      11:   20   11:   20    1:   16
New grid distribution:   3
           1       1:   10    1:   10    1:   16
           2      11:   20    1:   10    1:   16
           3       1:   10   11:   20    1:   16
           4      11:   20   11:   20    1:   16
Setting up quadratic distribution...
ExtMesh (bp) on 0 =   146 x   146 x   156 =     3325296
PhiOnMesh: Number of (b)points on node 0 =                 1600
PhiOnMesh: nlist on node 0 =               336217

stepf: Fermi-Dirac step function

siesta: Program's energy decomposition (eV):
siesta: Ebs     =      -121.426901
siesta: Eions   =       321.344870
siesta: Ena     =        78.749888
siesta: Ekin    =       204.368843
siesta: Enl     =       -11.126973
siesta: Eso     =         0.000000
siesta: Edftu   =         0.000000
siesta: DEna    =       -28.183123
siesta: DUscf   =        16.552952
siesta: DUext   =         0.000000
siesta: Exc     =      -116.965399
siesta: eta*DQ  =         0.000000
siesta: Emadel  =         0.000000
siesta: Emeta   =         0.000000
siesta: Emolmec =        -3.407235
siesta: Ekinion =         0.000000
siesta: Eharris =      -148.491299
siesta: Etot    =      -181.355917
siesta: FreeEng =      -181.370546

        iscf     Eharris(eV)        E_KS(eV)     FreeEng(eV)     dDmax    Ef(eV) dHmax(eV)
   scf:    1     -148.491299     -181.355917     -181.370546 42.237486-14.038306 14.724516
timer: Routine,Calls,Time,% = IterSCF        1       1.926  25.50
   scf:    2     -195.282389     -190.447751     -190.459933 11.764601-13.279251  2.873155
   scf:    3     -190.419877     -190.824612     -190.833299  9.670006-13.172939  1.481242
   scf:    4     -189.800760     -190.606549     -190.624033  8.678704-13.268437  2.274673
   scf:    5     -190.854605     -190.911936     -190.920741  7.748764-13.284918  0.516200
   scf:    6     -190.905709     -190.908883     -190.917633  0.053740-13.288393  0.579299
   scf:    7     -190.899669     -190.904382     -190.913098  0.126117-13.285792  0.662075
   scf:    8     -190.902063     -190.903228     -190.911936  0.023703-13.286033  0.681480
   scf:    9     -190.920259     -190.921249     -190.932908  0.790028-13.270665  0.077222
   scf:   10     -190.920850     -190.921979     -190.932054  0.339499-13.269301  0.150598
   scf:   11     -190.919850     -190.921549     -190.933131  0.302395-13.265633  0.033066
   scf:   12     -190.922131     -190.921854     -190.933185  0.050618-13.266068  0.006750
   scf:   13     -190.921890     -190.921872     -190.933186  0.003540-13.266190  0.004485
   scf:   14     -190.922097     -190.921988     -190.933182  0.025073-13.266326  0.009613
   scf:   15     -190.921821     -190.921906     -190.933187  0.017276-13.266141  0.000208
   scf:   16     -190.921901     -190.921904     -190.933187  0.000483-13.266123  0.000028

SCF Convergence by FreeE+DM+H criterion
|FreeE_i-FreeE_(i-1)| (eV) <     0.00100000
max |DM_out - DM_in|         :     0.0004829933
max |H_out - H_in|      (eV) :     0.0000275671
SCF cycle converged after 16 iterations

Using DM_out to compute the final energy and forces
No. of atoms with KB's overlaping orbs in proc 0. Max # of overlaps:     388     437

MM-Stress (kbar):       -4.86       -4.86       54.65        0.00        0.00       -0.00

siesta: E_KS(eV) =             -190.9219

siesta: E_KS - E_eggbox =      -190.9219

siesta: Atomic forces (eV/Ang):
     1    0.000000    0.000000    0.000000
     2    0.210730   -0.364880   -0.000000
     3   -0.210730    0.364880   -0.000000
     4    0.210727    0.364989   -0.000000
     5   -0.210727   -0.364989   -0.000000
     6   -0.421360    0.000058   -0.000000
     7    0.421360   -0.000058   -0.000000
----------------------------------------
   Tot   -0.000000   -0.000000   -0.000000
----------------------------------------
   Max    0.421360
   Res    0.225243    sqrt( Sum f_i^2 / 3N )
----------------------------------------
   Max    0.421360    constrained

Stress tensor Voigt[x,y,z,yz,xz,xy] (kbar):    -1354.24    -1354.28       24.29        0.00       -0.00       -0.03
(Free)E + p*V (eV/cell)     -164.2660
Target enthalpy (eV/cell)     -190.9332

siesta: Eigenvalues (eV):
  ik is       eps
   1  1  -24.5005  -18.0923  -18.0923  -15.0573  -13.1830  -13.1828   -8.0361   -0.6770    1.6702    2.1444
           2.1447   19.8663   19.8664   21.5854   30.2797   30.2798   39.5021   48.1677   48.1678   62.2283
   2  1  -24.6868  -18.5509  -15.7390  -15.6999  -15.2433  -13.1591   -6.5645   -1.4769   -0.1494    2.2938
           3.2734   11.9379   16.2939   18.3517   20.8287   22.4605   23.6087   44.4788   48.8815   63.9411
   3  1  -24.6868  -18.5509  -15.7390  -15.7000  -15.2433  -13.1590   -6.5646   -1.4769   -0.1494    2.2941
           3.2732   11.9379   16.2939   18.3517   20.8286   22.4605   23.6086   44.4787   48.8815   63.9410
   4  1  -24.6868  -18.5509  -15.7390  -15.6999  -15.2433  -13.1591   -6.5645   -1.4769   -0.1494    2.2938
           3.2734   11.9379   16.2939   18.3517   20.8287   22.4605   23.6087   44.4788   48.8815   63.9411
   5  1  -24.9239  -17.6914  -15.6058  -15.4857  -15.4855   -4.7243   -4.7243   -2.5221   -0.2814    1.4642
           1.4647   15.0788   19.5860   21.8444   21.8445   39.8577  140.6884  140.6885  161.8628  161.8629
   6  1  -23.8847  -18.0748  -17.4198  -17.4197  -13.2904  -13.2904   -6.0736   -6.0733   -5.9102    0.6553
           3.0222    6.1818    6.1821   17.3808   17.3809   19.2352   37.9575   41.6271   41.6271   45.0052
   7  1  -24.0695  -18.2889  -17.3364  -15.9214  -14.3139  -13.0061   -8.2830   -2.9076   -1.7033    0.6325
           5.0848    6.8388    7.6570   12.6705   17.3473   18.4832   20.5135   42.4038   43.1173   46.4819
   8  1  -24.0695  -18.2889  -17.3364  -15.9215  -14.3139  -13.0061   -8.2829   -2.9079   -1.7032    0.6325
           5.0848    6.8388    7.6569   12.6706   17.3473   18.4832   20.5134   42.4038   43.1174   46.4819
   9  1  -24.0695  -18.2889  -17.3364  -15.9214  -14.3139  -13.0061   -8.2830   -2.9076   -1.7033    0.6325
           5.0848    6.8388    7.6570   12.6705   17.3473   18.4832   20.5135   42.4038   43.1173   46.4819
  10  1  -24.3877  -18.7047  -15.4903  -15.4902  -15.4786  -10.3946   -4.5638   -4.5638    1.3277    1.6284
           1.6288   11.0672   11.0673   14.5327   16.4629   16.4630   22.3461   29.4237   29.4238  141.4036
  11  1  -24.0695  -18.2889  -17.3364  -15.9214  -14.3139  -13.0061   -8.2830   -2.9076   -1.7033    0.6325
           5.0848    6.8388    7.6570   12.6705   17.3473   18.4832   20.5135   42.4038   43.1173   46.4819
  12  1  -24.0695  -18.2889  -17.3364  -15.9215  -14.3139  -13.0061   -8.2829   -2.9079   -1.7032    0.6325
           5.0848    6.8388    7.6569   12.6706   17.3473   18.4832   20.5134   42.4038   43.1174   46.4819
  13  1  -24.0695  -18.2889  -17.3364  -15.9214  -14.3139  -13.0061   -8.2830   -2.9076   -1.7033    0.6325
           5.0848    6.8388    7.6570   12.6705   17.3473   18.4832   20.5135   42.4038   43.1173   46.4819
  14  1  -23.8847  -18.0748  -17.4198  -17.4197  -13.2904  -13.2904   -6.0736   -6.0733   -5.9102    0.6553
           3.0222    6.1818    6.1821   17.3808   17.3809   19.2352   37.9575   41.6271   41.6271   45.0052
siesta: Fermi energy =     -13.266123 eV

siesta: Program's energy decomposition (eV):
siesta: Ebs     =      -179.657132
siesta: Eions   =       321.344870
siesta: Ena     =        78.749888
siesta: Ekin    =       156.625913
siesta: Enl     =         5.692913
siesta: Eso     =         0.000000
siesta: Edftu   =         0.000000
siesta: DEna    =        -1.814937
siesta: DUscf   =         1.718478
siesta: DUext   =         0.000000
siesta: Exc     =      -107.142055
siesta: eta*DQ  =         0.000000
siesta: Emadel  =         0.000000
siesta: Emeta   =         0.000000
siesta: Emolmec =        -3.407235
siesta: Ekinion =         0.000000
siesta: Eharris =      -190.921901
siesta: Etot    =      -190.921904
siesta: FreeEng =      -190.933187

siesta: Final energy (eV):
siesta:  Band Struct. =    -179.657132
siesta:       Kinetic =     156.625913
siesta:       Hartree =      58.469551
siesta:       Edftu   =       0.000000
siesta:       Eso     =       0.000000
siesta:    Ext. field =       0.000000
siesta:   Exch.-corr. =    -107.142055
siesta:  Ion-electron =    -333.980208
siesta:       Ion-ion =      38.512131
siesta:       Ekinion =       0.000000
siesta:         Total =    -190.921904
siesta:         Fermi =     -13.266123

siesta: Atomic forces (eV/Ang):
siesta:      1    0.000000    0.000000    0.000000
siesta:      2    0.210730   -0.364880   -0.000000
siesta:      3   -0.210730    0.364880   -0.000000
siesta:      4    0.210727    0.364989   -0.000000
siesta:      5   -0.210727   -0.364989   -0.000000
siesta:      6   -0.421360    0.000058   -0.000000
siesta:      7    0.421360   -0.000058   -0.000000
siesta: ----------------------------------------
siesta:    Tot   -0.000000   -0.000000   -0.000000

siesta: Stress tensor (static) (eV/Ang**3):
siesta:    -0.845242   -0.000020   -0.000000
siesta:    -0.000020   -0.845266    0.000000
siesta:    -0.000000    0.000000    0.015164

siesta: Cell volume =         47.752371 Ang**3

siesta: Pressure (static):
siesta:                Solid            Molecule  Units
siesta:           0.00608221          0.00593761  Ry/Bohr**3
siesta:           0.55844828          0.54517090  eV/Ang**3
siesta:         894.74245539        873.46951867  kBar
(Free)E+ p_basis*V_orbitals  =        -179.673869
(Free)Eharris+ p_basis*V_orbitals  =        -179.673867

cite: Please see "LiC6_scf.bib" for an exhaustive BiBTeX file.
cite: Please clearly indicate Siesta version in published work: 4.1.5
cite: This calculation has made use of the following articles
cite: which are encouraged to be cited in a published work.
        Primary SIESTA paper
          DOI: www.doi.org/10.1088/0953-8984/14/11/302

>> End of run:   9-NOV-2022  10:10:54
Job completed
