Siesta Version  : 4.1.5
Architecture    : x86_64-unknown-linux-gnu--unknown
Compiler version: GNU Fortran (GCC) 11.3.0
Compiler flags  : mpif90 -g -O2 -fallow-argument-mismatch
PP flags        : -DMPI -DFC_HAVE_FLUSH -DFC_HAVE_ABORT
Libraries       :  -I/global/software/sl-7.x86_64/modules/intel/2020.4.304/mkl/include  /globall/software/sl-7.x86_64/modules/intel/2020.4.304/mkl/lib/intel64/libmkl_scalapack_lp64.a -Wl,--start-group /global/software/sl-7.x86_64/modules/intel/2020.4.304/mkl/lib/intel64/libmkl_intel_lp64.a /global/software/sl-7.x86_64/modules/intel/2020.4.304/mkl/lib/intel64/libmkl_sequential.a /global/software/sl-7.x86_64/modules/intel/2020.4.304/mkl/lib/intel64/libmkl_core.a /global/software/sl-7.x86_64/modules/intel/2020.4.304/mkl/lib/intel64/libmkl_blacs_openmpi_lp64.a -Wl,--end-group -lpthread -lm -ldl
PARALLEL version

* Running on 12 nodes in parallel
>> Start of run:   9-NOV-2022   8:38:49

                           ***********************       
                           *  WELCOME TO SIESTA  *       
                           ***********************       

reinit: Reading from standard input
reinit: Dumped input in INPUT_TMP.96423
************************** Dump of input data file ****************************
SystemName LiC12_scf
SystemLabel LiC12_scf
NumberOfAtoms   13
NumberOfSpecies 2
%block ChemicalSpeciesLabel
1  3   Li-gga
2  6   C-gga
%endblock ChemicalSpeciesLabel
PAO.BasisSize  DZ
PAO.EnergyShift  10 meV
%block PS.Lmax
C-gga   2
Li-gga  2
%endblock PS.Lmax
LatticeConstant 1.000000 Ang
%block LatticeVectors
	4.2686000000	0.0000000000	0.0000000000
	-2.1343000000	3.6967160386	0.0000000000
	0.0000000000	0.0000000000	3.5114500000
%endblock LatticeVectors
AtomicCoordinatesFormat Ang
%block AtomicCoordinatesAndAtomicSpecies
	0.00000000	0.00000000	0.00000000	2
	1.42144380	0.00000000	0.87786250	1
	2.84715620	0.00000000	2.63358750	1
	-0.71072190	1.23100644	0.87786250	1
	-1.42357810	2.46570960	2.63358750	1
	1.42357810	2.46570960	0.87786250	1
	0.71072190	1.23100644	2.63358750	1
	2.84715620	0.00000000	0.87786250	1
	1.42144380	0.00000000	2.63358750	1
	-1.42357810	2.46570960	0.87786250	1
	-0.71072190	1.23100644	2.63358750	1
	0.71072190	1.23100644	0.87786250	1
	1.42357810	2.46570960	2.63358750	1
%endblock AtomicCoordinatesAndAtomicSpecies
Kgrid_NoTRS  T
%block kgrid_MonkhorstPack
3       0       0       0.0
0       3       0       0.0
0       0       3       0.0
%endblock kgrid_MonkhorstPack
AtomCoorFormatOut Ang
BlockSize 1
#ProcessorY 12
Diag.ParallelOverK   T
Diag.DivideAndConquer F
MeshCutoff   300 Ry
SCF.FreeE.Tolerance 1E-3 eV
SCF.EDM.Tolerance   5E-3 eV
DM.Tolerance  1E-3
DM.Require.Energy.Convergence T
DM.NumberPulay 4
XC.Functional GGA
XC.Authors    PBE
UseSaveData        F
MD.TypeOfRun       CG
MD.VariableCell    F
MD.NumCGsteps      00
MD.MaxCGDispl      0.200000 Bohr
MD.MaxStressTol    1.000000 GPa
MD.MaxForceTol     0.010000 eV/Ang
WriteMDHistory T
WriteCoorStep T
WriteForces T
WriteCoorStep    T
WriteEigenValues T
WriteDM    F
MM.UnitsDistance Ang  # what this program prints out DO NOT CHANGE
MM.UnitsEnergy    eV  # what this program prints out DO NOT CHANGE
MM.Grimme.S6     0.75 # Grimme-paper for PBE (correct for your functional)
MM.Grimme.D     20.   # Grimme-paper (correct for your functional)
%block MM.Potentials
  1   1 Grimme     16.69      1.650 # Li, 10.1002/jcc.20495
  1   2 Grimme     17.40      2.277 # Li / C
  2   2 Grimme     18.14      2.904 # C, 10.1002/jcc.20495
%endblock MM.Potentials
#%block ProjectedDensityOfStates
# -200.0  120.0  0.4  12800  eV
#%endblock ProjectedDensityOfStates
************************** End of input data file *****************************

reinit: -----------------------------------------------------------------------
reinit: System Name: LiC12_scf
reinit: -----------------------------------------------------------------------
reinit: System Label: LiC12_scf
reinit: -----------------------------------------------------------------------
Reading two-body potentials
Grimme - two-body potential between 1 and 1
Grimme - two-body potential between 1 and 2
Grimme - two-body potential between 2 and 2

initatom: Reading input for the pseudopotentials and atomic orbitals ----------
Species number:   1 Atomic number:    3 Label: Li-gga
Species number:   2 Atomic number:    6 Label: C-gga

Ground state valence configuration:   2s01
Reading pseudopotential information in formatted form from Li-gga.psf

Valence configuration for pseudopotential generation:
2s( 1.00) rc: 2.28
2p( 0.00) rc: 2.28
3d( 0.00) rc: 2.59
4f( 0.00) rc: 2.59
Ground state valence configuration:   2s02  2p02
Reading pseudopotential information in formatted form from C-gga.psf

Valence configuration for pseudopotential generation:
2s( 2.00) rc: 1.56
2p( 2.00) rc: 1.56
3d( 0.00) rc: 1.56
4f( 0.00) rc: 1.56
relmxkb: Read Max KB Ang. Momentum=    2 for species C-gga
relmxkb: Read Max KB Ang. Momentum=    2 for species Li-gga

<basis_specs>
===============================================================================
Li-gga               Z=   3    Mass=  6.9400        Charge= 0.17977+309
Lmxo=0 Lmxkb= 2    BasisType=split      Semic=F
L=0  Nsemic=0  Cnfigmx=2
          i=1  nzeta=2  polorb=0  (2s)
            splnorm:   0.15000    
               vcte:    0.0000    
               rinn:    0.0000    
               qcoe:    0.0000    
               qyuk:    0.0000    
               qwid:   0.10000E-01
                rcs:    0.0000      0.0000    
            lambdas:    1.0000      1.0000    
-------------------------------------------------------------------------------
L=0  Nkbl=1  erefs: 0.17977+309
L=1  Nkbl=1  erefs: 0.17977+309
L=2  Nkbl=1  erefs: 0.17977+309
===============================================================================
</basis_specs>

atom: Called for Li-gga                (Z =   3)

read_vps: Pseudopotential generation method:
read_vps: ATM 3.2.2 Troullier-Martins                       
Valence charge for ps generation:    1.00000

read_vps: Pseudopotential includes a core correction:
read_vps: Pseudo-core for xc-correction

xc_check: Exchange-correlation functional:
xc_check: GGA Perdew, Burke & Ernzerhof 1996
V l=0 = -2*Zval/r beyond r=  2.2278
V l=1 = -2*Zval/r beyond r=  2.2278
V l=2 = -2*Zval/r beyond r=  2.5245
All V_l potentials equal beyond r=  2.4622
This should be close to max(r_c) in ps generation
All pots = -2*Zval/r beyond r=  2.5245

VLOCAL1: 99.0% of the norm of Vloc inside      7.160 Ry
VLOCAL1: 99.9% of the norm of Vloc inside     16.318 Ry
atom: Maximum radius for 4*pi*r*r*local-pseudopot. charge    2.86079
atom: Maximum radius for r*vlocal+2*Zval:    2.43160
GHOST: No ghost state for L =  0
GHOST: No ghost state for L =  1
GHOST: No ghost state for L =  2

KBgen: Kleinman-Bylander projectors: 
   l= 0   rc=  2.654023   el= -0.211234   Ekb=  1.742119   kbcos=  0.228463
   l= 1   rc=  2.721230   el= -0.080095   Ekb= -1.122375   kbcos= -0.147941
   l= 2   rc=  2.825246   el=  0.002001   Ekb= -0.207076   kbcos= -0.031965

KBgen: Total number of Kleinman-Bylander projectors:    9
atom: -------------------------------------------------------------------------

atom: SANKEY-TYPE ORBITALS:
atom: Selected multiple-zeta basis: split     

SPLIT: Orbitals with angular momentum L= 0

SPLIT: Basis orbitals for state 2s

SPLIT: PAO cut-off radius determined from an
SPLIT: energy shift=  0.000735 Ry

   izeta = 1
                 lambda =    1.000000
                     rc =   11.897381
                 energy =   -0.210580
                kinetic =    0.143382
    potential(screened) =   -0.353962
       potential(ionic) =   -0.533453

   izeta = 2
                 rmatch =    8.489163
              splitnorm =    0.150000
                 energy =   -0.186081
                kinetic =    0.225882
    potential(screened) =   -0.411964
       potential(ionic) =   -0.593024
atom: Total number of Sankey-type orbitals:  2

atm_pop: Valence configuration (for local Pseudopot. screening):
 2s( 1.00)                                                            
Vna: chval, zval:    1.00000   1.00000

Vna:  Cut-off radius for the neutral-atom potential:  11.897381
comcore: Pseudo-core radius Rcore=  3.450946

atom: _________________________________________________________________________

<basis_specs>
===============================================================================
C-gga                Z=   6    Mass=  12.010        Charge= 0.17977+309
Lmxo=1 Lmxkb= 2    BasisType=split      Semic=F
L=0  Nsemic=0  Cnfigmx=2
          i=1  nzeta=2  polorb=0  (2s)
            splnorm:   0.15000    
               vcte:    0.0000    
               rinn:    0.0000    
               qcoe:    0.0000    
               qyuk:    0.0000    
               qwid:   0.10000E-01
                rcs:    0.0000      0.0000    
            lambdas:    1.0000      1.0000    
L=1  Nsemic=0  Cnfigmx=2
          i=1  nzeta=2  polorb=0  (2p)
            splnorm:   0.15000    
               vcte:    0.0000    
               rinn:    0.0000    
               qcoe:    0.0000    
               qyuk:    0.0000    
               qwid:   0.10000E-01
                rcs:    0.0000      0.0000    
            lambdas:    1.0000      1.0000    
-------------------------------------------------------------------------------
L=0  Nkbl=1  erefs: 0.17977+309
L=1  Nkbl=1  erefs: 0.17977+309
L=2  Nkbl=1  erefs: 0.17977+309
===============================================================================
</basis_specs>

atom: Called for C-gga                 (Z =   6)

read_vps: Pseudopotential generation method:
read_vps: ATM 3.2.2 Troullier-Martins                       
Valence charge for ps generation:    4.00000

xc_check: Exchange-correlation functional:
xc_check: GGA Perdew, Burke & Ernzerhof 1996
V l=0 = -2*Zval/r beyond r=  1.5227
V l=1 = -2*Zval/r beyond r=  1.5227
V l=2 = -2*Zval/r beyond r=  1.5227
All V_l potentials equal beyond r=  1.4851
This should be close to max(r_c) in ps generation
All pots = -2*Zval/r beyond r=  1.5227

VLOCAL1: 99.0% of the norm of Vloc inside     19.682 Ry
VLOCAL1: 99.9% of the norm of Vloc inside     44.856 Ry
atom: Maximum radius for 4*pi*r*r*local-pseudopot. charge    1.79142
atom: Maximum radius for r*vlocal+2*Zval:    1.54183
GHOST: No ghost state for L =  0
GHOST: No ghost state for L =  1
GHOST: No ghost state for L =  2

KBgen: Kleinman-Bylander projectors: 
   l= 0   rc=  1.661951   el= -1.010689   Ekb=  5.289847   kbcos=  0.316429
   l= 1   rc=  1.661951   el= -0.388490   Ekb= -4.102504   kbcos= -0.351025
   l= 2   rc=  1.747182   el=  0.001971   Ekb= -1.006005   kbcos= -0.008530

KBgen: Total number of Kleinman-Bylander projectors:    9
atom: -------------------------------------------------------------------------

atom: SANKEY-TYPE ORBITALS:
atom: Selected multiple-zeta basis: split     

SPLIT: Orbitals with angular momentum L= 0

SPLIT: Basis orbitals for state 2s

SPLIT: PAO cut-off radius determined from an
SPLIT: energy shift=  0.000735 Ry

   izeta = 1
                 lambda =    1.000000
                     rc =    5.948690
                 energy =   -1.010099
                kinetic =    0.827121
    potential(screened) =   -1.837220
       potential(ionic) =   -5.392783

   izeta = 2
                 rmatch =    3.518811
              splitnorm =    0.150000
                 energy =   -0.877891
                kinetic =    1.289227
    potential(screened) =   -2.167118
       potential(ionic) =   -5.982073

SPLIT: Orbitals with angular momentum L= 1

SPLIT: Basis orbitals for state 2p

SPLIT: PAO cut-off radius determined from an
SPLIT: energy shift=  0.000735 Ry

   izeta = 1
                 lambda =    1.000000
                     rc =    7.638387
                 energy =   -0.387843
                kinetic =    2.314739
    potential(screened) =   -2.702582
       potential(ionic) =   -6.092371

   izeta = 2
                 rmatch =    3.840617
              splitnorm =    0.150000
                 energy =   -0.270479
                kinetic =    3.438347
    potential(screened) =   -3.708826
       potential(ionic) =   -7.497707
atom: Total number of Sankey-type orbitals:  8

atm_pop: Valence configuration (for local Pseudopot. screening):
 2s( 2.00)                                                            
 2p( 2.00)                                                            
Vna: chval, zval:    4.00000   4.00000

Vna:  Cut-off radius for the neutral-atom potential:   7.638387

atom: _________________________________________________________________________

prinput: Basis input ----------------------------------------------------------

PAO.BasisType split     

%block ChemicalSpeciesLabel
    1    3 Li-gga                  # Species index, atomic number, species label
    2    6 C-gga                   # Species index, atomic number, species label
%endblock ChemicalSpeciesLabel

%block PAO.Basis                 # Define Basis set
Li-gga                1                    # Species label, number of l-shells
 n=2   0   2                         # n, l, Nzeta 
  11.897      8.489   
   1.000      1.000   
C-gga                 2                    # Species label, number of l-shells
 n=2   0   2                         # n, l, Nzeta 
   5.949      3.519   
   1.000      1.000   
 n=2   1   2                         # n, l, Nzeta 
   7.638      3.841   
   1.000      1.000   
%endblock PAO.Basis

prinput: ----------------------------------------------------------------------

coor:   Atomic-coordinates input format  =     Cartesian coordinates
coor:                                          (in Angstroms)

siesta: Atomic coordinates (Bohr) and species
siesta:      0.00000   0.00000   0.00000  2        1
siesta:      2.68614   0.00000   1.65892  1        2
siesta:      5.38035   0.00000   4.97676  1        3
siesta:     -1.34307   2.32627   1.65892  1        4
siesta:     -2.69017   4.65952   4.97676  1        5
siesta:      2.69017   4.65952   1.65892  1        6
siesta:      1.34307   2.32627   4.97676  1        7
siesta:      5.38035   0.00000   1.65892  1        8
siesta:      2.68614   0.00000   4.97676  1        9
siesta:     -2.69017   4.65952   1.65892  1       10
siesta:     -1.34307   2.32627   4.97676  1       11
siesta:      1.34307   2.32627   1.65892  1       12
siesta:      2.69017   4.65952   4.97676  1       13

siesta: System type = bulk      

initatomlists: Number of atoms, orbitals, and projectors:     13    32   117

siesta: ******************** Simulation parameters ****************************
siesta:
siesta: The following are some of the parameters of the simulation.
siesta: A complete list of the parameters used, including default values,
siesta: can be found in file out.fdf
siesta:
redata: Spin configuration                          = none
redata: Number of spin components                   = 1
redata: Time-Reversal Symmetry                      = T
redata: Spin spiral                                 = F
redata: Long output                                 =   F
redata: Number of Atomic Species                    =        2
redata: Charge density info will appear in .RHO file
redata: Write Mulliken Pop.                         = NO
redata: Matel table size (NRTAB)                    =     1024
redata: Mesh Cutoff                                 =   300.0000 Ry
redata: Net charge of the system                    =     0.0000 |e|
redata: Min. number of SCF Iter                     =        0
redata: Max. number of SCF Iter                     =     1000
redata: SCF convergence failure will abort job
redata: SCF mix quantity                            = Hamiltonian
redata: Mix DM or H after convergence               =   F
redata: Recompute H after scf cycle                 =   F
redata: Mix DM in first SCF step                    =   T
redata: Write Pulay info on disk                    =   F
redata: New DM Occupancy tolerance                  = 0.000000000001
redata: No kicks to SCF
redata: DM Mixing Weight for Kicks                  =     0.5000
redata: Require Harris convergence for SCF          =   F
redata: Harris energy tolerance for SCF             =     0.000100 eV
redata: Require DM convergence for SCF              =   T
redata: DM tolerance for SCF                        =     0.001000
redata: Require EDM convergence for SCF             =   F
redata: EDM tolerance for SCF                       =     0.005000 eV
redata: Require H convergence for SCF               =   T
redata: Hamiltonian tolerance for SCF               =     0.001000 eV
redata: Require (free) Energy convergence for SCF   =   T
redata: (free) Energy tolerance for SCF             =     0.001000 eV
redata: Using Saved Data (generic)                  =   F
redata: Use continuation files for DM               =   F
redata: Neglect nonoverlap interactions             =   F
redata: Method of Calculation                       = Diagonalization
redata: Electronic Temperature                      =   299.9869 K
redata: Fix the spin of the system                  =   F
redata: Dynamics option                             = Single-point calculation
mix.SCF: Pulay mixing                            = Pulay
mix.SCF:    Variant                              = stable
mix.SCF:    History steps                        = 4
mix.SCF:    Linear mixing weight                 =     0.250000
mix.SCF:    Mixing weight                        =     0.250000
mix.SCF:    SVD condition                        = 0.1000E-07
redata: ***********************************************************************

%block SCF.Mixers
  Pulay
%endblock SCF.Mixers

%block SCF.Mixer.Pulay
  # Mixing method
  method pulay
  variant stable

  # Mixing options
  weight 0.2500
  weight.linear 0.2500
  history 4
%endblock SCF.Mixer.Pulay

DM_history_depth set to one: no extrapolation allowed by default for geometry relaxation
Size of DM history Fstack: 1
Total number of electrons:    16.000000
Total ionic charge:    16.000000

* ProcessorY, Blocksize:    3   1


* Orbital distribution balance (max,min):     3     2

 Kpoints in:           18 . Kpoints trimmed:           14

siesta: k-grid: Number of k-points =    14
siesta: k-grid: Cutoff (effective) =     5.267 Ang
siesta: k-grid: Supercell and displacements
siesta: k-grid:    3   0   0      0.000
siesta: k-grid:    0   3   0      0.000
siesta: k-grid:    0   0   3      0.000

diag: Algorithm                                     = Expert
diag: Parallel over k                               =   T
diag: Use parallel 2D distribution                  =   T
diag: Parallel block-size                           = 1
diag: Parallel distribution                         =     3 x     4
diag: Used triangular part                          = Lower
diag: Absolute tolerance                            =  0.100E-15
diag: Orthogonalization factor                      =  0.100E-05
diag: Memory factor                                 =  1.0000

superc: Internal auxiliary supercell:     9 x     9 x     9  =     729
superc: Number of atoms, orbitals, and projectors:   9477  23328  85293


ts: **************************************************************
ts: Save H and S matrices                           =    F
ts: Save DM and EDM matrices                        =    F
ts: Only save the overlap matrix S                  =    F
ts: **************************************************************

************************ Begin: TS CHECKS AND WARNINGS ************************
************************ End: TS CHECKS AND WARNINGS **************************


                     ====================================
                        Single-point calculation
                     ====================================

outcoor: Atomic coordinates (Ang):                          
    0.00000000    0.00000000    0.00000000   2       1  C-gga
    1.42144380    0.00000000    0.87786250   1       2  Li-gga
    2.84715620    0.00000000    2.63358750   1       3  Li-gga
   -0.71072190    1.23100644    0.87786250   1       4  Li-gga
   -1.42357810    2.46570960    2.63358750   1       5  Li-gga
    1.42357810    2.46570960    0.87786250   1       6  Li-gga
    0.71072190    1.23100644    2.63358750   1       7  Li-gga
    2.84715620    0.00000000    0.87786250   1       8  Li-gga
    1.42144380    0.00000000    2.63358750   1       9  Li-gga
   -1.42357810    2.46570960    0.87786250   1      10  Li-gga
   -0.71072190    1.23100644    2.63358750   1      11  Li-gga
    0.71072190    1.23100644    0.87786250   1      12  Li-gga
    1.42357810    2.46570960    2.63358750   1      13  Li-gga

superc: Internal auxiliary supercell:     9 x     9 x     9  =     729
superc: Number of atoms, orbitals, and projectors:   9477  23328  85293

outcell: Unit cell vectors (Ang):
        4.268600    0.000000    0.000000
       -2.134300    3.696716    0.000000
        0.000000    0.000000    3.511450

outcell: Cell vector modules (Ang)   :    4.268600    4.268600    3.511450
outcell: Cell angles (23,13,12) (deg):     90.0000     90.0000    120.0000
outcell: Cell volume (Ang**3)        :     55.4100
<dSpData1D:S at geom step 0
  <sparsity:sparsity for geom step 0
    nrows_g=32 nrows=3 sparsity=14.7812 nnzs=15136, refcount: 7>
  <dData1D:(new from dSpData1D) n=15136, refcount: 1>
refcount: 1>
new_DM -- step:     1
Initializing Density Matrix...
DM filled with atomic data:
<dSpData2D:DM initialized from atoms
  <sparsity:sparsity for geom step 0
    nrows_g=32 nrows=3 sparsity=14.7812 nnzs=15136, refcount: 8>
  <dData2D:DM n=15136 m=1, refcount: 1>
refcount: 1>
No. of atoms with KB's overlaping orbs in proc 0. Max # of overlaps:     530     690
New grid distribution:   1
           1       1:   20    1:    7    1:    5
           2       1:   20    1:    7    6:   10
           3       1:   20    1:    7   11:   15
           4       1:   20    1:    7   16:   20
           5       1:   20    8:   14    1:    5
           6       1:   20    8:   14    6:   10
           7       1:   20    8:   14   11:   15
           8       1:   20    8:   14   16:   20
           9       1:   20   15:   20    1:    5
          10       1:   20   15:   20    6:   10
          11       1:   20   15:   20   11:   15
          12       1:   20   15:   20   16:   20

InitMesh: MESH =    40 x    40 x    40 =       64000
InitMesh: (bp) =    20 x    20 x    20 =        8000
InitMesh: Mesh cutoff (required, used) =   300.000   323.586 Ry
ExtMesh (bp) on 0 =   160 x   147 x   149 =     3504480
New grid distribution:   2
           1       1:    7    1:   10    1:   10
           2       8:   20   11:   20   11:   15
           3       1:    7    1:   10   11:   20
           4       8:   20    1:   10    1:    5
           5       8:   20   11:   20    1:    5
           6       8:   20    1:   10    6:   10
           7       1:    7   11:   20   11:   20
           8       8:   20    1:   10   16:   20
           9       1:    7   11:   20    1:   10
          10       8:   20    1:   10   11:   15
          11       8:   20   11:   20    6:   10
          12       8:   20   11:   20   16:   20
New grid distribution:   3
           1       1:    7    1:   10    1:   10
           2       8:   20   11:   20   11:   15
           3       1:    7    1:   10   11:   20
           4       8:   20    1:   10    1:    5
           5       8:   20   11:   20    1:    5
           6       8:   20    1:   10    6:   10
           7       1:    7   11:   20   11:   20
           8       8:   20    1:   10   16:   20
           9       1:    7   11:   20    1:   10
          10       8:   20    1:   10   11:   15
          11       8:   20   11:   20    6:   10
          12       8:   20   11:   20   16:   20
Setting up quadratic distribution...
ExtMesh (bp) on 0 =   147 x   150 x   154 =     3395700
PhiOnMesh: Number of (b)points on node 0 =                  700
PhiOnMesh: nlist on node 0 =               238781

stepf: Fermi-Dirac step function

siesta: Program's energy decomposition (eV):
siesta: Ebs     =      -325.085275
siesta: Eions   =       380.620085
siesta: Ena     =        72.471659
siesta: Ekin    =       353.134612
siesta: Enl     =        -1.995815
siesta: Eso     =         0.000000
siesta: Edftu   =         0.000000
siesta: DEna    =       -55.153201
siesta: DUscf   =        38.447302
siesta: DUext   =         0.000000
siesta: Exc     =      -203.987766
siesta: eta*DQ  =         0.000000
siesta: Emadel  =         0.000000
siesta: Emeta   =         0.000000
siesta: Emolmec =       -15.249576
siesta: Ekinion =         0.000000
siesta: Eharris =      -131.995915
siesta: Etot    =      -192.952870
siesta: FreeEng =      -192.959461

        iscf     Eharris(eV)        E_KS(eV)     FreeEng(eV)     dDmax    Ef(eV) dHmax(eV)
   scf:    1     -131.995915     -192.952870     -192.959461150.933127-18.846439 21.540817
timer: Routine,Calls,Time,% = IterSCF        1       2.773  22.22
   scf:    2     -216.994004     -206.495748     -206.502339 59.917012-19.234155  9.224847
   scf:    3     -209.720931     -210.011869     -210.016279 64.091850-18.989419  2.540279
   scf:    4     -207.550788     -209.402889     -209.410060 38.309941-18.891124  4.182587
   scf:    5     -210.548776     -210.244741     -210.249499 24.121654-18.883293  0.061844
   scf:    6     -210.241401     -210.243767     -210.248557  1.189973-18.889628  0.197152
   scf:    7     -210.245106     -210.244469     -210.249240  0.265762-18.885779  0.143087
   scf:    8     -210.245554     -210.245118     -210.249888  0.518915-18.879305  0.040322
   scf:    9     -210.245190     -210.245170     -210.249940  0.196630-18.876729  0.000833
   scf:   10     -210.245172     -210.245171     -210.249941  0.007922-18.876218  0.000077
   scf:   11     -210.245171     -210.245171     -210.249941  0.000381-18.876214  0.000045

SCF Convergence by FreeE+DM+H criterion
|FreeE_i-FreeE_(i-1)| (eV) <     0.00100000
max |DM_out - DM_in|         :     0.0003814488
max |H_out - H_in|      (eV) :     0.0000452797
SCF cycle converged after 11 iterations

Using DM_out to compute the final energy and forces
No. of atoms with KB's overlaping orbs in proc 0. Max # of overlaps:     530     690

MM-Stress (kbar):      293.88      293.88      741.33        0.00        0.00        0.00

siesta: E_KS(eV) =             -210.2452

siesta: E_KS - E_eggbox =      -210.2452

siesta: Atomic forces (eV/Ang):
     1   -0.000000   -0.000001   -0.000000
     2    2.039620   -0.000002    0.874875
     3   -2.039620    0.000002   -0.874875
     4   -1.019812    1.766362    0.874875
     5    1.019812   -1.766362   -0.874875
     6   -1.019747   -1.766253    0.874745
     7    1.019747    1.766253   -0.874745
     8   -2.039620    0.000002    0.874875
     9    2.039620   -0.000002   -0.874875
    10    1.019812   -1.766362    0.874875
    11   -1.019812    1.766362   -0.874875
    12    1.019747    1.766253    0.874745
    13   -1.019747   -1.766253   -0.874745
----------------------------------------
   Tot   -0.000000   -0.000000   -0.000000
----------------------------------------
   Max    2.039620
   Res    1.231036    sqrt( Sum f_i^2 / 3N )
----------------------------------------
   Max    2.039620    constrained

Stress tensor Voigt[x,y,z,yz,xz,xy] (kbar):    -3316.13    -3316.19    -3247.76        0.00        0.00       -0.05
(Free)E + p*V (eV/cell)      -96.3531
Target enthalpy (eV/cell)     -210.2499

siesta: Eigenvalues (eV):
  ik is       eps
   1  1  -33.2344  -27.2854  -27.2854  -25.0737  -25.0733  -23.6750  -22.4527  -11.3009   -9.7596   -9.7596
          -7.6869   -7.6864   -6.1021   -6.1021   -4.1233    0.7198    5.7432    5.7433    7.1414    7.3918
    7.3918    9.5577   12.4991   12.4991   15.3967   34.7880   34.7880   36.6468   87.0927  170.3400
  170.3401  173.0291
   2  1  -33.7078  -27.7369  -27.3152  -24.5657  -24.3391  -23.3375  -21.4505  -18.3350  -11.8498   -9.5348
          -8.0001   -3.8266   -1.7099   -0.3627    2.9606    4.3623    7.6630    8.3484    8.6685    9.3961
    9.4974   12.9397   15.7606   16.1638   17.3629   23.4707   26.7625   32.6650   44.9498   53.2025
   68.6251   75.9660
   3  1  -33.7078  -27.7369  -27.3152  -24.5655  -24.3394  -23.3375  -21.4504  -18.3351  -11.8498   -9.5346
          -8.0004   -3.8264   -1.7099   -0.3627    2.9606    4.3623    7.6630    8.3484    8.6684    9.3961
    9.4974   12.9397   15.7606   16.1638   17.3629   23.4707   26.7625   32.6650   44.9498   53.2025
   68.6251   75.9661
   4  1  -33.7078  -27.7369  -27.3152  -24.5657  -24.3391  -23.3375  -21.4505  -18.3350  -11.8498   -9.5348
          -8.0001   -3.8266   -1.7099   -0.3627    2.9606    4.3623    7.6630    8.3484    8.6685    9.3961
    9.4974   12.9397   15.7606   16.1638   17.3629   23.4707   26.7625   32.6650   44.9498   53.2025
   68.6251   75.9660
   5  1  -34.0496  -28.0047  -24.7338  -24.7335  -22.9230  -18.9765  -18.9765  -11.3308  -11.3302  -10.6686
         -10.6624   -0.4028   -0.4028   -0.1800   -0.1800    7.1204    8.6841   12.7396   12.9230   12.9231
   19.4254   23.5159   54.5062   54.5062   55.3383   55.3383   69.3557   69.3559   80.1912  138.9433
  138.9434  484.7389
   6  1  -33.0687  -27.5563  -27.0391  -27.0391  -25.9811  -25.9810  -21.7641  -21.7637  -18.4199  -14.8256
          -5.3834   -5.3830   -4.3811    4.2579    5.1900    5.1900    6.5749    8.4815    8.4815   10.0099
   10.0099   10.4029   22.2573   22.2573   23.6200   30.5591   30.5592   30.6594   39.9840   45.8909
   45.8910   61.7536
   7  1  -33.2166  -27.5727  -27.3130  -26.4896  -25.8030  -25.0034  -23.1991  -20.4155  -19.4706  -14.1120
         -13.7162   -5.2249   -2.8661   -0.9394    5.0771    6.0693    6.9727    7.1559    7.7476    8.9485
   12.8980   14.4859   16.0986   16.2699   19.5845   23.3751   32.4297   34.4651   37.6468   46.1466
   57.3109   63.0871
   8  1  -33.2166  -27.5727  -27.3130  -26.4895  -25.8030  -25.0036  -23.1990  -20.4153  -19.4706  -14.1120
         -13.7164   -5.2246   -2.8664   -0.9394    5.0772    6.0693    6.9727    7.1560    7.7476    8.9485
   12.8980   14.4859   16.0986   16.2698   19.5846   23.3751   32.4296   34.4651   37.6468   46.1466
   57.3109   63.0871
   9  1  -33.2166  -27.5727  -27.3130  -26.4896  -25.8030  -25.0034  -23.1991  -20.4155  -19.4706  -14.1120
         -13.7162   -5.2249   -2.8661   -0.9394    5.0771    6.0693    6.9727    7.1559    7.7476    8.9485
   12.8980   14.4859   16.0986   16.2699   19.5845   23.3751   32.4297   34.4651   37.6468   46.1466
   57.3109   63.0871
  10  1  -33.4243  -27.4717  -26.7382  -25.5968  -25.3045  -25.3043  -18.8492  -18.8492  -16.1887  -16.1886
         -11.8948  -11.8948  -11.5364   -4.3019   -4.3013    1.3907    8.9441    8.9441    9.0082    9.2442
    9.2443    9.9116   10.4411   13.0608   16.5396   16.5396   17.2130   17.2131   26.6699   81.3600
   84.0579   84.0579
  11  1  -33.2166  -27.5727  -27.3130  -26.4896  -25.8030  -25.0034  -23.1991  -20.4155  -19.4706  -14.1120
         -13.7162   -5.2249   -2.8661   -0.9394    5.0771    6.0693    6.9727    7.1559    7.7476    8.9485
   12.8980   14.4859   16.0986   16.2699   19.5845   23.3751   32.4297   34.4651   37.6468   46.1466
   57.3109   63.0871
  12  1  -33.2166  -27.5727  -27.3130  -26.4895  -25.8030  -25.0036  -23.1990  -20.4153  -19.4706  -14.1120
         -13.7164   -5.2246   -2.8664   -0.9394    5.0772    6.0693    6.9727    7.1560    7.7476    8.9485
   12.8980   14.4859   16.0986   16.2698   19.5846   23.3751   32.4296   34.4651   37.6468   46.1466
   57.3109   63.0871
  13  1  -33.2166  -27.5727  -27.3130  -26.4896  -25.8030  -25.0034  -23.1991  -20.4155  -19.4706  -14.1120
         -13.7162   -5.2249   -2.8661   -0.9394    5.0771    6.0693    6.9727    7.1559    7.7476    8.9485
   12.8980   14.4859   16.0986   16.2699   19.5845   23.3751   32.4297   34.4651   37.6468   46.1466
   57.3109   63.0871
  14  1  -33.0687  -27.5563  -27.0391  -27.0391  -25.9811  -25.9810  -21.7641  -21.7637  -18.4199  -14.8256
          -5.3834   -5.3830   -4.3811    4.2579    5.1900    5.1900    6.5749    8.4815    8.4815   10.0099
   10.0099   10.4029   22.2573   22.2573   23.6200   30.5591   30.5592   30.6594   39.9840   45.8909
   45.8910   61.7536
siesta: Fermi energy =     -18.876214 eV

siesta: Program's energy decomposition (eV):
siesta: Ebs     =      -412.175376
siesta: Eions   =       380.620085
siesta: Ena     =        72.471659
siesta: Ekin    =       286.264543
siesta: Enl     =        24.912442
siesta: Eso     =         0.000000
siesta: Edftu   =         0.000000
siesta: DEna    =       -15.281136
siesta: DUscf   =         8.493519
siesta: DUext   =         0.000000
siesta: Exc     =      -191.236538
siesta: eta*DQ  =         0.000000
siesta: Emadel  =         0.000000
siesta: Emeta   =         0.000000
siesta: Emolmec =       -15.249576
siesta: Ekinion =         0.000000
siesta: Eharris =      -210.245171
siesta: Etot    =      -210.245171
siesta: FreeEng =      -210.249941

siesta: Final energy (eV):
siesta:  Band Struct. =    -412.175376
siesta:       Kinetic =     286.264543
siesta:       Hartree =      80.911329
siesta:       Edftu   =       0.000000
siesta:       Eso     =       0.000000
siesta:    Ext. field =       0.000000
siesta:   Exch.-corr. =    -191.236538
siesta:  Ion-electron =    -654.011373
siesta:       Ion-ion =     283.076444
siesta:       Ekinion =       0.000000
siesta:         Total =    -210.245171
siesta:         Fermi =     -18.876214

siesta: Atomic forces (eV/Ang):
siesta:      1   -0.000000   -0.000001   -0.000000
siesta:      2    2.039620   -0.000002    0.874875
siesta:      3   -2.039620    0.000002   -0.874875
siesta:      4   -1.019812    1.766362    0.874875
siesta:      5    1.019812   -1.766362   -0.874875
siesta:      6   -1.019747   -1.766253    0.874745
siesta:      7    1.019747    1.766253   -0.874745
siesta:      8   -2.039620    0.000002    0.874875
siesta:      9    2.039620   -0.000002   -0.874875
siesta:     10    1.019812   -1.766362    0.874875
siesta:     11   -1.019812    1.766362   -0.874875
siesta:     12    1.019747    1.766253    0.874745
siesta:     13   -1.019747   -1.766253   -0.874745
siesta: ----------------------------------------
siesta:    Tot   -0.000000   -0.000000   -0.000000

siesta: Stress tensor (static) (eV/Ang**3):
siesta:    -2.069741   -0.000032    0.000000
siesta:    -0.000032   -2.069779    0.000000
siesta:     0.000000    0.000000   -2.027068

siesta: Cell volume =         55.409986 Ang**3

siesta: Pressure (static):
siesta:                Solid            Molecule  Units
siesta:           0.02238734          0.02413427  Ry/Bohr**3
siesta:           2.05552921          2.21592684  eV/Ang**3
siesta:        3293.35647353       3550.34458164  kBar
(Free)E+ p_basis*V_orbitals  =        -188.317377
(Free)Eharris+ p_basis*V_orbitals  =        -188.317376

cite: Please see "LiC12_scf.bib" for an exhaustive BiBTeX file.
cite: Please clearly indicate Siesta version in published work: 4.1.5
cite: This calculation has made use of the following articles
cite: which are encouraged to be cited in a published work.
        Primary SIESTA paper
          DOI: www.doi.org/10.1088/0953-8984/14/11/302

>> End of run:   9-NOV-2022   8:39:27
Job completed
