Siesta Version  : 4.1.5
Architecture    : x86_64-unknown-linux-gnu--unknown
Compiler version: GNU Fortran (GCC) 11.3.0
Compiler flags  : mpif90 -g -O2 -fallow-argument-mismatch
PP flags        : -DMPI -DFC_HAVE_FLUSH -DFC_HAVE_ABORT
Libraries       :  -I/global/software/sl-7.x86_64/modules/intel/2020.4.304/mkl/include  /globall/software/sl-7.x86_64/modules/intel/2020.4.304/mkl/lib/intel64/libmkl_scalapack_lp64.a -Wl,--start-group /global/software/sl-7.x86_64/modules/intel/2020.4.304/mkl/lib/intel64/libmkl_intel_lp64.a /global/software/sl-7.x86_64/modules/intel/2020.4.304/mkl/lib/intel64/libmkl_sequential.a /global/software/sl-7.x86_64/modules/intel/2020.4.304/mkl/lib/intel64/libmkl_core.a /global/software/sl-7.x86_64/modules/intel/2020.4.304/mkl/lib/intel64/libmkl_blacs_openmpi_lp64.a -Wl,--end-group -lpthread -lm -ldl
PARALLEL version

* Running on 12 nodes in parallel
>> Start of run:   9-NOV-2022   8:41:50

                           ***********************       
                           *  WELCOME TO SIESTA  *       
                           ***********************       

reinit: Reading from standard input
reinit: Dumped input in INPUT_TMP.77637
************************** Dump of input data file ****************************
SystemName LiC12_scf
SystemLabel LiC12_scf
NumberOfAtoms   13
NumberOfSpecies 2
%block ChemicalSpeciesLabel
1  3   Li-gga
2  6   C-gga
%endblock ChemicalSpeciesLabel
PAO.BasisSize  DZ
PAO.EnergyShift  10 meV
%block PS.Lmax
C-gga   2
Li-gga  2
%endblock PS.Lmax
LatticeConstant 1.000000 Ang
%block LatticeVectors
	4.2686000000	0.0000000000	0.0000000000
	-2.1343000000	3.6967160386	0.0000000000
	0.0000000000	0.0000000000	8.2870220000
%endblock LatticeVectors
AtomicCoordinatesFormat Ang
%block AtomicCoordinatesAndAtomicSpecies
	0.00000000	0.00000000	0.00000000	2
	1.42144380	0.00000000	2.07175550	1
	2.84715620	0.00000000	6.21526650	1
	-0.71072190	1.23100644	2.07175550	1
	-1.42357810	2.46570960	6.21526650	1
	1.42357810	2.46570960	2.07175550	1
	0.71072190	1.23100644	6.21526650	1
	2.84715620	0.00000000	2.07175550	1
	1.42144380	0.00000000	6.21526650	1
	-1.42357810	2.46570960	2.07175550	1
	-0.71072190	1.23100644	6.21526650	1
	0.71072190	1.23100644	2.07175550	1
	1.42357810	2.46570960	6.21526650	1
%endblock AtomicCoordinatesAndAtomicSpecies
Kgrid_NoTRS  T
%block kgrid_MonkhorstPack
3       0       0       0.0
0       3       0       0.0
0       0       3       0.0
%endblock kgrid_MonkhorstPack
AtomCoorFormatOut Ang
BlockSize 1
#ProcessorY 12
Diag.ParallelOverK   T
Diag.DivideAndConquer F
MeshCutoff   300 Ry
SCF.FreeE.Tolerance 1E-3 eV
SCF.EDM.Tolerance   5E-3 eV
DM.Tolerance  1E-3
DM.Require.Energy.Convergence T
DM.NumberPulay 4
XC.Functional GGA
XC.Authors    PBE
UseSaveData        F
MD.TypeOfRun       CG
MD.VariableCell    F
MD.NumCGsteps      00
MD.MaxCGDispl      0.200000 Bohr
MD.MaxStressTol    1.000000 GPa
MD.MaxForceTol     0.010000 eV/Ang
WriteMDHistory T
WriteCoorStep T
WriteForces T
WriteCoorStep    T
WriteEigenValues T
WriteDM    F
MM.UnitsDistance Ang  # what this program prints out DO NOT CHANGE
MM.UnitsEnergy    eV  # what this program prints out DO NOT CHANGE
MM.Grimme.S6     0.75 # Grimme-paper for PBE (correct for your functional)
MM.Grimme.D     20.   # Grimme-paper (correct for your functional)
%block MM.Potentials
  1   1 Grimme     16.69      1.650 # Li, 10.1002/jcc.20495
  1   2 Grimme     17.40      2.277 # Li / C
  2   2 Grimme     18.14      2.904 # C, 10.1002/jcc.20495
%endblock MM.Potentials
#%block ProjectedDensityOfStates
# -200.0  120.0  0.4  12800  eV
#%endblock ProjectedDensityOfStates
************************** End of input data file *****************************

reinit: -----------------------------------------------------------------------
reinit: System Name: LiC12_scf
reinit: -----------------------------------------------------------------------
reinit: System Label: LiC12_scf
reinit: -----------------------------------------------------------------------
Reading two-body potentials
Grimme - two-body potential between 1 and 1
Grimme - two-body potential between 1 and 2
Grimme - two-body potential between 2 and 2

initatom: Reading input for the pseudopotentials and atomic orbitals ----------
Species number:   1 Atomic number:    3 Label: Li-gga
Species number:   2 Atomic number:    6 Label: C-gga

Ground state valence configuration:   2s01
Reading pseudopotential information in formatted form from Li-gga.psf

Valence configuration for pseudopotential generation:
2s( 1.00) rc: 2.28
2p( 0.00) rc: 2.28
3d( 0.00) rc: 2.59
4f( 0.00) rc: 2.59
Ground state valence configuration:   2s02  2p02
Reading pseudopotential information in formatted form from C-gga.psf

Valence configuration for pseudopotential generation:
2s( 2.00) rc: 1.56
2p( 2.00) rc: 1.56
3d( 0.00) rc: 1.56
4f( 0.00) rc: 1.56
relmxkb: Read Max KB Ang. Momentum=    2 for species C-gga
relmxkb: Read Max KB Ang. Momentum=    2 for species Li-gga

<basis_specs>
===============================================================================
Li-gga               Z=   3    Mass=  6.9400        Charge= 0.17977+309
Lmxo=0 Lmxkb= 2    BasisType=split      Semic=F
L=0  Nsemic=0  Cnfigmx=2
          i=1  nzeta=2  polorb=0  (2s)
            splnorm:   0.15000    
               vcte:    0.0000    
               rinn:    0.0000    
               qcoe:    0.0000    
               qyuk:    0.0000    
               qwid:   0.10000E-01
                rcs:    0.0000      0.0000    
            lambdas:    1.0000      1.0000    
-------------------------------------------------------------------------------
L=0  Nkbl=1  erefs: 0.17977+309
L=1  Nkbl=1  erefs: 0.17977+309
L=2  Nkbl=1  erefs: 0.17977+309
===============================================================================
</basis_specs>

atom: Called for Li-gga                (Z =   3)

read_vps: Pseudopotential generation method:
read_vps: ATM 3.2.2 Troullier-Martins                       
Valence charge for ps generation:    1.00000

read_vps: Pseudopotential includes a core correction:
read_vps: Pseudo-core for xc-correction

xc_check: Exchange-correlation functional:
xc_check: GGA Perdew, Burke & Ernzerhof 1996
V l=0 = -2*Zval/r beyond r=  2.2278
V l=1 = -2*Zval/r beyond r=  2.2278
V l=2 = -2*Zval/r beyond r=  2.5245
All V_l potentials equal beyond r=  2.4622
This should be close to max(r_c) in ps generation
All pots = -2*Zval/r beyond r=  2.5245

VLOCAL1: 99.0% of the norm of Vloc inside      7.160 Ry
VLOCAL1: 99.9% of the norm of Vloc inside     16.318 Ry
atom: Maximum radius for 4*pi*r*r*local-pseudopot. charge    2.86079
atom: Maximum radius for r*vlocal+2*Zval:    2.43160
GHOST: No ghost state for L =  0
GHOST: No ghost state for L =  1
GHOST: No ghost state for L =  2

KBgen: Kleinman-Bylander projectors: 
   l= 0   rc=  2.654023   el= -0.211234   Ekb=  1.742119   kbcos=  0.228463
   l= 1   rc=  2.721230   el= -0.080095   Ekb= -1.122375   kbcos= -0.147941
   l= 2   rc=  2.825246   el=  0.002001   Ekb= -0.207076   kbcos= -0.031965

KBgen: Total number of Kleinman-Bylander projectors:    9
atom: -------------------------------------------------------------------------

atom: SANKEY-TYPE ORBITALS:
atom: Selected multiple-zeta basis: split     

SPLIT: Orbitals with angular momentum L= 0

SPLIT: Basis orbitals for state 2s

SPLIT: PAO cut-off radius determined from an
SPLIT: energy shift=  0.000735 Ry

   izeta = 1
                 lambda =    1.000000
                     rc =   11.897381
                 energy =   -0.210580
                kinetic =    0.143382
    potential(screened) =   -0.353962
       potential(ionic) =   -0.533453

   izeta = 2
                 rmatch =    8.489163
              splitnorm =    0.150000
                 energy =   -0.186081
                kinetic =    0.225882
    potential(screened) =   -0.411964
       potential(ionic) =   -0.593024
atom: Total number of Sankey-type orbitals:  2

atm_pop: Valence configuration (for local Pseudopot. screening):
 2s( 1.00)                                                            
Vna: chval, zval:    1.00000   1.00000

Vna:  Cut-off radius for the neutral-atom potential:  11.897381
comcore: Pseudo-core radius Rcore=  3.450946

atom: _________________________________________________________________________

<basis_specs>
===============================================================================
C-gga                Z=   6    Mass=  12.010        Charge= 0.17977+309
Lmxo=1 Lmxkb= 2    BasisType=split      Semic=F
L=0  Nsemic=0  Cnfigmx=2
          i=1  nzeta=2  polorb=0  (2s)
            splnorm:   0.15000    
               vcte:    0.0000    
               rinn:    0.0000    
               qcoe:    0.0000    
               qyuk:    0.0000    
               qwid:   0.10000E-01
                rcs:    0.0000      0.0000    
            lambdas:    1.0000      1.0000    
L=1  Nsemic=0  Cnfigmx=2
          i=1  nzeta=2  polorb=0  (2p)
            splnorm:   0.15000    
               vcte:    0.0000    
               rinn:    0.0000    
               qcoe:    0.0000    
               qyuk:    0.0000    
               qwid:   0.10000E-01
                rcs:    0.0000      0.0000    
            lambdas:    1.0000      1.0000    
-------------------------------------------------------------------------------
L=0  Nkbl=1  erefs: 0.17977+309
L=1  Nkbl=1  erefs: 0.17977+309
L=2  Nkbl=1  erefs: 0.17977+309
===============================================================================
</basis_specs>

atom: Called for C-gga                 (Z =   6)

read_vps: Pseudopotential generation method:
read_vps: ATM 3.2.2 Troullier-Martins                       
Valence charge for ps generation:    4.00000

xc_check: Exchange-correlation functional:
xc_check: GGA Perdew, Burke & Ernzerhof 1996
V l=0 = -2*Zval/r beyond r=  1.5227
V l=1 = -2*Zval/r beyond r=  1.5227
V l=2 = -2*Zval/r beyond r=  1.5227
All V_l potentials equal beyond r=  1.4851
This should be close to max(r_c) in ps generation
All pots = -2*Zval/r beyond r=  1.5227

VLOCAL1: 99.0% of the norm of Vloc inside     19.682 Ry
VLOCAL1: 99.9% of the norm of Vloc inside     44.856 Ry
atom: Maximum radius for 4*pi*r*r*local-pseudopot. charge    1.79142
atom: Maximum radius for r*vlocal+2*Zval:    1.54183
GHOST: No ghost state for L =  0
GHOST: No ghost state for L =  1
GHOST: No ghost state for L =  2

KBgen: Kleinman-Bylander projectors: 
   l= 0   rc=  1.661951   el= -1.010689   Ekb=  5.289847   kbcos=  0.316429
   l= 1   rc=  1.661951   el= -0.388490   Ekb= -4.102504   kbcos= -0.351025
   l= 2   rc=  1.747182   el=  0.001971   Ekb= -1.006005   kbcos= -0.008530

KBgen: Total number of Kleinman-Bylander projectors:    9
atom: -------------------------------------------------------------------------

atom: SANKEY-TYPE ORBITALS:
atom: Selected multiple-zeta basis: split     

SPLIT: Orbitals with angular momentum L= 0

SPLIT: Basis orbitals for state 2s

SPLIT: PAO cut-off radius determined from an
SPLIT: energy shift=  0.000735 Ry

   izeta = 1
                 lambda =    1.000000
                     rc =    5.948690
                 energy =   -1.010099
                kinetic =    0.827121
    potential(screened) =   -1.837220
       potential(ionic) =   -5.392783

   izeta = 2
                 rmatch =    3.518811
              splitnorm =    0.150000
                 energy =   -0.877891
                kinetic =    1.289227
    potential(screened) =   -2.167118
       potential(ionic) =   -5.982073

SPLIT: Orbitals with angular momentum L= 1

SPLIT: Basis orbitals for state 2p

SPLIT: PAO cut-off radius determined from an
SPLIT: energy shift=  0.000735 Ry

   izeta = 1
                 lambda =    1.000000
                     rc =    7.638387
                 energy =   -0.387843
                kinetic =    2.314739
    potential(screened) =   -2.702582
       potential(ionic) =   -6.092371

   izeta = 2
                 rmatch =    3.840617
              splitnorm =    0.150000
                 energy =   -0.270479
                kinetic =    3.438347
    potential(screened) =   -3.708826
       potential(ionic) =   -7.497707
atom: Total number of Sankey-type orbitals:  8

atm_pop: Valence configuration (for local Pseudopot. screening):
 2s( 2.00)                                                            
 2p( 2.00)                                                            
Vna: chval, zval:    4.00000   4.00000

Vna:  Cut-off radius for the neutral-atom potential:   7.638387

atom: _________________________________________________________________________

prinput: Basis input ----------------------------------------------------------

PAO.BasisType split     

%block ChemicalSpeciesLabel
    1    3 Li-gga                  # Species index, atomic number, species label
    2    6 C-gga                   # Species index, atomic number, species label
%endblock ChemicalSpeciesLabel

%block PAO.Basis                 # Define Basis set
Li-gga                1                    # Species label, number of l-shells
 n=2   0   2                         # n, l, Nzeta 
  11.897      8.489   
   1.000      1.000   
C-gga                 2                    # Species label, number of l-shells
 n=2   0   2                         # n, l, Nzeta 
   5.949      3.519   
   1.000      1.000   
 n=2   1   2                         # n, l, Nzeta 
   7.638      3.841   
   1.000      1.000   
%endblock PAO.Basis

prinput: ----------------------------------------------------------------------

coor:   Atomic-coordinates input format  =     Cartesian coordinates
coor:                                          (in Angstroms)

siesta: Atomic coordinates (Bohr) and species
siesta:      0.00000   0.00000   0.00000  2        1
siesta:      2.68614   0.00000   3.91505  1        2
siesta:      5.38035   0.00000  11.74516  1        3
siesta:     -1.34307   2.32627   3.91505  1        4
siesta:     -2.69017   4.65952  11.74516  1        5
siesta:      2.69017   4.65952   3.91505  1        6
siesta:      1.34307   2.32627  11.74516  1        7
siesta:      5.38035   0.00000   3.91505  1        8
siesta:      2.68614   0.00000  11.74516  1        9
siesta:     -2.69017   4.65952   3.91505  1       10
siesta:     -1.34307   2.32627  11.74516  1       11
siesta:      1.34307   2.32627   3.91505  1       12
siesta:      2.69017   4.65952  11.74516  1       13

siesta: System type = bulk      

initatomlists: Number of atoms, orbitals, and projectors:     13    32   117

siesta: ******************** Simulation parameters ****************************
siesta:
siesta: The following are some of the parameters of the simulation.
siesta: A complete list of the parameters used, including default values,
siesta: can be found in file out.fdf
siesta:
redata: Spin configuration                          = none
redata: Number of spin components                   = 1
redata: Time-Reversal Symmetry                      = T
redata: Spin spiral                                 = F
redata: Long output                                 =   F
redata: Number of Atomic Species                    =        2
redata: Charge density info will appear in .RHO file
redata: Write Mulliken Pop.                         = NO
redata: Matel table size (NRTAB)                    =     1024
redata: Mesh Cutoff                                 =   300.0000 Ry
redata: Net charge of the system                    =     0.0000 |e|
redata: Min. number of SCF Iter                     =        0
redata: Max. number of SCF Iter                     =     1000
redata: SCF convergence failure will abort job
redata: SCF mix quantity                            = Hamiltonian
redata: Mix DM or H after convergence               =   F
redata: Recompute H after scf cycle                 =   F
redata: Mix DM in first SCF step                    =   T
redata: Write Pulay info on disk                    =   F
redata: New DM Occupancy tolerance                  = 0.000000000001
redata: No kicks to SCF
redata: DM Mixing Weight for Kicks                  =     0.5000
redata: Require Harris convergence for SCF          =   F
redata: Harris energy tolerance for SCF             =     0.000100 eV
redata: Require DM convergence for SCF              =   T
redata: DM tolerance for SCF                        =     0.001000
redata: Require EDM convergence for SCF             =   F
redata: EDM tolerance for SCF                       =     0.005000 eV
redata: Require H convergence for SCF               =   T
redata: Hamiltonian tolerance for SCF               =     0.001000 eV
redata: Require (free) Energy convergence for SCF   =   T
redata: (free) Energy tolerance for SCF             =     0.001000 eV
redata: Using Saved Data (generic)                  =   F
redata: Use continuation files for DM               =   F
redata: Neglect nonoverlap interactions             =   F
redata: Method of Calculation                       = Diagonalization
redata: Electronic Temperature                      =   299.9869 K
redata: Fix the spin of the system                  =   F
redata: Dynamics option                             = Single-point calculation
mix.SCF: Pulay mixing                            = Pulay
mix.SCF:    Variant                              = stable
mix.SCF:    History steps                        = 4
mix.SCF:    Linear mixing weight                 =     0.250000
mix.SCF:    Mixing weight                        =     0.250000
mix.SCF:    SVD condition                        = 0.1000E-07
redata: ***********************************************************************

%block SCF.Mixers
  Pulay
%endblock SCF.Mixers

%block SCF.Mixer.Pulay
  # Mixing method
  method pulay
  variant stable

  # Mixing options
  weight 0.2500
  weight.linear 0.2500
  history 4
%endblock SCF.Mixer.Pulay

DM_history_depth set to one: no extrapolation allowed by default for geometry relaxation
Size of DM history Fstack: 1
Total number of electrons:    16.000000
Total ionic charge:    16.000000

* ProcessorY, Blocksize:    3   1


* Orbital distribution balance (max,min):     3     2

 Kpoints in:           18 . Kpoints trimmed:           14

siesta: k-grid: Number of k-points =    14
siesta: k-grid: Cutoff (effective) =     6.403 Ang
siesta: k-grid: Supercell and displacements
siesta: k-grid:    3   0   0      0.000
siesta: k-grid:    0   3   0      0.000
siesta: k-grid:    0   0   3      0.000

diag: Algorithm                                     = Expert
diag: Parallel over k                               =   T
diag: Use parallel 2D distribution                  =   T
diag: Parallel block-size                           = 1
diag: Parallel distribution                         =     3 x     4
diag: Used triangular part                          = Lower
diag: Absolute tolerance                            =  0.100E-15
diag: Orthogonalization factor                      =  0.100E-05
diag: Memory factor                                 =  1.0000

superc: Internal auxiliary supercell:     9 x     9 x     5  =     405
superc: Number of atoms, orbitals, and projectors:   5265  12960  47385


ts: **************************************************************
ts: Save H and S matrices                           =    F
ts: Save DM and EDM matrices                        =    F
ts: Only save the overlap matrix S                  =    F
ts: **************************************************************

************************ Begin: TS CHECKS AND WARNINGS ************************
************************ End: TS CHECKS AND WARNINGS **************************


                     ====================================
                        Single-point calculation
                     ====================================

outcoor: Atomic coordinates (Ang):                          
    0.00000000    0.00000000    0.00000000   2       1  C-gga
    1.42144380    0.00000000    2.07175550   1       2  Li-gga
    2.84715620    0.00000000    6.21526650   1       3  Li-gga
   -0.71072190    1.23100644    2.07175550   1       4  Li-gga
   -1.42357810    2.46570960    6.21526650   1       5  Li-gga
    1.42357810    2.46570960    2.07175550   1       6  Li-gga
    0.71072190    1.23100644    6.21526650   1       7  Li-gga
    2.84715620    0.00000000    2.07175550   1       8  Li-gga
    1.42144380    0.00000000    6.21526650   1       9  Li-gga
   -1.42357810    2.46570960    2.07175550   1      10  Li-gga
   -0.71072190    1.23100644    6.21526650   1      11  Li-gga
    0.71072190    1.23100644    2.07175550   1      12  Li-gga
    1.42357810    2.46570960    6.21526650   1      13  Li-gga

superc: Internal auxiliary supercell:     9 x     9 x     5  =     405
superc: Number of atoms, orbitals, and projectors:   5265  12960  47385

outcell: Unit cell vectors (Ang):
        4.268600    0.000000    0.000000
       -2.134300    3.696716    0.000000
        0.000000    0.000000    8.287022

outcell: Cell vector modules (Ang)   :    4.268600    4.268600    8.287022
outcell: Cell angles (23,13,12) (deg):     90.0000     90.0000    120.0000
outcell: Cell volume (Ang**3)        :    130.7676
<dSpData1D:S at geom step 0
  <sparsity:sparsity for geom step 0
    nrows_g=32 nrows=3 sparsity=5.7324 nnzs=5870, refcount: 7>
  <dData1D:(new from dSpData1D) n=5870, refcount: 1>
refcount: 1>
new_DM -- step:     1
Initializing Density Matrix...
DM filled with atomic data:
<dSpData2D:DM initialized from atoms
  <sparsity:sparsity for geom step 0
    nrows_g=32 nrows=3 sparsity=5.7324 nnzs=5870, refcount: 8>
  <dData2D:DM n=5870 m=1, refcount: 1>
refcount: 1>
No. of atoms with KB's overlaping orbs in proc 0. Max # of overlaps:     224     308
New grid distribution:   1
           1       1:   20    1:    7    1:   12
           2       1:   20    1:    7   13:   23
           3       1:   20    1:    7   24:   34
           4       1:   20    1:    7   35:   45
           5       1:   20    8:   14    1:   12
           6       1:   20    8:   14   13:   23
           7       1:   20    8:   14   24:   34
           8       1:   20    8:   14   35:   45
           9       1:   20   15:   20    1:   12
          10       1:   20   15:   20   13:   23
          11       1:   20   15:   20   24:   34
          12       1:   20   15:   20   35:   45

InitMesh: MESH =    40 x    40 x    90 =      144000
InitMesh: (bp) =    20 x    20 x    45 =       18000
InitMesh: Mesh cutoff (required, used) =   300.000   323.586 Ry
ExtMesh (bp) on 0 =   160 x   147 x   152 =     3575040
New grid distribution:   2
           1      11:   20    8:   20   23:   34
           2       1:   20    1:    7   11:   22
           3       1:   20    1:    7    1:   10
           4       1:   20    1:    7   35:   45
           5       1:   20    1:    7   23:   34
           6      11:   20    8:   20   11:   22
           7      11:   20    8:   20    1:   10
           8      11:   20    8:   20   35:   45
           9       1:   10    8:   20    1:   10
          10       1:   10    8:   20   11:   22
          11       1:   10    8:   20   23:   34
          12       1:   10    8:   20   35:   45
New grid distribution:   3
           1       1:   20    1:    7    1:   12
           2       1:   10    8:   20   35:   45
           3       1:   20    1:    7   24:   34
           4       1:   10    8:   20   13:   23
           5      11:   20    8:   20    1:   12
           6       1:   20    1:    7   35:   45
           7      11:   20    8:   20   24:   34
           8      11:   20    8:   20   13:   23
           9       1:   10    8:   20    1:   12
          10       1:   20    1:    7   13:   23
          11       1:   10    8:   20   24:   34
          12      11:   20    8:   20   35:   45
Setting up quadratic distribution...
ExtMesh (bp) on 0 =   150 x   153 x   152 =     3488400
PhiOnMesh: Number of (b)points on node 0 =                 1560
PhiOnMesh: nlist on node 0 =               218103

stepf: Fermi-Dirac step function

siesta: Program's energy decomposition (eV):
siesta: Ebs     =      -149.258208
siesta: Eions   =       380.620085
siesta: Ena     =       118.768021
siesta: Ekin    =       186.763762
siesta: Enl     =        38.035297
siesta: Eso     =         0.000000
siesta: Edftu   =         0.000000
siesta: DEna    =        -5.777962
siesta: DUscf   =         9.322121
siesta: DUext   =         0.000000
siesta: Exc     =      -159.123531
siesta: eta*DQ  =         0.000000
siesta: Emadel  =         0.000000
siesta: Emeta   =         0.000000
siesta: Emolmec =        -5.445985
siesta: Ekinion =         0.000000
siesta: Eharris =      -163.395315
siesta: Etot    =      -198.078361
siesta: FreeEng =      -198.089309

        iscf     Eharris(eV)        E_KS(eV)     FreeEng(eV)     dDmax    Ef(eV) dHmax(eV)
   scf:    1     -163.395315     -198.078361     -198.089309 20.403233-10.090057 13.545346
timer: Routine,Calls,Time,% = IterSCF        1       1.037  18.80
   scf:    2     -200.939291     -203.720342     -203.729994  6.782702 -8.735811  3.878147
   scf:    3     -204.587089     -204.296098     -204.296424  2.200632 -9.108741  0.628471
   scf:    4     -204.121364     -204.274237     -204.282259  1.364711 -9.156178  1.110069
   scf:    5     -204.222620     -204.249319     -204.258038  0.178727 -9.163570  1.312727
   scf:    6     -204.348106     -204.303890     -204.310086  0.466371 -9.146052  0.848618
   scf:    7     -204.351304     -204.331090     -204.334439  0.308434 -9.129699  0.414727
   scf:    8     -204.342975     -204.339008     -204.340897  0.212304 -9.117249  0.042790
   scf:    9     -204.338431     -204.338753     -204.340672  0.024122 -9.119730  0.093614
   scf:   10     -204.339450     -204.339363     -204.340882  0.092072 -9.115909  0.048247
   scf:   11     -204.339198     -204.339310     -204.340969  0.033417 -9.117038  0.001646
   scf:   12     -204.339289     -204.339299     -204.340969  0.002132 -9.117024  0.000612
   scf:   13     -204.339302     -204.339300     -204.340969  0.001081 -9.116954  0.000188
   scf:   14     -204.339297     -204.339299     -204.340969  0.000357 -9.116937  0.000169

SCF Convergence by FreeE+DM+H criterion
|FreeE_i-FreeE_(i-1)| (eV) <     0.00100000
max |DM_out - DM_in|         :     0.0003566415
max |H_out - H_in|      (eV) :     0.0001685374
SCF cycle converged after 14 iterations

Using DM_out to compute the final energy and forces
No. of atoms with KB's overlaping orbs in proc 0. Max # of overlaps:     224     308

MM-Stress (kbar):       12.22       12.22       35.93       -0.00       -0.00       -0.00

siesta: E_KS(eV) =             -204.3393

siesta: E_KS - E_eggbox =      -204.3393

siesta: Atomic forces (eV/Ang):
     1   -0.000000    0.000000    0.000000
     2   -0.937430   -0.000025   -1.552394
     3    0.937430    0.000025    1.552394
     4    0.468693   -0.811851   -1.552394
     5   -0.468693    0.811851    1.552394
     6    0.468700    0.811812   -1.552400
     7   -0.468700   -0.811812    1.552400
     8    0.937430    0.000025   -1.552394
     9   -0.937430   -0.000025    1.552394
    10   -0.468693    0.811851   -1.552394
    11    0.468693   -0.811851    1.552394
    12   -0.468700   -0.811812   -1.552400
    13    0.468700    0.811812    1.552400
----------------------------------------
   Tot   -0.000000    0.000000   -0.000000
----------------------------------------
   Max    1.552400
   Res    1.005934    sqrt( Sum f_i^2 / 3N )
----------------------------------------
   Max    1.552400    constrained

Stress tensor Voigt[x,y,z,yz,xz,xy] (kbar):    -1218.74    -1218.74      622.60        0.00       -0.00       -0.01
(Free)E + p*V (eV/cell)     -154.9654
Target enthalpy (eV/cell)     -204.3410

siesta: Eigenvalues (eV):
  ik is       eps
   1  1  -17.9183  -13.5418  -12.9874  -12.9874  -11.8136  -11.8136  -11.4904   -9.8588   -9.8587   -9.1906
          -0.0801   -0.0797    0.7759    0.9513    7.3572    7.3572   11.3767   13.0000   15.1237   15.1238
   16.2414   16.2414   16.3014   19.7475   19.7475   20.0131   23.0352   23.0353   25.3462   29.4014
   29.4014   30.0671
   2  1  -18.2047  -13.9240  -13.6031  -12.0922  -11.6777  -10.4877   -9.9987   -9.3598   -6.4344   -4.5396
          -3.9669   -3.2643   -0.3309    0.0859    2.0248    2.7208    4.4629    8.1461   11.9813   12.0260
   20.4670   21.1178   21.8427   23.1486   23.5303   29.9438   34.7370   44.7647   54.5193   57.4981
   61.7791   73.3295
   3  1  -18.2047  -13.9240  -13.6031  -12.0922  -11.6777  -10.4877   -9.9987   -9.3600   -6.4344   -4.5396
          -3.9668   -3.2643   -0.3309    0.0861    2.0248    2.7208    4.4626    8.1461   11.9813   12.0260
   20.4670   21.1178   21.8427   23.1487   23.5303   29.9438   34.7370   44.7647   54.5193   57.4980
   61.7791   73.3295
   4  1  -18.2047  -13.9240  -13.6031  -12.0922  -11.6777  -10.4877   -9.9987   -9.3598   -6.4344   -4.5396
          -3.9669   -3.2643   -0.3309    0.0859    2.0248    2.7208    4.4629    8.1461   11.9813   12.0260
   20.4670   21.1178   21.8427   23.1486   23.5303   29.9438   34.7370   44.7647   54.5193   57.4981
   61.7791   73.3295
   5  1  -18.4823  -14.4927  -13.4754  -12.3484   -8.8809   -8.8807   -5.1899   -1.5621   -1.5621   -1.5172
          -1.5172   -1.0940    1.0852    2.2809    2.2809    5.9641    5.9646    6.8816    6.8816   19.0830
   21.9298   23.4285   23.4285   23.7880   23.7881   24.1412   45.4770   45.4770   46.1162   48.1274
   48.1274   83.9542
   6  1  -17.9502  -13.6224  -12.8942  -12.8942  -12.1465  -12.1465  -11.0589  -10.0991   -9.5939   -9.5938
          -5.8517   -5.8517   -2.1358   -2.1355   -1.3920   -0.0722   10.0299   10.0301   12.4448   14.2828
   14.9877   14.9877   16.4695   18.8093   18.8093   19.7538   19.7538   21.2153   24.5530   25.7823
   25.7823   36.2475
   7  1  -18.1084  -13.9752  -13.1960  -12.5590  -11.7599  -10.9814   -9.8265   -9.4017   -7.9658   -6.1433
          -5.0871   -4.4500   -1.8287   -0.9743    1.8711    3.1023    3.9082    9.3462   11.1187   11.1506
   11.6221   14.2500   15.1958   20.4219   20.8854   21.7015   22.2277   24.7502   25.0531   47.0640
   48.1290   50.6655
   8  1  -18.1084  -13.9752  -13.1959  -12.5590  -11.7599  -10.9814   -9.8265   -9.4019   -7.9658   -6.1432
          -5.0871   -4.4500   -1.8288   -0.9743    1.8711    3.1025    3.9080    9.3461   11.1186   11.1506
   11.6221   14.2500   15.1958   20.4219   20.8854   21.7015   22.2277   24.7502   25.0530   47.0640
   48.1290   50.6655
   9  1  -18.1084  -13.9752  -13.1960  -12.5590  -11.7599  -10.9814   -9.8265   -9.4017   -7.9658   -6.1433
          -5.0871   -4.4500   -1.8287   -0.9743    1.8711    3.1023    3.9082    9.3462   11.1187   11.1506
   11.6221   14.2500   15.1958   20.4219   20.8854   21.7015   22.2277   24.7502   25.0531   47.0640
   48.1290   50.6655
  10  1  -18.4296  -14.4549  -13.6408  -12.4403   -9.0429   -8.9205   -8.9203   -6.6888   -0.2542   -0.2542
          -0.1826   -0.1826    0.8879    2.2553    2.2553    4.2761    4.2764    8.9945    8.9947    9.7354
   15.9681   15.9681   20.6672   20.6673   20.8728   20.8728   22.9137   23.9684   23.9684   24.4149
   48.5740   71.5987
  11  1  -18.1084  -13.9752  -13.1960  -12.5590  -11.7599  -10.9814   -9.8265   -9.4017   -7.9658   -6.1433
          -5.0871   -4.4500   -1.8287   -0.9743    1.8711    3.1023    3.9082    9.3462   11.1187   11.1506
   11.6221   14.2500   15.1958   20.4219   20.8854   21.7015   22.2277   24.7502   25.0531   47.0640
   48.1290   50.6655
  12  1  -18.1084  -13.9752  -13.1959  -12.5590  -11.7599  -10.9814   -9.8265   -9.4019   -7.9658   -6.1432
          -5.0871   -4.4500   -1.8288   -0.9743    1.8711    3.1025    3.9080    9.3461   11.1186   11.1506
   11.6221   14.2500   15.1958   20.4219   20.8854   21.7015   22.2277   24.7502   25.0530   47.0640
   48.1290   50.6655
  13  1  -18.1084  -13.9752  -13.1960  -12.5590  -11.7599  -10.9814   -9.8265   -9.4017   -7.9658   -6.1433
          -5.0871   -4.4500   -1.8287   -0.9743    1.8711    3.1023    3.9082    9.3462   11.1187   11.1506
   11.6221   14.2500   15.1958   20.4219   20.8854   21.7015   22.2277   24.7502   25.0531   47.0640
   48.1290   50.6655
  14  1  -17.9502  -13.6224  -12.8942  -12.8942  -12.1465  -12.1465  -11.0589  -10.0991   -9.5939   -9.5938
          -5.8517   -5.8517   -2.1358   -2.1355   -1.3920   -0.0722   10.0299   10.0301   12.4448   14.2828
   14.9877   14.9877   16.4695   18.8093   18.8093   19.7538   19.7538   21.2153   24.5530   25.7823
   25.7823   36.2475
siesta: Fermi energy =      -9.116937 eV

siesta: Program's energy decomposition (eV):
siesta: Ebs     =      -200.104757
siesta: Eions   =       380.620085
siesta: Ena     =       118.768021
siesta: Ekin    =       157.393025
siesta: Enl     =        47.766467
siesta: Eso     =         0.000000
siesta: Edftu   =         0.000000
siesta: DEna    =         9.114031
siesta: DUscf   =         1.120623
siesta: DUext   =         0.000000
siesta: Exc     =      -152.435396
siesta: eta*DQ  =         0.000000
siesta: Emadel  =         0.000000
siesta: Emeta   =         0.000000
siesta: Emolmec =        -5.445985
siesta: Ekinion =         0.000000
siesta: Eharris =      -204.339297
siesta: Etot    =      -204.339299
siesta: FreeEng =      -204.340969

siesta: Final energy (eV):
siesta:  Band Struct. =    -200.104757
siesta:       Kinetic =     157.393025
siesta:       Hartree =      78.516818
siesta:       Edftu   =       0.000000
siesta:       Eso     =       0.000000
siesta:    Ext. field =       0.000000
siesta:   Exch.-corr. =    -152.435396
siesta:  Ion-electron =    -356.737566
siesta:       Ion-ion =      74.369805
siesta:       Ekinion =       0.000000
siesta:         Total =    -204.339299
siesta:         Fermi =      -9.116937

siesta: Atomic forces (eV/Ang):
siesta:      1   -0.000000    0.000000    0.000000
siesta:      2   -0.937430   -0.000025   -1.552394
siesta:      3    0.937430    0.000025    1.552394
siesta:      4    0.468693   -0.811851   -1.552394
siesta:      5   -0.468693    0.811851    1.552394
siesta:      6    0.468700    0.811812   -1.552400
siesta:      7   -0.468700   -0.811812    1.552400
siesta:      8    0.937430    0.000025   -1.552394
siesta:      9   -0.937430   -0.000025    1.552394
siesta:     10   -0.468693    0.811851   -1.552394
siesta:     11    0.468693   -0.811851    1.552394
siesta:     12   -0.468700   -0.811812   -1.552400
siesta:     13    0.468700    0.811812    1.552400
siesta: ----------------------------------------
siesta:    Tot   -0.000000    0.000000   -0.000000

siesta: Stress tensor (static) (eV/Ang**3):
siesta:    -0.760668   -0.000004   -0.000000
siesta:    -0.000004   -0.760672    0.000000
siesta:    -0.000000    0.000000    0.388591

siesta: Cell volume =        130.767567 Ang**3

siesta: Pressure (static):
siesta:                Solid            Molecule  Units
siesta:           0.00411236          0.00281827  Ry/Bohr**3
siesta:           0.37758298          0.25876361  eV/Ang**3
siesta:         604.96117269        414.58949336  kBar
(Free)E+ p_basis*V_orbitals  =        -182.408405
(Free)Eharris+ p_basis*V_orbitals  =        -182.408404

cite: Please see "LiC12_scf.bib" for an exhaustive BiBTeX file.
cite: Please clearly indicate Siesta version in published work: 4.1.5
cite: This calculation has made use of the following articles
cite: which are encouraged to be cited in a published work.
        Primary SIESTA paper
          DOI: www.doi.org/10.1088/0953-8984/14/11/302

>> End of run:   9-NOV-2022   8:42:06
Job completed
