Siesta Version  : 4.1.5
Architecture    : x86_64-unknown-linux-gnu--unknown
Compiler version: GNU Fortran (GCC) 11.3.0
Compiler flags  : mpif90 -g -O2 -fallow-argument-mismatch
PP flags        : -DMPI -DFC_HAVE_FLUSH -DFC_HAVE_ABORT
Libraries       :  -I/global/software/sl-7.x86_64/modules/intel/2020.4.304/mkl/include  /globall/software/sl-7.x86_64/modules/intel/2020.4.304/mkl/lib/intel64/libmkl_scalapack_lp64.a -Wl,--start-group /global/software/sl-7.x86_64/modules/intel/2020.4.304/mkl/lib/intel64/libmkl_intel_lp64.a /global/software/sl-7.x86_64/modules/intel/2020.4.304/mkl/lib/intel64/libmkl_sequential.a /global/software/sl-7.x86_64/modules/intel/2020.4.304/mkl/lib/intel64/libmkl_core.a /global/software/sl-7.x86_64/modules/intel/2020.4.304/mkl/lib/intel64/libmkl_blacs_openmpi_lp64.a -Wl,--end-group -lpthread -lm -ldl
PARALLEL version

* Running on 12 nodes in parallel
>> Start of run:   9-NOV-2022   8:41:11

                           ***********************       
                           *  WELCOME TO SIESTA  *       
                           ***********************       

reinit: Reading from standard input
reinit: Dumped input in INPUT_TMP.38707
************************** Dump of input data file ****************************
SystemName LiC12_scf
SystemLabel LiC12_scf
NumberOfAtoms   13
NumberOfSpecies 2
%block ChemicalSpeciesLabel
1  3   Li-gga
2  6   C-gga
%endblock ChemicalSpeciesLabel
PAO.BasisSize  DZ
PAO.EnergyShift  10 meV
%block PS.Lmax
C-gga   2
Li-gga  2
%endblock PS.Lmax
LatticeConstant 1.000000 Ang
%block LatticeVectors
	4.2686000000	0.0000000000	0.0000000000
	-2.1343000000	3.6967160386	0.0000000000
	0.0000000000	0.0000000000	8.0061060000
%endblock LatticeVectors
AtomicCoordinatesFormat Ang
%block AtomicCoordinatesAndAtomicSpecies
	0.00000000	0.00000000	0.00000000	2
	1.42144380	0.00000000	2.00152650	1
	2.84715620	0.00000000	6.00457950	1
	-0.71072190	1.23100644	2.00152650	1
	-1.42357810	2.46570960	6.00457950	1
	1.42357810	2.46570960	2.00152650	1
	0.71072190	1.23100644	6.00457950	1
	2.84715620	0.00000000	2.00152650	1
	1.42144380	0.00000000	6.00457950	1
	-1.42357810	2.46570960	2.00152650	1
	-0.71072190	1.23100644	6.00457950	1
	0.71072190	1.23100644	2.00152650	1
	1.42357810	2.46570960	6.00457950	1
%endblock AtomicCoordinatesAndAtomicSpecies
Kgrid_NoTRS  T
%block kgrid_MonkhorstPack
3       0       0       0.0
0       3       0       0.0
0       0       3       0.0
%endblock kgrid_MonkhorstPack
AtomCoorFormatOut Ang
BlockSize 1
#ProcessorY 12
Diag.ParallelOverK   T
Diag.DivideAndConquer F
MeshCutoff   300 Ry
SCF.FreeE.Tolerance 1E-3 eV
SCF.EDM.Tolerance   5E-3 eV
DM.Tolerance  1E-3
DM.Require.Energy.Convergence T
DM.NumberPulay 4
XC.Functional GGA
XC.Authors    PBE
UseSaveData        F
MD.TypeOfRun       CG
MD.VariableCell    F
MD.NumCGsteps      00
MD.MaxCGDispl      0.200000 Bohr
MD.MaxStressTol    1.000000 GPa
MD.MaxForceTol     0.010000 eV/Ang
WriteMDHistory T
WriteCoorStep T
WriteForces T
WriteCoorStep    T
WriteEigenValues T
WriteDM    F
MM.UnitsDistance Ang  # what this program prints out DO NOT CHANGE
MM.UnitsEnergy    eV  # what this program prints out DO NOT CHANGE
MM.Grimme.S6     0.75 # Grimme-paper for PBE (correct for your functional)
MM.Grimme.D     20.   # Grimme-paper (correct for your functional)
%block MM.Potentials
  1   1 Grimme     16.69      1.650 # Li, 10.1002/jcc.20495
  1   2 Grimme     17.40      2.277 # Li / C
  2   2 Grimme     18.14      2.904 # C, 10.1002/jcc.20495
%endblock MM.Potentials
#%block ProjectedDensityOfStates
# -200.0  120.0  0.4  12800  eV
#%endblock ProjectedDensityOfStates
************************** End of input data file *****************************

reinit: -----------------------------------------------------------------------
reinit: System Name: LiC12_scf
reinit: -----------------------------------------------------------------------
reinit: System Label: LiC12_scf
reinit: -----------------------------------------------------------------------
Reading two-body potentials
Grimme - two-body potential between 1 and 1
Grimme - two-body potential between 1 and 2
Grimme - two-body potential between 2 and 2

initatom: Reading input for the pseudopotentials and atomic orbitals ----------
Species number:   1 Atomic number:    3 Label: Li-gga
Species number:   2 Atomic number:    6 Label: C-gga

Ground state valence configuration:   2s01
Reading pseudopotential information in formatted form from Li-gga.psf

Valence configuration for pseudopotential generation:
2s( 1.00) rc: 2.28
2p( 0.00) rc: 2.28
3d( 0.00) rc: 2.59
4f( 0.00) rc: 2.59
Ground state valence configuration:   2s02  2p02
Reading pseudopotential information in formatted form from C-gga.psf

Valence configuration for pseudopotential generation:
2s( 2.00) rc: 1.56
2p( 2.00) rc: 1.56
3d( 0.00) rc: 1.56
4f( 0.00) rc: 1.56
relmxkb: Read Max KB Ang. Momentum=    2 for species C-gga
relmxkb: Read Max KB Ang. Momentum=    2 for species Li-gga

<basis_specs>
===============================================================================
Li-gga               Z=   3    Mass=  6.9400        Charge= 0.17977+309
Lmxo=0 Lmxkb= 2    BasisType=split      Semic=F
L=0  Nsemic=0  Cnfigmx=2
          i=1  nzeta=2  polorb=0  (2s)
            splnorm:   0.15000    
               vcte:    0.0000    
               rinn:    0.0000    
               qcoe:    0.0000    
               qyuk:    0.0000    
               qwid:   0.10000E-01
                rcs:    0.0000      0.0000    
            lambdas:    1.0000      1.0000    
-------------------------------------------------------------------------------
L=0  Nkbl=1  erefs: 0.17977+309
L=1  Nkbl=1  erefs: 0.17977+309
L=2  Nkbl=1  erefs: 0.17977+309
===============================================================================
</basis_specs>

atom: Called for Li-gga                (Z =   3)

read_vps: Pseudopotential generation method:
read_vps: ATM 3.2.2 Troullier-Martins                       
Valence charge for ps generation:    1.00000

read_vps: Pseudopotential includes a core correction:
read_vps: Pseudo-core for xc-correction

xc_check: Exchange-correlation functional:
xc_check: GGA Perdew, Burke & Ernzerhof 1996
V l=0 = -2*Zval/r beyond r=  2.2278
V l=1 = -2*Zval/r beyond r=  2.2278
V l=2 = -2*Zval/r beyond r=  2.5245
All V_l potentials equal beyond r=  2.4622
This should be close to max(r_c) in ps generation
All pots = -2*Zval/r beyond r=  2.5245

VLOCAL1: 99.0% of the norm of Vloc inside      7.160 Ry
VLOCAL1: 99.9% of the norm of Vloc inside     16.318 Ry
atom: Maximum radius for 4*pi*r*r*local-pseudopot. charge    2.86079
atom: Maximum radius for r*vlocal+2*Zval:    2.43160
GHOST: No ghost state for L =  0
GHOST: No ghost state for L =  1
GHOST: No ghost state for L =  2

KBgen: Kleinman-Bylander projectors: 
   l= 0   rc=  2.654023   el= -0.211234   Ekb=  1.742119   kbcos=  0.228463
   l= 1   rc=  2.721230   el= -0.080095   Ekb= -1.122375   kbcos= -0.147941
   l= 2   rc=  2.825246   el=  0.002001   Ekb= -0.207076   kbcos= -0.031965

KBgen: Total number of Kleinman-Bylander projectors:    9
atom: -------------------------------------------------------------------------

atom: SANKEY-TYPE ORBITALS:
atom: Selected multiple-zeta basis: split     

SPLIT: Orbitals with angular momentum L= 0

SPLIT: Basis orbitals for state 2s

SPLIT: PAO cut-off radius determined from an
SPLIT: energy shift=  0.000735 Ry

   izeta = 1
                 lambda =    1.000000
                     rc =   11.897381
                 energy =   -0.210580
                kinetic =    0.143382
    potential(screened) =   -0.353962
       potential(ionic) =   -0.533453

   izeta = 2
                 rmatch =    8.489163
              splitnorm =    0.150000
                 energy =   -0.186081
                kinetic =    0.225882
    potential(screened) =   -0.411964
       potential(ionic) =   -0.593024
atom: Total number of Sankey-type orbitals:  2

atm_pop: Valence configuration (for local Pseudopot. screening):
 2s( 1.00)                                                            
Vna: chval, zval:    1.00000   1.00000

Vna:  Cut-off radius for the neutral-atom potential:  11.897381
comcore: Pseudo-core radius Rcore=  3.450946

atom: _________________________________________________________________________

<basis_specs>
===============================================================================
C-gga                Z=   6    Mass=  12.010        Charge= 0.17977+309
Lmxo=1 Lmxkb= 2    BasisType=split      Semic=F
L=0  Nsemic=0  Cnfigmx=2
          i=1  nzeta=2  polorb=0  (2s)
            splnorm:   0.15000    
               vcte:    0.0000    
               rinn:    0.0000    
               qcoe:    0.0000    
               qyuk:    0.0000    
               qwid:   0.10000E-01
                rcs:    0.0000      0.0000    
            lambdas:    1.0000      1.0000    
L=1  Nsemic=0  Cnfigmx=2
          i=1  nzeta=2  polorb=0  (2p)
            splnorm:   0.15000    
               vcte:    0.0000    
               rinn:    0.0000    
               qcoe:    0.0000    
               qyuk:    0.0000    
               qwid:   0.10000E-01
                rcs:    0.0000      0.0000    
            lambdas:    1.0000      1.0000    
-------------------------------------------------------------------------------
L=0  Nkbl=1  erefs: 0.17977+309
L=1  Nkbl=1  erefs: 0.17977+309
L=2  Nkbl=1  erefs: 0.17977+309
===============================================================================
</basis_specs>

atom: Called for C-gga                 (Z =   6)

read_vps: Pseudopotential generation method:
read_vps: ATM 3.2.2 Troullier-Martins                       
Valence charge for ps generation:    4.00000

xc_check: Exchange-correlation functional:
xc_check: GGA Perdew, Burke & Ernzerhof 1996
V l=0 = -2*Zval/r beyond r=  1.5227
V l=1 = -2*Zval/r beyond r=  1.5227
V l=2 = -2*Zval/r beyond r=  1.5227
All V_l potentials equal beyond r=  1.4851
This should be close to max(r_c) in ps generation
All pots = -2*Zval/r beyond r=  1.5227

VLOCAL1: 99.0% of the norm of Vloc inside     19.682 Ry
VLOCAL1: 99.9% of the norm of Vloc inside     44.856 Ry
atom: Maximum radius for 4*pi*r*r*local-pseudopot. charge    1.79142
atom: Maximum radius for r*vlocal+2*Zval:    1.54183
GHOST: No ghost state for L =  0
GHOST: No ghost state for L =  1
GHOST: No ghost state for L =  2

KBgen: Kleinman-Bylander projectors: 
   l= 0   rc=  1.661951   el= -1.010689   Ekb=  5.289847   kbcos=  0.316429
   l= 1   rc=  1.661951   el= -0.388490   Ekb= -4.102504   kbcos= -0.351025
   l= 2   rc=  1.747182   el=  0.001971   Ekb= -1.006005   kbcos= -0.008530

KBgen: Total number of Kleinman-Bylander projectors:    9
atom: -------------------------------------------------------------------------

atom: SANKEY-TYPE ORBITALS:
atom: Selected multiple-zeta basis: split     

SPLIT: Orbitals with angular momentum L= 0

SPLIT: Basis orbitals for state 2s

SPLIT: PAO cut-off radius determined from an
SPLIT: energy shift=  0.000735 Ry

   izeta = 1
                 lambda =    1.000000
                     rc =    5.948690
                 energy =   -1.010099
                kinetic =    0.827121
    potential(screened) =   -1.837220
       potential(ionic) =   -5.392783

   izeta = 2
                 rmatch =    3.518811
              splitnorm =    0.150000
                 energy =   -0.877891
                kinetic =    1.289227
    potential(screened) =   -2.167118
       potential(ionic) =   -5.982073

SPLIT: Orbitals with angular momentum L= 1

SPLIT: Basis orbitals for state 2p

SPLIT: PAO cut-off radius determined from an
SPLIT: energy shift=  0.000735 Ry

   izeta = 1
                 lambda =    1.000000
                     rc =    7.638387
                 energy =   -0.387843
                kinetic =    2.314739
    potential(screened) =   -2.702582
       potential(ionic) =   -6.092371

   izeta = 2
                 rmatch =    3.840617
              splitnorm =    0.150000
                 energy =   -0.270479
                kinetic =    3.438347
    potential(screened) =   -3.708826
       potential(ionic) =   -7.497707
atom: Total number of Sankey-type orbitals:  8

atm_pop: Valence configuration (for local Pseudopot. screening):
 2s( 2.00)                                                            
 2p( 2.00)                                                            
Vna: chval, zval:    4.00000   4.00000

Vna:  Cut-off radius for the neutral-atom potential:   7.638387

atom: _________________________________________________________________________

prinput: Basis input ----------------------------------------------------------

PAO.BasisType split     

%block ChemicalSpeciesLabel
    1    3 Li-gga                  # Species index, atomic number, species label
    2    6 C-gga                   # Species index, atomic number, species label
%endblock ChemicalSpeciesLabel

%block PAO.Basis                 # Define Basis set
Li-gga                1                    # Species label, number of l-shells
 n=2   0   2                         # n, l, Nzeta 
  11.897      8.489   
   1.000      1.000   
C-gga                 2                    # Species label, number of l-shells
 n=2   0   2                         # n, l, Nzeta 
   5.949      3.519   
   1.000      1.000   
 n=2   1   2                         # n, l, Nzeta 
   7.638      3.841   
   1.000      1.000   
%endblock PAO.Basis

prinput: ----------------------------------------------------------------------

coor:   Atomic-coordinates input format  =     Cartesian coordinates
coor:                                          (in Angstroms)

siesta: Atomic coordinates (Bohr) and species
siesta:      0.00000   0.00000   0.00000  2        1
siesta:      2.68614   0.00000   3.78234  1        2
siesta:      5.38035   0.00000  11.34702  1        3
siesta:     -1.34307   2.32627   3.78234  1        4
siesta:     -2.69017   4.65952  11.34702  1        5
siesta:      2.69017   4.65952   3.78234  1        6
siesta:      1.34307   2.32627  11.34702  1        7
siesta:      5.38035   0.00000   3.78234  1        8
siesta:      2.68614   0.00000  11.34702  1        9
siesta:     -2.69017   4.65952   3.78234  1       10
siesta:     -1.34307   2.32627  11.34702  1       11
siesta:      1.34307   2.32627   3.78234  1       12
siesta:      2.69017   4.65952  11.34702  1       13

siesta: System type = bulk      

initatomlists: Number of atoms, orbitals, and projectors:     13    32   117

siesta: ******************** Simulation parameters ****************************
siesta:
siesta: The following are some of the parameters of the simulation.
siesta: A complete list of the parameters used, including default values,
siesta: can be found in file out.fdf
siesta:
redata: Spin configuration                          = none
redata: Number of spin components                   = 1
redata: Time-Reversal Symmetry                      = T
redata: Spin spiral                                 = F
redata: Long output                                 =   F
redata: Number of Atomic Species                    =        2
redata: Charge density info will appear in .RHO file
redata: Write Mulliken Pop.                         = NO
redata: Matel table size (NRTAB)                    =     1024
redata: Mesh Cutoff                                 =   300.0000 Ry
redata: Net charge of the system                    =     0.0000 |e|
redata: Min. number of SCF Iter                     =        0
redata: Max. number of SCF Iter                     =     1000
redata: SCF convergence failure will abort job
redata: SCF mix quantity                            = Hamiltonian
redata: Mix DM or H after convergence               =   F
redata: Recompute H after scf cycle                 =   F
redata: Mix DM in first SCF step                    =   T
redata: Write Pulay info on disk                    =   F
redata: New DM Occupancy tolerance                  = 0.000000000001
redata: No kicks to SCF
redata: DM Mixing Weight for Kicks                  =     0.5000
redata: Require Harris convergence for SCF          =   F
redata: Harris energy tolerance for SCF             =     0.000100 eV
redata: Require DM convergence for SCF              =   T
redata: DM tolerance for SCF                        =     0.001000
redata: Require EDM convergence for SCF             =   F
redata: EDM tolerance for SCF                       =     0.005000 eV
redata: Require H convergence for SCF               =   T
redata: Hamiltonian tolerance for SCF               =     0.001000 eV
redata: Require (free) Energy convergence for SCF   =   T
redata: (free) Energy tolerance for SCF             =     0.001000 eV
redata: Using Saved Data (generic)                  =   F
redata: Use continuation files for DM               =   F
redata: Neglect nonoverlap interactions             =   F
redata: Method of Calculation                       = Diagonalization
redata: Electronic Temperature                      =   299.9869 K
redata: Fix the spin of the system                  =   F
redata: Dynamics option                             = Single-point calculation
mix.SCF: Pulay mixing                            = Pulay
mix.SCF:    Variant                              = stable
mix.SCF:    History steps                        = 4
mix.SCF:    Linear mixing weight                 =     0.250000
mix.SCF:    Mixing weight                        =     0.250000
mix.SCF:    SVD condition                        = 0.1000E-07
redata: ***********************************************************************

%block SCF.Mixers
  Pulay
%endblock SCF.Mixers

%block SCF.Mixer.Pulay
  # Mixing method
  method pulay
  variant stable

  # Mixing options
  weight 0.2500
  weight.linear 0.2500
  history 4
%endblock SCF.Mixer.Pulay

DM_history_depth set to one: no extrapolation allowed by default for geometry relaxation
Size of DM history Fstack: 1
Total number of electrons:    16.000000
Total ionic charge:    16.000000

* ProcessorY, Blocksize:    3   1


* Orbital distribution balance (max,min):     3     2

 Kpoints in:           18 . Kpoints trimmed:           14

siesta: k-grid: Number of k-points =    14
siesta: k-grid: Cutoff (effective) =     6.403 Ang
siesta: k-grid: Supercell and displacements
siesta: k-grid:    3   0   0      0.000
siesta: k-grid:    0   3   0      0.000
siesta: k-grid:    0   0   3      0.000

diag: Algorithm                                     = Expert
diag: Parallel over k                               =   T
diag: Use parallel 2D distribution                  =   T
diag: Parallel block-size                           = 1
diag: Parallel distribution                         =     3 x     4
diag: Used triangular part                          = Lower
diag: Absolute tolerance                            =  0.100E-15
diag: Orthogonalization factor                      =  0.100E-05
diag: Memory factor                                 =  1.0000

superc: Internal auxiliary supercell:     9 x     9 x     5  =     405
superc: Number of atoms, orbitals, and projectors:   5265  12960  47385


ts: **************************************************************
ts: Save H and S matrices                           =    F
ts: Save DM and EDM matrices                        =    F
ts: Only save the overlap matrix S                  =    F
ts: **************************************************************

************************ Begin: TS CHECKS AND WARNINGS ************************
************************ End: TS CHECKS AND WARNINGS **************************


                     ====================================
                        Single-point calculation
                     ====================================

outcoor: Atomic coordinates (Ang):                          
    0.00000000    0.00000000    0.00000000   2       1  C-gga
    1.42144380    0.00000000    2.00152650   1       2  Li-gga
    2.84715620    0.00000000    6.00457950   1       3  Li-gga
   -0.71072190    1.23100644    2.00152650   1       4  Li-gga
   -1.42357810    2.46570960    6.00457950   1       5  Li-gga
    1.42357810    2.46570960    2.00152650   1       6  Li-gga
    0.71072190    1.23100644    6.00457950   1       7  Li-gga
    2.84715620    0.00000000    2.00152650   1       8  Li-gga
    1.42144380    0.00000000    6.00457950   1       9  Li-gga
   -1.42357810    2.46570960    2.00152650   1      10  Li-gga
   -0.71072190    1.23100644    6.00457950   1      11  Li-gga
    0.71072190    1.23100644    2.00152650   1      12  Li-gga
    1.42357810    2.46570960    6.00457950   1      13  Li-gga

superc: Internal auxiliary supercell:     9 x     9 x     5  =     405
superc: Number of atoms, orbitals, and projectors:   5265  12960  47385

outcell: Unit cell vectors (Ang):
        4.268600    0.000000    0.000000
       -2.134300    3.696716    0.000000
        0.000000    0.000000    8.006106

outcell: Cell vector modules (Ang)   :    4.268600    4.268600    8.006106
outcell: Cell angles (23,13,12) (deg):     90.0000     90.0000    120.0000
outcell: Cell volume (Ang**3)        :    126.3348
<dSpData1D:S at geom step 0
  <sparsity:sparsity for geom step 0
    nrows_g=32 nrows=3 sparsity=5.8379 nnzs=5978, refcount: 7>
  <dData1D:(new from dSpData1D) n=5978, refcount: 1>
refcount: 1>
new_DM -- step:     1
Initializing Density Matrix...
DM filled with atomic data:
<dSpData2D:DM initialized from atoms
  <sparsity:sparsity for geom step 0
    nrows_g=32 nrows=3 sparsity=5.8379 nnzs=5978, refcount: 8>
  <dData2D:DM n=5978 m=1, refcount: 1>
refcount: 1>
No. of atoms with KB's overlaping orbs in proc 0. Max # of overlaps:     226     308
New grid distribution:   1
           1       1:   20    1:    7    1:   12
           2       1:   20    1:    7   13:   23
           3       1:   20    1:    7   24:   34
           4       1:   20    1:    7   35:   45
           5       1:   20    8:   14    1:   12
           6       1:   20    8:   14   13:   23
           7       1:   20    8:   14   24:   34
           8       1:   20    8:   14   35:   45
           9       1:   20   15:   20    1:   12
          10       1:   20   15:   20   13:   23
          11       1:   20   15:   20   24:   34
          12       1:   20   15:   20   35:   45

InitMesh: MESH =    40 x    40 x    90 =      144000
InitMesh: (bp) =    20 x    20 x    45 =       18000
InitMesh: Mesh cutoff (required, used) =   300.000   323.586 Ry
ExtMesh (bp) on 0 =   160 x   147 x   156 =     3669120
New grid distribution:   2
           1      11:   20    8:   20   23:   34
           2       1:   20    1:    7   11:   22
           3       1:   20    1:    7    1:   10
           4       1:   20    1:    7   35:   45
           5       1:   20    1:    7   23:   34
           6      11:   20    8:   20   11:   22
           7      11:   20    8:   20    1:   10
           8      11:   20    8:   20   35:   45
           9       1:   10    8:   20    1:   10
          10       1:   10    8:   20   11:   22
          11       1:   10    8:   20   23:   34
          12       1:   10    8:   20   35:   45
New grid distribution:   3
           1       1:   20    1:    7    1:   12
           2       1:   10    8:   20   35:   45
           3       1:   20    1:    7   24:   34
           4       1:   10    8:   20   13:   23
           5      11:   20    8:   20    1:   12
           6       1:   20    1:    7   35:   45
           7      11:   20    8:   20   24:   34
           8      11:   20    8:   20   13:   23
           9       1:   10    8:   20    1:   12
          10       1:   20    1:    7   13:   23
          11       1:   10    8:   20   24:   34
          12      11:   20    8:   20   35:   45
Setting up quadratic distribution...
ExtMesh (bp) on 0 =   150 x   153 x   156 =     3580200
PhiOnMesh: Number of (b)points on node 0 =                 1560
PhiOnMesh: nlist on node 0 =               226519

stepf: Fermi-Dirac step function

siesta: Program's energy decomposition (eV):
siesta: Ebs     =      -158.087359
siesta: Eions   =       380.620085
siesta: Ena     =       117.224464
siesta: Ekin    =       189.646899
siesta: Enl     =        36.800937
siesta: Eso     =         0.000000
siesta: Edftu   =         0.000000
siesta: DEna    =        -6.727913
siesta: DUscf   =         8.858800
siesta: DUext   =         0.000000
siesta: Exc     =      -160.110099
siesta: eta*DQ  =         0.000000
siesta: Emadel  =         0.000000
siesta: Emeta   =         0.000000
siesta: Emolmec =        -5.544006
siesta: Ekinion =         0.000000
siesta: Eharris =      -166.876772
siesta: Etot    =      -200.471003
siesta: FreeEng =      -200.471705

        iscf     Eharris(eV)        E_KS(eV)     FreeEng(eV)     dDmax    Ef(eV) dHmax(eV)
   scf:    1     -166.876772     -200.471003     -200.471705 19.663676-10.184682 12.991979
timer: Routine,Calls,Time,% = IterSCF        1       1.100  18.76
   scf:    2     -203.744308     -205.655280     -205.657938  6.017877 -9.297899  3.028336
   scf:    3     -206.073256     -206.060814     -206.068191  2.123233 -9.568110  0.463951
   scf:    4     -206.076190     -206.075021     -206.083476  0.368770 -9.475640  0.200574
   scf:    5     -206.065846     -206.074693     -206.083112  0.305871 -9.512863  0.346494
   scf:    6     -206.079158     -206.079143     -206.087406  0.163609 -9.473077  0.040963
   scf:    7     -206.078942     -206.079125     -206.087469  0.028489 -9.476284  0.031799
   scf:    8     -206.079246     -206.079200     -206.087504  0.013954 -9.473537  0.002766
   scf:    9     -206.079190     -206.079196     -206.087505  0.004943 -9.474634  0.002677
   scf:   10     -206.079204     -206.079200     -206.087505  0.001268 -9.474408  0.000232
   scf:   11     -206.079202     -206.079201     -206.087505  0.000540 -9.474437  0.000049

SCF Convergence by FreeE+DM+H criterion
|FreeE_i-FreeE_(i-1)| (eV) <     0.00100000
max |DM_out - DM_in|         :     0.0005400930
max |H_out - H_in|      (eV) :     0.0000494869
SCF cycle converged after 11 iterations

Using DM_out to compute the final energy and forces
No. of atoms with KB's overlaping orbs in proc 0. Max # of overlaps:     226     308

MM-Stress (kbar):       12.50       12.50       34.29       -0.00        0.00        0.00

siesta: E_KS(eV) =             -206.0792

siesta: E_KS - E_eggbox =      -206.0792

siesta: Atomic forces (eV/Ang):
     1   -0.000000    0.000000   -0.000000
     2   -0.973047   -0.000013   -1.571965
     3    0.973047    0.000013    1.571965
     4    0.486513   -0.842690   -1.571965
     5   -0.486513    0.842690    1.571965
     6    0.486494    0.842632   -1.571999
     7   -0.486494   -0.842632    1.571999
     8    0.973047    0.000013   -1.571965
     9   -0.973047   -0.000013    1.571965
    10   -0.486513    0.842690   -1.571965
    11    0.486513   -0.842690    1.571965
    12   -0.486494   -0.842632   -1.571999
    13    0.486494    0.842632    1.571999
----------------------------------------
   Tot   -0.000000    0.000000    0.000000
----------------------------------------
   Max    1.571999
   Res    1.025504    sqrt( Sum f_i^2 / 3N )
----------------------------------------
   Max    1.571999    constrained

Stress tensor Voigt[x,y,z,yz,xz,xy] (kbar):    -1240.88    -1240.89      638.12       -0.00        0.00       -0.01
(Free)E + p*V (eV/cell)     -157.6294
Target enthalpy (eV/cell)     -206.0875

siesta: Eigenvalues (eV):
  ik is       eps
   1  1  -18.4446  -13.9334  -13.2952  -13.2952  -11.8390  -11.8390  -11.7871  -10.4278  -10.4278   -9.2977
          -0.6641   -0.6637   -0.4982    0.6819    5.3759    5.3759    9.2347   12.8368   13.6995   13.6995
   17.1234   17.1234   17.2298   19.8838   19.8838   20.2193   23.9525   23.9525   26.2854   30.8588
   30.8589   31.7973
   2  1  -18.7292  -14.1822  -13.9462  -12.2555  -12.0003  -10.6372  -10.5196   -9.8850   -7.3595   -5.1034
          -3.0521   -2.9328   -0.5236    0.3491    1.8017    3.3238    3.9830    8.0224   11.1062   11.1682
   20.3353   21.1441   22.7290   23.2604   23.3487   35.3061   36.8566   37.7905   53.0161   57.6881
   63.8183   66.2195
   3  1  -18.7292  -14.1822  -13.9462  -12.2555  -12.0003  -10.6372  -10.5196   -9.8851   -7.3594   -5.1035
          -3.0521   -2.9327   -0.5236    0.3493    1.8017    3.3238    3.9827    8.0224   11.1062   11.1682
   20.3353   21.1441   22.7290   23.2604   23.3488   35.3061   36.8566   37.7904   53.0161   57.6881
   63.8183   66.2195
   4  1  -18.7292  -14.1822  -13.9462  -12.2555  -12.0003  -10.6372  -10.5196   -9.8850   -7.3595   -5.1034
          -3.0521   -2.9328   -0.5236    0.3491    1.8017    3.3238    3.9830    8.0224   11.1062   11.1682
   20.3353   21.1441   22.7290   23.2604   23.3487   35.3061   36.8566   37.7905   53.0161   57.6881
   63.8183   66.2195
   5  1  -18.9994  -14.6845  -13.7796  -12.6870   -9.4234   -9.4232   -4.8940   -1.2279   -1.2279   -1.1950
          -1.1336   -1.1335    0.6420    1.7405    1.7405    5.6184    5.6188    5.9457    5.9457   19.4527
   22.1027   23.8275   23.8275   24.2032   24.2032   24.3265   45.9308   45.9308   47.8141   47.8141
   50.9599   88.6618
   6  1  -18.4558  -13.9959  -13.1487  -13.1487  -12.3153  -12.3153  -11.3770  -10.1915   -9.9043   -9.9043
          -3.8682   -3.8681   -1.0515   -0.7048   -0.7045    0.4986   11.2812   11.7665   11.7665   14.4581
   14.9666   14.9666   18.2405   18.4193   18.4193   19.9464   19.9464   21.5466   25.7494   25.7494
   26.5640   40.8494
   7  1  -18.6185  -14.2274  -13.5504  -12.9087  -11.9194  -11.1985  -10.1477   -9.9221   -8.3960   -6.5680
          -5.5458   -4.8642   -1.6176   -1.0485    1.4969    2.7049    3.3887    9.0793   10.3409   11.9868
   12.8964   13.2567   15.2283   20.2875   20.8813   22.1637   22.5250   24.5275   25.2462   47.1702
   48.0910   51.1938
   8  1  -18.6185  -14.2274  -13.5504  -12.9087  -11.9194  -11.1985  -10.1477   -9.9222   -8.3960   -6.5679
          -5.5458   -4.8641   -1.6177   -1.0484    1.4969    2.7050    3.3885    9.0792   10.3409   11.9868
   12.8964   13.2567   15.2283   20.2875   20.8813   22.1637   22.5251   24.5275   25.2462   47.1702
   48.0909   51.1938
   9  1  -18.6185  -14.2274  -13.5504  -12.9087  -11.9194  -11.1985  -10.1477   -9.9221   -8.3960   -6.5680
          -5.5458   -4.8642   -1.6176   -1.0485    1.4969    2.7049    3.3887    9.0793   10.3409   11.9868
   12.8964   13.2567   15.2283   20.2875   20.8813   22.1637   22.5250   24.5275   25.2462   47.1702
   48.0910   51.1938
  10  1  -18.9383  -14.6909  -14.1261  -12.5416   -9.4610   -9.4464   -9.4463   -7.2312   -0.5512   -0.5512
          -0.5074   -0.5074    0.4922    1.4927    1.4928    4.1615    4.1618    8.2718    8.2719    8.9023
   15.6306   15.6307   22.7724   22.7724   22.7819   23.3524   23.3524   24.1760   24.1761   24.4345
   44.6856   55.3626
  11  1  -18.6185  -14.2274  -13.5504  -12.9087  -11.9194  -11.1985  -10.1477   -9.9221   -8.3960   -6.5680
          -5.5458   -4.8642   -1.6176   -1.0485    1.4969    2.7049    3.3887    9.0793   10.3409   11.9868
   12.8964   13.2567   15.2283   20.2875   20.8813   22.1637   22.5250   24.5275   25.2462   47.1702
   48.0910   51.1938
  12  1  -18.6185  -14.2274  -13.5504  -12.9087  -11.9194  -11.1985  -10.1477   -9.9222   -8.3960   -6.5679
          -5.5458   -4.8641   -1.6177   -1.0484    1.4969    2.7050    3.3885    9.0792   10.3409   11.9868
   12.8964   13.2567   15.2283   20.2875   20.8813   22.1637   22.5251   24.5275   25.2462   47.1702
   48.0909   51.1938
  13  1  -18.6185  -14.2274  -13.5504  -12.9087  -11.9194  -11.1985  -10.1477   -9.9221   -8.3960   -6.5680
          -5.5458   -4.8642   -1.6176   -1.0485    1.4969    2.7049    3.3887    9.0793   10.3409   11.9868
   12.8964   13.2567   15.2283   20.2875   20.8813   22.1637   22.5250   24.5275   25.2462   47.1702
   48.0910   51.1938
  14  1  -18.4558  -13.9959  -13.1487  -13.1487  -12.3153  -12.3153  -11.3770  -10.1915   -9.9043   -9.9043
          -3.8682   -3.8681   -1.0515   -0.7048   -0.7045    0.4986   11.2812   11.7665   11.7665   14.4581
   14.9666   14.9666   18.2405   18.4193   18.4193   19.9464   19.9464   21.5466   25.7494   25.7494
   26.5640   40.8494
siesta: Fermi energy =      -9.474437 eV

siesta: Program's energy decomposition (eV):
siesta: Ebs     =      -205.340332
siesta: Eions   =       380.620085
siesta: Ena     =       117.224464
siesta: Ekin    =       159.956782
siesta: Enl     =        46.706968
siesta: Eso     =         0.000000
siesta: Edftu   =         0.000000
siesta: DEna    =         8.549434
siesta: DUscf   =         1.143579
siesta: DUext   =         0.000000
siesta: Exc     =      -153.496338
siesta: eta*DQ  =         0.000000
siesta: Emadel  =         0.000000
siesta: Emeta   =         0.000000
siesta: Emolmec =        -5.544006
siesta: Ekinion =         0.000000
siesta: Eharris =      -206.079202
siesta: Etot    =      -206.079201
siesta: FreeEng =      -206.087505

siesta: Final energy (eV):
siesta:  Band Struct. =    -205.340332
siesta:       Kinetic =     159.956782
siesta:       Hartree =      77.890615
siesta:       Edftu   =       0.000000
siesta:       Eso     =       0.000000
siesta:    Ext. field =       0.000000
siesta:   Exch.-corr. =    -153.496338
siesta:  Ion-electron =    -361.893028
siesta:       Ion-ion =      77.006773
siesta:       Ekinion =       0.000000
siesta:         Total =    -206.079201
siesta:         Fermi =      -9.474437

siesta: Atomic forces (eV/Ang):
siesta:      1   -0.000000    0.000000   -0.000000
siesta:      2   -0.973047   -0.000013   -1.571965
siesta:      3    0.973047    0.000013    1.571965
siesta:      4    0.486513   -0.842690   -1.571965
siesta:      5   -0.486513    0.842690    1.571965
siesta:      6    0.486494    0.842632   -1.571999
siesta:      7   -0.486494   -0.842632    1.571999
siesta:      8    0.973047    0.000013   -1.571965
siesta:      9   -0.973047   -0.000013    1.571965
siesta:     10   -0.486513    0.842690   -1.571965
siesta:     11    0.486513   -0.842690    1.571965
siesta:     12   -0.486494   -0.842632   -1.571999
siesta:     13    0.486494    0.842632    1.571999
siesta: ----------------------------------------
siesta:    Tot   -0.000000    0.000000    0.000000

siesta: Stress tensor (static) (eV/Ang**3):
siesta:    -0.774489   -0.000007    0.000000
siesta:    -0.000007   -0.774497   -0.000000
siesta:     0.000000   -0.000000    0.398279

siesta: Cell volume =        126.334768 Ang**3

siesta: Pressure (static):
siesta:                Solid            Molecule  Units
siesta:           0.00417755          0.00285338  Ry/Bohr**3
siesta:           0.38356883          0.26198772  eV/Ang**3
siesta:         614.55165774        419.75514628  kBar
(Free)E+ p_basis*V_orbitals  =        -184.154941
(Free)Eharris+ p_basis*V_orbitals  =        -184.154942

cite: Please see "LiC12_scf.bib" for an exhaustive BiBTeX file.
cite: Please clearly indicate Siesta version in published work: 4.1.5
cite: This calculation has made use of the following articles
cite: which are encouraged to be cited in a published work.
        Primary SIESTA paper
          DOI: www.doi.org/10.1088/0953-8984/14/11/302

>> End of run:   9-NOV-2022   8:41:28
Job completed
