Siesta Version  : 4.1.5
Architecture    : x86_64-unknown-linux-gnu--unknown
Compiler version: GNU Fortran (GCC) 11.3.0
Compiler flags  : mpif90 -g -O2 -fallow-argument-mismatch
PP flags        : -DMPI -DFC_HAVE_FLUSH -DFC_HAVE_ABORT
Libraries       :  -I/global/software/sl-7.x86_64/modules/intel/2020.4.304/mkl/include  /globall/software/sl-7.x86_64/modules/intel/2020.4.304/mkl/lib/intel64/libmkl_scalapack_lp64.a -Wl,--start-group /global/software/sl-7.x86_64/modules/intel/2020.4.304/mkl/lib/intel64/libmkl_intel_lp64.a /global/software/sl-7.x86_64/modules/intel/2020.4.304/mkl/lib/intel64/libmkl_sequential.a /global/software/sl-7.x86_64/modules/intel/2020.4.304/mkl/lib/intel64/libmkl_core.a /global/software/sl-7.x86_64/modules/intel/2020.4.304/mkl/lib/intel64/libmkl_blacs_openmpi_lp64.a -Wl,--end-group -lpthread -lm -ldl
PARALLEL version

* Running on 12 nodes in parallel
>> Start of run:   9-NOV-2022   8:37:44

                           ***********************       
                           *  WELCOME TO SIESTA  *       
                           ***********************       

reinit: Reading from standard input
reinit: Dumped input in INPUT_TMP.31445
************************** Dump of input data file ****************************
SystemName LiC12_scf
SystemLabel LiC12_scf
NumberOfAtoms   13
NumberOfSpecies 2
%block ChemicalSpeciesLabel
1  3   Li-gga
2  6   C-gga
%endblock ChemicalSpeciesLabel
PAO.BasisSize  DZ
PAO.EnergyShift  10 meV
%block PS.Lmax
C-gga   2
Li-gga  2
%endblock PS.Lmax
LatticeConstant 1.000000 Ang
%block LatticeVectors
	4.2686000000	0.0000000000	0.0000000000
	-2.1343000000	3.6967160386	0.0000000000
	0.0000000000	0.0000000000	3.6519080000
%endblock LatticeVectors
AtomicCoordinatesFormat Ang
%block AtomicCoordinatesAndAtomicSpecies
	0.00000000	0.00000000	0.00000000	2
	1.42144380	0.00000000	0.91297700	1
	2.84715620	0.00000000	2.73893100	1
	-0.71072190	1.23100644	0.91297700	1
	-1.42357810	2.46570960	2.73893100	1
	1.42357810	2.46570960	0.91297700	1
	0.71072190	1.23100644	2.73893100	1
	2.84715620	0.00000000	0.91297700	1
	1.42144380	0.00000000	2.73893100	1
	-1.42357810	2.46570960	0.91297700	1
	-0.71072190	1.23100644	2.73893100	1
	0.71072190	1.23100644	0.91297700	1
	1.42357810	2.46570960	2.73893100	1
%endblock AtomicCoordinatesAndAtomicSpecies
Kgrid_NoTRS  T
%block kgrid_MonkhorstPack
3       0       0       0.0
0       3       0       0.0
0       0       3       0.0
%endblock kgrid_MonkhorstPack
AtomCoorFormatOut Ang
BlockSize 1
#ProcessorY 12
Diag.ParallelOverK   T
Diag.DivideAndConquer F
MeshCutoff   300 Ry
SCF.FreeE.Tolerance 1E-3 eV
SCF.EDM.Tolerance   5E-3 eV
DM.Tolerance  1E-3
DM.Require.Energy.Convergence T
DM.NumberPulay 4
XC.Functional GGA
XC.Authors    PBE
UseSaveData        F
MD.TypeOfRun       CG
MD.VariableCell    F
MD.NumCGsteps      00
MD.MaxCGDispl      0.200000 Bohr
MD.MaxStressTol    1.000000 GPa
MD.MaxForceTol     0.010000 eV/Ang
WriteMDHistory T
WriteCoorStep T
WriteForces T
WriteCoorStep    T
WriteEigenValues T
WriteDM    F
MM.UnitsDistance Ang  # what this program prints out DO NOT CHANGE
MM.UnitsEnergy    eV  # what this program prints out DO NOT CHANGE
MM.Grimme.S6     0.75 # Grimme-paper for PBE (correct for your functional)
MM.Grimme.D     20.   # Grimme-paper (correct for your functional)
%block MM.Potentials
  1   1 Grimme     16.69      1.650 # Li, 10.1002/jcc.20495
  1   2 Grimme     17.40      2.277 # Li / C
  2   2 Grimme     18.14      2.904 # C, 10.1002/jcc.20495
%endblock MM.Potentials
#%block ProjectedDensityOfStates
# -200.0  120.0  0.4  12800  eV
#%endblock ProjectedDensityOfStates
************************** End of input data file *****************************

reinit: -----------------------------------------------------------------------
reinit: System Name: LiC12_scf
reinit: -----------------------------------------------------------------------
reinit: System Label: LiC12_scf
reinit: -----------------------------------------------------------------------
Reading two-body potentials
Grimme - two-body potential between 1 and 1
Grimme - two-body potential between 1 and 2
Grimme - two-body potential between 2 and 2

initatom: Reading input for the pseudopotentials and atomic orbitals ----------
Species number:   1 Atomic number:    3 Label: Li-gga
Species number:   2 Atomic number:    6 Label: C-gga

Ground state valence configuration:   2s01
Reading pseudopotential information in formatted form from Li-gga.psf

Valence configuration for pseudopotential generation:
2s( 1.00) rc: 2.28
2p( 0.00) rc: 2.28
3d( 0.00) rc: 2.59
4f( 0.00) rc: 2.59
Ground state valence configuration:   2s02  2p02
Reading pseudopotential information in formatted form from C-gga.psf

Valence configuration for pseudopotential generation:
2s( 2.00) rc: 1.56
2p( 2.00) rc: 1.56
3d( 0.00) rc: 1.56
4f( 0.00) rc: 1.56
relmxkb: Read Max KB Ang. Momentum=    2 for species C-gga
relmxkb: Read Max KB Ang. Momentum=    2 for species Li-gga

<basis_specs>
===============================================================================
Li-gga               Z=   3    Mass=  6.9400        Charge= 0.17977+309
Lmxo=0 Lmxkb= 2    BasisType=split      Semic=F
L=0  Nsemic=0  Cnfigmx=2
          i=1  nzeta=2  polorb=0  (2s)
            splnorm:   0.15000    
               vcte:    0.0000    
               rinn:    0.0000    
               qcoe:    0.0000    
               qyuk:    0.0000    
               qwid:   0.10000E-01
                rcs:    0.0000      0.0000    
            lambdas:    1.0000      1.0000    
-------------------------------------------------------------------------------
L=0  Nkbl=1  erefs: 0.17977+309
L=1  Nkbl=1  erefs: 0.17977+309
L=2  Nkbl=1  erefs: 0.17977+309
===============================================================================
</basis_specs>

atom: Called for Li-gga                (Z =   3)

read_vps: Pseudopotential generation method:
read_vps: ATM 3.2.2 Troullier-Martins                       
Valence charge for ps generation:    1.00000

read_vps: Pseudopotential includes a core correction:
read_vps: Pseudo-core for xc-correction

xc_check: Exchange-correlation functional:
xc_check: GGA Perdew, Burke & Ernzerhof 1996
V l=0 = -2*Zval/r beyond r=  2.2278
V l=1 = -2*Zval/r beyond r=  2.2278
V l=2 = -2*Zval/r beyond r=  2.5245
All V_l potentials equal beyond r=  2.4622
This should be close to max(r_c) in ps generation
All pots = -2*Zval/r beyond r=  2.5245

VLOCAL1: 99.0% of the norm of Vloc inside      7.160 Ry
VLOCAL1: 99.9% of the norm of Vloc inside     16.318 Ry
atom: Maximum radius for 4*pi*r*r*local-pseudopot. charge    2.86079
atom: Maximum radius for r*vlocal+2*Zval:    2.43160
GHOST: No ghost state for L =  0
GHOST: No ghost state for L =  1
GHOST: No ghost state for L =  2

KBgen: Kleinman-Bylander projectors: 
   l= 0   rc=  2.654023   el= -0.211234   Ekb=  1.742119   kbcos=  0.228463
   l= 1   rc=  2.721230   el= -0.080095   Ekb= -1.122375   kbcos= -0.147941
   l= 2   rc=  2.825246   el=  0.002001   Ekb= -0.207076   kbcos= -0.031965

KBgen: Total number of Kleinman-Bylander projectors:    9
atom: -------------------------------------------------------------------------

atom: SANKEY-TYPE ORBITALS:
atom: Selected multiple-zeta basis: split     

SPLIT: Orbitals with angular momentum L= 0

SPLIT: Basis orbitals for state 2s

SPLIT: PAO cut-off radius determined from an
SPLIT: energy shift=  0.000735 Ry

   izeta = 1
                 lambda =    1.000000
                     rc =   11.897381
                 energy =   -0.210580
                kinetic =    0.143382
    potential(screened) =   -0.353962
       potential(ionic) =   -0.533453

   izeta = 2
                 rmatch =    8.489163
              splitnorm =    0.150000
                 energy =   -0.186081
                kinetic =    0.225882
    potential(screened) =   -0.411964
       potential(ionic) =   -0.593024
atom: Total number of Sankey-type orbitals:  2

atm_pop: Valence configuration (for local Pseudopot. screening):
 2s( 1.00)                                                            
Vna: chval, zval:    1.00000   1.00000

Vna:  Cut-off radius for the neutral-atom potential:  11.897381
comcore: Pseudo-core radius Rcore=  3.450946

atom: _________________________________________________________________________

<basis_specs>
===============================================================================
C-gga                Z=   6    Mass=  12.010        Charge= 0.17977+309
Lmxo=1 Lmxkb= 2    BasisType=split      Semic=F
L=0  Nsemic=0  Cnfigmx=2
          i=1  nzeta=2  polorb=0  (2s)
            splnorm:   0.15000    
               vcte:    0.0000    
               rinn:    0.0000    
               qcoe:    0.0000    
               qyuk:    0.0000    
               qwid:   0.10000E-01
                rcs:    0.0000      0.0000    
            lambdas:    1.0000      1.0000    
L=1  Nsemic=0  Cnfigmx=2
          i=1  nzeta=2  polorb=0  (2p)
            splnorm:   0.15000    
               vcte:    0.0000    
               rinn:    0.0000    
               qcoe:    0.0000    
               qyuk:    0.0000    
               qwid:   0.10000E-01
                rcs:    0.0000      0.0000    
            lambdas:    1.0000      1.0000    
-------------------------------------------------------------------------------
L=0  Nkbl=1  erefs: 0.17977+309
L=1  Nkbl=1  erefs: 0.17977+309
L=2  Nkbl=1  erefs: 0.17977+309
===============================================================================
</basis_specs>

atom: Called for C-gga                 (Z =   6)

read_vps: Pseudopotential generation method:
read_vps: ATM 3.2.2 Troullier-Martins                       
Valence charge for ps generation:    4.00000

xc_check: Exchange-correlation functional:
xc_check: GGA Perdew, Burke & Ernzerhof 1996
V l=0 = -2*Zval/r beyond r=  1.5227
V l=1 = -2*Zval/r beyond r=  1.5227
V l=2 = -2*Zval/r beyond r=  1.5227
All V_l potentials equal beyond r=  1.4851
This should be close to max(r_c) in ps generation
All pots = -2*Zval/r beyond r=  1.5227

VLOCAL1: 99.0% of the norm of Vloc inside     19.682 Ry
VLOCAL1: 99.9% of the norm of Vloc inside     44.856 Ry
atom: Maximum radius for 4*pi*r*r*local-pseudopot. charge    1.79142
atom: Maximum radius for r*vlocal+2*Zval:    1.54183
GHOST: No ghost state for L =  0
GHOST: No ghost state for L =  1
GHOST: No ghost state for L =  2

KBgen: Kleinman-Bylander projectors: 
   l= 0   rc=  1.661951   el= -1.010689   Ekb=  5.289847   kbcos=  0.316429
   l= 1   rc=  1.661951   el= -0.388490   Ekb= -4.102504   kbcos= -0.351025
   l= 2   rc=  1.747182   el=  0.001971   Ekb= -1.006005   kbcos= -0.008530

KBgen: Total number of Kleinman-Bylander projectors:    9
atom: -------------------------------------------------------------------------

atom: SANKEY-TYPE ORBITALS:
atom: Selected multiple-zeta basis: split     

SPLIT: Orbitals with angular momentum L= 0

SPLIT: Basis orbitals for state 2s

SPLIT: PAO cut-off radius determined from an
SPLIT: energy shift=  0.000735 Ry

   izeta = 1
                 lambda =    1.000000
                     rc =    5.948690
                 energy =   -1.010099
                kinetic =    0.827121
    potential(screened) =   -1.837220
       potential(ionic) =   -5.392783

   izeta = 2
                 rmatch =    3.518811
              splitnorm =    0.150000
                 energy =   -0.877891
                kinetic =    1.289227
    potential(screened) =   -2.167118
       potential(ionic) =   -5.982073

SPLIT: Orbitals with angular momentum L= 1

SPLIT: Basis orbitals for state 2p

SPLIT: PAO cut-off radius determined from an
SPLIT: energy shift=  0.000735 Ry

   izeta = 1
                 lambda =    1.000000
                     rc =    7.638387
                 energy =   -0.387843
                kinetic =    2.314739
    potential(screened) =   -2.702582
       potential(ionic) =   -6.092371

   izeta = 2
                 rmatch =    3.840617
              splitnorm =    0.150000
                 energy =   -0.270479
                kinetic =    3.438347
    potential(screened) =   -3.708826
       potential(ionic) =   -7.497707
atom: Total number of Sankey-type orbitals:  8

atm_pop: Valence configuration (for local Pseudopot. screening):
 2s( 2.00)                                                            
 2p( 2.00)                                                            
Vna: chval, zval:    4.00000   4.00000

Vna:  Cut-off radius for the neutral-atom potential:   7.638387

atom: _________________________________________________________________________

prinput: Basis input ----------------------------------------------------------

PAO.BasisType split     

%block ChemicalSpeciesLabel
    1    3 Li-gga                  # Species index, atomic number, species label
    2    6 C-gga                   # Species index, atomic number, species label
%endblock ChemicalSpeciesLabel

%block PAO.Basis                 # Define Basis set
Li-gga                1                    # Species label, number of l-shells
 n=2   0   2                         # n, l, Nzeta 
  11.897      8.489   
   1.000      1.000   
C-gga                 2                    # Species label, number of l-shells
 n=2   0   2                         # n, l, Nzeta 
   5.949      3.519   
   1.000      1.000   
 n=2   1   2                         # n, l, Nzeta 
   7.638      3.841   
   1.000      1.000   
%endblock PAO.Basis

prinput: ----------------------------------------------------------------------

coor:   Atomic-coordinates input format  =     Cartesian coordinates
coor:                                          (in Angstroms)

siesta: Atomic coordinates (Bohr) and species
siesta:      0.00000   0.00000   0.00000  2        1
siesta:      2.68614   0.00000   1.72528  1        2
siesta:      5.38035   0.00000   5.17583  1        3
siesta:     -1.34307   2.32627   1.72528  1        4
siesta:     -2.69017   4.65952   5.17583  1        5
siesta:      2.69017   4.65952   1.72528  1        6
siesta:      1.34307   2.32627   5.17583  1        7
siesta:      5.38035   0.00000   1.72528  1        8
siesta:      2.68614   0.00000   5.17583  1        9
siesta:     -2.69017   4.65952   1.72528  1       10
siesta:     -1.34307   2.32627   5.17583  1       11
siesta:      1.34307   2.32627   1.72528  1       12
siesta:      2.69017   4.65952   5.17583  1       13

siesta: System type = bulk      

initatomlists: Number of atoms, orbitals, and projectors:     13    32   117

siesta: ******************** Simulation parameters ****************************
siesta:
siesta: The following are some of the parameters of the simulation.
siesta: A complete list of the parameters used, including default values,
siesta: can be found in file out.fdf
siesta:
redata: Spin configuration                          = none
redata: Number of spin components                   = 1
redata: Time-Reversal Symmetry                      = T
redata: Spin spiral                                 = F
redata: Long output                                 =   F
redata: Number of Atomic Species                    =        2
redata: Charge density info will appear in .RHO file
redata: Write Mulliken Pop.                         = NO
redata: Matel table size (NRTAB)                    =     1024
redata: Mesh Cutoff                                 =   300.0000 Ry
redata: Net charge of the system                    =     0.0000 |e|
redata: Min. number of SCF Iter                     =        0
redata: Max. number of SCF Iter                     =     1000
redata: SCF convergence failure will abort job
redata: SCF mix quantity                            = Hamiltonian
redata: Mix DM or H after convergence               =   F
redata: Recompute H after scf cycle                 =   F
redata: Mix DM in first SCF step                    =   T
redata: Write Pulay info on disk                    =   F
redata: New DM Occupancy tolerance                  = 0.000000000001
redata: No kicks to SCF
redata: DM Mixing Weight for Kicks                  =     0.5000
redata: Require Harris convergence for SCF          =   F
redata: Harris energy tolerance for SCF             =     0.000100 eV
redata: Require DM convergence for SCF              =   T
redata: DM tolerance for SCF                        =     0.001000
redata: Require EDM convergence for SCF             =   F
redata: EDM tolerance for SCF                       =     0.005000 eV
redata: Require H convergence for SCF               =   T
redata: Hamiltonian tolerance for SCF               =     0.001000 eV
redata: Require (free) Energy convergence for SCF   =   T
redata: (free) Energy tolerance for SCF             =     0.001000 eV
redata: Using Saved Data (generic)                  =   F
redata: Use continuation files for DM               =   F
redata: Neglect nonoverlap interactions             =   F
redata: Method of Calculation                       = Diagonalization
redata: Electronic Temperature                      =   299.9869 K
redata: Fix the spin of the system                  =   F
redata: Dynamics option                             = Single-point calculation
mix.SCF: Pulay mixing                            = Pulay
mix.SCF:    Variant                              = stable
mix.SCF:    History steps                        = 4
mix.SCF:    Linear mixing weight                 =     0.250000
mix.SCF:    Mixing weight                        =     0.250000
mix.SCF:    SVD condition                        = 0.1000E-07
redata: ***********************************************************************

%block SCF.Mixers
  Pulay
%endblock SCF.Mixers

%block SCF.Mixer.Pulay
  # Mixing method
  method pulay
  variant stable

  # Mixing options
  weight 0.2500
  weight.linear 0.2500
  history 4
%endblock SCF.Mixer.Pulay

DM_history_depth set to one: no extrapolation allowed by default for geometry relaxation
Size of DM history Fstack: 1
Total number of electrons:    16.000000
Total ionic charge:    16.000000

* ProcessorY, Blocksize:    3   1


* Orbital distribution balance (max,min):     3     2

 Kpoints in:           18 . Kpoints trimmed:           14

siesta: k-grid: Number of k-points =    14
siesta: k-grid: Cutoff (effective) =     5.478 Ang
siesta: k-grid: Supercell and displacements
siesta: k-grid:    3   0   0      0.000
siesta: k-grid:    0   3   0      0.000
siesta: k-grid:    0   0   3      0.000

diag: Algorithm                                     = Expert
diag: Parallel over k                               =   T
diag: Use parallel 2D distribution                  =   T
diag: Parallel block-size                           = 1
diag: Parallel distribution                         =     3 x     4
diag: Used triangular part                          = Lower
diag: Absolute tolerance                            =  0.100E-15
diag: Orthogonalization factor                      =  0.100E-05
diag: Memory factor                                 =  1.0000

superc: Internal auxiliary supercell:     9 x     9 x     9  =     729
superc: Number of atoms, orbitals, and projectors:   9477  23328  85293


ts: **************************************************************
ts: Save H and S matrices                           =    F
ts: Save DM and EDM matrices                        =    F
ts: Only save the overlap matrix S                  =    F
ts: **************************************************************

************************ Begin: TS CHECKS AND WARNINGS ************************
************************ End: TS CHECKS AND WARNINGS **************************


                     ====================================
                        Single-point calculation
                     ====================================

outcoor: Atomic coordinates (Ang):                          
    0.00000000    0.00000000    0.00000000   2       1  C-gga
    1.42144380    0.00000000    0.91297700   1       2  Li-gga
    2.84715620    0.00000000    2.73893100   1       3  Li-gga
   -0.71072190    1.23100644    0.91297700   1       4  Li-gga
   -1.42357810    2.46570960    2.73893100   1       5  Li-gga
    1.42357810    2.46570960    0.91297700   1       6  Li-gga
    0.71072190    1.23100644    2.73893100   1       7  Li-gga
    2.84715620    0.00000000    0.91297700   1       8  Li-gga
    1.42144380    0.00000000    2.73893100   1       9  Li-gga
   -1.42357810    2.46570960    0.91297700   1      10  Li-gga
   -0.71072190    1.23100644    2.73893100   1      11  Li-gga
    0.71072190    1.23100644    0.91297700   1      12  Li-gga
    1.42357810    2.46570960    2.73893100   1      13  Li-gga

superc: Internal auxiliary supercell:     9 x     9 x     9  =     729
superc: Number of atoms, orbitals, and projectors:   9477  23328  85293

outcell: Unit cell vectors (Ang):
        4.268600    0.000000    0.000000
       -2.134300    3.696716    0.000000
        0.000000    0.000000    3.651908

outcell: Cell vector modules (Ang)   :    4.268600    4.268600    3.651908
outcell: Cell angles (23,13,12) (deg):     90.0000     90.0000    120.0000
outcell: Cell volume (Ang**3)        :     57.6264
<dSpData1D:S at geom step 0
  <sparsity:sparsity for geom step 0
    nrows_g=32 nrows=3 sparsity=13.8984 nnzs=14232, refcount: 7>
  <dData1D:(new from dSpData1D) n=14232, refcount: 1>
refcount: 1>
new_DM -- step:     1
Initializing Density Matrix...
DM filled with atomic data:
<dSpData2D:DM initialized from atoms
  <sparsity:sparsity for geom step 0
    nrows_g=32 nrows=3 sparsity=13.8984 nnzs=14232, refcount: 8>
  <dData2D:DM n=14232 m=1, refcount: 1>
refcount: 1>
No. of atoms with KB's overlaping orbs in proc 0. Max # of overlaps:     514     661
New grid distribution:   1
           1       1:   20    1:    7    1:    5
           2       1:   20    1:    7    6:   10
           3       1:   20    1:    7   11:   15
           4       1:   20    1:    7   16:   20
           5       1:   20    8:   14    1:    5
           6       1:   20    8:   14    6:   10
           7       1:   20    8:   14   11:   15
           8       1:   20    8:   14   16:   20
           9       1:   20   15:   20    1:    5
          10       1:   20   15:   20    6:   10
          11       1:   20   15:   20   11:   15
          12       1:   20   15:   20   16:   20

InitMesh: MESH =    40 x    40 x    40 =       64000
InitMesh: (bp) =    20 x    20 x    20 =        8000
InitMesh: Mesh cutoff (required, used) =   300.000   323.586 Ry
ExtMesh (bp) on 0 =   160 x   147 x   145 =     3410400
New grid distribution:   2
           1       1:    7    1:   10    1:   10
           2       8:   20   11:   20   11:   15
           3       1:    7    1:   10   11:   20
           4       8:   20    1:   10    1:    5
           5       8:   20   11:   20    1:    5
           6       8:   20    1:   10    6:   10
           7       1:    7   11:   20   11:   20
           8       8:   20    1:   10   16:   20
           9       1:    7   11:   20    1:   10
          10       8:   20    1:   10   11:   15
          11       8:   20   11:   20    6:   10
          12       8:   20   11:   20   16:   20
New grid distribution:   3
           1       1:    7    1:   10    1:   10
           2       8:   20   11:   20   11:   15
           3       1:    7    1:   10   11:   20
           4       8:   20    1:   10    1:    5
           5       8:   20   11:   20    1:    5
           6       8:   20    1:   10    6:   10
           7       1:    7   11:   20   11:   20
           8       8:   20    1:   10   16:   20
           9       1:    7   11:   20    1:   10
          10       8:   20    1:   10   11:   15
          11       8:   20   11:   20    6:   10
          12       8:   20   11:   20   16:   20
Setting up quadratic distribution...
ExtMesh (bp) on 0 =   147 x   150 x   150 =     3307500
PhiOnMesh: Number of (b)points on node 0 =                  700
PhiOnMesh: nlist on node 0 =               229781

stepf: Fermi-Dirac step function

siesta: Program's energy decomposition (eV):
siesta: Ebs     =      -317.154912
siesta: Eions   =       380.620085
siesta: Ena     =        73.535549
siesta: Ekin    =       343.299263
siesta: Enl     =        -1.646863
siesta: Eso     =         0.000000
siesta: Edftu   =         0.000000
siesta: DEna    =       -52.762749
siesta: DUscf   =        36.036392
siesta: DUext   =         0.000000
siesta: Exc     =      -201.522999
siesta: eta*DQ  =         0.000000
siesta: Emadel  =         0.000000
siesta: Emeta   =         0.000000
siesta: Emolmec =       -14.109708
siesta: Ekinion =         0.000000
siesta: Eharris =      -139.996600
siesta: Etot    =      -197.791200
siesta: FreeEng =      -197.797791

        iscf     Eharris(eV)        E_KS(eV)     FreeEng(eV)     dDmax    Ef(eV) dHmax(eV)
   scf:    1     -139.996600     -197.791200     -197.797791139.259171-18.226049 20.868198
timer: Routine,Calls,Time,% = IterSCF        1       2.594  22.18
   scf:    2     -220.695016     -210.733244     -210.739835 51.026099-18.620338  8.827495
   scf:    3     -213.446023     -213.775414     -213.779722 50.251467-17.909959  2.292422
   scf:    4     -212.780096     -213.645513     -213.649857 23.011349-18.565922  2.785232
   scf:    5     -214.141507     -213.941156     -213.945675  8.467854-18.243564  0.922004
   scf:    6     -213.959662     -213.973574     -213.981468  4.623678-18.147842  0.220431
   scf:    7     -213.977063     -213.975836     -213.983774  0.635940-18.155118  0.059691
   scf:    8     -213.975542     -213.976034     -213.983739  0.526572-18.162979  0.069800
   scf:    9     -213.976043     -213.976125     -213.983975  0.254199-18.161112  0.002280
   scf:   10     -213.976107     -213.976116     -213.983975  0.019982-18.160917  0.002410
   scf:   11     -213.976124     -213.976120     -213.983975  0.009946-18.161058  0.000040
   scf:   12     -213.976120     -213.976120     -213.983975  0.000155-18.161056  0.000020

SCF Convergence by FreeE+DM+H criterion
|FreeE_i-FreeE_(i-1)| (eV) <     0.00100000
max |DM_out - DM_in|         :     0.0001547607
max |H_out - H_in|      (eV) :     0.0000200177
SCF cycle converged after 12 iterations

Using DM_out to compute the final energy and forces
No. of atoms with KB's overlaping orbs in proc 0. Max # of overlaps:     514     661

MM-Stress (kbar):      247.97      247.97      871.23       -0.00       -0.00        0.00

siesta: E_KS(eV) =             -213.9761

siesta: E_KS - E_eggbox =      -213.9761

siesta: Atomic forces (eV/Ang):
     1    0.000000    0.000000   -0.000000
     2    1.751184   -0.000009    0.880833
     3   -1.751184    0.000009   -0.880833
     4   -0.875600    1.516565    0.880833
     5    0.875600   -1.516565   -0.880833
     6   -0.875539   -1.516478    0.880714
     7    0.875539    1.516478   -0.880714
     8   -1.751184    0.000009    0.880833
     9    1.751184   -0.000009   -0.880833
    10    0.875600   -1.516565    0.880833
    11   -0.875600    1.516565   -0.880833
    12    0.875539    1.516478    0.880714
    13   -0.875539   -1.516478   -0.880714
----------------------------------------
   Tot    0.000000    0.000000    0.000000
----------------------------------------
   Max    1.751184
   Res    1.087314    sqrt( Sum f_i^2 / 3N )
----------------------------------------
   Max    1.751184    constrained

Stress tensor Voigt[x,y,z,yz,xz,xy] (kbar):    -3080.62    -3080.67    -2304.93        0.00        0.00       -0.05
(Free)E + p*V (eV/cell)     -112.4820
Target enthalpy (eV/cell)     -213.9840

siesta: Eigenvalues (eV):
  ik is       eps
   1  1  -32.3380  -26.3541  -26.3541  -24.6072  -24.6069  -23.0423  -22.0313  -11.6686  -11.6686   -8.4534
          -8.3667   -8.3662   -4.7562   -4.7560   -3.6859    0.5031    6.1213    6.1213    7.8544    8.5647
    8.5647   10.7807   12.8661   12.8661   15.2090   31.1306   31.1306   32.0580   89.7367  148.9008
  148.9009  165.6153
   2  1  -32.7503  -26.8144  -26.3032  -23.8834  -23.4197  -22.6066  -21.0077  -17.5433  -12.5044   -9.2855
          -8.0334   -3.2838   -2.1805   -1.1152    2.4300    3.3824    8.4783    8.8850    9.0015    9.4877
   10.5356   13.2414   15.0992   16.4599   16.9315   24.1463   27.4655   32.4194   46.0858   52.5839
   69.4440   83.8730
   3  1  -32.7503  -26.8144  -26.3032  -23.8832  -23.4199  -22.6067  -21.0077  -17.5433  -12.5044   -9.2853
          -8.0337   -3.2836   -2.1806   -1.1152    2.4299    3.3824    8.4783    8.8850    9.0015    9.4878
   10.5356   13.2414   15.0992   16.4599   16.9315   24.1463   27.4654   32.4194   46.0858   52.5838
   69.4439   83.8731
   4  1  -32.7503  -26.8144  -26.3032  -23.8834  -23.4197  -22.6066  -21.0077  -17.5433  -12.5044   -9.2855
          -8.0334   -3.2838   -2.1805   -1.1152    2.4300    3.3824    8.4783    8.8850    9.0015    9.4877
   10.5356   13.2414   15.0992   16.4599   16.9315   24.1463   27.4655   32.4194   46.0858   52.5839
   69.4440   83.8730
   5  1  -33.0805  -27.2109  -23.7727  -23.7725  -21.8273  -18.1509  -18.1509  -10.5632  -10.5625  -10.5267
          -9.7199   -0.4928   -0.4928   -0.3123   -0.3123    6.9923   10.6980   11.9473   11.9473   13.0656
   19.7802   45.2524   45.2524   45.9066   45.9067   48.6938   48.6938   58.8443   80.8556   80.8556
  200.5325  393.7630
   6  1  -32.0807  -26.3667  -26.2590  -26.2589  -25.1158  -25.1158  -20.9355  -20.9351  -18.1661  -13.9975
          -5.0002   -4.9998   -3.6249    3.3300    5.6878    5.6878    6.5883    9.8344    9.8344   10.1559
   10.1559   11.4601   21.2758   21.2758   23.2240   32.8493   34.2422   34.2422   40.7928   47.1159
   47.1159   72.1140
   7  1  -32.3430  -26.6205  -26.5223  -25.6947  -24.9564  -24.2258  -22.5580  -20.2541  -18.8049  -13.7024
         -13.0096   -4.7531   -2.8635   -0.9381    5.3642    6.7273    7.2067    8.5569    9.0074    9.4705
   13.6391   14.2759   14.7975   18.5707   18.7127   22.1294   27.8847   32.6139   34.6663   41.0480
   46.0318   59.6380
   8  1  -32.3430  -26.6205  -26.5223  -25.6947  -24.9564  -24.2260  -22.5579  -20.2540  -18.8050  -13.7024
         -13.0098   -4.7528   -2.8637   -0.9380    5.3642    6.7272    7.2067    8.5569    9.0074    9.4705
   13.6391   14.2759   14.7975   18.5707   18.7127   22.1294   27.8847   32.6138   34.6663   41.0479
   46.0318   59.6379
   9  1  -32.3430  -26.6205  -26.5223  -25.6947  -24.9564  -24.2258  -22.5580  -20.2541  -18.8049  -13.7024
         -13.0096   -4.7531   -2.8635   -0.9381    5.3642    6.7273    7.2067    8.5569    9.0074    9.4705
   13.6391   14.2759   14.7975   18.5707   18.7127   22.1294   27.8847   32.6139   34.6663   41.0480
   46.0318   59.6380
  10  1  -32.5032  -26.7133  -25.4108  -24.7853  -24.4756  -24.4753  -17.2183  -17.2183  -15.0485  -15.0484
         -12.6915  -12.6914  -10.6654   -3.5266   -3.5260    1.1480    8.0312    9.2711    9.2711    9.6131
    9.6132   10.3081   12.0701   16.8456   16.8456   17.4460   17.4461   21.3104   23.9622   85.4332
   85.4332   90.8398
  11  1  -32.3430  -26.6205  -26.5223  -25.6947  -24.9564  -24.2258  -22.5580  -20.2541  -18.8049  -13.7024
         -13.0096   -4.7531   -2.8635   -0.9381    5.3642    6.7273    7.2067    8.5569    9.0074    9.4705
   13.6391   14.2759   14.7975   18.5707   18.7127   22.1294   27.8847   32.6139   34.6663   41.0480
   46.0318   59.6380
  12  1  -32.3430  -26.6205  -26.5223  -25.6947  -24.9564  -24.2260  -22.5579  -20.2540  -18.8050  -13.7024
         -13.0098   -4.7528   -2.8637   -0.9380    5.3642    6.7272    7.2067    8.5569    9.0074    9.4705
   13.6391   14.2759   14.7975   18.5707   18.7127   22.1294   27.8847   32.6138   34.6663   41.0479
   46.0318   59.6379
  13  1  -32.3430  -26.6205  -26.5223  -25.6947  -24.9564  -24.2258  -22.5580  -20.2541  -18.8049  -13.7024
         -13.0096   -4.7531   -2.8635   -0.9381    5.3642    6.7273    7.2067    8.5569    9.0074    9.4705
   13.6391   14.2759   14.7975   18.5707   18.7127   22.1294   27.8847   32.6139   34.6663   41.0480
   46.0318   59.6380
  14  1  -32.0807  -26.3667  -26.2590  -26.2589  -25.1158  -25.1158  -20.9355  -20.9351  -18.1661  -13.9975
          -5.0002   -4.9998   -3.6249    3.3300    5.6878    5.6878    6.5883    9.8344    9.8344   10.1559
   10.1559   11.4601   21.2758   21.2758   23.2240   32.8493   34.2422   34.2422   40.7928   47.1159
   47.1159   72.1140
siesta: Fermi energy =     -18.161056 eV

siesta: Program's energy decomposition (eV):
siesta: Ebs     =      -399.724665
siesta: Eions   =       380.620085
siesta: Ena     =        73.535549
siesta: Ekin    =       279.543581
siesta: Enl     =        23.113505
siesta: Eso     =         0.000000
siesta: Edftu   =         0.000000
siesta: DEna    =       -14.305866
siesta: DUscf   =         8.050460
siesta: DUext   =         0.000000
siesta: Exc     =      -189.183556
siesta: eta*DQ  =         0.000000
siesta: Emadel  =         0.000000
siesta: Emeta   =         0.000000
siesta: Emolmec =       -14.109708
siesta: Ekinion =         0.000000
siesta: Eharris =      -213.976120
siesta: Etot    =      -213.976120
siesta: FreeEng =      -213.983975

siesta: Final energy (eV):
siesta:  Band Struct. =    -399.724665
siesta:       Kinetic =     279.543581
siesta:       Hartree =      80.782354
siesta:       Edftu   =       0.000000
siesta:       Eso     =       0.000000
siesta:    Ext. field =       0.000000
siesta:   Exch.-corr. =    -189.183556
siesta:  Ion-electron =    -636.956541
siesta:       Ion-ion =     265.947750
siesta:       Ekinion =       0.000000
siesta:         Total =    -213.976120
siesta:         Fermi =     -18.161056

siesta: Atomic forces (eV/Ang):
siesta:      1    0.000000    0.000000   -0.000000
siesta:      2    1.751184   -0.000009    0.880833
siesta:      3   -1.751184    0.000009   -0.880833
siesta:      4   -0.875600    1.516565    0.880833
siesta:      5    0.875600   -1.516565   -0.880833
siesta:      6   -0.875539   -1.516478    0.880714
siesta:      7    0.875539    1.516478   -0.880714
siesta:      8   -1.751184    0.000009    0.880833
siesta:      9    1.751184   -0.000009   -0.880833
siesta:     10    0.875600   -1.516565    0.880833
siesta:     11   -0.875600    1.516565   -0.880833
siesta:     12    0.875539    1.516478    0.880714
siesta:     13   -0.875539   -1.516478   -0.880714
siesta: ----------------------------------------
siesta:    Tot    0.000000    0.000000    0.000000

siesta: Stress tensor (static) (eV/Ang**3):
siesta:    -1.922751   -0.000029    0.000000
siesta:    -0.000029   -1.922784    0.000000
siesta:     0.000000    0.000000   -1.438606

siesta: Cell volume =         57.626385 Ang**3

siesta: Pressure (static):
siesta:                Solid            Molecule  Units
siesta:           0.01918368          0.02073533  Ry/Bohr**3
siesta:           1.76138057          1.90384735  eV/Ang**3
siesta:        2822.07329783       3050.33271363  kBar
(Free)E+ p_basis*V_orbitals  =        -192.051411
(Free)Eharris+ p_basis*V_orbitals  =        -192.051411

cite: Please see "LiC12_scf.bib" for an exhaustive BiBTeX file.
cite: Please clearly indicate Siesta version in published work: 4.1.5
cite: This calculation has made use of the following articles
cite: which are encouraged to be cited in a published work.
        Primary SIESTA paper
          DOI: www.doi.org/10.1088/0953-8984/14/11/302

>> End of run:   9-NOV-2022   8:38:19
Job completed
