Siesta Version  : 4.1.5
Architecture    : x86_64-unknown-linux-gnu--unknown
Compiler version: GNU Fortran (GCC) 11.3.0
Compiler flags  : mpif90 -g -O2 -fallow-argument-mismatch
PP flags        : -DMPI -DFC_HAVE_FLUSH -DFC_HAVE_ABORT
Libraries       :  -I/global/software/sl-7.x86_64/modules/intel/2020.4.304/mkl/include  /globall/software/sl-7.x86_64/modules/intel/2020.4.304/mkl/lib/intel64/libmkl_scalapack_lp64.a -Wl,--start-group /global/software/sl-7.x86_64/modules/intel/2020.4.304/mkl/lib/intel64/libmkl_intel_lp64.a /global/software/sl-7.x86_64/modules/intel/2020.4.304/mkl/lib/intel64/libmkl_sequential.a /global/software/sl-7.x86_64/modules/intel/2020.4.304/mkl/lib/intel64/libmkl_core.a /global/software/sl-7.x86_64/modules/intel/2020.4.304/mkl/lib/intel64/libmkl_blacs_openmpi_lp64.a -Wl,--end-group -lpthread -lm -ldl
PARALLEL version

* Running on 12 nodes in parallel
>> Start of run:   9-NOV-2022   8:44:03

                           ***********************       
                           *  WELCOME TO SIESTA  *       
                           ***********************       

reinit: Reading from standard input
reinit: Dumped input in INPUT_TMP.10485
************************** Dump of input data file ****************************
SystemName LiC12_scf
SystemLabel LiC12_scf
NumberOfAtoms   13
NumberOfSpecies 2
%block ChemicalSpeciesLabel
1  3   Li-gga
2  6   C-gga
%endblock ChemicalSpeciesLabel
PAO.BasisSize  DZ
PAO.EnergyShift  10 meV
%block PS.Lmax
C-gga   2
Li-gga  2
%endblock PS.Lmax
LatticeConstant 1.000000 Ang
%block LatticeVectors
	4.2686000000	0.0000000000	0.0000000000
	-2.1343000000	3.6967160386	0.0000000000
	0.0000000000	0.0000000000	9.5511440000
%endblock LatticeVectors
AtomicCoordinatesFormat Ang
%block AtomicCoordinatesAndAtomicSpecies
	0.00000000	0.00000000	0.00000000	2
	1.42144380	0.00000000	2.38778600	1
	2.84715620	0.00000000	7.16335800	1
	-0.71072190	1.23100644	2.38778600	1
	-1.42357810	2.46570960	7.16335800	1
	1.42357810	2.46570960	2.38778600	1
	0.71072190	1.23100644	7.16335800	1
	2.84715620	0.00000000	2.38778600	1
	1.42144380	0.00000000	7.16335800	1
	-1.42357810	2.46570960	2.38778600	1
	-0.71072190	1.23100644	7.16335800	1
	0.71072190	1.23100644	2.38778600	1
	1.42357810	2.46570960	7.16335800	1
%endblock AtomicCoordinatesAndAtomicSpecies
Kgrid_NoTRS  T
%block kgrid_MonkhorstPack
3       0       0       0.0
0       3       0       0.0
0       0       3       0.0
%endblock kgrid_MonkhorstPack
AtomCoorFormatOut Ang
BlockSize 1
#ProcessorY 12
Diag.ParallelOverK   T
Diag.DivideAndConquer F
MeshCutoff   300 Ry
SCF.FreeE.Tolerance 1E-3 eV
SCF.EDM.Tolerance   5E-3 eV
DM.Tolerance  1E-3
DM.Require.Energy.Convergence T
DM.NumberPulay 4
XC.Functional GGA
XC.Authors    PBE
UseSaveData        F
MD.TypeOfRun       CG
MD.VariableCell    F
MD.NumCGsteps      00
MD.MaxCGDispl      0.200000 Bohr
MD.MaxStressTol    1.000000 GPa
MD.MaxForceTol     0.010000 eV/Ang
WriteMDHistory T
WriteCoorStep T
WriteForces T
WriteCoorStep    T
WriteEigenValues T
WriteDM    F
MM.UnitsDistance Ang  # what this program prints out DO NOT CHANGE
MM.UnitsEnergy    eV  # what this program prints out DO NOT CHANGE
MM.Grimme.S6     0.75 # Grimme-paper for PBE (correct for your functional)
MM.Grimme.D     20.   # Grimme-paper (correct for your functional)
%block MM.Potentials
  1   1 Grimme     16.69      1.650 # Li, 10.1002/jcc.20495
  1   2 Grimme     17.40      2.277 # Li / C
  2   2 Grimme     18.14      2.904 # C, 10.1002/jcc.20495
%endblock MM.Potentials
#%block ProjectedDensityOfStates
# -200.0  120.0  0.4  12800  eV
#%endblock ProjectedDensityOfStates
************************** End of input data file *****************************

reinit: -----------------------------------------------------------------------
reinit: System Name: LiC12_scf
reinit: -----------------------------------------------------------------------
reinit: System Label: LiC12_scf
reinit: -----------------------------------------------------------------------
Reading two-body potentials
Grimme - two-body potential between 1 and 1
Grimme - two-body potential between 1 and 2
Grimme - two-body potential between 2 and 2

initatom: Reading input for the pseudopotentials and atomic orbitals ----------
Species number:   1 Atomic number:    3 Label: Li-gga
Species number:   2 Atomic number:    6 Label: C-gga

Ground state valence configuration:   2s01
Reading pseudopotential information in formatted form from Li-gga.psf

Valence configuration for pseudopotential generation:
2s( 1.00) rc: 2.28
2p( 0.00) rc: 2.28
3d( 0.00) rc: 2.59
4f( 0.00) rc: 2.59
Ground state valence configuration:   2s02  2p02
Reading pseudopotential information in formatted form from C-gga.psf

Valence configuration for pseudopotential generation:
2s( 2.00) rc: 1.56
2p( 2.00) rc: 1.56
3d( 0.00) rc: 1.56
4f( 0.00) rc: 1.56
relmxkb: Read Max KB Ang. Momentum=    2 for species C-gga
relmxkb: Read Max KB Ang. Momentum=    2 for species Li-gga

<basis_specs>
===============================================================================
Li-gga               Z=   3    Mass=  6.9400        Charge= 0.17977+309
Lmxo=0 Lmxkb= 2    BasisType=split      Semic=F
L=0  Nsemic=0  Cnfigmx=2
          i=1  nzeta=2  polorb=0  (2s)
            splnorm:   0.15000    
               vcte:    0.0000    
               rinn:    0.0000    
               qcoe:    0.0000    
               qyuk:    0.0000    
               qwid:   0.10000E-01
                rcs:    0.0000      0.0000    
            lambdas:    1.0000      1.0000    
-------------------------------------------------------------------------------
L=0  Nkbl=1  erefs: 0.17977+309
L=1  Nkbl=1  erefs: 0.17977+309
L=2  Nkbl=1  erefs: 0.17977+309
===============================================================================
</basis_specs>

atom: Called for Li-gga                (Z =   3)

read_vps: Pseudopotential generation method:
read_vps: ATM 3.2.2 Troullier-Martins                       
Valence charge for ps generation:    1.00000

read_vps: Pseudopotential includes a core correction:
read_vps: Pseudo-core for xc-correction

xc_check: Exchange-correlation functional:
xc_check: GGA Perdew, Burke & Ernzerhof 1996
V l=0 = -2*Zval/r beyond r=  2.2278
V l=1 = -2*Zval/r beyond r=  2.2278
V l=2 = -2*Zval/r beyond r=  2.5245
All V_l potentials equal beyond r=  2.4622
This should be close to max(r_c) in ps generation
All pots = -2*Zval/r beyond r=  2.5245

VLOCAL1: 99.0% of the norm of Vloc inside      7.160 Ry
VLOCAL1: 99.9% of the norm of Vloc inside     16.318 Ry
atom: Maximum radius for 4*pi*r*r*local-pseudopot. charge    2.86079
atom: Maximum radius for r*vlocal+2*Zval:    2.43160
GHOST: No ghost state for L =  0
GHOST: No ghost state for L =  1
GHOST: No ghost state for L =  2

KBgen: Kleinman-Bylander projectors: 
   l= 0   rc=  2.654023   el= -0.211234   Ekb=  1.742119   kbcos=  0.228463
   l= 1   rc=  2.721230   el= -0.080095   Ekb= -1.122375   kbcos= -0.147941
   l= 2   rc=  2.825246   el=  0.002001   Ekb= -0.207076   kbcos= -0.031965

KBgen: Total number of Kleinman-Bylander projectors:    9
atom: -------------------------------------------------------------------------

atom: SANKEY-TYPE ORBITALS:
atom: Selected multiple-zeta basis: split     

SPLIT: Orbitals with angular momentum L= 0

SPLIT: Basis orbitals for state 2s

SPLIT: PAO cut-off radius determined from an
SPLIT: energy shift=  0.000735 Ry

   izeta = 1
                 lambda =    1.000000
                     rc =   11.897381
                 energy =   -0.210580
                kinetic =    0.143382
    potential(screened) =   -0.353962
       potential(ionic) =   -0.533453

   izeta = 2
                 rmatch =    8.489163
              splitnorm =    0.150000
                 energy =   -0.186081
                kinetic =    0.225882
    potential(screened) =   -0.411964
       potential(ionic) =   -0.593024
atom: Total number of Sankey-type orbitals:  2

atm_pop: Valence configuration (for local Pseudopot. screening):
 2s( 1.00)                                                            
Vna: chval, zval:    1.00000   1.00000

Vna:  Cut-off radius for the neutral-atom potential:  11.897381
comcore: Pseudo-core radius Rcore=  3.450946

atom: _________________________________________________________________________

<basis_specs>
===============================================================================
C-gga                Z=   6    Mass=  12.010        Charge= 0.17977+309
Lmxo=1 Lmxkb= 2    BasisType=split      Semic=F
L=0  Nsemic=0  Cnfigmx=2
          i=1  nzeta=2  polorb=0  (2s)
            splnorm:   0.15000    
               vcte:    0.0000    
               rinn:    0.0000    
               qcoe:    0.0000    
               qyuk:    0.0000    
               qwid:   0.10000E-01
                rcs:    0.0000      0.0000    
            lambdas:    1.0000      1.0000    
L=1  Nsemic=0  Cnfigmx=2
          i=1  nzeta=2  polorb=0  (2p)
            splnorm:   0.15000    
               vcte:    0.0000    
               rinn:    0.0000    
               qcoe:    0.0000    
               qyuk:    0.0000    
               qwid:   0.10000E-01
                rcs:    0.0000      0.0000    
            lambdas:    1.0000      1.0000    
-------------------------------------------------------------------------------
L=0  Nkbl=1  erefs: 0.17977+309
L=1  Nkbl=1  erefs: 0.17977+309
L=2  Nkbl=1  erefs: 0.17977+309
===============================================================================
</basis_specs>

atom: Called for C-gga                 (Z =   6)

read_vps: Pseudopotential generation method:
read_vps: ATM 3.2.2 Troullier-Martins                       
Valence charge for ps generation:    4.00000

xc_check: Exchange-correlation functional:
xc_check: GGA Perdew, Burke & Ernzerhof 1996
V l=0 = -2*Zval/r beyond r=  1.5227
V l=1 = -2*Zval/r beyond r=  1.5227
V l=2 = -2*Zval/r beyond r=  1.5227
All V_l potentials equal beyond r=  1.4851
This should be close to max(r_c) in ps generation
All pots = -2*Zval/r beyond r=  1.5227

VLOCAL1: 99.0% of the norm of Vloc inside     19.682 Ry
VLOCAL1: 99.9% of the norm of Vloc inside     44.856 Ry
atom: Maximum radius for 4*pi*r*r*local-pseudopot. charge    1.79142
atom: Maximum radius for r*vlocal+2*Zval:    1.54183
GHOST: No ghost state for L =  0
GHOST: No ghost state for L =  1
GHOST: No ghost state for L =  2

KBgen: Kleinman-Bylander projectors: 
   l= 0   rc=  1.661951   el= -1.010689   Ekb=  5.289847   kbcos=  0.316429
   l= 1   rc=  1.661951   el= -0.388490   Ekb= -4.102504   kbcos= -0.351025
   l= 2   rc=  1.747182   el=  0.001971   Ekb= -1.006005   kbcos= -0.008530

KBgen: Total number of Kleinman-Bylander projectors:    9
atom: -------------------------------------------------------------------------

atom: SANKEY-TYPE ORBITALS:
atom: Selected multiple-zeta basis: split     

SPLIT: Orbitals with angular momentum L= 0

SPLIT: Basis orbitals for state 2s

SPLIT: PAO cut-off radius determined from an
SPLIT: energy shift=  0.000735 Ry

   izeta = 1
                 lambda =    1.000000
                     rc =    5.948690
                 energy =   -1.010099
                kinetic =    0.827121
    potential(screened) =   -1.837220
       potential(ionic) =   -5.392783

   izeta = 2
                 rmatch =    3.518811
              splitnorm =    0.150000
                 energy =   -0.877891
                kinetic =    1.289227
    potential(screened) =   -2.167118
       potential(ionic) =   -5.982073

SPLIT: Orbitals with angular momentum L= 1

SPLIT: Basis orbitals for state 2p

SPLIT: PAO cut-off radius determined from an
SPLIT: energy shift=  0.000735 Ry

   izeta = 1
                 lambda =    1.000000
                     rc =    7.638387
                 energy =   -0.387843
                kinetic =    2.314739
    potential(screened) =   -2.702582
       potential(ionic) =   -6.092371

   izeta = 2
                 rmatch =    3.840617
              splitnorm =    0.150000
                 energy =   -0.270479
                kinetic =    3.438347
    potential(screened) =   -3.708826
       potential(ionic) =   -7.497707
atom: Total number of Sankey-type orbitals:  8

atm_pop: Valence configuration (for local Pseudopot. screening):
 2s( 2.00)                                                            
 2p( 2.00)                                                            
Vna: chval, zval:    4.00000   4.00000

Vna:  Cut-off radius for the neutral-atom potential:   7.638387

atom: _________________________________________________________________________

prinput: Basis input ----------------------------------------------------------

PAO.BasisType split     

%block ChemicalSpeciesLabel
    1    3 Li-gga                  # Species index, atomic number, species label
    2    6 C-gga                   # Species index, atomic number, species label
%endblock ChemicalSpeciesLabel

%block PAO.Basis                 # Define Basis set
Li-gga                1                    # Species label, number of l-shells
 n=2   0   2                         # n, l, Nzeta 
  11.897      8.489   
   1.000      1.000   
C-gga                 2                    # Species label, number of l-shells
 n=2   0   2                         # n, l, Nzeta 
   5.949      3.519   
   1.000      1.000   
 n=2   1   2                         # n, l, Nzeta 
   7.638      3.841   
   1.000      1.000   
%endblock PAO.Basis

prinput: ----------------------------------------------------------------------

coor:   Atomic-coordinates input format  =     Cartesian coordinates
coor:                                          (in Angstroms)

siesta: Atomic coordinates (Bohr) and species
siesta:      0.00000   0.00000   0.00000  2        1
siesta:      2.68614   0.00000   4.51226  1        2
siesta:      5.38035   0.00000  13.53679  1        3
siesta:     -1.34307   2.32627   4.51226  1        4
siesta:     -2.69017   4.65952  13.53679  1        5
siesta:      2.69017   4.65952   4.51226  1        6
siesta:      1.34307   2.32627  13.53679  1        7
siesta:      5.38035   0.00000   4.51226  1        8
siesta:      2.68614   0.00000  13.53679  1        9
siesta:     -2.69017   4.65952   4.51226  1       10
siesta:     -1.34307   2.32627  13.53679  1       11
siesta:      1.34307   2.32627   4.51226  1       12
siesta:      2.69017   4.65952  13.53679  1       13

siesta: System type = bulk      

initatomlists: Number of atoms, orbitals, and projectors:     13    32   117

siesta: ******************** Simulation parameters ****************************
siesta:
siesta: The following are some of the parameters of the simulation.
siesta: A complete list of the parameters used, including default values,
siesta: can be found in file out.fdf
siesta:
redata: Spin configuration                          = none
redata: Number of spin components                   = 1
redata: Time-Reversal Symmetry                      = T
redata: Spin spiral                                 = F
redata: Long output                                 =   F
redata: Number of Atomic Species                    =        2
redata: Charge density info will appear in .RHO file
redata: Write Mulliken Pop.                         = NO
redata: Matel table size (NRTAB)                    =     1024
redata: Mesh Cutoff                                 =   300.0000 Ry
redata: Net charge of the system                    =     0.0000 |e|
redata: Min. number of SCF Iter                     =        0
redata: Max. number of SCF Iter                     =     1000
redata: SCF convergence failure will abort job
redata: SCF mix quantity                            = Hamiltonian
redata: Mix DM or H after convergence               =   F
redata: Recompute H after scf cycle                 =   F
redata: Mix DM in first SCF step                    =   T
redata: Write Pulay info on disk                    =   F
redata: New DM Occupancy tolerance                  = 0.000000000001
redata: No kicks to SCF
redata: DM Mixing Weight for Kicks                  =     0.5000
redata: Require Harris convergence for SCF          =   F
redata: Harris energy tolerance for SCF             =     0.000100 eV
redata: Require DM convergence for SCF              =   T
redata: DM tolerance for SCF                        =     0.001000
redata: Require EDM convergence for SCF             =   F
redata: EDM tolerance for SCF                       =     0.005000 eV
redata: Require H convergence for SCF               =   T
redata: Hamiltonian tolerance for SCF               =     0.001000 eV
redata: Require (free) Energy convergence for SCF   =   T
redata: (free) Energy tolerance for SCF             =     0.001000 eV
redata: Using Saved Data (generic)                  =   F
redata: Use continuation files for DM               =   F
redata: Neglect nonoverlap interactions             =   F
redata: Method of Calculation                       = Diagonalization
redata: Electronic Temperature                      =   299.9869 K
redata: Fix the spin of the system                  =   F
redata: Dynamics option                             = Single-point calculation
mix.SCF: Pulay mixing                            = Pulay
mix.SCF:    Variant                              = stable
mix.SCF:    History steps                        = 4
mix.SCF:    Linear mixing weight                 =     0.250000
mix.SCF:    Mixing weight                        =     0.250000
mix.SCF:    SVD condition                        = 0.1000E-07
redata: ***********************************************************************

%block SCF.Mixers
  Pulay
%endblock SCF.Mixers

%block SCF.Mixer.Pulay
  # Mixing method
  method pulay
  variant stable

  # Mixing options
  weight 0.2500
  weight.linear 0.2500
  history 4
%endblock SCF.Mixer.Pulay

DM_history_depth set to one: no extrapolation allowed by default for geometry relaxation
Size of DM history Fstack: 1
Total number of electrons:    16.000000
Total ionic charge:    16.000000

* ProcessorY, Blocksize:    3   1


* Orbital distribution balance (max,min):     3     2

 Kpoints in:           18 . Kpoints trimmed:           14

siesta: k-grid: Number of k-points =    14
siesta: k-grid: Cutoff (effective) =     6.403 Ang
siesta: k-grid: Supercell and displacements
siesta: k-grid:    3   0   0      0.000
siesta: k-grid:    0   3   0      0.000
siesta: k-grid:    0   0   3      0.000

diag: Algorithm                                     = Expert
diag: Parallel over k                               =   T
diag: Use parallel 2D distribution                  =   T
diag: Parallel block-size                           = 1
diag: Parallel distribution                         =     3 x     4
diag: Used triangular part                          = Lower
diag: Absolute tolerance                            =  0.100E-15
diag: Orthogonalization factor                      =  0.100E-05
diag: Memory factor                                 =  1.0000

superc: Internal auxiliary supercell:     9 x     9 x     3  =     243
superc: Number of atoms, orbitals, and projectors:   3159   7776  28431


ts: **************************************************************
ts: Save H and S matrices                           =    F
ts: Save DM and EDM matrices                        =    F
ts: Only save the overlap matrix S                  =    F
ts: **************************************************************

************************ Begin: TS CHECKS AND WARNINGS ************************
************************ End: TS CHECKS AND WARNINGS **************************


                     ====================================
                        Single-point calculation
                     ====================================

outcoor: Atomic coordinates (Ang):                          
    0.00000000    0.00000000    0.00000000   2       1  C-gga
    1.42144380    0.00000000    2.38778600   1       2  Li-gga
    2.84715620    0.00000000    7.16335800   1       3  Li-gga
   -0.71072190    1.23100644    2.38778600   1       4  Li-gga
   -1.42357810    2.46570960    7.16335800   1       5  Li-gga
    1.42357810    2.46570960    2.38778600   1       6  Li-gga
    0.71072190    1.23100644    7.16335800   1       7  Li-gga
    2.84715620    0.00000000    2.38778600   1       8  Li-gga
    1.42144380    0.00000000    7.16335800   1       9  Li-gga
   -1.42357810    2.46570960    2.38778600   1      10  Li-gga
   -0.71072190    1.23100644    7.16335800   1      11  Li-gga
    0.71072190    1.23100644    2.38778600   1      12  Li-gga
    1.42357810    2.46570960    7.16335800   1      13  Li-gga

superc: Internal auxiliary supercell:     9 x     9 x     3  =     243
superc: Number of atoms, orbitals, and projectors:   3159   7776  28431

outcell: Unit cell vectors (Ang):
        4.268600    0.000000    0.000000
       -2.134300    3.696716    0.000000
        0.000000    0.000000    9.551144

outcell: Cell vector modules (Ang)   :    4.268600    4.268600    9.551144
outcell: Cell angles (23,13,12) (deg):     90.0000     90.0000    120.0000
outcell: Cell volume (Ang**3)        :    150.7152
<dSpData1D:S at geom step 0
  <sparsity:sparsity for geom step 0
    nrows_g=32 nrows=3 sparsity=4.5801 nnzs=4690, refcount: 7>
  <dData1D:(new from dSpData1D) n=4690, refcount: 1>
refcount: 1>
new_DM -- step:     1
Initializing Density Matrix...
DM filled with atomic data:
<dSpData2D:DM initialized from atoms
  <sparsity:sparsity for geom step 0
    nrows_g=32 nrows=3 sparsity=4.5801 nnzs=4690, refcount: 8>
  <dData2D:DM n=4690 m=1, refcount: 1>
refcount: 1>
No. of atoms with KB's overlaping orbs in proc 0. Max # of overlaps:     182     239
New grid distribution:   1
           1       1:   20    1:    7    1:   13
           2       1:   20    1:    7   14:   26
           3       1:   20    1:    7   27:   38
           4       1:   20    1:    7   39:   50
           5       1:   20    8:   14    1:   13
           6       1:   20    8:   14   14:   26
           7       1:   20    8:   14   27:   38
           8       1:   20    8:   14   39:   50
           9       1:   20   15:   20    1:   13
          10       1:   20   15:   20   14:   26
          11       1:   20   15:   20   27:   38
          12       1:   20   15:   20   39:   50

InitMesh: MESH =    40 x    40 x   100 =      160000
InitMesh: (bp) =    20 x    20 x    50 =       20000
InitMesh: Mesh cutoff (required, used) =   300.000   302.964 Ry
ExtMesh (bp) on 0 =   160 x   147 x   145 =     3410400
New grid distribution:   2
           1      11:   20    8:   20   26:   38
           2       1:   20    1:    7   12:   25
           3       1:   20    1:    7    1:   11
           4       1:   20    1:    7   39:   50
           5       1:   10    8:   20    1:   11
           6       1:   10    8:   20   12:   25
           7       1:   10    8:   20   26:   38
           8      11:   20    8:   20   39:   50
           9       1:   20    1:    7   26:   38
          10      11:   20    8:   20   12:   25
          11      11:   20    8:   20    1:   11
          12       1:   10    8:   20   39:   50
New grid distribution:   3
           1      11:   20    8:   20    1:   13
           2       1:   20    1:    7   14:   25
           3       1:   20    1:    7   26:   38
           4      11:   20    8:   20   14:   25
           5       1:   20    1:    7    1:   13
           6       1:   20    1:    7   39:   50
           7      11:   20    8:   20   26:   38
           8       1:   10    8:   20   39:   50
           9       1:   10    8:   20    1:   13
          10       1:   10    8:   20   14:   25
          11       1:   10    8:   20   26:   38
          12      11:   20    8:   20   39:   50
Setting up quadratic distribution...
ExtMesh (bp) on 0 =   150 x   153 x   145 =     3327750
PhiOnMesh: Number of (b)points on node 0 =                 1690
PhiOnMesh: nlist on node 0 =               204188

stepf: Fermi-Dirac step function

siesta: Program's energy decomposition (eV):
siesta: Ebs     =      -124.753161
siesta: Eions   =       380.620085
siesta: Ena     =       123.811597
siesta: Ekin    =       176.196746
siesta: Enl     =        43.726220
siesta: Eso     =         0.000000
siesta: Edftu   =         0.000000
siesta: DEna    =        -2.992495
siesta: DUscf   =         9.637219
siesta: DUext   =         0.000000
siesta: Exc     =      -154.983351
siesta: eta*DQ  =         0.000000
siesta: Emadel  =         0.000000
siesta: Emeta   =         0.000000
siesta: Emolmec =        -5.047406
siesta: Ekinion =         0.000000
siesta: Eharris =      -153.986800
siesta: Etot    =      -190.271555
siesta: FreeEng =      -190.271879

        iscf     Eharris(eV)        E_KS(eV)     FreeEng(eV)     dDmax    Ef(eV) dHmax(eV)
   scf:    1     -153.986800     -190.271555     -190.271879 26.680055 -8.737988 14.523773
timer: Routine,Calls,Time,% = IterSCF        1       0.875  19.94
   scf:    2     -178.818490     -193.015215     -193.038928 27.547741 -6.315344  9.539150
   scf:    3     -192.681993     -196.075227     -196.076514 21.900516 -7.152380  4.142462
   scf:    4     -194.900041     -196.303051     -196.328597  7.614966 -6.520750  3.091930
   scf:    5     -196.764326     -196.685185     -196.697189  4.438168 -6.671946  0.124670
   scf:    6     -196.680249     -196.684081     -196.696076  0.235146 -6.712486  0.213925
   scf:    7     -196.686354     -196.685506     -196.697502  0.094597 -6.695453  0.076327
   scf:    8     -196.685749     -196.685689     -196.697689  0.035775 -6.688617  0.010904
   scf:    9     -196.685694     -196.685692     -196.697693  0.008910 -6.688708  0.002061
   scf:   10     -196.685693     -196.685693     -196.697693  0.003712 -6.689214  0.000141
   scf:   11     -196.685693     -196.685693     -196.697693  0.000363 -6.689267  0.000091

SCF Convergence by FreeE+DM+H criterion
|FreeE_i-FreeE_(i-1)| (eV) <     0.00100000
max |DM_out - DM_in|         :     0.0003631065
max |H_out - H_in|      (eV) :     0.0000908465
SCF cycle converged after 11 iterations

Using DM_out to compute the final energy and forces
No. of atoms with KB's overlaping orbs in proc 0. Max # of overlaps:     182     239

MM-Stress (kbar):        7.42        7.42       25.63       -0.00        0.00       -0.00

siesta: E_KS(eV) =             -196.6857

siesta: E_KS - E_eggbox =      -196.6857

siesta: Atomic forces (eV/Ang):
     1    0.000000    0.000000    0.000000
     2   -0.492316   -0.000023   -1.329235
     3    0.492316    0.000023    1.329235
     4    0.246138   -0.426370   -1.329235
     5   -0.246138    0.426370    1.329235
     6    0.246131    0.426311   -1.329247
     7   -0.246131   -0.426311    1.329247
     8    0.492316    0.000023   -1.329235
     9   -0.492316   -0.000023    1.329235
    10   -0.246138    0.426370   -1.329235
    11    0.246138   -0.426370    1.329235
    12   -0.246131   -0.426311   -1.329247
    13    0.246131    0.426311    1.329247
----------------------------------------
   Tot    0.000000    0.000000    0.000000
----------------------------------------
   Max    1.329247
   Res    0.786273    sqrt( Sum f_i^2 / 3N )
----------------------------------------
   Max    1.329247    constrained

Stress tensor Voigt[x,y,z,yz,xz,xy] (kbar):    -1178.46    -1178.47      628.11        0.00       -0.00       -0.01
(Free)E + p*V (eV/cell)     -142.4887
Target enthalpy (eV/cell)     -196.6977

siesta: Eigenvalues (eV):
  ik is       eps
   1  1  -15.4114  -12.6189  -12.6189  -12.3954  -11.8914  -11.8914  -11.3233   -8.1884   -7.0939   -7.0938
           0.8212    0.8213    1.2468    2.5596    4.2851    4.2853    6.1922   13.5924   13.8798   13.8798
   18.6698   18.6698   19.3762   19.8783   19.8783   23.2321   24.9614   24.9614   25.1650   40.2103
   40.2676   40.2676
   2  1  -15.6055  -13.3009  -12.8467  -11.1349  -11.1199   -9.2124   -7.4107   -6.7363   -4.7148   -3.7193
          -3.3603   -3.2959   -1.5394    1.3078    2.2306    5.0694    6.5939   10.6483   10.6658   12.7016
   14.3367   18.4342   20.3581   20.4592   20.7289   22.2030   23.8626   32.8842   40.4073   47.6328
   48.3567   51.9560
   3  1  -15.6055  -13.3009  -12.8467  -11.1349  -11.1199   -9.2124   -7.4107   -6.7364   -4.7148   -3.7193
          -3.3602   -3.2959   -1.5394    1.3078    2.2308    5.0694    6.5937   10.6483   10.6658   12.7016
   14.3367   18.4342   20.3581   20.4592   20.7289   22.2030   23.8626   32.8843   40.4073   47.6328
   48.3567   51.9560
   4  1  -15.6055  -13.3009  -12.8467  -11.1349  -11.1199   -9.2124   -7.4107   -6.7363   -4.7148   -3.7193
          -3.3603   -3.2959   -1.5394    1.3078    2.2306    5.0694    6.5939   10.6483   10.6658   12.7016
   14.3367   18.4342   20.3581   20.4592   20.7289   22.2030   23.8626   32.8842   40.4073   47.6328
   48.3567   51.9560
   5  1  -15.9567  -14.1970  -12.8310  -10.0885   -6.1626   -6.1625   -5.1585   -1.1695   -1.1695   -1.0122
          -1.0122    0.5038    3.7163    5.5724    5.5724    6.5559    6.5561   11.5116   11.5116   16.8827
   22.1853   22.1853   23.2933   23.2934   23.4137   23.4138   23.7698   23.8704   24.7723   24.7724
   49.9041  155.6741
   6  1  -15.4203  -12.5246  -12.2091  -12.2091  -11.9038  -11.9038  -11.0493   -8.7828   -7.9566   -7.9566
          -6.4608   -6.4608   -3.3738   -2.6944   -2.6943   -1.3012    7.8365    9.8364    9.8367   13.3175
   14.5676   14.5676   15.5083   18.0699   18.0699   19.4332   19.5037   19.5037   20.3455   22.7009
   23.1885   23.1886
   7  1  -15.5286  -13.3790  -12.7533  -11.2566  -11.1733   -9.7847   -7.8726   -6.7470   -6.1798   -4.1771
          -3.8171   -3.0179   -2.3823   -1.5140    3.3263    4.2056    5.5371    9.6341    9.9841   11.0349
   12.3566   14.5663   14.9941   17.3265   20.5143   20.6875   21.7563   22.6442   25.7355   42.6158
   53.5545   55.7201
   8  1  -15.5286  -13.3790  -12.7533  -11.2566  -11.1733   -9.7847   -7.8726   -6.7470   -6.1797   -4.1771
          -3.8170   -3.0179   -2.3823   -1.5140    3.3263    4.2058    5.5370    9.6339    9.9841   11.0349
   12.3566   14.5663   14.9941   17.3266   20.5143   20.6875   21.7563   22.6442   25.7355   42.6158
   53.5544   55.7201
   9  1  -15.5286  -13.3790  -12.7533  -11.2566  -11.1733   -9.7847   -7.8726   -6.7470   -6.1798   -4.1771
          -3.8171   -3.0179   -2.3823   -1.5140    3.3263    4.2056    5.5371    9.6341    9.9841   11.0349
   12.3566   14.5663   14.9941   17.3265   20.5143   20.6875   21.7563   22.6442   25.7355   42.6158
   53.5545   55.7201
  10  1  -15.8862  -13.9610  -12.8745  -10.7544   -6.8733   -6.1561   -6.1559   -4.3790   -0.1501   -0.1501
          -0.0730   -0.0730    2.4519    3.6198    3.6198    3.8788    3.8789   11.1401   11.1403   13.2786
   14.1571   14.1571   15.3744   15.3745   17.5013   17.5013   23.5773   23.5773   23.8032   23.8558
   50.1755   66.3733
  11  1  -15.5286  -13.3790  -12.7533  -11.2566  -11.1733   -9.7847   -7.8726   -6.7470   -6.1798   -4.1771
          -3.8171   -3.0179   -2.3823   -1.5140    3.3263    4.2056    5.5371    9.6341    9.9841   11.0349
   12.3566   14.5663   14.9941   17.3265   20.5143   20.6875   21.7563   22.6442   25.7355   42.6158
   53.5545   55.7201
  12  1  -15.5286  -13.3790  -12.7533  -11.2566  -11.1733   -9.7847   -7.8726   -6.7470   -6.1797   -4.1771
          -3.8170   -3.0179   -2.3823   -1.5140    3.3263    4.2058    5.5370    9.6339    9.9841   11.0349
   12.3566   14.5663   14.9941   17.3266   20.5143   20.6875   21.7563   22.6442   25.7355   42.6158
   53.5544   55.7201
  13  1  -15.5286  -13.3790  -12.7533  -11.2566  -11.1733   -9.7847   -7.8726   -6.7470   -6.1798   -4.1771
          -3.8171   -3.0179   -2.3823   -1.5140    3.3263    4.2056    5.5371    9.6341    9.9841   11.0349
   12.3566   14.5663   14.9941   17.3265   20.5143   20.6875   21.7563   22.6442   25.7355   42.6158
   53.5545   55.7201
  14  1  -15.4203  -12.5246  -12.2091  -12.2091  -11.9038  -11.9038  -11.0493   -8.7828   -7.9566   -7.9566
          -6.4608   -6.4608   -3.3738   -2.6944   -2.6943   -1.3012    7.8365    9.8364    9.8367   13.3175
   14.5676   14.5676   15.5083   18.0699   18.0699   19.4332   19.5037   19.5037   20.3455   22.7009
   23.1885   23.1886
siesta: Fermi energy =      -6.689267 eV

siesta: Program's energy decomposition (eV):
siesta: Ebs     =      -178.900410
siesta: Eions   =       380.620085
siesta: Ena     =       123.811597
siesta: Ekin    =       148.459799
siesta: Enl     =        51.318104
siesta: Eso     =         0.000000
siesta: Edftu   =         0.000000
siesta: DEna    =        12.485740
siesta: DUscf   =         1.152896
siesta: DUext   =         0.000000
siesta: Exc     =      -148.246337
siesta: eta*DQ  =         0.000000
siesta: Emadel  =         0.000000
siesta: Emeta   =         0.000000
siesta: Emolmec =        -5.047406
siesta: Ekinion =         0.000000
siesta: Eharris =      -196.685693
siesta: Etot    =      -196.685693
siesta: FreeEng =      -196.697693

siesta: Final energy (eV):
siesta:  Band Struct. =    -178.900410
siesta:       Kinetic =     148.459799
siesta:       Hartree =      84.986571
siesta:       Edftu   =       0.000000
siesta:       Eso     =       0.000000
siesta:    Ext. field =       0.000000
siesta:   Exch.-corr. =    -148.246337
siesta:  Ion-electron =    -345.014826
siesta:       Ion-ion =      68.176507
siesta:       Ekinion =       0.000000
siesta:         Total =    -196.685693
siesta:         Fermi =      -6.689267

siesta: Atomic forces (eV/Ang):
siesta:      1    0.000000    0.000000    0.000000
siesta:      2   -0.492316   -0.000023   -1.329235
siesta:      3    0.492316    0.000023    1.329235
siesta:      4    0.246138   -0.426370   -1.329235
siesta:      5   -0.246138    0.426370    1.329235
siesta:      6    0.246131    0.426311   -1.329247
siesta:      7   -0.246131   -0.426311    1.329247
siesta:      8    0.492316    0.000023   -1.329235
siesta:      9   -0.492316   -0.000023    1.329235
siesta:     10   -0.246138    0.426370   -1.329235
siesta:     11    0.246138   -0.426370    1.329235
siesta:     12   -0.246131   -0.426311   -1.329247
siesta:     13    0.246131    0.426311    1.329247
siesta: ----------------------------------------
siesta:    Tot    0.000000    0.000000    0.000000

siesta: Stress tensor (static) (eV/Ang**3):
siesta:    -0.735530   -0.000007   -0.000000
siesta:    -0.000007   -0.735538    0.000000
siesta:    -0.000000    0.000000    0.392034

siesta: Cell volume =        150.715162 Ang**3

siesta: Pressure (static):
siesta:                Solid            Molecule  Units
siesta:           0.00391735          0.00289847  Ry/Bohr**3
siesta:           0.35967814          0.26612748  eV/Ang**3
siesta:         576.27413391        426.38784123  kBar
(Free)E+ p_basis*V_orbitals  =        -174.765129
(Free)Eharris+ p_basis*V_orbitals  =        -174.765129

cite: Please see "LiC12_scf.bib" for an exhaustive BiBTeX file.
cite: Please clearly indicate Siesta version in published work: 4.1.5
cite: This calculation has made use of the following articles
cite: which are encouraged to be cited in a published work.
        Primary SIESTA paper
          DOI: www.doi.org/10.1088/0953-8984/14/11/302

>> End of run:   9-NOV-2022   8:44:14
Job completed
