Siesta Version  : 4.1.5
Architecture    : x86_64-unknown-linux-gnu--unknown
Compiler version: GNU Fortran (GCC) 11.3.0
Compiler flags  : mpif90 -g -O2 -fallow-argument-mismatch
PP flags        : -DMPI -DFC_HAVE_FLUSH -DFC_HAVE_ABORT
Libraries       :  -I/global/software/sl-7.x86_64/modules/intel/2020.4.304/mkl/include  /globall/software/sl-7.x86_64/modules/intel/2020.4.304/mkl/lib/intel64/libmkl_scalapack_lp64.a -Wl,--start-group /global/software/sl-7.x86_64/modules/intel/2020.4.304/mkl/lib/intel64/libmkl_intel_lp64.a /global/software/sl-7.x86_64/modules/intel/2020.4.304/mkl/lib/intel64/libmkl_sequential.a /global/software/sl-7.x86_64/modules/intel/2020.4.304/mkl/lib/intel64/libmkl_core.a /global/software/sl-7.x86_64/modules/intel/2020.4.304/mkl/lib/intel64/libmkl_blacs_openmpi_lp64.a -Wl,--end-group -lpthread -lm -ldl
PARALLEL version

* Running on 12 nodes in parallel
>> Start of run:   9-NOV-2022   8:30:30

                           ***********************       
                           *  WELCOME TO SIESTA  *       
                           ***********************       

reinit: Reading from standard input
reinit: Dumped input in INPUT_TMP.97800
************************** Dump of input data file ****************************
SystemName LiC12_scf
SystemLabel LiC12_scf
NumberOfAtoms   13
NumberOfSpecies 2
%block ChemicalSpeciesLabel
1  3   Li-gga
2  6   C-gga
%endblock ChemicalSpeciesLabel
PAO.BasisSize  DZ
PAO.EnergyShift  10 meV
%block PS.Lmax
C-gga   2
Li-gga  2
%endblock PS.Lmax
LatticeConstant 1.000000 Ang
%block LatticeVectors
	4.2686000000	0.0000000000	0.0000000000
	-2.1343000000	3.6967160386	0.0000000000
	0.0000000000	0.0000000000	6.0396940000
%endblock LatticeVectors
AtomicCoordinatesFormat Ang
%block AtomicCoordinatesAndAtomicSpecies
	0.00000000	0.00000000	0.00000000	2
	1.42144380	0.00000000	1.50992350	1
	2.84715620	0.00000000	4.52977050	1
	-0.71072190	1.23100644	1.50992350	1
	-1.42357810	2.46570960	4.52977050	1
	1.42357810	2.46570960	1.50992350	1
	0.71072190	1.23100644	4.52977050	1
	2.84715620	0.00000000	1.50992350	1
	1.42144380	0.00000000	4.52977050	1
	-1.42357810	2.46570960	1.50992350	1
	-0.71072190	1.23100644	4.52977050	1
	0.71072190	1.23100644	1.50992350	1
	1.42357810	2.46570960	4.52977050	1
%endblock AtomicCoordinatesAndAtomicSpecies
Kgrid_NoTRS  T
%block kgrid_MonkhorstPack
3       0       0       0.0
0       3       0       0.0
0       0       3       0.0
%endblock kgrid_MonkhorstPack
AtomCoorFormatOut Ang
BlockSize 1
#ProcessorY 12
Diag.ParallelOverK   T
Diag.DivideAndConquer F
MeshCutoff   300 Ry
SCF.FreeE.Tolerance 1E-3 eV
SCF.EDM.Tolerance   5E-3 eV
DM.Tolerance  1E-3
DM.Require.Energy.Convergence T
DM.NumberPulay 4
XC.Functional GGA
XC.Authors    PBE
UseSaveData        F
MD.TypeOfRun       CG
MD.VariableCell    F
MD.NumCGsteps      00
MD.MaxCGDispl      0.200000 Bohr
MD.MaxStressTol    1.000000 GPa
MD.MaxForceTol     0.010000 eV/Ang
WriteMDHistory T
WriteCoorStep T
WriteForces T
WriteCoorStep    T
WriteEigenValues T
WriteDM    F
MM.UnitsDistance Ang  # what this program prints out DO NOT CHANGE
MM.UnitsEnergy    eV  # what this program prints out DO NOT CHANGE
MM.Grimme.S6     0.75 # Grimme-paper for PBE (correct for your functional)
MM.Grimme.D     20.   # Grimme-paper (correct for your functional)
%block MM.Potentials
  1   1 Grimme     16.69      1.650 # Li, 10.1002/jcc.20495
  1   2 Grimme     17.40      2.277 # Li / C
  2   2 Grimme     18.14      2.904 # C, 10.1002/jcc.20495
%endblock MM.Potentials
#%block ProjectedDensityOfStates
# -200.0  120.0  0.4  12800  eV
#%endblock ProjectedDensityOfStates
************************** End of input data file *****************************

reinit: -----------------------------------------------------------------------
reinit: System Name: LiC12_scf
reinit: -----------------------------------------------------------------------
reinit: System Label: LiC12_scf
reinit: -----------------------------------------------------------------------
Reading two-body potentials
Grimme - two-body potential between 1 and 1
Grimme - two-body potential between 1 and 2
Grimme - two-body potential between 2 and 2

initatom: Reading input for the pseudopotentials and atomic orbitals ----------
Species number:   1 Atomic number:    3 Label: Li-gga
Species number:   2 Atomic number:    6 Label: C-gga

Ground state valence configuration:   2s01
Reading pseudopotential information in formatted form from Li-gga.psf

Valence configuration for pseudopotential generation:
2s( 1.00) rc: 2.28
2p( 0.00) rc: 2.28
3d( 0.00) rc: 2.59
4f( 0.00) rc: 2.59
Ground state valence configuration:   2s02  2p02
Reading pseudopotential information in formatted form from C-gga.psf

Valence configuration for pseudopotential generation:
2s( 2.00) rc: 1.56
2p( 2.00) rc: 1.56
3d( 0.00) rc: 1.56
4f( 0.00) rc: 1.56
relmxkb: Read Max KB Ang. Momentum=    2 for species C-gga
relmxkb: Read Max KB Ang. Momentum=    2 for species Li-gga

<basis_specs>
===============================================================================
Li-gga               Z=   3    Mass=  6.9400        Charge= 0.17977+309
Lmxo=0 Lmxkb= 2    BasisType=split      Semic=F
L=0  Nsemic=0  Cnfigmx=2
          i=1  nzeta=2  polorb=0  (2s)
            splnorm:   0.15000    
               vcte:    0.0000    
               rinn:    0.0000    
               qcoe:    0.0000    
               qyuk:    0.0000    
               qwid:   0.10000E-01
                rcs:    0.0000      0.0000    
            lambdas:    1.0000      1.0000    
-------------------------------------------------------------------------------
L=0  Nkbl=1  erefs: 0.17977+309
L=1  Nkbl=1  erefs: 0.17977+309
L=2  Nkbl=1  erefs: 0.17977+309
===============================================================================
</basis_specs>

atom: Called for Li-gga                (Z =   3)

read_vps: Pseudopotential generation method:
read_vps: ATM 3.2.2 Troullier-Martins                       
Valence charge for ps generation:    1.00000

read_vps: Pseudopotential includes a core correction:
read_vps: Pseudo-core for xc-correction

xc_check: Exchange-correlation functional:
xc_check: GGA Perdew, Burke & Ernzerhof 1996
V l=0 = -2*Zval/r beyond r=  2.2278
V l=1 = -2*Zval/r beyond r=  2.2278
V l=2 = -2*Zval/r beyond r=  2.5245
All V_l potentials equal beyond r=  2.4622
This should be close to max(r_c) in ps generation
All pots = -2*Zval/r beyond r=  2.5245

VLOCAL1: 99.0% of the norm of Vloc inside      7.160 Ry
VLOCAL1: 99.9% of the norm of Vloc inside     16.318 Ry
atom: Maximum radius for 4*pi*r*r*local-pseudopot. charge    2.86079
atom: Maximum radius for r*vlocal+2*Zval:    2.43160
GHOST: No ghost state for L =  0
GHOST: No ghost state for L =  1
GHOST: No ghost state for L =  2

KBgen: Kleinman-Bylander projectors: 
   l= 0   rc=  2.654023   el= -0.211234   Ekb=  1.742119   kbcos=  0.228463
   l= 1   rc=  2.721230   el= -0.080095   Ekb= -1.122375   kbcos= -0.147941
   l= 2   rc=  2.825246   el=  0.002001   Ekb= -0.207076   kbcos= -0.031965

KBgen: Total number of Kleinman-Bylander projectors:    9
atom: -------------------------------------------------------------------------

atom: SANKEY-TYPE ORBITALS:
atom: Selected multiple-zeta basis: split     

SPLIT: Orbitals with angular momentum L= 0

SPLIT: Basis orbitals for state 2s

SPLIT: PAO cut-off radius determined from an
SPLIT: energy shift=  0.000735 Ry

   izeta = 1
                 lambda =    1.000000
                     rc =   11.897381
                 energy =   -0.210580
                kinetic =    0.143382
    potential(screened) =   -0.353962
       potential(ionic) =   -0.533453

   izeta = 2
                 rmatch =    8.489163
              splitnorm =    0.150000
                 energy =   -0.186081
                kinetic =    0.225882
    potential(screened) =   -0.411964
       potential(ionic) =   -0.593024
atom: Total number of Sankey-type orbitals:  2

atm_pop: Valence configuration (for local Pseudopot. screening):
 2s( 1.00)                                                            
Vna: chval, zval:    1.00000   1.00000

Vna:  Cut-off radius for the neutral-atom potential:  11.897381
comcore: Pseudo-core radius Rcore=  3.450946

atom: _________________________________________________________________________

<basis_specs>
===============================================================================
C-gga                Z=   6    Mass=  12.010        Charge= 0.17977+309
Lmxo=1 Lmxkb= 2    BasisType=split      Semic=F
L=0  Nsemic=0  Cnfigmx=2
          i=1  nzeta=2  polorb=0  (2s)
            splnorm:   0.15000    
               vcte:    0.0000    
               rinn:    0.0000    
               qcoe:    0.0000    
               qyuk:    0.0000    
               qwid:   0.10000E-01
                rcs:    0.0000      0.0000    
            lambdas:    1.0000      1.0000    
L=1  Nsemic=0  Cnfigmx=2
          i=1  nzeta=2  polorb=0  (2p)
            splnorm:   0.15000    
               vcte:    0.0000    
               rinn:    0.0000    
               qcoe:    0.0000    
               qyuk:    0.0000    
               qwid:   0.10000E-01
                rcs:    0.0000      0.0000    
            lambdas:    1.0000      1.0000    
-------------------------------------------------------------------------------
L=0  Nkbl=1  erefs: 0.17977+309
L=1  Nkbl=1  erefs: 0.17977+309
L=2  Nkbl=1  erefs: 0.17977+309
===============================================================================
</basis_specs>

atom: Called for C-gga                 (Z =   6)

read_vps: Pseudopotential generation method:
read_vps: ATM 3.2.2 Troullier-Martins                       
Valence charge for ps generation:    4.00000

xc_check: Exchange-correlation functional:
xc_check: GGA Perdew, Burke & Ernzerhof 1996
V l=0 = -2*Zval/r beyond r=  1.5227
V l=1 = -2*Zval/r beyond r=  1.5227
V l=2 = -2*Zval/r beyond r=  1.5227
All V_l potentials equal beyond r=  1.4851
This should be close to max(r_c) in ps generation
All pots = -2*Zval/r beyond r=  1.5227

VLOCAL1: 99.0% of the norm of Vloc inside     19.682 Ry
VLOCAL1: 99.9% of the norm of Vloc inside     44.856 Ry
atom: Maximum radius for 4*pi*r*r*local-pseudopot. charge    1.79142
atom: Maximum radius for r*vlocal+2*Zval:    1.54183
GHOST: No ghost state for L =  0
GHOST: No ghost state for L =  1
GHOST: No ghost state for L =  2

KBgen: Kleinman-Bylander projectors: 
   l= 0   rc=  1.661951   el= -1.010689   Ekb=  5.289847   kbcos=  0.316429
   l= 1   rc=  1.661951   el= -0.388490   Ekb= -4.102504   kbcos= -0.351025
   l= 2   rc=  1.747182   el=  0.001971   Ekb= -1.006005   kbcos= -0.008530

KBgen: Total number of Kleinman-Bylander projectors:    9
atom: -------------------------------------------------------------------------

atom: SANKEY-TYPE ORBITALS:
atom: Selected multiple-zeta basis: split     

SPLIT: Orbitals with angular momentum L= 0

SPLIT: Basis orbitals for state 2s

SPLIT: PAO cut-off radius determined from an
SPLIT: energy shift=  0.000735 Ry

   izeta = 1
                 lambda =    1.000000
                     rc =    5.948690
                 energy =   -1.010099
                kinetic =    0.827121
    potential(screened) =   -1.837220
       potential(ionic) =   -5.392783

   izeta = 2
                 rmatch =    3.518811
              splitnorm =    0.150000
                 energy =   -0.877891
                kinetic =    1.289227
    potential(screened) =   -2.167118
       potential(ionic) =   -5.982073

SPLIT: Orbitals with angular momentum L= 1

SPLIT: Basis orbitals for state 2p

SPLIT: PAO cut-off radius determined from an
SPLIT: energy shift=  0.000735 Ry

   izeta = 1
                 lambda =    1.000000
                     rc =    7.638387
                 energy =   -0.387843
                kinetic =    2.314739
    potential(screened) =   -2.702582
       potential(ionic) =   -6.092371

   izeta = 2
                 rmatch =    3.840617
              splitnorm =    0.150000
                 energy =   -0.270479
                kinetic =    3.438347
    potential(screened) =   -3.708826
       potential(ionic) =   -7.497707
atom: Total number of Sankey-type orbitals:  8

atm_pop: Valence configuration (for local Pseudopot. screening):
 2s( 2.00)                                                            
 2p( 2.00)                                                            
Vna: chval, zval:    4.00000   4.00000

Vna:  Cut-off radius for the neutral-atom potential:   7.638387

atom: _________________________________________________________________________

prinput: Basis input ----------------------------------------------------------

PAO.BasisType split     

%block ChemicalSpeciesLabel
    1    3 Li-gga                  # Species index, atomic number, species label
    2    6 C-gga                   # Species index, atomic number, species label
%endblock ChemicalSpeciesLabel

%block PAO.Basis                 # Define Basis set
Li-gga                1                    # Species label, number of l-shells
 n=2   0   2                         # n, l, Nzeta 
  11.897      8.489   
   1.000      1.000   
C-gga                 2                    # Species label, number of l-shells
 n=2   0   2                         # n, l, Nzeta 
   5.949      3.519   
   1.000      1.000   
 n=2   1   2                         # n, l, Nzeta 
   7.638      3.841   
   1.000      1.000   
%endblock PAO.Basis

prinput: ----------------------------------------------------------------------

coor:   Atomic-coordinates input format  =     Cartesian coordinates
coor:                                          (in Angstroms)

siesta: Atomic coordinates (Bohr) and species
siesta:      0.00000   0.00000   0.00000  2        1
siesta:      2.68614   0.00000   2.85334  1        2
siesta:      5.38035   0.00000   8.56003  1        3
siesta:     -1.34307   2.32627   2.85334  1        4
siesta:     -2.69017   4.65952   8.56003  1        5
siesta:      2.69017   4.65952   2.85334  1        6
siesta:      1.34307   2.32627   8.56003  1        7
siesta:      5.38035   0.00000   2.85334  1        8
siesta:      2.68614   0.00000   8.56003  1        9
siesta:     -2.69017   4.65952   2.85334  1       10
siesta:     -1.34307   2.32627   8.56003  1       11
siesta:      1.34307   2.32627   2.85334  1       12
siesta:      2.69017   4.65952   8.56003  1       13

siesta: System type = bulk      

initatomlists: Number of atoms, orbitals, and projectors:     13    32   117

siesta: ******************** Simulation parameters ****************************
siesta:
siesta: The following are some of the parameters of the simulation.
siesta: A complete list of the parameters used, including default values,
siesta: can be found in file out.fdf
siesta:
redata: Spin configuration                          = none
redata: Number of spin components                   = 1
redata: Time-Reversal Symmetry                      = T
redata: Spin spiral                                 = F
redata: Long output                                 =   F
redata: Number of Atomic Species                    =        2
redata: Charge density info will appear in .RHO file
redata: Write Mulliken Pop.                         = NO
redata: Matel table size (NRTAB)                    =     1024
redata: Mesh Cutoff                                 =   300.0000 Ry
redata: Net charge of the system                    =     0.0000 |e|
redata: Min. number of SCF Iter                     =        0
redata: Max. number of SCF Iter                     =     1000
redata: SCF convergence failure will abort job
redata: SCF mix quantity                            = Hamiltonian
redata: Mix DM or H after convergence               =   F
redata: Recompute H after scf cycle                 =   F
redata: Mix DM in first SCF step                    =   T
redata: Write Pulay info on disk                    =   F
redata: New DM Occupancy tolerance                  = 0.000000000001
redata: No kicks to SCF
redata: DM Mixing Weight for Kicks                  =     0.5000
redata: Require Harris convergence for SCF          =   F
redata: Harris energy tolerance for SCF             =     0.000100 eV
redata: Require DM convergence for SCF              =   T
redata: DM tolerance for SCF                        =     0.001000
redata: Require EDM convergence for SCF             =   F
redata: EDM tolerance for SCF                       =     0.005000 eV
redata: Require H convergence for SCF               =   T
redata: Hamiltonian tolerance for SCF               =     0.001000 eV
redata: Require (free) Energy convergence for SCF   =   T
redata: (free) Energy tolerance for SCF             =     0.001000 eV
redata: Using Saved Data (generic)                  =   F
redata: Use continuation files for DM               =   F
redata: Neglect nonoverlap interactions             =   F
redata: Method of Calculation                       = Diagonalization
redata: Electronic Temperature                      =   299.9869 K
redata: Fix the spin of the system                  =   F
redata: Dynamics option                             = Single-point calculation
mix.SCF: Pulay mixing                            = Pulay
mix.SCF:    Variant                              = stable
mix.SCF:    History steps                        = 4
mix.SCF:    Linear mixing weight                 =     0.250000
mix.SCF:    Mixing weight                        =     0.250000
mix.SCF:    SVD condition                        = 0.1000E-07
redata: ***********************************************************************

%block SCF.Mixers
  Pulay
%endblock SCF.Mixers

%block SCF.Mixer.Pulay
  # Mixing method
  method pulay
  variant stable

  # Mixing options
  weight 0.2500
  weight.linear 0.2500
  history 4
%endblock SCF.Mixer.Pulay

DM_history_depth set to one: no extrapolation allowed by default for geometry relaxation
Size of DM history Fstack: 1
Total number of electrons:    16.000000
Total ionic charge:    16.000000

* ProcessorY, Blocksize:    3   1


* Orbital distribution balance (max,min):     3     2

 Kpoints in:           18 . Kpoints trimmed:           14

siesta: k-grid: Number of k-points =    14
siesta: k-grid: Cutoff (effective) =     6.403 Ang
siesta: k-grid: Supercell and displacements
siesta: k-grid:    3   0   0      0.000
siesta: k-grid:    0   3   0      0.000
siesta: k-grid:    0   0   3      0.000

diag: Algorithm                                     = Expert
diag: Parallel over k                               =   T
diag: Use parallel 2D distribution                  =   T
diag: Parallel block-size                           = 1
diag: Parallel distribution                         =     3 x     4
diag: Used triangular part                          = Lower
diag: Absolute tolerance                            =  0.100E-15
diag: Orthogonalization factor                      =  0.100E-05
diag: Memory factor                                 =  1.0000

superc: Internal auxiliary supercell:     9 x     9 x     5  =     405
superc: Number of atoms, orbitals, and projectors:   5265  12960  47385


ts: **************************************************************
ts: Save H and S matrices                           =    F
ts: Save DM and EDM matrices                        =    F
ts: Only save the overlap matrix S                  =    F
ts: **************************************************************

************************ Begin: TS CHECKS AND WARNINGS ************************
************************ End: TS CHECKS AND WARNINGS **************************


                     ====================================
                        Single-point calculation
                     ====================================

outcoor: Atomic coordinates (Ang):                          
    0.00000000    0.00000000    0.00000000   2       1  C-gga
    1.42144380    0.00000000    1.50992350   1       2  Li-gga
    2.84715620    0.00000000    4.52977050   1       3  Li-gga
   -0.71072190    1.23100644    1.50992350   1       4  Li-gga
   -1.42357810    2.46570960    4.52977050   1       5  Li-gga
    1.42357810    2.46570960    1.50992350   1       6  Li-gga
    0.71072190    1.23100644    4.52977050   1       7  Li-gga
    2.84715620    0.00000000    1.50992350   1       8  Li-gga
    1.42144380    0.00000000    4.52977050   1       9  Li-gga
   -1.42357810    2.46570960    1.50992350   1      10  Li-gga
   -0.71072190    1.23100644    4.52977050   1      11  Li-gga
    0.71072190    1.23100644    1.50992350   1      12  Li-gga
    1.42357810    2.46570960    4.52977050   1      13  Li-gga

superc: Internal auxiliary supercell:     9 x     9 x     5  =     405
superc: Number of atoms, orbitals, and projectors:   5265  12960  47385

outcell: Unit cell vectors (Ang):
        4.268600    0.000000    0.000000
       -2.134300    3.696716    0.000000
        0.000000    0.000000    6.039694

outcell: Cell vector modules (Ang)   :    4.268600    4.268600    6.039694
outcell: Cell angles (23,13,12) (deg):     90.0000     90.0000    120.0000
outcell: Cell volume (Ang**3)        :     95.3052
<dSpData1D:S at geom step 0
  <sparsity:sparsity for geom step 0
    nrows_g=32 nrows=3 sparsity=7.7402 nnzs=7926, refcount: 7>
  <dData1D:(new from dSpData1D) n=7926, refcount: 1>
refcount: 1>
new_DM -- step:     1
Initializing Density Matrix...
DM filled with atomic data:
<dSpData2D:DM initialized from atoms
  <sparsity:sparsity for geom step 0
    nrows_g=32 nrows=3 sparsity=7.7402 nnzs=7926, refcount: 8>
  <dData2D:DM n=7926 m=1, refcount: 1>
refcount: 1>
No. of atoms with KB's overlaping orbs in proc 0. Max # of overlaps:     294     395
New grid distribution:   1
           1       1:   20    1:    7    1:    8
           2       1:   20    1:    7    9:   16
           3       1:   20    1:    7   17:   24
           4       1:   20    1:    7   25:   32
           5       1:   20    8:   14    1:    8
           6       1:   20    8:   14    9:   16
           7       1:   20    8:   14   17:   24
           8       1:   20    8:   14   25:   32
           9       1:   20   15:   20    1:    8
          10       1:   20   15:   20    9:   16
          11       1:   20   15:   20   17:   24
          12       1:   20   15:   20   25:   32

InitMesh: MESH =    40 x    40 x    64 =      102400
InitMesh: (bp) =    20 x    20 x    32 =       12800
InitMesh: Mesh cutoff (required, used) =   300.000   310.336 Ry
ExtMesh (bp) on 0 =   160 x   147 x   144 =     3386880
New grid distribution:   2
           1       1:    7    1:   10    1:   16
           2       8:   20   11:   20   17:   24
           3       1:    7    1:   10   17:   32
           4       8:   20    1:   10    1:    8
           5       8:   20   11:   20    1:    8
           6       8:   20    1:   10    9:   16
           7       1:    7   11:   20   17:   32
           8       8:   20    1:   10   25:   32
           9       1:    7   11:   20    1:   16
          10       8:   20    1:   10   17:   24
          11       8:   20   11:   20    9:   16
          12       8:   20   11:   20   25:   32
New grid distribution:   3
           1       1:    7    1:   10    1:   16
           2       8:   20   11:   20   17:   24
           3       1:    7    1:   10   17:   32
           4       8:   20    1:   10    1:    8
           5       8:   20   11:   20    1:    8
           6       8:   20    1:   10    9:   16
           7       1:    7   11:   20   17:   32
           8       8:   20    1:   10   25:   32
           9       1:    7   11:   20    1:   16
          10       8:   20    1:   10   17:   24
          11       8:   20   11:   20    9:   16
          12       8:   20   11:   20   25:   32
Setting up quadratic distribution...
ExtMesh (bp) on 0 =   147 x   150 x   152 =     3351600
PhiOnMesh: Number of (b)points on node 0 =                 1120
PhiOnMesh: nlist on node 0 =               222478

stepf: Fermi-Dirac step function

siesta: Program's energy decomposition (eV):
siesta: Ebs     =      -203.340119
siesta: Eions   =       380.620085
siesta: Ena     =       100.736881
siesta: Ekin    =       237.905186
siesta: Enl     =        14.739313
siesta: Eso     =         0.000000
siesta: Edftu   =         0.000000
siesta: DEna    =       -19.356308
siesta: DUscf   =        15.234074
siesta: DUext   =         0.000000
siesta: Exc     =      -172.713045
siesta: eta*DQ  =         0.000000
siesta: Emadel  =         0.000000
siesta: Emeta   =         0.000000
siesta: Emolmec =        -6.130385
siesta: Ekinion =         0.000000
siesta: Eharris =      -168.156797
siesta: Etot    =      -210.204369
siesta: FreeEng =      -210.209678

        iscf     Eharris(eV)        E_KS(eV)     FreeEng(eV)     dDmax    Ef(eV) dHmax(eV)
   scf:    1     -168.156797     -210.204369     -210.209678 68.890258-11.803061 15.617873
timer: Routine,Calls,Time,% = IterSCF        1       1.372  20.31
   scf:    2     -222.808377     -218.819094     -218.824405 11.537420-12.046090  2.212788
   scf:    3     -219.067852     -219.009278     -219.014601  2.066864-12.120253  0.079281
   scf:    4     -219.018911     -219.014591     -219.019923  1.029041-12.179493  0.063202
   scf:    5     -219.014657     -219.014916     -219.020257  0.256563-12.218422  0.081600
   scf:    6     -219.015389     -219.015260     -219.020597  0.099731-12.216329  0.001021
   scf:    7     -219.015261     -219.015261     -219.020598  0.003394-12.216561  0.001096
   scf:    8     -219.015261     -219.015261     -219.020598  0.005990-12.216999  0.000431
   scf:    9     -219.015261     -219.015261     -219.020598  0.002064-12.217079  0.000136
   scf:   10     -219.015261     -219.015261     -219.020598  0.000334-12.217041  0.000091

SCF Convergence by FreeE+DM+H criterion
|FreeE_i-FreeE_(i-1)| (eV) <     0.00100000
max |DM_out - DM_in|         :     0.0003337413
max |H_out - H_in|      (eV) :     0.0000905893
SCF cycle converged after 10 iterations

Using DM_out to compute the final energy and forces
No. of atoms with KB's overlaping orbs in proc 0. Max # of overlaps:     294     395

MM-Stress (kbar):       19.30       19.30       62.11        0.00        0.00        0.00

siesta: E_KS(eV) =             -219.0153

siesta: E_KS - E_eggbox =      -219.0153

siesta: Atomic forces (eV/Ang):
     1    0.000000    0.000000    0.000000
     2   -0.975664   -0.000022   -0.541812
     3    0.975664    0.000022    0.541812
     4    0.487813   -0.844961   -0.541812
     5   -0.487813    0.844961    0.541812
     6    0.487839    0.844961   -0.541839
     7   -0.487839   -0.844961    0.541840
     8    0.975664    0.000022   -0.541812
     9   -0.975664   -0.000022    0.541812
    10   -0.487813    0.844961   -0.541812
    11    0.487813   -0.844961    0.541812
    12   -0.487839   -0.844961   -0.541840
    13    0.487839    0.844961    0.541839
----------------------------------------
   Tot   -0.000000    0.000000    0.000000
----------------------------------------
   Max    0.975664
   Res    0.619056    sqrt( Sum f_i^2 / 3N )
----------------------------------------
   Max    0.975664    constrained

Stress tensor Voigt[x,y,z,yz,xz,xy] (kbar):    -1633.65    -1633.66      583.84       -0.00       -0.00       -0.01
(Free)E + p*V (eV/cell)     -165.8126
Target enthalpy (eV/cell)     -219.0206

siesta: Eigenvalues (eV):
  ik is       eps
   1  1  -23.2043  -17.3827  -16.8770  -16.8770  -15.5975  -15.5974  -15.3485  -12.2171  -12.2171   -6.8927
          -5.3441   -5.3436   -0.9401    1.9503    2.3997    3.9648    3.9649   14.2371   14.2371   16.0033
   20.0373   20.0374   20.8251   25.4043   25.4043   28.1941   40.7453   40.7454   42.0654   55.5131
   55.5131   55.8831
   2  1  -23.4073  -17.7650  -17.4702  -16.3549  -15.0215  -14.7595  -13.0978  -12.8547  -11.5589   -9.6028
          -4.9603   -3.6919   -3.2964   -0.3938    0.7037    5.5453    8.4806   12.6537   13.9531   15.4441
   18.5551   19.6034   19.7684   20.6085   20.8520   22.7523   24.0095   27.2559   29.5590   37.8364
   54.1081   55.3442
   3  1  -23.4073  -17.7650  -17.4702  -16.3548  -15.0215  -14.7596  -13.0978  -12.8547  -11.5589   -9.6028
          -4.9600   -3.6919   -3.2964   -0.3937    0.7033    5.5453    8.4806   12.6537   13.9530   15.4442
   18.5551   19.6034   19.7684   20.6086   20.8520   22.7522   24.0095   27.2560   29.5589   37.8364
   54.1080   55.3442
   4  1  -23.4073  -17.7650  -17.4702  -16.3549  -15.0215  -14.7595  -13.0978  -12.8547  -11.5589   -9.6028
          -4.9603   -3.6919   -3.2964   -0.3938    0.7037    5.5453    8.4806   12.6537   13.9531   15.4441
   18.5551   19.6034   19.7684   20.6085   20.8520   22.7523   24.0095   27.2559   29.5590   37.8364
   54.1081   55.3442
   5  1  -23.7346  -18.2941  -17.6005  -14.3741  -14.3739  -13.4506   -4.0165   -4.0165   -3.7070   -2.1076
          -2.1076   -1.6802   -1.6802   -1.1170    0.7996    0.8000    5.8048    5.8050   13.9925   19.8936
   21.8590   29.4982   29.4983   30.0687   30.0687   38.8752   62.1839   68.5983   68.5984   95.4414
   95.4417  108.0799
   6  1  -23.1602  -17.2839  -16.7321  -16.7320  -15.5594  -15.5594  -15.0490  -12.5912  -12.5911   -8.1537
          -5.3917   -5.3914   -0.4527    1.3892    1.3892    2.5822    4.2137    5.2107    5.2109   12.1620
   12.1620   12.4313   17.5620   17.5620   18.2401   19.7484   19.7484   20.6302   39.6162   41.8590
   41.8590   49.9249
   7  1  -23.4068  -17.6598  -17.1208  -16.9319  -14.8353  -14.6990  -13.3914  -12.4505  -11.2281   -9.8388
          -8.0097   -2.2936   -2.1670   -0.4646    3.7549    3.9071    4.9925    5.3574   10.3840   11.2408
   17.9059   18.7600   19.3938   20.3656   21.3642   21.7470   23.8904   24.9264   41.0850   42.4666
   44.5882   52.1582
   8  1  -23.4068  -17.6598  -17.1208  -16.9318  -14.8354  -14.6990  -13.3914  -12.4505  -11.2280   -9.8388
          -8.0096   -2.2936   -2.1673   -0.4645    3.7550    3.9072    4.9926    5.3573   10.3839   11.2408
   17.9059   18.7600   19.3938   20.3656   21.3642   21.7470   23.8904   24.9263   41.0850   42.4666
   44.5882   52.1581
   9  1  -23.4068  -17.6598  -17.1208  -16.9319  -14.8353  -14.6990  -13.3914  -12.4505  -11.2281   -9.8388
          -8.0097   -2.2936   -2.1670   -0.4646    3.7549    3.9071    4.9925    5.3574   10.3840   11.2408
   17.9059   18.7600   19.3938   20.3656   21.3642   21.7470   23.8904   24.9264   41.0850   42.4666
   44.5882   52.1582
  10  1  -23.6622  -18.7764  -17.0137  -14.4159  -14.4157  -14.2857  -12.6759   -3.7103   -3.7103   -3.3441
          -3.3441   -2.9584   -2.9584   -1.7249    1.3248    2.4551    2.4556    8.8605   14.2715   14.2715
   16.3589   16.3589   21.5746   22.8629   24.1822   24.1824   32.4804   32.4804   52.6968   52.6968
   55.5441  168.5331
  11  1  -23.4068  -17.6598  -17.1208  -16.9319  -14.8353  -14.6990  -13.3914  -12.4505  -11.2281   -9.8388
          -8.0097   -2.2936   -2.1670   -0.4646    3.7549    3.9071    4.9925    5.3574   10.3840   11.2408
   17.9059   18.7600   19.3938   20.3656   21.3642   21.7470   23.8904   24.9264   41.0850   42.4666
   44.5882   52.1582
  12  1  -23.4068  -17.6598  -17.1208  -16.9318  -14.8354  -14.6990  -13.3914  -12.4505  -11.2280   -9.8388
          -8.0096   -2.2936   -2.1673   -0.4645    3.7550    3.9072    4.9926    5.3573   10.3839   11.2408
   17.9059   18.7600   19.3938   20.3656   21.3642   21.7470   23.8904   24.9263   41.0850   42.4666
   44.5882   52.1581
  13  1  -23.4068  -17.6598  -17.1208  -16.9319  -14.8353  -14.6990  -13.3914  -12.4505  -11.2281   -9.8388
          -8.0097   -2.2936   -2.1670   -0.4646    3.7549    3.9071    4.9925    5.3574   10.3840   11.2408
   17.9059   18.7600   19.3938   20.3656   21.3642   21.7470   23.8904   24.9264   41.0850   42.4666
   44.5882   52.1582
  14  1  -23.1602  -17.2839  -16.7321  -16.7320  -15.5594  -15.5594  -15.0490  -12.5912  -12.5911   -8.1537
          -5.3917   -5.3914   -0.4527    1.3892    1.3892    2.5822    4.2137    5.2107    5.2109   12.1620
   12.1620   12.4313   17.5620   17.5620   18.2401   19.7484   19.7484   20.6302   39.6162   41.8590
   41.8590   49.9249
siesta: Fermi energy =     -12.217041 eV

siesta: Program's energy decomposition (eV):
siesta: Ebs     =      -261.473189
siesta: Eions   =       380.620085
siesta: Ena     =       100.736881
siesta: Ekin    =       194.288983
siesta: Enl     =        29.854145
siesta: Eso     =         0.000000
siesta: Edftu   =         0.000000
siesta: DEna    =         4.622890
siesta: DUscf   =         2.194528
siesta: DUext   =         0.000000
siesta: Exc     =      -163.962218
siesta: eta*DQ  =         0.000000
siesta: Emadel  =         0.000000
siesta: Emeta   =         0.000000
siesta: Emolmec =        -6.130385
siesta: Ekinion =         0.000000
siesta: Eharris =      -219.015261
siesta: Etot    =      -219.015261
siesta: FreeEng =      -219.020598

siesta: Final energy (eV):
siesta:  Band Struct. =    -261.473189
siesta:       Kinetic =     194.288983
siesta:       Hartree =      75.689168
siesta:       Edftu   =       0.000000
siesta:       Eso     =       0.000000
siesta:    Ext. field =       0.000000
siesta:   Exch.-corr. =    -163.962218
siesta:  Ion-electron =    -434.212159
siesta:       Ion-ion =     115.311350
siesta:       Ekinion =       0.000000
siesta:         Total =    -219.015261
siesta:         Fermi =     -12.217041

siesta: Atomic forces (eV/Ang):
siesta:      1    0.000000    0.000000    0.000000
siesta:      2   -0.975664   -0.000022   -0.541812
siesta:      3    0.975664    0.000022    0.541812
siesta:      4    0.487813   -0.844961   -0.541812
siesta:      5   -0.487813    0.844961    0.541812
siesta:      6    0.487839    0.844961   -0.541839
siesta:      7   -0.487839   -0.844961    0.541840
siesta:      8    0.975664    0.000022   -0.541812
siesta:      9   -0.975664   -0.000022    0.541812
siesta:     10   -0.487813    0.844961   -0.541812
siesta:     11    0.487813   -0.844961    0.541812
siesta:     12   -0.487839   -0.844961   -0.541840
siesta:     13    0.487839    0.844961    0.541839
siesta: ----------------------------------------
siesta:    Tot   -0.000000    0.000000    0.000000

siesta: Stress tensor (static) (eV/Ang**3):
siesta:    -1.019631   -0.000008   -0.000000
siesta:    -0.000008   -1.019640   -0.000000
siesta:    -0.000000   -0.000000    0.364398

siesta: Cell volume =         95.305176 Ang**3

siesta: Pressure (static):
siesta:                Solid            Molecule  Units
siesta:           0.00608050          0.00538861  Ry/Bohr**3
siesta:           0.55829071          0.49476342  eV/Ang**3
siesta:         894.49000359        792.70695976  kBar
(Free)E+ p_basis*V_orbitals  =        -197.088034
(Free)Eharris+ p_basis*V_orbitals  =        -197.088034

cite: Please see "LiC12_scf.bib" for an exhaustive BiBTeX file.
cite: Please clearly indicate Siesta version in published work: 4.1.5
cite: This calculation has made use of the following articles
cite: which are encouraged to be cited in a published work.
        Primary SIESTA paper
          DOI: www.doi.org/10.1088/0953-8984/14/11/302

>> End of run:   9-NOV-2022   8:30:47
Job completed
