Siesta Version  : 4.1.5
Architecture    : x86_64-unknown-linux-gnu--unknown
Compiler version: GNU Fortran (GCC) 11.3.0
Compiler flags  : mpif90 -g -O2 -fallow-argument-mismatch
PP flags        : -DMPI -DFC_HAVE_FLUSH -DFC_HAVE_ABORT
Libraries       :  -I/global/software/sl-7.x86_64/modules/intel/2020.4.304/mkl/include  /globall/software/sl-7.x86_64/modules/intel/2020.4.304/mkl/lib/intel64/libmkl_scalapack_lp64.a -Wl,--start-group /global/software/sl-7.x86_64/modules/intel/2020.4.304/mkl/lib/intel64/libmkl_intel_lp64.a /global/software/sl-7.x86_64/modules/intel/2020.4.304/mkl/lib/intel64/libmkl_sequential.a /global/software/sl-7.x86_64/modules/intel/2020.4.304/mkl/lib/intel64/libmkl_core.a /global/software/sl-7.x86_64/modules/intel/2020.4.304/mkl/lib/intel64/libmkl_blacs_openmpi_lp64.a -Wl,--end-group -lpthread -lm -ldl
PARALLEL version

* Running on 12 nodes in parallel
>> Start of run:   9-NOV-2022   8:36:37

                           ***********************       
                           *  WELCOME TO SIESTA  *       
                           ***********************       

reinit: Reading from standard input
reinit: Dumped input in INPUT_TMP.64257
************************** Dump of input data file ****************************
SystemName LiC12_scf
SystemLabel LiC12_scf
NumberOfAtoms   13
NumberOfSpecies 2
%block ChemicalSpeciesLabel
1  3   Li-gga
2  6   C-gga
%endblock ChemicalSpeciesLabel
PAO.BasisSize  DZ
PAO.EnergyShift  10 meV
%block PS.Lmax
C-gga   2
Li-gga  2
%endblock PS.Lmax
LatticeConstant 1.000000 Ang
%block LatticeVectors
	4.2686000000	0.0000000000	0.0000000000
	-2.1343000000	3.6967160386	0.0000000000
	0.0000000000	0.0000000000	3.9328240000
%endblock LatticeVectors
AtomicCoordinatesFormat Ang
%block AtomicCoordinatesAndAtomicSpecies
	0.00000000	0.00000000	0.00000000	2
	1.42144380	0.00000000	0.98320600	1
	2.84715620	0.00000000	2.94961800	1
	-0.71072190	1.23100644	0.98320600	1
	-1.42357810	2.46570960	2.94961800	1
	1.42357810	2.46570960	0.98320600	1
	0.71072190	1.23100644	2.94961800	1
	2.84715620	0.00000000	0.98320600	1
	1.42144380	0.00000000	2.94961800	1
	-1.42357810	2.46570960	0.98320600	1
	-0.71072190	1.23100644	2.94961800	1
	0.71072190	1.23100644	0.98320600	1
	1.42357810	2.46570960	2.94961800	1
%endblock AtomicCoordinatesAndAtomicSpecies
Kgrid_NoTRS  T
%block kgrid_MonkhorstPack
3       0       0       0.0
0       3       0       0.0
0       0       3       0.0
%endblock kgrid_MonkhorstPack
AtomCoorFormatOut Ang
BlockSize 1
#ProcessorY 12
Diag.ParallelOverK   T
Diag.DivideAndConquer F
MeshCutoff   300 Ry
SCF.FreeE.Tolerance 1E-3 eV
SCF.EDM.Tolerance   5E-3 eV
DM.Tolerance  1E-3
DM.Require.Energy.Convergence T
DM.NumberPulay 4
XC.Functional GGA
XC.Authors    PBE
UseSaveData        F
MD.TypeOfRun       CG
MD.VariableCell    F
MD.NumCGsteps      00
MD.MaxCGDispl      0.200000 Bohr
MD.MaxStressTol    1.000000 GPa
MD.MaxForceTol     0.010000 eV/Ang
WriteMDHistory T
WriteCoorStep T
WriteForces T
WriteCoorStep    T
WriteEigenValues T
WriteDM    F
MM.UnitsDistance Ang  # what this program prints out DO NOT CHANGE
MM.UnitsEnergy    eV  # what this program prints out DO NOT CHANGE
MM.Grimme.S6     0.75 # Grimme-paper for PBE (correct for your functional)
MM.Grimme.D     20.   # Grimme-paper (correct for your functional)
%block MM.Potentials
  1   1 Grimme     16.69      1.650 # Li, 10.1002/jcc.20495
  1   2 Grimme     17.40      2.277 # Li / C
  2   2 Grimme     18.14      2.904 # C, 10.1002/jcc.20495
%endblock MM.Potentials
#%block ProjectedDensityOfStates
# -200.0  120.0  0.4  12800  eV
#%endblock ProjectedDensityOfStates
************************** End of input data file *****************************

reinit: -----------------------------------------------------------------------
reinit: System Name: LiC12_scf
reinit: -----------------------------------------------------------------------
reinit: System Label: LiC12_scf
reinit: -----------------------------------------------------------------------
Reading two-body potentials
Grimme - two-body potential between 1 and 1
Grimme - two-body potential between 1 and 2
Grimme - two-body potential between 2 and 2

initatom: Reading input for the pseudopotentials and atomic orbitals ----------
Species number:   1 Atomic number:    3 Label: Li-gga
Species number:   2 Atomic number:    6 Label: C-gga

Ground state valence configuration:   2s01
Reading pseudopotential information in formatted form from Li-gga.psf

Valence configuration for pseudopotential generation:
2s( 1.00) rc: 2.28
2p( 0.00) rc: 2.28
3d( 0.00) rc: 2.59
4f( 0.00) rc: 2.59
Ground state valence configuration:   2s02  2p02
Reading pseudopotential information in formatted form from C-gga.psf

Valence configuration for pseudopotential generation:
2s( 2.00) rc: 1.56
2p( 2.00) rc: 1.56
3d( 0.00) rc: 1.56
4f( 0.00) rc: 1.56
relmxkb: Read Max KB Ang. Momentum=    2 for species C-gga
relmxkb: Read Max KB Ang. Momentum=    2 for species Li-gga

<basis_specs>
===============================================================================
Li-gga               Z=   3    Mass=  6.9400        Charge= 0.17977+309
Lmxo=0 Lmxkb= 2    BasisType=split      Semic=F
L=0  Nsemic=0  Cnfigmx=2
          i=1  nzeta=2  polorb=0  (2s)
            splnorm:   0.15000    
               vcte:    0.0000    
               rinn:    0.0000    
               qcoe:    0.0000    
               qyuk:    0.0000    
               qwid:   0.10000E-01
                rcs:    0.0000      0.0000    
            lambdas:    1.0000      1.0000    
-------------------------------------------------------------------------------
L=0  Nkbl=1  erefs: 0.17977+309
L=1  Nkbl=1  erefs: 0.17977+309
L=2  Nkbl=1  erefs: 0.17977+309
===============================================================================
</basis_specs>

atom: Called for Li-gga                (Z =   3)

read_vps: Pseudopotential generation method:
read_vps: ATM 3.2.2 Troullier-Martins                       
Valence charge for ps generation:    1.00000

read_vps: Pseudopotential includes a core correction:
read_vps: Pseudo-core for xc-correction

xc_check: Exchange-correlation functional:
xc_check: GGA Perdew, Burke & Ernzerhof 1996
V l=0 = -2*Zval/r beyond r=  2.2278
V l=1 = -2*Zval/r beyond r=  2.2278
V l=2 = -2*Zval/r beyond r=  2.5245
All V_l potentials equal beyond r=  2.4622
This should be close to max(r_c) in ps generation
All pots = -2*Zval/r beyond r=  2.5245

VLOCAL1: 99.0% of the norm of Vloc inside      7.160 Ry
VLOCAL1: 99.9% of the norm of Vloc inside     16.318 Ry
atom: Maximum radius for 4*pi*r*r*local-pseudopot. charge    2.86079
atom: Maximum radius for r*vlocal+2*Zval:    2.43160
GHOST: No ghost state for L =  0
GHOST: No ghost state for L =  1
GHOST: No ghost state for L =  2

KBgen: Kleinman-Bylander projectors: 
   l= 0   rc=  2.654023   el= -0.211234   Ekb=  1.742119   kbcos=  0.228463
   l= 1   rc=  2.721230   el= -0.080095   Ekb= -1.122375   kbcos= -0.147941
   l= 2   rc=  2.825246   el=  0.002001   Ekb= -0.207076   kbcos= -0.031965

KBgen: Total number of Kleinman-Bylander projectors:    9
atom: -------------------------------------------------------------------------

atom: SANKEY-TYPE ORBITALS:
atom: Selected multiple-zeta basis: split     

SPLIT: Orbitals with angular momentum L= 0

SPLIT: Basis orbitals for state 2s

SPLIT: PAO cut-off radius determined from an
SPLIT: energy shift=  0.000735 Ry

   izeta = 1
                 lambda =    1.000000
                     rc =   11.897381
                 energy =   -0.210580
                kinetic =    0.143382
    potential(screened) =   -0.353962
       potential(ionic) =   -0.533453

   izeta = 2
                 rmatch =    8.489163
              splitnorm =    0.150000
                 energy =   -0.186081
                kinetic =    0.225882
    potential(screened) =   -0.411964
       potential(ionic) =   -0.593024
atom: Total number of Sankey-type orbitals:  2

atm_pop: Valence configuration (for local Pseudopot. screening):
 2s( 1.00)                                                            
Vna: chval, zval:    1.00000   1.00000

Vna:  Cut-off radius for the neutral-atom potential:  11.897381
comcore: Pseudo-core radius Rcore=  3.450946

atom: _________________________________________________________________________

<basis_specs>
===============================================================================
C-gga                Z=   6    Mass=  12.010        Charge= 0.17977+309
Lmxo=1 Lmxkb= 2    BasisType=split      Semic=F
L=0  Nsemic=0  Cnfigmx=2
          i=1  nzeta=2  polorb=0  (2s)
            splnorm:   0.15000    
               vcte:    0.0000    
               rinn:    0.0000    
               qcoe:    0.0000    
               qyuk:    0.0000    
               qwid:   0.10000E-01
                rcs:    0.0000      0.0000    
            lambdas:    1.0000      1.0000    
L=1  Nsemic=0  Cnfigmx=2
          i=1  nzeta=2  polorb=0  (2p)
            splnorm:   0.15000    
               vcte:    0.0000    
               rinn:    0.0000    
               qcoe:    0.0000    
               qyuk:    0.0000    
               qwid:   0.10000E-01
                rcs:    0.0000      0.0000    
            lambdas:    1.0000      1.0000    
-------------------------------------------------------------------------------
L=0  Nkbl=1  erefs: 0.17977+309
L=1  Nkbl=1  erefs: 0.17977+309
L=2  Nkbl=1  erefs: 0.17977+309
===============================================================================
</basis_specs>

atom: Called for C-gga                 (Z =   6)

read_vps: Pseudopotential generation method:
read_vps: ATM 3.2.2 Troullier-Martins                       
Valence charge for ps generation:    4.00000

xc_check: Exchange-correlation functional:
xc_check: GGA Perdew, Burke & Ernzerhof 1996
V l=0 = -2*Zval/r beyond r=  1.5227
V l=1 = -2*Zval/r beyond r=  1.5227
V l=2 = -2*Zval/r beyond r=  1.5227
All V_l potentials equal beyond r=  1.4851
This should be close to max(r_c) in ps generation
All pots = -2*Zval/r beyond r=  1.5227

VLOCAL1: 99.0% of the norm of Vloc inside     19.682 Ry
VLOCAL1: 99.9% of the norm of Vloc inside     44.856 Ry
atom: Maximum radius for 4*pi*r*r*local-pseudopot. charge    1.79142
atom: Maximum radius for r*vlocal+2*Zval:    1.54183
GHOST: No ghost state for L =  0
GHOST: No ghost state for L =  1
GHOST: No ghost state for L =  2

KBgen: Kleinman-Bylander projectors: 
   l= 0   rc=  1.661951   el= -1.010689   Ekb=  5.289847   kbcos=  0.316429
   l= 1   rc=  1.661951   el= -0.388490   Ekb= -4.102504   kbcos= -0.351025
   l= 2   rc=  1.747182   el=  0.001971   Ekb= -1.006005   kbcos= -0.008530

KBgen: Total number of Kleinman-Bylander projectors:    9
atom: -------------------------------------------------------------------------

atom: SANKEY-TYPE ORBITALS:
atom: Selected multiple-zeta basis: split     

SPLIT: Orbitals with angular momentum L= 0

SPLIT: Basis orbitals for state 2s

SPLIT: PAO cut-off radius determined from an
SPLIT: energy shift=  0.000735 Ry

   izeta = 1
                 lambda =    1.000000
                     rc =    5.948690
                 energy =   -1.010099
                kinetic =    0.827121
    potential(screened) =   -1.837220
       potential(ionic) =   -5.392783

   izeta = 2
                 rmatch =    3.518811
              splitnorm =    0.150000
                 energy =   -0.877891
                kinetic =    1.289227
    potential(screened) =   -2.167118
       potential(ionic) =   -5.982073

SPLIT: Orbitals with angular momentum L= 1

SPLIT: Basis orbitals for state 2p

SPLIT: PAO cut-off radius determined from an
SPLIT: energy shift=  0.000735 Ry

   izeta = 1
                 lambda =    1.000000
                     rc =    7.638387
                 energy =   -0.387843
                kinetic =    2.314739
    potential(screened) =   -2.702582
       potential(ionic) =   -6.092371

   izeta = 2
                 rmatch =    3.840617
              splitnorm =    0.150000
                 energy =   -0.270479
                kinetic =    3.438347
    potential(screened) =   -3.708826
       potential(ionic) =   -7.497707
atom: Total number of Sankey-type orbitals:  8

atm_pop: Valence configuration (for local Pseudopot. screening):
 2s( 2.00)                                                            
 2p( 2.00)                                                            
Vna: chval, zval:    4.00000   4.00000

Vna:  Cut-off radius for the neutral-atom potential:   7.638387

atom: _________________________________________________________________________

prinput: Basis input ----------------------------------------------------------

PAO.BasisType split     

%block ChemicalSpeciesLabel
    1    3 Li-gga                  # Species index, atomic number, species label
    2    6 C-gga                   # Species index, atomic number, species label
%endblock ChemicalSpeciesLabel

%block PAO.Basis                 # Define Basis set
Li-gga                1                    # Species label, number of l-shells
 n=2   0   2                         # n, l, Nzeta 
  11.897      8.489   
   1.000      1.000   
C-gga                 2                    # Species label, number of l-shells
 n=2   0   2                         # n, l, Nzeta 
   5.949      3.519   
   1.000      1.000   
 n=2   1   2                         # n, l, Nzeta 
   7.638      3.841   
   1.000      1.000   
%endblock PAO.Basis

prinput: ----------------------------------------------------------------------

coor:   Atomic-coordinates input format  =     Cartesian coordinates
coor:                                          (in Angstroms)

siesta: Atomic coordinates (Bohr) and species
siesta:      0.00000   0.00000   0.00000  2        1
siesta:      2.68614   0.00000   1.85799  1        2
siesta:      5.38035   0.00000   5.57397  1        3
siesta:     -1.34307   2.32627   1.85799  1        4
siesta:     -2.69017   4.65952   5.57397  1        5
siesta:      2.69017   4.65952   1.85799  1        6
siesta:      1.34307   2.32627   5.57397  1        7
siesta:      5.38035   0.00000   1.85799  1        8
siesta:      2.68614   0.00000   5.57397  1        9
siesta:     -2.69017   4.65952   1.85799  1       10
siesta:     -1.34307   2.32627   5.57397  1       11
siesta:      1.34307   2.32627   1.85799  1       12
siesta:      2.69017   4.65952   5.57397  1       13

siesta: System type = bulk      

initatomlists: Number of atoms, orbitals, and projectors:     13    32   117

siesta: ******************** Simulation parameters ****************************
siesta:
siesta: The following are some of the parameters of the simulation.
siesta: A complete list of the parameters used, including default values,
siesta: can be found in file out.fdf
siesta:
redata: Spin configuration                          = none
redata: Number of spin components                   = 1
redata: Time-Reversal Symmetry                      = T
redata: Spin spiral                                 = F
redata: Long output                                 =   F
redata: Number of Atomic Species                    =        2
redata: Charge density info will appear in .RHO file
redata: Write Mulliken Pop.                         = NO
redata: Matel table size (NRTAB)                    =     1024
redata: Mesh Cutoff                                 =   300.0000 Ry
redata: Net charge of the system                    =     0.0000 |e|
redata: Min. number of SCF Iter                     =        0
redata: Max. number of SCF Iter                     =     1000
redata: SCF convergence failure will abort job
redata: SCF mix quantity                            = Hamiltonian
redata: Mix DM or H after convergence               =   F
redata: Recompute H after scf cycle                 =   F
redata: Mix DM in first SCF step                    =   T
redata: Write Pulay info on disk                    =   F
redata: New DM Occupancy tolerance                  = 0.000000000001
redata: No kicks to SCF
redata: DM Mixing Weight for Kicks                  =     0.5000
redata: Require Harris convergence for SCF          =   F
redata: Harris energy tolerance for SCF             =     0.000100 eV
redata: Require DM convergence for SCF              =   T
redata: DM tolerance for SCF                        =     0.001000
redata: Require EDM convergence for SCF             =   F
redata: EDM tolerance for SCF                       =     0.005000 eV
redata: Require H convergence for SCF               =   T
redata: Hamiltonian tolerance for SCF               =     0.001000 eV
redata: Require (free) Energy convergence for SCF   =   T
redata: (free) Energy tolerance for SCF             =     0.001000 eV
redata: Using Saved Data (generic)                  =   F
redata: Use continuation files for DM               =   F
redata: Neglect nonoverlap interactions             =   F
redata: Method of Calculation                       = Diagonalization
redata: Electronic Temperature                      =   299.9869 K
redata: Fix the spin of the system                  =   F
redata: Dynamics option                             = Single-point calculation
mix.SCF: Pulay mixing                            = Pulay
mix.SCF:    Variant                              = stable
mix.SCF:    History steps                        = 4
mix.SCF:    Linear mixing weight                 =     0.250000
mix.SCF:    Mixing weight                        =     0.250000
mix.SCF:    SVD condition                        = 0.1000E-07
redata: ***********************************************************************

%block SCF.Mixers
  Pulay
%endblock SCF.Mixers

%block SCF.Mixer.Pulay
  # Mixing method
  method pulay
  variant stable

  # Mixing options
  weight 0.2500
  weight.linear 0.2500
  history 4
%endblock SCF.Mixer.Pulay

DM_history_depth set to one: no extrapolation allowed by default for geometry relaxation
Size of DM history Fstack: 1
Total number of electrons:    16.000000
Total ionic charge:    16.000000

* ProcessorY, Blocksize:    3   1


* Orbital distribution balance (max,min):     3     2

 Kpoints in:           18 . Kpoints trimmed:           14

siesta: k-grid: Number of k-points =    14
siesta: k-grid: Cutoff (effective) =     5.899 Ang
siesta: k-grid: Supercell and displacements
siesta: k-grid:    3   0   0      0.000
siesta: k-grid:    0   3   0      0.000
siesta: k-grid:    0   0   3      0.000

diag: Algorithm                                     = Expert
diag: Parallel over k                               =   T
diag: Use parallel 2D distribution                  =   T
diag: Parallel block-size                           = 1
diag: Parallel distribution                         =     3 x     4
diag: Used triangular part                          = Lower
diag: Absolute tolerance                            =  0.100E-15
diag: Orthogonalization factor                      =  0.100E-05
diag: Memory factor                                 =  1.0000

superc: Internal auxiliary supercell:     9 x     9 x     7  =     567
superc: Number of atoms, orbitals, and projectors:   7371  18144  66339


ts: **************************************************************
ts: Save H and S matrices                           =    F
ts: Save DM and EDM matrices                        =    F
ts: Only save the overlap matrix S                  =    F
ts: **************************************************************

************************ Begin: TS CHECKS AND WARNINGS ************************
************************ End: TS CHECKS AND WARNINGS **************************


                     ====================================
                        Single-point calculation
                     ====================================

outcoor: Atomic coordinates (Ang):                          
    0.00000000    0.00000000    0.00000000   2       1  C-gga
    1.42144380    0.00000000    0.98320600   1       2  Li-gga
    2.84715620    0.00000000    2.94961800   1       3  Li-gga
   -0.71072190    1.23100644    0.98320600   1       4  Li-gga
   -1.42357810    2.46570960    2.94961800   1       5  Li-gga
    1.42357810    2.46570960    0.98320600   1       6  Li-gga
    0.71072190    1.23100644    2.94961800   1       7  Li-gga
    2.84715620    0.00000000    0.98320600   1       8  Li-gga
    1.42144380    0.00000000    2.94961800   1       9  Li-gga
   -1.42357810    2.46570960    0.98320600   1      10  Li-gga
   -0.71072190    1.23100644    2.94961800   1      11  Li-gga
    0.71072190    1.23100644    0.98320600   1      12  Li-gga
    1.42357810    2.46570960    2.94961800   1      13  Li-gga

superc: Internal auxiliary supercell:     9 x     9 x     7  =     567
superc: Number of atoms, orbitals, and projectors:   7371  18144  66339

outcell: Unit cell vectors (Ang):
        4.268600    0.000000    0.000000
       -2.134300    3.696716    0.000000
        0.000000    0.000000    3.932824

outcell: Cell vector modules (Ang)   :    4.268600    4.268600    3.932824
outcell: Cell angles (23,13,12) (deg):     90.0000     90.0000    120.0000
outcell: Cell volume (Ang**3)        :     62.0592
<dSpData1D:S at geom step 0
  <sparsity:sparsity for geom step 0
    nrows_g=32 nrows=3 sparsity=12.8867 nnzs=13196, refcount: 7>
  <dData1D:(new from dSpData1D) n=13196, refcount: 1>
refcount: 1>
new_DM -- step:     1
Initializing Density Matrix...
DM filled with atomic data:
<dSpData2D:DM initialized from atoms
  <sparsity:sparsity for geom step 0
    nrows_g=32 nrows=3 sparsity=12.8867 nnzs=13196, refcount: 8>
  <dData2D:DM n=13196 m=1, refcount: 1>
refcount: 1>
No. of atoms with KB's overlaping orbs in proc 0. Max # of overlaps:     478     614
New grid distribution:   1
           1       1:   20    1:    7    1:    6
           2       1:   20    1:    7    7:   12
           3       1:   20    1:    7   13:   18
           4       1:   20    1:    7   19:   24
           5       1:   20    8:   14    1:    6
           6       1:   20    8:   14    7:   12
           7       1:   20    8:   14   13:   18
           8       1:   20    8:   14   19:   24
           9       1:   20   15:   20    1:    6
          10       1:   20   15:   20    7:   12
          11       1:   20   15:   20   13:   18
          12       1:   20   15:   20   19:   24

InitMesh: MESH =    40 x    40 x    48 =       76800
InitMesh: (bp) =    20 x    20 x    24 =        9600
InitMesh: Mesh cutoff (required, used) =   300.000   323.586 Ry
ExtMesh (bp) on 0 =   160 x   147 x   162 =     3810240
New grid distribution:   2
           1       1:    7    1:   10    1:   12
           2       8:   20   11:   20   13:   18
           3       1:    7    1:   10   13:   24
           4       8:   20    1:   10    1:    6
           5       8:   20   11:   20    1:    6
           6       8:   20    1:   10    7:   12
           7       1:    7   11:   20   13:   24
           8       8:   20    1:   10   19:   24
           9       1:    7   11:   20    1:   12
          10       8:   20    1:   10   13:   18
          11       8:   20   11:   20    7:   12
          12       8:   20   11:   20   19:   24
New grid distribution:   3
           1       1:    7    1:   10    1:   12
           2       8:   20   11:   20   13:   18
           3       1:    7    1:   10   13:   24
           4       8:   20    1:   10    1:    6
           5       8:   20   11:   20    1:    6
           6       8:   20    1:   10    7:   12
           7       1:    7   11:   20   13:   24
           8       8:   20    1:   10   19:   24
           9       1:    7   11:   20    1:   12
          10       8:   20    1:   10   13:   18
          11       8:   20   11:   20    7:   12
          12       8:   20   11:   20   19:   24
Setting up quadratic distribution...
ExtMesh (bp) on 0 =   147 x   150 x   168 =     3704400
PhiOnMesh: Number of (b)points on node 0 =                  840
PhiOnMesh: nlist on node 0 =               255671

stepf: Fermi-Dirac step function

siesta: Program's energy decomposition (eV):
siesta: Ebs     =      -297.866726
siesta: Eions   =       380.620085
siesta: Ena     =        76.059864
siesta: Ekin    =       327.110319
siesta: Enl     =        -0.257882
siesta: Eso     =         0.000000
siesta: Edftu   =         0.000000
siesta: DEna    =       -49.230959
siesta: DUscf   =        32.859536
siesta: DUext   =         0.000000
siesta: Exc     =      -197.323409
siesta: eta*DQ  =         0.000000
siesta: Emadel  =         0.000000
siesta: Emeta   =         0.000000
siesta: Emolmec =       -11.817188
siesta: Ekinion =         0.000000
siesta: Eharris =      -147.736286
siesta: Etot    =      -203.219805
siesta: FreeEng =      -203.226396

        iscf     Eharris(eV)        E_KS(eV)     FreeEng(eV)     dDmax    Ef(eV) dHmax(eV)
   scf:    1     -147.736286     -203.219805     -203.226396127.973849-16.823694 20.213522
timer: Routine,Calls,Time,% = IterSCF        1       2.514  22.18
   scf:    2     -224.905490     -215.575535     -215.582127 40.829042-17.237177  8.224801
   scf:    3     -218.761783     -218.255132     -218.261735 37.495365-17.493013  1.127380
   scf:    4     -218.092907     -218.240779     -218.247370  9.495054-17.365292  1.210745
   scf:    5     -218.338216     -218.300203     -218.306794  3.582871-17.332737  0.330866
   scf:    6     -218.306744     -218.304275     -218.310866  1.014795-17.349854  0.078175
   scf:    7     -218.304604     -218.304516     -218.311107  0.300868-17.356606  0.000332
   scf:    8     -218.304516     -218.304516     -218.311108  0.001367-17.356635  0.000327
   scf:    9     -218.304516     -218.304516     -218.311108  0.002857-17.356723  0.000005
   scf:   10     -218.304516     -218.304516     -218.311108  0.000034-17.356720  0.000003

SCF Convergence by FreeE+DM+H criterion
|FreeE_i-FreeE_(i-1)| (eV) <     0.00100000
max |DM_out - DM_in|         :     0.0000340886
max |H_out - H_in|      (eV) :     0.0000033235
SCF cycle converged after 10 iterations

Using DM_out to compute the final energy and forces
No. of atoms with KB's overlaping orbs in proc 0. Max # of overlaps:     478     614

MM-Stress (kbar):      179.13      179.13      739.46        0.00        0.00       -0.00

siesta: E_KS(eV) =             -218.3045

siesta: E_KS - E_eggbox =      -218.3045

siesta: Atomic forces (eV/Ang):
     1   -0.000000   -0.000000    0.000000
     2    1.449039   -0.000101    0.775862
     3   -1.449038    0.000053   -0.775931
     4   -0.724532    1.254897    0.775985
     5    0.724565   -1.254878   -0.775931
     6   -0.724477   -1.254831    0.775892
     7    0.724477    1.254831   -0.775892
     8   -1.449039   -0.000070    0.775862
     9    1.449038    0.000022   -0.775931
    10    0.724459   -1.254940    0.775862
    11   -0.724532    1.254897   -0.775985
    12    0.724477    1.254831    0.775892
    13   -0.724477   -1.254831   -0.775892
----------------------------------------
   Tot   -0.000041   -0.000120   -0.000206
----------------------------------------
   Max    1.449039
   Res    0.911747    sqrt( Sum f_i^2 / 3N )
----------------------------------------
   Max    1.449039    constrained

Stress tensor Voigt[x,y,z,yz,xz,xy] (kbar):    -2707.15    -2707.19    -1085.72        0.02        0.01       -0.04
(Free)E + p*V (eV/cell)     -134.3869
Target enthalpy (eV/cell)     -218.3111

siesta: Eigenvalues (eV):
  ik is       eps
   1  1  -30.6922  -24.7564  -24.7564  -23.0863  -23.0860  -22.0228  -21.4382  -14.1116  -14.1116   -8.9097
          -8.9093   -4.8875   -2.9624   -2.1691   -2.1690   -0.1950    7.9265    7.9266    9.5060   11.5502
   11.5502   13.4552   13.5637   13.5637   15.8853   47.9106   47.9106   54.2408   73.1519   94.1588
   94.1589  117.8798
   2  1  -31.0539  -25.2924  -24.4803  -22.6597  -21.9494  -21.2540  -20.5785  -16.3748  -13.4291   -8.9142
          -7.5578   -6.1145   -4.1295   -1.4624    0.2691    2.2425    5.5464    9.2366   10.0257   10.9341
   12.8258   12.8931   13.7468   18.0055   18.5092   34.7923   38.0195   43.8179   49.8659   53.3517
   55.1711   69.3732
   3  1  -31.0539  -25.2924  -24.4803  -22.6596  -21.9496  -21.2540  -20.5784  -16.3748  -13.4291   -8.9140
          -7.5580   -6.1145   -4.1293   -1.4625    0.2689    2.2425    5.5464    9.2366   10.0257   10.9341
   12.8257   12.8931   13.7469   18.0056   18.5092   34.7922   38.0195   43.8178   49.8660   53.3516
   55.1711   69.3732
   4  1  -31.0539  -25.2924  -24.4803  -22.6597  -21.9494  -21.2540  -20.5785  -16.3748  -13.4291   -8.9142
          -7.5578   -6.1145   -4.1295   -1.4624    0.2691    2.2425    5.5464    9.2366   10.0257   10.9341
   12.8258   12.8931   13.7468   18.0055   18.5092   34.7923   38.0195   43.8179   49.8659   53.3517
   55.1711   69.3732
   5  1  -31.3842  -25.7718  -22.0456  -22.0453  -21.0515  -16.4392  -16.4392  -12.7779   -9.1297   -9.1291
          -8.1437    0.8145    0.8146    0.8765    0.8766    3.2305   10.6743   10.6743   11.6984   13.3372
   20.2447   31.4106   31.4106   41.7047   41.7047   45.6184   45.6184   46.0557   46.0557   46.9207
   86.1603  440.8720
   6  1  -30.3660  -24.6500  -24.6500  -24.4444  -23.4880  -23.4880  -19.1910  -19.1907  -17.8911  -12.5592
          -3.3780   -3.3776   -2.0218    2.1143    7.2538    7.2789    7.2789   10.8755   10.8755   12.1941
   12.1942   13.5937   18.5799   18.5799   22.2013   34.3115   37.2807   37.2808   41.9841   54.0020
   54.0020   67.2789
   7  1  -30.6736  -25.1009  -24.4667  -24.0670  -23.2924  -22.6334  -21.3019  -19.2762  -17.4187  -13.0796
         -10.8636   -3.7366   -1.2534   -0.7535    6.3275    7.2038    8.0002   10.5686   11.4832   12.0456
   14.0592   14.6499   16.7164   18.2660   19.8743   22.6251   25.2745   33.6622   34.1993   44.9495
   48.0547   58.4054
   8  1  -30.6736  -25.1008  -24.4667  -24.0670  -23.2924  -22.6336  -21.3019  -19.2761  -17.4187  -13.0796
         -10.8638   -3.7363   -1.2536   -0.7534    6.3275    7.2038    8.0002   10.5686   11.4832   12.0456
   14.0592   14.6499   16.7164   18.2659   19.8744   22.6250   25.2745   33.6622   34.1992   44.9495
   48.0547   58.4054
   9  1  -30.6736  -25.1009  -24.4667  -24.0670  -23.2924  -22.6334  -21.3019  -19.2762  -17.4187  -13.0796
         -10.8636   -3.7366   -1.2534   -0.7535    6.3275    7.2038    8.0002   10.5686   11.4832   12.0456
   14.0592   14.6499   16.7164   18.2660   19.8743   22.6251   25.2745   33.6622   34.1993   44.9495
   48.0547   58.4054
  10  1  -30.9343  -25.4976  -24.3226  -22.7616  -22.7614  -22.7216  -15.1051  -15.1051  -14.3388  -14.3387
         -13.7480  -13.7480  -10.2303   -2.3932   -2.3926    0.5659    6.4885    9.6147   10.2697   10.2698
   10.6775   10.6776   12.1638   14.4549   19.1210   19.1211   19.9938   19.9938   23.3534   72.1823
   72.1823   91.2556
  11  1  -30.6736  -25.1009  -24.4667  -24.0670  -23.2924  -22.6334  -21.3019  -19.2762  -17.4187  -13.0796
         -10.8636   -3.7366   -1.2534   -0.7535    6.3275    7.2038    8.0002   10.5686   11.4832   12.0456
   14.0592   14.6499   16.7164   18.2660   19.8743   22.6251   25.2745   33.6622   34.1993   44.9495
   48.0547   58.4054
  12  1  -30.6736  -25.1008  -24.4667  -24.0670  -23.2924  -22.6336  -21.3019  -19.2761  -17.4187  -13.0796
         -10.8638   -3.7363   -1.2536   -0.7534    6.3275    7.2038    8.0002   10.5686   11.4832   12.0456
   14.0592   14.6499   16.7164   18.2659   19.8744   22.6250   25.2745   33.6622   34.1992   44.9495
   48.0547   58.4054
  13  1  -30.6736  -25.1009  -24.4667  -24.0670  -23.2924  -22.6334  -21.3019  -19.2762  -17.4187  -13.0796
         -10.8636   -3.7366   -1.2534   -0.7535    6.3275    7.2038    8.0002   10.5686   11.4832   12.0456
   14.0592   14.6499   16.7164   18.2660   19.8743   22.6251   25.2745   33.6622   34.1993   44.9495
   48.0547   58.4054
  14  1  -30.3660  -24.6500  -24.6500  -24.4444  -23.4880  -23.4880  -19.1910  -19.1907  -17.8911  -12.5592
          -3.3780   -3.3776   -2.0218    2.1143    7.2538    7.2789    7.2789   10.8755   10.8755   12.1941
   12.1942   13.5937   18.5799   18.5799   22.2013   34.3115   37.2807   37.2808   41.9841   54.0020
   54.0020   67.2789
siesta: Fermi energy =     -17.356720 eV

siesta: Program's energy decomposition (eV):
siesta: Ebs     =      -375.879291
siesta: Eions   =       380.620085
siesta: Ena     =        76.059864
siesta: Ekin    =       266.667232
siesta: Enl     =        21.961781
siesta: Eso     =         0.000000
siesta: Edftu   =         0.000000
siesta: DEna    =       -12.333569
siesta: DUscf   =         7.145329
siesta: DUext   =         0.000000
siesta: Exc     =      -185.367880
siesta: eta*DQ  =         0.000000
siesta: Emadel  =         0.000000
siesta: Emeta   =         0.000000
siesta: Emolmec =       -11.817188
siesta: Ekinion =         0.000000
siesta: Eharris =      -218.304516
siesta: Etot    =      -218.304516
siesta: FreeEng =      -218.311108

siesta: Final energy (eV):
siesta:  Band Struct. =    -375.879291
siesta:       Kinetic =     266.667232
siesta:       Hartree =      80.641872
siesta:       Edftu   =       0.000000
siesta:       Eso     =       0.000000
siesta:    Ext. field =       0.000000
siesta:   Exch.-corr. =    -185.367880
siesta:  Ion-electron =    -604.444938
siesta:       Ion-ion =     236.016386
siesta:       Ekinion =       0.000000
siesta:         Total =    -218.304516
siesta:         Fermi =     -17.356720

siesta: Atomic forces (eV/Ang):
siesta:      1   -0.000000   -0.000000    0.000000
siesta:      2    1.449039   -0.000101    0.775862
siesta:      3   -1.449038    0.000053   -0.775931
siesta:      4   -0.724532    1.254897    0.775985
siesta:      5    0.724565   -1.254878   -0.775931
siesta:      6   -0.724477   -1.254831    0.775892
siesta:      7    0.724477    1.254831   -0.775892
siesta:      8   -1.449039   -0.000070    0.775862
siesta:      9    1.449038    0.000022   -0.775931
siesta:     10    0.724459   -1.254940    0.775862
siesta:     11   -0.724532    1.254897   -0.775985
siesta:     12    0.724477    1.254831    0.775892
siesta:     13   -0.724477   -1.254831   -0.775892
siesta: ----------------------------------------
siesta:    Tot   -0.000041   -0.000120   -0.000206

siesta: Stress tensor (static) (eV/Ang**3):
siesta:    -1.689655   -0.000024    0.000003
siesta:    -0.000024   -1.689680    0.000010
siesta:     0.000003    0.000010   -0.677644

siesta: Cell volume =         62.059184 Ang**3

siesta: Pressure (static):
siesta:                Solid            Molecule  Units
siesta:           0.01472856          0.01598920  Ry/Bohr**3
siesta:           1.35232613          1.46807397  eV/Ang**3
siesta:        2166.68874343       2352.13923476  kBar
(Free)E+ p_basis*V_orbitals  =        -196.378544
(Free)Eharris+ p_basis*V_orbitals  =        -196.378544

cite: Please see "LiC12_scf.bib" for an exhaustive BiBTeX file.
cite: Please clearly indicate Siesta version in published work: 4.1.5
cite: This calculation has made use of the following articles
cite: which are encouraged to be cited in a published work.
        Primary SIESTA paper
          DOI: www.doi.org/10.1088/0953-8984/14/11/302

>> End of run:   9-NOV-2022   8:37:10
Job completed
