Siesta Version  : 4.1.5
Architecture    : x86_64-unknown-linux-gnu--unknown
Compiler version: GNU Fortran (GCC) 11.3.0
Compiler flags  : mpif90 -g -O2 -fallow-argument-mismatch
PP flags        : -DMPI -DFC_HAVE_FLUSH -DFC_HAVE_ABORT
Libraries       :  -I/global/software/sl-7.x86_64/modules/intel/2020.4.304/mkl/include  /globall/software/sl-7.x86_64/modules/intel/2020.4.304/mkl/lib/intel64/libmkl_scalapack_lp64.a -Wl,--start-group /global/software/sl-7.x86_64/modules/intel/2020.4.304/mkl/lib/intel64/libmkl_intel_lp64.a /global/software/sl-7.x86_64/modules/intel/2020.4.304/mkl/lib/intel64/libmkl_sequential.a /global/software/sl-7.x86_64/modules/intel/2020.4.304/mkl/lib/intel64/libmkl_core.a /global/software/sl-7.x86_64/modules/intel/2020.4.304/mkl/lib/intel64/libmkl_blacs_openmpi_lp64.a -Wl,--end-group -lpthread -lm -ldl
PARALLEL version

* Running on 12 nodes in parallel
>> Start of run:   9-NOV-2022   8:42:55

                           ***********************       
                           *  WELCOME TO SIESTA  *       
                           ***********************       

reinit: Reading from standard input
reinit: Dumped input in INPUT_TMP.42828
************************** Dump of input data file ****************************
SystemName LiC12_scf
SystemLabel LiC12_scf
NumberOfAtoms   13
NumberOfSpecies 2
%block ChemicalSpeciesLabel
1  3   Li-gga
2  6   C-gga
%endblock ChemicalSpeciesLabel
PAO.BasisSize  DZ
PAO.EnergyShift  10 meV
%block PS.Lmax
C-gga   2
Li-gga  2
%endblock PS.Lmax
LatticeConstant 1.000000 Ang
%block LatticeVectors
	4.2686000000	0.0000000000	0.0000000000
	-2.1343000000	3.6967160386	0.0000000000
	0.0000000000	0.0000000000	8.8488540000
%endblock LatticeVectors
AtomicCoordinatesFormat Ang
%block AtomicCoordinatesAndAtomicSpecies
	0.00000000	0.00000000	0.00000000	2
	1.42144380	0.00000000	2.21221350	1
	2.84715620	0.00000000	6.63664050	1
	-0.71072190	1.23100644	2.21221350	1
	-1.42357810	2.46570960	6.63664050	1
	1.42357810	2.46570960	2.21221350	1
	0.71072190	1.23100644	6.63664050	1
	2.84715620	0.00000000	2.21221350	1
	1.42144380	0.00000000	6.63664050	1
	-1.42357810	2.46570960	2.21221350	1
	-0.71072190	1.23100644	6.63664050	1
	0.71072190	1.23100644	2.21221350	1
	1.42357810	2.46570960	6.63664050	1
%endblock AtomicCoordinatesAndAtomicSpecies
Kgrid_NoTRS  T
%block kgrid_MonkhorstPack
3       0       0       0.0
0       3       0       0.0
0       0       3       0.0
%endblock kgrid_MonkhorstPack
AtomCoorFormatOut Ang
BlockSize 1
#ProcessorY 12
Diag.ParallelOverK   T
Diag.DivideAndConquer F
MeshCutoff   300 Ry
SCF.FreeE.Tolerance 1E-3 eV
SCF.EDM.Tolerance   5E-3 eV
DM.Tolerance  1E-3
DM.Require.Energy.Convergence T
DM.NumberPulay 4
XC.Functional GGA
XC.Authors    PBE
UseSaveData        F
MD.TypeOfRun       CG
MD.VariableCell    F
MD.NumCGsteps      00
MD.MaxCGDispl      0.200000 Bohr
MD.MaxStressTol    1.000000 GPa
MD.MaxForceTol     0.010000 eV/Ang
WriteMDHistory T
WriteCoorStep T
WriteForces T
WriteCoorStep    T
WriteEigenValues T
WriteDM    F
MM.UnitsDistance Ang  # what this program prints out DO NOT CHANGE
MM.UnitsEnergy    eV  # what this program prints out DO NOT CHANGE
MM.Grimme.S6     0.75 # Grimme-paper for PBE (correct for your functional)
MM.Grimme.D     20.   # Grimme-paper (correct for your functional)
%block MM.Potentials
  1   1 Grimme     16.69      1.650 # Li, 10.1002/jcc.20495
  1   2 Grimme     17.40      2.277 # Li / C
  2   2 Grimme     18.14      2.904 # C, 10.1002/jcc.20495
%endblock MM.Potentials
#%block ProjectedDensityOfStates
# -200.0  120.0  0.4  12800  eV
#%endblock ProjectedDensityOfStates
************************** End of input data file *****************************

reinit: -----------------------------------------------------------------------
reinit: System Name: LiC12_scf
reinit: -----------------------------------------------------------------------
reinit: System Label: LiC12_scf
reinit: -----------------------------------------------------------------------
Reading two-body potentials
Grimme - two-body potential between 1 and 1
Grimme - two-body potential between 1 and 2
Grimme - two-body potential between 2 and 2

initatom: Reading input for the pseudopotentials and atomic orbitals ----------
Species number:   1 Atomic number:    3 Label: Li-gga
Species number:   2 Atomic number:    6 Label: C-gga

Ground state valence configuration:   2s01
Reading pseudopotential information in formatted form from Li-gga.psf

Valence configuration for pseudopotential generation:
2s( 1.00) rc: 2.28
2p( 0.00) rc: 2.28
3d( 0.00) rc: 2.59
4f( 0.00) rc: 2.59
Ground state valence configuration:   2s02  2p02
Reading pseudopotential information in formatted form from C-gga.psf

Valence configuration for pseudopotential generation:
2s( 2.00) rc: 1.56
2p( 2.00) rc: 1.56
3d( 0.00) rc: 1.56
4f( 0.00) rc: 1.56
relmxkb: Read Max KB Ang. Momentum=    2 for species C-gga
relmxkb: Read Max KB Ang. Momentum=    2 for species Li-gga

<basis_specs>
===============================================================================
Li-gga               Z=   3    Mass=  6.9400        Charge= 0.17977+309
Lmxo=0 Lmxkb= 2    BasisType=split      Semic=F
L=0  Nsemic=0  Cnfigmx=2
          i=1  nzeta=2  polorb=0  (2s)
            splnorm:   0.15000    
               vcte:    0.0000    
               rinn:    0.0000    
               qcoe:    0.0000    
               qyuk:    0.0000    
               qwid:   0.10000E-01
                rcs:    0.0000      0.0000    
            lambdas:    1.0000      1.0000    
-------------------------------------------------------------------------------
L=0  Nkbl=1  erefs: 0.17977+309
L=1  Nkbl=1  erefs: 0.17977+309
L=2  Nkbl=1  erefs: 0.17977+309
===============================================================================
</basis_specs>

atom: Called for Li-gga                (Z =   3)

read_vps: Pseudopotential generation method:
read_vps: ATM 3.2.2 Troullier-Martins                       
Valence charge for ps generation:    1.00000

read_vps: Pseudopotential includes a core correction:
read_vps: Pseudo-core for xc-correction

xc_check: Exchange-correlation functional:
xc_check: GGA Perdew, Burke & Ernzerhof 1996
V l=0 = -2*Zval/r beyond r=  2.2278
V l=1 = -2*Zval/r beyond r=  2.2278
V l=2 = -2*Zval/r beyond r=  2.5245
All V_l potentials equal beyond r=  2.4622
This should be close to max(r_c) in ps generation
All pots = -2*Zval/r beyond r=  2.5245

VLOCAL1: 99.0% of the norm of Vloc inside      7.160 Ry
VLOCAL1: 99.9% of the norm of Vloc inside     16.318 Ry
atom: Maximum radius for 4*pi*r*r*local-pseudopot. charge    2.86079
atom: Maximum radius for r*vlocal+2*Zval:    2.43160
GHOST: No ghost state for L =  0
GHOST: No ghost state for L =  1
GHOST: No ghost state for L =  2

KBgen: Kleinman-Bylander projectors: 
   l= 0   rc=  2.654023   el= -0.211234   Ekb=  1.742119   kbcos=  0.228463
   l= 1   rc=  2.721230   el= -0.080095   Ekb= -1.122375   kbcos= -0.147941
   l= 2   rc=  2.825246   el=  0.002001   Ekb= -0.207076   kbcos= -0.031965

KBgen: Total number of Kleinman-Bylander projectors:    9
atom: -------------------------------------------------------------------------

atom: SANKEY-TYPE ORBITALS:
atom: Selected multiple-zeta basis: split     

SPLIT: Orbitals with angular momentum L= 0

SPLIT: Basis orbitals for state 2s

SPLIT: PAO cut-off radius determined from an
SPLIT: energy shift=  0.000735 Ry

   izeta = 1
                 lambda =    1.000000
                     rc =   11.897381
                 energy =   -0.210580
                kinetic =    0.143382
    potential(screened) =   -0.353962
       potential(ionic) =   -0.533453

   izeta = 2
                 rmatch =    8.489163
              splitnorm =    0.150000
                 energy =   -0.186081
                kinetic =    0.225882
    potential(screened) =   -0.411964
       potential(ionic) =   -0.593024
atom: Total number of Sankey-type orbitals:  2

atm_pop: Valence configuration (for local Pseudopot. screening):
 2s( 1.00)                                                            
Vna: chval, zval:    1.00000   1.00000

Vna:  Cut-off radius for the neutral-atom potential:  11.897381
comcore: Pseudo-core radius Rcore=  3.450946

atom: _________________________________________________________________________

<basis_specs>
===============================================================================
C-gga                Z=   6    Mass=  12.010        Charge= 0.17977+309
Lmxo=1 Lmxkb= 2    BasisType=split      Semic=F
L=0  Nsemic=0  Cnfigmx=2
          i=1  nzeta=2  polorb=0  (2s)
            splnorm:   0.15000    
               vcte:    0.0000    
               rinn:    0.0000    
               qcoe:    0.0000    
               qyuk:    0.0000    
               qwid:   0.10000E-01
                rcs:    0.0000      0.0000    
            lambdas:    1.0000      1.0000    
L=1  Nsemic=0  Cnfigmx=2
          i=1  nzeta=2  polorb=0  (2p)
            splnorm:   0.15000    
               vcte:    0.0000    
               rinn:    0.0000    
               qcoe:    0.0000    
               qyuk:    0.0000    
               qwid:   0.10000E-01
                rcs:    0.0000      0.0000    
            lambdas:    1.0000      1.0000    
-------------------------------------------------------------------------------
L=0  Nkbl=1  erefs: 0.17977+309
L=1  Nkbl=1  erefs: 0.17977+309
L=2  Nkbl=1  erefs: 0.17977+309
===============================================================================
</basis_specs>

atom: Called for C-gga                 (Z =   6)

read_vps: Pseudopotential generation method:
read_vps: ATM 3.2.2 Troullier-Martins                       
Valence charge for ps generation:    4.00000

xc_check: Exchange-correlation functional:
xc_check: GGA Perdew, Burke & Ernzerhof 1996
V l=0 = -2*Zval/r beyond r=  1.5227
V l=1 = -2*Zval/r beyond r=  1.5227
V l=2 = -2*Zval/r beyond r=  1.5227
All V_l potentials equal beyond r=  1.4851
This should be close to max(r_c) in ps generation
All pots = -2*Zval/r beyond r=  1.5227

VLOCAL1: 99.0% of the norm of Vloc inside     19.682 Ry
VLOCAL1: 99.9% of the norm of Vloc inside     44.856 Ry
atom: Maximum radius for 4*pi*r*r*local-pseudopot. charge    1.79142
atom: Maximum radius for r*vlocal+2*Zval:    1.54183
GHOST: No ghost state for L =  0
GHOST: No ghost state for L =  1
GHOST: No ghost state for L =  2

KBgen: Kleinman-Bylander projectors: 
   l= 0   rc=  1.661951   el= -1.010689   Ekb=  5.289847   kbcos=  0.316429
   l= 1   rc=  1.661951   el= -0.388490   Ekb= -4.102504   kbcos= -0.351025
   l= 2   rc=  1.747182   el=  0.001971   Ekb= -1.006005   kbcos= -0.008530

KBgen: Total number of Kleinman-Bylander projectors:    9
atom: -------------------------------------------------------------------------

atom: SANKEY-TYPE ORBITALS:
atom: Selected multiple-zeta basis: split     

SPLIT: Orbitals with angular momentum L= 0

SPLIT: Basis orbitals for state 2s

SPLIT: PAO cut-off radius determined from an
SPLIT: energy shift=  0.000735 Ry

   izeta = 1
                 lambda =    1.000000
                     rc =    5.948690
                 energy =   -1.010099
                kinetic =    0.827121
    potential(screened) =   -1.837220
       potential(ionic) =   -5.392783

   izeta = 2
                 rmatch =    3.518811
              splitnorm =    0.150000
                 energy =   -0.877891
                kinetic =    1.289227
    potential(screened) =   -2.167118
       potential(ionic) =   -5.982073

SPLIT: Orbitals with angular momentum L= 1

SPLIT: Basis orbitals for state 2p

SPLIT: PAO cut-off radius determined from an
SPLIT: energy shift=  0.000735 Ry

   izeta = 1
                 lambda =    1.000000
                     rc =    7.638387
                 energy =   -0.387843
                kinetic =    2.314739
    potential(screened) =   -2.702582
       potential(ionic) =   -6.092371

   izeta = 2
                 rmatch =    3.840617
              splitnorm =    0.150000
                 energy =   -0.270479
                kinetic =    3.438347
    potential(screened) =   -3.708826
       potential(ionic) =   -7.497707
atom: Total number of Sankey-type orbitals:  8

atm_pop: Valence configuration (for local Pseudopot. screening):
 2s( 2.00)                                                            
 2p( 2.00)                                                            
Vna: chval, zval:    4.00000   4.00000

Vna:  Cut-off radius for the neutral-atom potential:   7.638387

atom: _________________________________________________________________________

prinput: Basis input ----------------------------------------------------------

PAO.BasisType split     

%block ChemicalSpeciesLabel
    1    3 Li-gga                  # Species index, atomic number, species label
    2    6 C-gga                   # Species index, atomic number, species label
%endblock ChemicalSpeciesLabel

%block PAO.Basis                 # Define Basis set
Li-gga                1                    # Species label, number of l-shells
 n=2   0   2                         # n, l, Nzeta 
  11.897      8.489   
   1.000      1.000   
C-gga                 2                    # Species label, number of l-shells
 n=2   0   2                         # n, l, Nzeta 
   5.949      3.519   
   1.000      1.000   
 n=2   1   2                         # n, l, Nzeta 
   7.638      3.841   
   1.000      1.000   
%endblock PAO.Basis

prinput: ----------------------------------------------------------------------

coor:   Atomic-coordinates input format  =     Cartesian coordinates
coor:                                          (in Angstroms)

siesta: Atomic coordinates (Bohr) and species
siesta:      0.00000   0.00000   0.00000  2        1
siesta:      2.68614   0.00000   4.18048  1        2
siesta:      5.38035   0.00000  12.54144  1        3
siesta:     -1.34307   2.32627   4.18048  1        4
siesta:     -2.69017   4.65952  12.54144  1        5
siesta:      2.69017   4.65952   4.18048  1        6
siesta:      1.34307   2.32627  12.54144  1        7
siesta:      5.38035   0.00000   4.18048  1        8
siesta:      2.68614   0.00000  12.54144  1        9
siesta:     -2.69017   4.65952   4.18048  1       10
siesta:     -1.34307   2.32627  12.54144  1       11
siesta:      1.34307   2.32627   4.18048  1       12
siesta:      2.69017   4.65952  12.54144  1       13

siesta: System type = bulk      

initatomlists: Number of atoms, orbitals, and projectors:     13    32   117

siesta: ******************** Simulation parameters ****************************
siesta:
siesta: The following are some of the parameters of the simulation.
siesta: A complete list of the parameters used, including default values,
siesta: can be found in file out.fdf
siesta:
redata: Spin configuration                          = none
redata: Number of spin components                   = 1
redata: Time-Reversal Symmetry                      = T
redata: Spin spiral                                 = F
redata: Long output                                 =   F
redata: Number of Atomic Species                    =        2
redata: Charge density info will appear in .RHO file
redata: Write Mulliken Pop.                         = NO
redata: Matel table size (NRTAB)                    =     1024
redata: Mesh Cutoff                                 =   300.0000 Ry
redata: Net charge of the system                    =     0.0000 |e|
redata: Min. number of SCF Iter                     =        0
redata: Max. number of SCF Iter                     =     1000
redata: SCF convergence failure will abort job
redata: SCF mix quantity                            = Hamiltonian
redata: Mix DM or H after convergence               =   F
redata: Recompute H after scf cycle                 =   F
redata: Mix DM in first SCF step                    =   T
redata: Write Pulay info on disk                    =   F
redata: New DM Occupancy tolerance                  = 0.000000000001
redata: No kicks to SCF
redata: DM Mixing Weight for Kicks                  =     0.5000
redata: Require Harris convergence for SCF          =   F
redata: Harris energy tolerance for SCF             =     0.000100 eV
redata: Require DM convergence for SCF              =   T
redata: DM tolerance for SCF                        =     0.001000
redata: Require EDM convergence for SCF             =   F
redata: EDM tolerance for SCF                       =     0.005000 eV
redata: Require H convergence for SCF               =   T
redata: Hamiltonian tolerance for SCF               =     0.001000 eV
redata: Require (free) Energy convergence for SCF   =   T
redata: (free) Energy tolerance for SCF             =     0.001000 eV
redata: Using Saved Data (generic)                  =   F
redata: Use continuation files for DM               =   F
redata: Neglect nonoverlap interactions             =   F
redata: Method of Calculation                       = Diagonalization
redata: Electronic Temperature                      =   299.9869 K
redata: Fix the spin of the system                  =   F
redata: Dynamics option                             = Single-point calculation
mix.SCF: Pulay mixing                            = Pulay
mix.SCF:    Variant                              = stable
mix.SCF:    History steps                        = 4
mix.SCF:    Linear mixing weight                 =     0.250000
mix.SCF:    Mixing weight                        =     0.250000
mix.SCF:    SVD condition                        = 0.1000E-07
redata: ***********************************************************************

%block SCF.Mixers
  Pulay
%endblock SCF.Mixers

%block SCF.Mixer.Pulay
  # Mixing method
  method pulay
  variant stable

  # Mixing options
  weight 0.2500
  weight.linear 0.2500
  history 4
%endblock SCF.Mixer.Pulay

DM_history_depth set to one: no extrapolation allowed by default for geometry relaxation
Size of DM history Fstack: 1
Total number of electrons:    16.000000
Total ionic charge:    16.000000

* ProcessorY, Blocksize:    3   1


* Orbital distribution balance (max,min):     3     2

 Kpoints in:           18 . Kpoints trimmed:           14

siesta: k-grid: Number of k-points =    14
siesta: k-grid: Cutoff (effective) =     6.403 Ang
siesta: k-grid: Supercell and displacements
siesta: k-grid:    3   0   0      0.000
siesta: k-grid:    0   3   0      0.000
siesta: k-grid:    0   0   3      0.000

diag: Algorithm                                     = Expert
diag: Parallel over k                               =   T
diag: Use parallel 2D distribution                  =   T
diag: Parallel block-size                           = 1
diag: Parallel distribution                         =     3 x     4
diag: Used triangular part                          = Lower
diag: Absolute tolerance                            =  0.100E-15
diag: Orthogonalization factor                      =  0.100E-05
diag: Memory factor                                 =  1.0000

superc: Internal auxiliary supercell:     9 x     9 x     3  =     243
superc: Number of atoms, orbitals, and projectors:   3159   7776  28431


ts: **************************************************************
ts: Save H and S matrices                           =    F
ts: Save DM and EDM matrices                        =    F
ts: Only save the overlap matrix S                  =    F
ts: **************************************************************

************************ Begin: TS CHECKS AND WARNINGS ************************
************************ End: TS CHECKS AND WARNINGS **************************


                     ====================================
                        Single-point calculation
                     ====================================

outcoor: Atomic coordinates (Ang):                          
    0.00000000    0.00000000    0.00000000   2       1  C-gga
    1.42144380    0.00000000    2.21221350   1       2  Li-gga
    2.84715620    0.00000000    6.63664050   1       3  Li-gga
   -0.71072190    1.23100644    2.21221350   1       4  Li-gga
   -1.42357810    2.46570960    6.63664050   1       5  Li-gga
    1.42357810    2.46570960    2.21221350   1       6  Li-gga
    0.71072190    1.23100644    6.63664050   1       7  Li-gga
    2.84715620    0.00000000    2.21221350   1       8  Li-gga
    1.42144380    0.00000000    6.63664050   1       9  Li-gga
   -1.42357810    2.46570960    2.21221350   1      10  Li-gga
   -0.71072190    1.23100644    6.63664050   1      11  Li-gga
    0.71072190    1.23100644    2.21221350   1      12  Li-gga
    1.42357810    2.46570960    6.63664050   1      13  Li-gga

superc: Internal auxiliary supercell:     9 x     9 x     3  =     243
superc: Number of atoms, orbitals, and projectors:   3159   7776  28431

outcell: Unit cell vectors (Ang):
        4.268600    0.000000    0.000000
       -2.134300    3.696716    0.000000
        0.000000    0.000000    8.848854

outcell: Cell vector modules (Ang)   :    4.268600    4.268600    8.848854
outcell: Cell angles (23,13,12) (deg):     90.0000     90.0000    120.0000
outcell: Cell volume (Ang**3)        :    139.6332
<dSpData1D:S at geom step 0
  <sparsity:sparsity for geom step 0
    nrows_g=32 nrows=3 sparsity=5.0215 nnzs=5142, refcount: 7>
  <dData1D:(new from dSpData1D) n=5142, refcount: 1>
refcount: 1>
new_DM -- step:     1
Initializing Density Matrix...
DM filled with atomic data:
<dSpData2D:DM initialized from atoms
  <sparsity:sparsity for geom step 0
    nrows_g=32 nrows=3 sparsity=5.0215 nnzs=5142, refcount: 8>
  <dData2D:DM n=5142 m=1, refcount: 1>
refcount: 1>
No. of atoms with KB's overlaping orbs in proc 0. Max # of overlaps:     200     263
New grid distribution:   1
           1       1:   20    1:    7    1:   12
           2       1:   20    1:    7   13:   24
           3       1:   20    1:    7   25:   36
           4       1:   20    1:    7   37:   48
           5       1:   20    8:   14    1:   12
           6       1:   20    8:   14   13:   24
           7       1:   20    8:   14   25:   36
           8       1:   20    8:   14   37:   48
           9       1:   20   15:   20    1:   12
          10       1:   20   15:   20   13:   24
          11       1:   20   15:   20   25:   36
          12       1:   20   15:   20   37:   48

InitMesh: MESH =    40 x    40 x    96 =      153600
InitMesh: (bp) =    20 x    20 x    48 =       19200
InitMesh: Mesh cutoff (required, used) =   300.000   323.586 Ry
ExtMesh (bp) on 0 =   160 x   147 x   152 =     3575040
New grid distribution:   2
           1       1:   10    8:   20   25:   37
           2       1:   20    1:    7   12:   24
           3       1:   10    8:   20    1:   11
           4       1:   20    1:    7   38:   48
           5       1:   20    1:    7   25:   37
           6      11:   20    8:   20   12:   24
           7       1:   20    1:    7    1:   11
           8      11:   20    8:   20   38:   48
           9      11:   20    8:   20    1:   11
          10       1:   10    8:   20   12:   24
          11      11:   20    8:   20   25:   37
          12       1:   10    8:   20   38:   48
New grid distribution:   3
           1       1:   20    1:    7    1:   12
           2       1:   10    8:   20   13:   24
           3       1:   20    1:    7   25:   36
           4      11:   20    8:   20    1:   12
           5       1:   20    1:    7   13:   24
           6       1:   10    8:   20    1:   12
           7      11:   20    8:   20   25:   36
           8      11:   20    8:   20   37:   48
           9       1:   20    1:    7   37:   48
          10      11:   20    8:   20   13:   24
          11       1:   10    8:   20   25:   36
          12       1:   10    8:   20   37:   48
Setting up quadratic distribution...
ExtMesh (bp) on 0 =   150 x   153 x   153 =     3511350
PhiOnMesh: Number of (b)points on node 0 =                 1690
PhiOnMesh: nlist on node 0 =               222260

stepf: Fermi-Dirac step function

siesta: Program's energy decomposition (eV):
siesta: Ebs     =      -136.495880
siesta: Eions   =       380.620085
siesta: Ena     =       121.357540
siesta: Ekin    =       181.502756
siesta: Enl     =        40.252076
siesta: Eso     =         0.000000
siesta: Edftu   =         0.000000
siesta: DEna    =        -3.865100
siesta: DUscf   =         9.640568
siesta: DUext   =         0.000000
siesta: Exc     =      -157.139170
siesta: eta*DQ  =         0.000000
siesta: Emadel  =         0.000000
siesta: Emeta   =         0.000000
siesta: Emolmec =        -5.251745
siesta: Ekinion =         0.000000
siesta: Eharris =      -158.354940
siesta: Etot    =      -194.123161
siesta: FreeEng =      -194.141515

        iscf     Eharris(eV)        E_KS(eV)     FreeEng(eV)     dDmax    Ef(eV) dHmax(eV)
   scf:    1     -158.354940     -194.123161     -194.141515 22.473755 -9.693626 14.120285
timer: Routine,Calls,Time,% = IterSCF        1       0.947  20.67
   scf:    2     -196.443417     -200.072598     -200.083999  8.261846 -7.494844  4.670682
   scf:    3     -201.155825     -200.873252     -200.882770  2.663534 -8.076507  0.373973
   scf:    4     -200.840397     -200.880794     -200.887078  0.826243 -8.144767  0.759738
   scf:    5     -200.766543     -200.867474     -200.879003  0.822864 -7.950449  0.966057
   scf:    6     -200.811708     -200.882378     -200.890229  0.713863 -8.115824  0.754798
   scf:    7     -200.895721     -200.899035     -200.910154  0.307681 -8.049030  0.063888
   scf:    8     -200.899511     -200.899347     -200.910286  0.028176 -8.055335  0.013055
   scf:    9     -200.899237     -200.899298     -200.910286  0.009325 -8.054024  0.011563
   scf:   10     -200.899363     -200.899332     -200.910290  0.004692 -8.055066  0.000311
   scf:   11     -200.899329     -200.899331     -200.910290  0.000279 -8.055014  0.000126

SCF Convergence by FreeE+DM+H criterion
|FreeE_i-FreeE_(i-1)| (eV) <     0.00100000
max |DM_out - DM_in|         :     0.0002786780
max |H_out - H_in|      (eV) :     0.0001258176
SCF cycle converged after 11 iterations

Using DM_out to compute the final energy and forces
No. of atoms with KB's overlaping orbs in proc 0. Max # of overlaps:     200     263

MM-Stress (kbar):       10.26       10.26       33.15       -0.00       -0.00       -0.00

siesta: E_KS(eV) =             -200.8993

siesta: E_KS - E_eggbox =      -200.8993

siesta: Atomic forces (eV/Ang):
     1    0.000000    0.000000    0.000000
     2   -0.728312   -0.000022   -1.519293
     3    0.728312    0.000022    1.519293
     4    0.364137   -0.630747   -1.519293
     5   -0.364137    0.630747    1.519293
     6    0.364133    0.630697   -1.519310
     7   -0.364133   -0.630697    1.519310
     8    0.728312    0.000022   -1.519293
     9   -0.728312   -0.000022    1.519293
    10   -0.364137    0.630747   -1.519293
    11    0.364137   -0.630747    1.519293
    12   -0.364133   -0.630697   -1.519310
    13    0.364133    0.630697    1.519310
----------------------------------------
   Tot    0.000000    0.000000    0.000000
----------------------------------------
   Max    1.519310
   Res    0.934581    sqrt( Sum f_i^2 / 3N )
----------------------------------------
   Max    1.519310    constrained

Stress tensor Voigt[x,y,z,yz,xz,xy] (kbar):    -1210.94    -1210.95      607.79       -0.00        0.00       -0.01
(Free)E + p*V (eV/cell)     -148.2102
Target enthalpy (eV/cell)     -200.9103

siesta: Eigenvalues (eV):
  ik is       eps
   1  1  -16.6680  -12.8621  -12.5556  -12.5556  -11.8337  -11.8337  -11.3565   -8.9764   -8.5627   -8.5626
           1.3184    1.3187    1.3998    4.0622   10.3995   10.3996   11.5486   13.7589   13.9111   13.9111
   19.4346   19.4346   19.6594   25.4298   25.4298   26.4978   26.8211   26.8211   27.4630   58.9496
   61.0128   61.0128
   2  1  -16.9753  -13.5098  -13.1619  -11.6111  -11.3106  -10.1469   -8.8361   -8.1014   -5.0868   -4.4115
          -3.8254   -3.5388    0.1646    0.8880    0.9320    2.9373    5.5193    8.8030   12.4884   12.5834
   19.7158   20.5637   20.9062   21.1931   21.2197   23.9644   33.1517   33.7338   50.5245   51.5321
   53.1739   71.5176
   3  1  -16.9753  -13.5098  -13.1619  -11.6111  -11.3106  -10.1469   -8.8361   -8.1015   -5.0867   -4.4115
          -3.8254   -3.5388    0.1646    0.8880    0.9323    2.9373    5.5190    8.8031   12.4884   12.5834
   19.7158   20.5637   20.9062   21.1931   21.2197   23.9644   33.1517   33.7338   50.5245   51.5321
   53.1738   71.5176
   4  1  -16.9753  -13.5098  -13.1619  -11.6111  -11.3106  -10.1469   -8.8361   -8.1014   -5.0868   -4.4115
          -3.8254   -3.5388    0.1646    0.8880    0.9320    2.9373    5.5193    8.8030   12.4884   12.5834
   19.7158   20.5637   20.9062   21.1931   21.2197   23.9644   33.1517   33.7338   50.5245   51.5321
   53.1739   71.5176
   5  1  -17.2743  -14.2335  -13.1202  -11.5011   -7.5940   -7.5938   -5.3196   -1.8269   -1.8269   -1.7550
          -1.7550   -0.5508    2.2693    3.7953    3.7953    6.4496    6.4499    9.3520    9.3520   17.2884
   22.3701   22.8916   22.8916   23.1599   23.1600   24.0280   36.4771   36.4771   38.7103   38.7103
   44.1600  132.9432
   6  1  -16.7680  -12.9485  -12.4768  -12.4768  -11.9829  -11.9829  -10.9627   -9.6998   -8.8888   -8.8888
          -6.8270   -6.8270   -2.8519   -2.8516   -2.3817   -0.6747    9.4580    9.4582   11.1696   13.4678
   15.0752   15.1459   15.1459   18.9601   18.9601   19.5206   19.5206   20.5580   23.1019   25.0292
   25.0292   27.2603
   7  1  -16.8931  -13.6135  -12.8571  -11.8133  -11.4887  -10.6311   -9.0202   -8.1376   -7.1199   -5.0758
          -4.5535   -3.7278   -2.1285   -1.0631    2.5139    3.9483    4.6925    9.4594   10.4216   11.1538
   11.4110   15.1794   16.9219   18.5344   20.4993   20.7626   22.2783   24.7620   25.7168   44.9089
   50.4460   51.4680
   8  1  -16.8931  -13.6135  -12.8571  -11.8133  -11.4887  -10.6311   -9.0202   -8.1377   -7.1199   -5.0757
          -4.5535   -3.7278   -2.1286   -1.0631    2.5139    3.9485    4.6924    9.4593   10.4216   11.1538
   11.4110   15.1794   16.9220   18.5344   20.4993   20.7626   22.2783   24.7619   25.7169   44.9089
   50.4460   51.4680
   9  1  -16.8931  -13.6135  -12.8571  -11.8133  -11.4887  -10.6311   -9.0202   -8.1376   -7.1199   -5.0758
          -4.5535   -3.7278   -2.1285   -1.0631    2.5139    3.9483    4.6925    9.4594   10.4216   11.1538
   11.4110   15.1794   16.9219   18.5344   20.4993   20.7626   22.2783   24.7620   25.7168   44.9089
   50.4460   51.4680
  10  1  -17.2162  -14.1620  -13.0592  -11.9733   -8.0725   -7.6250   -7.6249   -5.6390    0.0020    0.0020
           0.1165    0.1165    1.6863    3.3326    3.3326    4.3934    4.3936   10.0609   10.0611   11.4043
   16.6214   16.6214   17.1938   17.1938   17.6051   17.6052   23.3045   23.6005   23.6005   24.2196
   50.8746   85.1821
  11  1  -16.8931  -13.6135  -12.8571  -11.8133  -11.4887  -10.6311   -9.0202   -8.1376   -7.1199   -5.0758
          -4.5535   -3.7278   -2.1285   -1.0631    2.5139    3.9483    4.6925    9.4594   10.4216   11.1538
   11.4110   15.1794   16.9219   18.5344   20.4993   20.7626   22.2783   24.7620   25.7168   44.9089
   50.4460   51.4680
  12  1  -16.8931  -13.6135  -12.8571  -11.8133  -11.4887  -10.6311   -9.0202   -8.1377   -7.1199   -5.0757
          -4.5535   -3.7278   -2.1286   -1.0631    2.5139    3.9485    4.6924    9.4593   10.4216   11.1538
   11.4110   15.1794   16.9220   18.5344   20.4993   20.7626   22.2783   24.7619   25.7169   44.9089
   50.4460   51.4680
  13  1  -16.8931  -13.6135  -12.8571  -11.8133  -11.4887  -10.6311   -9.0202   -8.1376   -7.1199   -5.0758
          -4.5535   -3.7278   -2.1285   -1.0631    2.5139    3.9483    4.6925    9.4594   10.4216   11.1538
   11.4110   15.1794   16.9219   18.5344   20.4993   20.7626   22.2783   24.7620   25.7168   44.9089
   50.4460   51.4680
  14  1  -16.7680  -12.9485  -12.4768  -12.4768  -11.9829  -11.9829  -10.9627   -9.6998   -8.8888   -8.8888
          -6.8270   -6.8270   -2.8519   -2.8516   -2.3817   -0.6747    9.4580    9.4582   11.1696   13.4678
   15.0752   15.1459   15.1459   18.9601   18.9601   19.5206   19.5206   20.5580   23.1019   25.0292
   25.0292   27.2603
siesta: Fermi energy =      -8.055014 eV

siesta: Program's energy decomposition (eV):
siesta: Ebs     =      -189.934029
siesta: Eions   =       380.620085
siesta: Ena     =       121.357540
siesta: Ekin    =       152.244502
siesta: Enl     =        49.543004
siesta: Eso     =         0.000000
siesta: Edftu   =         0.000000
siesta: DEna    =        11.059514
siesta: DUscf   =         1.114564
siesta: DUext   =         0.000000
siesta: Exc     =      -150.346624
siesta: eta*DQ  =         0.000000
siesta: Emadel  =         0.000000
siesta: Emeta   =         0.000000
siesta: Emolmec =        -5.251745
siesta: Ekinion =         0.000000
siesta: Eharris =      -200.899329
siesta: Etot    =      -200.899331
siesta: FreeEng =      -200.910290

siesta: Final energy (eV):
siesta:  Band Struct. =    -189.934029
siesta:       Kinetic =     152.244502
siesta:       Hartree =      81.025228
siesta:       Edftu   =       0.000000
siesta:       Eso     =       0.000000
siesta:    Ext. field =       0.000000
siesta:   Exch.-corr. =    -150.346624
siesta:  Ion-electron =    -349.146015
siesta:       Ion-ion =      70.575324
siesta:       Ekinion =       0.000000
siesta:         Total =    -200.899331
siesta:         Fermi =      -8.055014

siesta: Atomic forces (eV/Ang):
siesta:      1    0.000000    0.000000    0.000000
siesta:      2   -0.728312   -0.000022   -1.519293
siesta:      3    0.728312    0.000022    1.519293
siesta:      4    0.364137   -0.630747   -1.519293
siesta:      5   -0.364137    0.630747    1.519293
siesta:      6    0.364133    0.630697   -1.519310
siesta:      7   -0.364133   -0.630697    1.519310
siesta:      8    0.728312    0.000022   -1.519293
siesta:      9   -0.728312   -0.000022    1.519293
siesta:     10   -0.364137    0.630747   -1.519293
siesta:     11    0.364137   -0.630747    1.519293
siesta:     12   -0.364133   -0.630697   -1.519310
siesta:     13    0.364133    0.630697    1.519310
siesta: ----------------------------------------
siesta:    Tot    0.000000    0.000000    0.000000

siesta: Stress tensor (static) (eV/Ang**3):
siesta:    -0.755798   -0.000006    0.000000
siesta:    -0.000006   -0.755805   -0.000000
siesta:     0.000000   -0.000000    0.379349

siesta: Cell volume =        139.633165 Ang**3

siesta: Pressure (static):
siesta:                Solid            Molecule  Units
siesta:           0.00411056          0.00289996  Ry/Bohr**3
siesta:           0.37741798          0.26626435  eV/Ang**3
siesta:         604.69680576        426.60712592  kBar
(Free)E+ p_basis*V_orbitals  =        -178.977726
(Free)Eharris+ p_basis*V_orbitals  =        -178.977724

cite: Please see "LiC12_scf.bib" for an exhaustive BiBTeX file.
cite: Please clearly indicate Siesta version in published work: 4.1.5
cite: This calculation has made use of the following articles
cite: which are encouraged to be cited in a published work.
        Primary SIESTA paper
          DOI: www.doi.org/10.1088/0953-8984/14/11/302

>> End of run:   9-NOV-2022   8:43:10
Job completed
