Siesta Version  : 4.1.5
Architecture    : x86_64-unknown-linux-gnu--unknown
Compiler version: GNU Fortran (GCC) 11.3.0
Compiler flags  : mpif90 -g -O2 -fallow-argument-mismatch
PP flags        : -DMPI -DFC_HAVE_FLUSH -DFC_HAVE_ABORT
Libraries       :  -I/global/software/sl-7.x86_64/modules/intel/2020.4.304/mkl/include  /globall/software/sl-7.x86_64/modules/intel/2020.4.304/mkl/lib/intel64/libmkl_scalapack_lp64.a -Wl,--start-group /global/software/sl-7.x86_64/modules/intel/2020.4.304/mkl/lib/intel64/libmkl_intel_lp64.a /global/software/sl-7.x86_64/modules/intel/2020.4.304/mkl/lib/intel64/libmkl_sequential.a /global/software/sl-7.x86_64/modules/intel/2020.4.304/mkl/lib/intel64/libmkl_core.a /global/software/sl-7.x86_64/modules/intel/2020.4.304/mkl/lib/intel64/libmkl_blacs_openmpi_lp64.a -Wl,--end-group -lpthread -lm -ldl
PARALLEL version

* Running on 12 nodes in parallel
>> Start of run:   9-NOV-2022   8:28:36

                           ***********************       
                           *  WELCOME TO SIESTA  *       
                           ***********************       

reinit: Reading from standard input
reinit: Dumped input in INPUT_TMP.83837
************************** Dump of input data file ****************************
SystemName LiC12_scf
SystemLabel LiC12_scf
NumberOfAtoms   13
NumberOfSpecies 2
%block ChemicalSpeciesLabel
1  3   Li-gga
2  6   C-gga
%endblock ChemicalSpeciesLabel
PAO.BasisSize  DZ
PAO.EnergyShift  10 meV
%block PS.Lmax
C-gga   2
Li-gga  2
%endblock PS.Lmax
LatticeConstant 1.000000 Ang
%block LatticeVectors
	4.2686000000	0.0000000000	0.0000000000
	-2.1343000000	3.6967160386	0.0000000000
	0.0000000000	0.0000000000	9.8320600000
%endblock LatticeVectors
AtomicCoordinatesFormat Ang
%block AtomicCoordinatesAndAtomicSpecies
	0.00000000	0.00000000	0.00000000	2
	1.42144380	0.00000000	2.45801500	1
	2.84715620	0.00000000	7.37404500	1
	-0.71072190	1.23100644	2.45801500	1
	-1.42357810	2.46570960	7.37404500	1
	1.42357810	2.46570960	2.45801500	1
	0.71072190	1.23100644	7.37404500	1
	2.84715620	0.00000000	2.45801500	1
	1.42144380	0.00000000	7.37404500	1
	-1.42357810	2.46570960	2.45801500	1
	-0.71072190	1.23100644	7.37404500	1
	0.71072190	1.23100644	2.45801500	1
	1.42357810	2.46570960	7.37404500	1
%endblock AtomicCoordinatesAndAtomicSpecies
Kgrid_NoTRS  T
%block kgrid_MonkhorstPack
2       0       0       0.0
0       2       0       0.0
0       0       2       0.0
%endblock kgrid_MonkhorstPack
AtomCoorFormatOut Ang
BlockSize 1
#ProcessorY 12
Diag.ParallelOverK   T
Diag.DivideAndConquer F
MeshCutoff   300 Ry
SCF.FreeE.Tolerance 1E-3 eV
SCF.EDM.Tolerance   5E-3 eV
DM.Tolerance  1E-3
DM.Require.Energy.Convergence T
DM.NumberPulay 4
XC.Functional GGA
XC.Authors    PBE
UseSaveData        F
MD.TypeOfRun       CG
MD.VariableCell    F
MD.NumCGsteps      00
MD.MaxCGDispl      0.200000 Bohr
MD.MaxStressTol    1.000000 GPa
MD.MaxForceTol     0.010000 eV/Ang
WriteMDHistory T
WriteCoorStep T
WriteForces T
WriteCoorStep    T
WriteEigenValues T
WriteDM    F
MM.UnitsDistance Ang  # what this program prints out DO NOT CHANGE
MM.UnitsEnergy    eV  # what this program prints out DO NOT CHANGE
MM.Grimme.S6     0.75 # Grimme-paper for PBE (correct for your functional)
MM.Grimme.D     20.   # Grimme-paper (correct for your functional)
%block MM.Potentials
  1   1 Grimme     16.69      1.650 # Li, 10.1002/jcc.20495
  1   2 Grimme     17.40      2.277 # Li / C
  2   2 Grimme     18.14      2.904 # C, 10.1002/jcc.20495
%endblock MM.Potentials
#%block ProjectedDensityOfStates
# -200.0  120.0  0.4  12800  eV
#%endblock ProjectedDensityOfStates
************************** End of input data file *****************************

reinit: -----------------------------------------------------------------------
reinit: System Name: LiC12_scf
reinit: -----------------------------------------------------------------------
reinit: System Label: LiC12_scf
reinit: -----------------------------------------------------------------------
Reading two-body potentials
Grimme - two-body potential between 1 and 1
Grimme - two-body potential between 1 and 2
Grimme - two-body potential between 2 and 2

initatom: Reading input for the pseudopotentials and atomic orbitals ----------
Species number:   1 Atomic number:    3 Label: Li-gga
Species number:   2 Atomic number:    6 Label: C-gga

Ground state valence configuration:   2s01
Reading pseudopotential information in formatted form from Li-gga.psf

Valence configuration for pseudopotential generation:
2s( 1.00) rc: 2.28
2p( 0.00) rc: 2.28
3d( 0.00) rc: 2.59
4f( 0.00) rc: 2.59
Ground state valence configuration:   2s02  2p02
Reading pseudopotential information in formatted form from C-gga.psf

Valence configuration for pseudopotential generation:
2s( 2.00) rc: 1.56
2p( 2.00) rc: 1.56
3d( 0.00) rc: 1.56
4f( 0.00) rc: 1.56
relmxkb: Read Max KB Ang. Momentum=    2 for species C-gga
relmxkb: Read Max KB Ang. Momentum=    2 for species Li-gga

<basis_specs>
===============================================================================
Li-gga               Z=   3    Mass=  6.9400        Charge= 0.17977+309
Lmxo=0 Lmxkb= 2    BasisType=split      Semic=F
L=0  Nsemic=0  Cnfigmx=2
          i=1  nzeta=2  polorb=0  (2s)
            splnorm:   0.15000    
               vcte:    0.0000    
               rinn:    0.0000    
               qcoe:    0.0000    
               qyuk:    0.0000    
               qwid:   0.10000E-01
                rcs:    0.0000      0.0000    
            lambdas:    1.0000      1.0000    
-------------------------------------------------------------------------------
L=0  Nkbl=1  erefs: 0.17977+309
L=1  Nkbl=1  erefs: 0.17977+309
L=2  Nkbl=1  erefs: 0.17977+309
===============================================================================
</basis_specs>

atom: Called for Li-gga                (Z =   3)

read_vps: Pseudopotential generation method:
read_vps: ATM 3.2.2 Troullier-Martins                       
Valence charge for ps generation:    1.00000

read_vps: Pseudopotential includes a core correction:
read_vps: Pseudo-core for xc-correction

xc_check: Exchange-correlation functional:
xc_check: GGA Perdew, Burke & Ernzerhof 1996
V l=0 = -2*Zval/r beyond r=  2.2278
V l=1 = -2*Zval/r beyond r=  2.2278
V l=2 = -2*Zval/r beyond r=  2.5245
All V_l potentials equal beyond r=  2.4622
This should be close to max(r_c) in ps generation
All pots = -2*Zval/r beyond r=  2.5245

VLOCAL1: 99.0% of the norm of Vloc inside      7.160 Ry
VLOCAL1: 99.9% of the norm of Vloc inside     16.318 Ry
atom: Maximum radius for 4*pi*r*r*local-pseudopot. charge    2.86079
atom: Maximum radius for r*vlocal+2*Zval:    2.43160
GHOST: No ghost state for L =  0
GHOST: No ghost state for L =  1
GHOST: No ghost state for L =  2

KBgen: Kleinman-Bylander projectors: 
   l= 0   rc=  2.654023   el= -0.211234   Ekb=  1.742119   kbcos=  0.228463
   l= 1   rc=  2.721230   el= -0.080095   Ekb= -1.122375   kbcos= -0.147941
   l= 2   rc=  2.825246   el=  0.002001   Ekb= -0.207076   kbcos= -0.031965

KBgen: Total number of Kleinman-Bylander projectors:    9
atom: -------------------------------------------------------------------------

atom: SANKEY-TYPE ORBITALS:
atom: Selected multiple-zeta basis: split     

SPLIT: Orbitals with angular momentum L= 0

SPLIT: Basis orbitals for state 2s

SPLIT: PAO cut-off radius determined from an
SPLIT: energy shift=  0.000735 Ry

   izeta = 1
                 lambda =    1.000000
                     rc =   11.897381
                 energy =   -0.210580
                kinetic =    0.143382
    potential(screened) =   -0.353962
       potential(ionic) =   -0.533453

   izeta = 2
                 rmatch =    8.489163
              splitnorm =    0.150000
                 energy =   -0.186081
                kinetic =    0.225882
    potential(screened) =   -0.411964
       potential(ionic) =   -0.593024
atom: Total number of Sankey-type orbitals:  2

atm_pop: Valence configuration (for local Pseudopot. screening):
 2s( 1.00)                                                            
Vna: chval, zval:    1.00000   1.00000

Vna:  Cut-off radius for the neutral-atom potential:  11.897381
comcore: Pseudo-core radius Rcore=  3.450946

atom: _________________________________________________________________________

<basis_specs>
===============================================================================
C-gga                Z=   6    Mass=  12.010        Charge= 0.17977+309
Lmxo=1 Lmxkb= 2    BasisType=split      Semic=F
L=0  Nsemic=0  Cnfigmx=2
          i=1  nzeta=2  polorb=0  (2s)
            splnorm:   0.15000    
               vcte:    0.0000    
               rinn:    0.0000    
               qcoe:    0.0000    
               qyuk:    0.0000    
               qwid:   0.10000E-01
                rcs:    0.0000      0.0000    
            lambdas:    1.0000      1.0000    
L=1  Nsemic=0  Cnfigmx=2
          i=1  nzeta=2  polorb=0  (2p)
            splnorm:   0.15000    
               vcte:    0.0000    
               rinn:    0.0000    
               qcoe:    0.0000    
               qyuk:    0.0000    
               qwid:   0.10000E-01
                rcs:    0.0000      0.0000    
            lambdas:    1.0000      1.0000    
-------------------------------------------------------------------------------
L=0  Nkbl=1  erefs: 0.17977+309
L=1  Nkbl=1  erefs: 0.17977+309
L=2  Nkbl=1  erefs: 0.17977+309
===============================================================================
</basis_specs>

atom: Called for C-gga                 (Z =   6)

read_vps: Pseudopotential generation method:
read_vps: ATM 3.2.2 Troullier-Martins                       
Valence charge for ps generation:    4.00000

xc_check: Exchange-correlation functional:
xc_check: GGA Perdew, Burke & Ernzerhof 1996
V l=0 = -2*Zval/r beyond r=  1.5227
V l=1 = -2*Zval/r beyond r=  1.5227
V l=2 = -2*Zval/r beyond r=  1.5227
All V_l potentials equal beyond r=  1.4851
This should be close to max(r_c) in ps generation
All pots = -2*Zval/r beyond r=  1.5227

VLOCAL1: 99.0% of the norm of Vloc inside     19.682 Ry
VLOCAL1: 99.9% of the norm of Vloc inside     44.856 Ry
atom: Maximum radius for 4*pi*r*r*local-pseudopot. charge    1.79142
atom: Maximum radius for r*vlocal+2*Zval:    1.54183
GHOST: No ghost state for L =  0
GHOST: No ghost state for L =  1
GHOST: No ghost state for L =  2

KBgen: Kleinman-Bylander projectors: 
   l= 0   rc=  1.661951   el= -1.010689   Ekb=  5.289847   kbcos=  0.316429
   l= 1   rc=  1.661951   el= -0.388490   Ekb= -4.102504   kbcos= -0.351025
   l= 2   rc=  1.747182   el=  0.001971   Ekb= -1.006005   kbcos= -0.008530

KBgen: Total number of Kleinman-Bylander projectors:    9
atom: -------------------------------------------------------------------------

atom: SANKEY-TYPE ORBITALS:
atom: Selected multiple-zeta basis: split     

SPLIT: Orbitals with angular momentum L= 0

SPLIT: Basis orbitals for state 2s

SPLIT: PAO cut-off radius determined from an
SPLIT: energy shift=  0.000735 Ry

   izeta = 1
                 lambda =    1.000000
                     rc =    5.948690
                 energy =   -1.010099
                kinetic =    0.827121
    potential(screened) =   -1.837220
       potential(ionic) =   -5.392783

   izeta = 2
                 rmatch =    3.518811
              splitnorm =    0.150000
                 energy =   -0.877891
                kinetic =    1.289227
    potential(screened) =   -2.167118
       potential(ionic) =   -5.982073

SPLIT: Orbitals with angular momentum L= 1

SPLIT: Basis orbitals for state 2p

SPLIT: PAO cut-off radius determined from an
SPLIT: energy shift=  0.000735 Ry

   izeta = 1
                 lambda =    1.000000
                     rc =    7.638387
                 energy =   -0.387843
                kinetic =    2.314739
    potential(screened) =   -2.702582
       potential(ionic) =   -6.092371

   izeta = 2
                 rmatch =    3.840617
              splitnorm =    0.150000
                 energy =   -0.270479
                kinetic =    3.438347
    potential(screened) =   -3.708826
       potential(ionic) =   -7.497707
atom: Total number of Sankey-type orbitals:  8

atm_pop: Valence configuration (for local Pseudopot. screening):
 2s( 2.00)                                                            
 2p( 2.00)                                                            
Vna: chval, zval:    4.00000   4.00000

Vna:  Cut-off radius for the neutral-atom potential:   7.638387

atom: _________________________________________________________________________

prinput: Basis input ----------------------------------------------------------

PAO.BasisType split     

%block ChemicalSpeciesLabel
    1    3 Li-gga                  # Species index, atomic number, species label
    2    6 C-gga                   # Species index, atomic number, species label
%endblock ChemicalSpeciesLabel

%block PAO.Basis                 # Define Basis set
Li-gga                1                    # Species label, number of l-shells
 n=2   0   2                         # n, l, Nzeta 
  11.897      8.489   
   1.000      1.000   
C-gga                 2                    # Species label, number of l-shells
 n=2   0   2                         # n, l, Nzeta 
   5.949      3.519   
   1.000      1.000   
 n=2   1   2                         # n, l, Nzeta 
   7.638      3.841   
   1.000      1.000   
%endblock PAO.Basis

prinput: ----------------------------------------------------------------------

coor:   Atomic-coordinates input format  =     Cartesian coordinates
coor:                                          (in Angstroms)

siesta: Atomic coordinates (Bohr) and species
siesta:      0.00000   0.00000   0.00000  2        1
siesta:      2.68614   0.00000   4.64498  1        2
siesta:      5.38035   0.00000  13.93493  1        3
siesta:     -1.34307   2.32627   4.64498  1        4
siesta:     -2.69017   4.65952  13.93493  1        5
siesta:      2.69017   4.65952   4.64498  1        6
siesta:      1.34307   2.32627  13.93493  1        7
siesta:      5.38035   0.00000   4.64498  1        8
siesta:      2.68614   0.00000  13.93493  1        9
siesta:     -2.69017   4.65952   4.64498  1       10
siesta:     -1.34307   2.32627  13.93493  1       11
siesta:      1.34307   2.32627   4.64498  1       12
siesta:      2.69017   4.65952  13.93493  1       13

siesta: System type = bulk      

initatomlists: Number of atoms, orbitals, and projectors:     13    32   117

siesta: ******************** Simulation parameters ****************************
siesta:
siesta: The following are some of the parameters of the simulation.
siesta: A complete list of the parameters used, including default values,
siesta: can be found in file out.fdf
siesta:
redata: Spin configuration                          = none
redata: Number of spin components                   = 1
redata: Time-Reversal Symmetry                      = T
redata: Spin spiral                                 = F
redata: Long output                                 =   F
redata: Number of Atomic Species                    =        2
redata: Charge density info will appear in .RHO file
redata: Write Mulliken Pop.                         = NO
redata: Matel table size (NRTAB)                    =     1024
redata: Mesh Cutoff                                 =   300.0000 Ry
redata: Net charge of the system                    =     0.0000 |e|
redata: Min. number of SCF Iter                     =        0
redata: Max. number of SCF Iter                     =     1000
redata: SCF convergence failure will abort job
redata: SCF mix quantity                            = Hamiltonian
redata: Mix DM or H after convergence               =   F
redata: Recompute H after scf cycle                 =   F
redata: Mix DM in first SCF step                    =   T
redata: Write Pulay info on disk                    =   F
redata: New DM Occupancy tolerance                  = 0.000000000001
redata: No kicks to SCF
redata: DM Mixing Weight for Kicks                  =     0.5000
redata: Require Harris convergence for SCF          =   F
redata: Harris energy tolerance for SCF             =     0.000100 eV
redata: Require DM convergence for SCF              =   T
redata: DM tolerance for SCF                        =     0.001000
redata: Require EDM convergence for SCF             =   F
redata: EDM tolerance for SCF                       =     0.005000 eV
redata: Require H convergence for SCF               =   T
redata: Hamiltonian tolerance for SCF               =     0.001000 eV
redata: Require (free) Energy convergence for SCF   =   T
redata: (free) Energy tolerance for SCF             =     0.001000 eV
redata: Using Saved Data (generic)                  =   F
redata: Use continuation files for DM               =   F
redata: Neglect nonoverlap interactions             =   F
redata: Method of Calculation                       = Diagonalization
redata: Electronic Temperature                      =   299.9869 K
redata: Fix the spin of the system                  =   F
redata: Dynamics option                             = Single-point calculation
mix.SCF: Pulay mixing                            = Pulay
mix.SCF:    Variant                              = stable
mix.SCF:    History steps                        = 4
mix.SCF:    Linear mixing weight                 =     0.250000
mix.SCF:    Mixing weight                        =     0.250000
mix.SCF:    SVD condition                        = 0.1000E-07
redata: ***********************************************************************

%block SCF.Mixers
  Pulay
%endblock SCF.Mixers

%block SCF.Mixer.Pulay
  # Mixing method
  method pulay
  variant stable

  # Mixing options
  weight 0.2500
  weight.linear 0.2500
  history 4
%endblock SCF.Mixer.Pulay

DM_history_depth set to one: no extrapolation allowed by default for geometry relaxation
Size of DM history Fstack: 1
Total number of electrons:    16.000000
Total ionic charge:    16.000000

* ProcessorY, Blocksize:    3   1


* Orbital distribution balance (max,min):     3     2

k-point displ. along   1 input, could be:     0.00    0.50
k-point displ. along   2 input, could be:     0.00    0.50
k-point displ. along   3 input, could be:     0.00    0.50
 Kpoints in:            8 . Kpoints trimmed:            8

siesta: k-grid: Number of k-points =     8
siesta: k-grid: Cutoff (effective) =     4.269 Ang
siesta: k-grid: Supercell and displacements
siesta: k-grid:    2   0   0      0.000
siesta: k-grid:    0   2   0      0.000
siesta: k-grid:    0   0   2      0.000

diag: Algorithm                                     = Expert
diag: Parallel over k                               =   T
diag: Use parallel 2D distribution                  =   T
diag: Parallel block-size                           = 1
diag: Parallel distribution                         =     3 x     4
diag: Used triangular part                          = Lower
diag: Absolute tolerance                            =  0.100E-15
diag: Orthogonalization factor                      =  0.100E-05
diag: Memory factor                                 =  1.0000

superc: Internal auxiliary supercell:     9 x     9 x     3  =     243
superc: Number of atoms, orbitals, and projectors:   3159   7776  28431


ts: **************************************************************
ts: Save H and S matrices                           =    F
ts: Save DM and EDM matrices                        =    F
ts: Only save the overlap matrix S                  =    F
ts: **************************************************************

************************ Begin: TS CHECKS AND WARNINGS ************************
************************ End: TS CHECKS AND WARNINGS **************************


                     ====================================
                        Single-point calculation
                     ====================================

outcoor: Atomic coordinates (Ang):                          
    0.00000000    0.00000000    0.00000000   2       1  C-gga
    1.42144380    0.00000000    2.45801500   1       2  Li-gga
    2.84715620    0.00000000    7.37404500   1       3  Li-gga
   -0.71072190    1.23100644    2.45801500   1       4  Li-gga
   -1.42357810    2.46570960    7.37404500   1       5  Li-gga
    1.42357810    2.46570960    2.45801500   1       6  Li-gga
    0.71072190    1.23100644    7.37404500   1       7  Li-gga
    2.84715620    0.00000000    2.45801500   1       8  Li-gga
    1.42144380    0.00000000    7.37404500   1       9  Li-gga
   -1.42357810    2.46570960    2.45801500   1      10  Li-gga
   -0.71072190    1.23100644    7.37404500   1      11  Li-gga
    0.71072190    1.23100644    2.45801500   1      12  Li-gga
    1.42357810    2.46570960    7.37404500   1      13  Li-gga

superc: Internal auxiliary supercell:     9 x     9 x     3  =     243
superc: Number of atoms, orbitals, and projectors:   3159   7776  28431

outcell: Unit cell vectors (Ang):
        4.268600    0.000000    0.000000
       -2.134300    3.696716    0.000000
        0.000000    0.000000    9.832060

outcell: Cell vector modules (Ang)   :    4.268600    4.268600    9.832060
outcell: Cell angles (23,13,12) (deg):     90.0000     90.0000    120.0000
outcell: Cell volume (Ang**3)        :    155.1480
<dSpData1D:S at geom step 0
  <sparsity:sparsity for geom step 0
    nrows_g=32 nrows=3 sparsity=4.5801 nnzs=4690, refcount: 7>
  <dData1D:(new from dSpData1D) n=4690, refcount: 1>
refcount: 1>
new_DM -- step:     1
Initializing Density Matrix...
DM filled with atomic data:
<dSpData2D:DM initialized from atoms
  <sparsity:sparsity for geom step 0
    nrows_g=32 nrows=3 sparsity=4.5801 nnzs=4690, refcount: 8>
  <dData2D:DM n=4690 m=1, refcount: 1>
refcount: 1>
No. of atoms with KB's overlaping orbs in proc 0. Max # of overlaps:     182     239
New grid distribution:   1
           1       1:   20    1:    7    1:   14
           2       1:   20    1:    7   15:   28
           3       1:   20    1:    7   29:   41
           4       1:   20    1:    7   42:   54
           5       1:   20    8:   14    1:   14
           6       1:   20    8:   14   15:   28
           7       1:   20    8:   14   29:   41
           8       1:   20    8:   14   42:   54
           9       1:   20   15:   20    1:   14
          10       1:   20   15:   20   15:   28
          11       1:   20   15:   20   29:   41
          12       1:   20   15:   20   42:   54

InitMesh: MESH =    40 x    40 x   108 =      172800
InitMesh: (bp) =    20 x    20 x    54 =       21600
InitMesh: Mesh cutoff (required, used) =   300.000   323.586 Ry
ExtMesh (bp) on 0 =   160 x   147 x   154 =     3622080
New grid distribution:   2
           1       1:   10    8:   20   28:   42
           2       1:   20    1:    7   13:   27
           3       1:   10    8:   20    1:   12
           4       1:   20    1:    7   43:   54
           5       1:   20    1:    7   28:   42
           6      11:   20    8:   20   13:   27
           7       1:   20    1:    7    1:   12
           8      11:   20    8:   20   43:   54
           9      11:   20    8:   20    1:   12
          10       1:   10    8:   20   13:   27
          11      11:   20    8:   20   28:   42
          12       1:   10    8:   20   43:   54
New grid distribution:   3
           1       1:   10    8:   20   15:   27
           2       1:   20    1:    7   15:   27
           3       1:   20    1:    7   28:   41
           4       1:   20    1:    7   42:   54
           5       1:   20    1:    7    1:   14
           6       1:   10    8:   20    1:   14
           7      11:   20    8:   20   28:   41
           8       1:   10    8:   20   42:   54
           9      11:   20    8:   20    1:   14
          10      11:   20    8:   20   15:   27
          11       1:   10    8:   20   28:   41
          12      11:   20    8:   20   42:   54
Setting up quadratic distribution...
ExtMesh (bp) on 0 =   150 x   153 x   155 =     3557250
PhiOnMesh: Number of (b)points on node 0 =                 1950
PhiOnMesh: nlist on node 0 =               229704

stepf: Fermi-Dirac step function

siesta: Program's energy decomposition (eV):
siesta: Ebs     =       -71.199679
siesta: Eions   =       380.620085
siesta: Ena     =       124.593851
siesta: Ekin    =       188.442808
siesta: Enl     =        40.320265
siesta: Eso     =         0.000000
siesta: Edftu   =         0.000000
siesta: DEna    =        -5.765552
siesta: DUscf   =        21.879491
siesta: DUext   =         0.000000
siesta: Exc     =      -157.897109
siesta: eta*DQ  =         0.000000
siesta: Emadel  =         0.000000
siesta: Emeta   =         0.000000
siesta: Emolmec =        -4.980342
siesta: Ekinion =         0.000000
siesta: Eharris =      -111.096964
siesta: Etot    =      -174.026673
siesta: FreeEng =      -174.033384

        iscf     Eharris(eV)        E_KS(eV)     FreeEng(eV)     dDmax    Ef(eV) dHmax(eV)
   scf:    1     -111.096964     -174.026673     -174.033384 17.522448 -6.119393 22.428864
timer: Routine,Calls,Time,% = IterSCF        1       0.882  18.39
   scf:    2      -90.716694     -166.953752     -166.966111118.125707 -5.364944 24.483898
   scf:    3     -167.413568     -186.950564     -186.965000 77.140467 -5.886119  8.510645
   scf:    4     -175.375568     -187.016790     -187.029256 64.677712 -5.776301  9.532446
   scf:    5     -168.431209     -185.213845     -185.226198 66.143068 -6.004309 11.472431
   scf:    6     -186.060718     -189.673915     -189.691012 64.331577 -5.714035  3.430470
   scf:    7     -186.489478     -189.306867     -189.329036 13.186144 -5.947727  4.675018
   scf:    8     -190.417602     -190.073842     -190.099617  7.350012 -5.749700  1.181002
   scf:    9     -190.151480     -190.122252     -190.149087  0.906352 -5.745353  0.512178
   scf:   10     -189.871668     -190.064465     -190.089919  2.488002 -5.748966  1.298739
   scf:   11     -189.981742     -190.109701     -190.136270  2.743572 -5.760313  0.760575
   scf:   12     -190.136184     -190.133402     -190.160429  0.946581 -5.756033  0.052061
   scf:   13     -190.132063     -190.133140     -190.160141  0.204364 -5.757648  0.095418
   scf:   14     -190.133552     -190.133505     -190.160521  0.117026 -5.758213  0.007316
   scf:   15     -190.133507     -190.133507     -190.160524  0.008819 -5.758286  0.000848
   scf:   16     -190.133506     -190.133507     -190.160524  0.002764 -5.758297  0.001047
   scf:   17     -190.133507     -190.133507     -190.160524  0.000889 -5.758276  0.000195

SCF Convergence by FreeE+DM+H criterion
|FreeE_i-FreeE_(i-1)| (eV) <     0.00100000
max |DM_out - DM_in|         :     0.0008892642
max |H_out - H_in|      (eV) :     0.0001952342
SCF cycle converged after 17 iterations

Using DM_out to compute the final energy and forces
No. of atoms with KB's overlaping orbs in proc 0. Max # of overlaps:     182     239

MM-Stress (kbar):        6.46        6.46       22.71       -0.00        0.00        0.00

siesta: E_KS(eV) =             -190.1335

siesta: E_KS - E_eggbox =      -190.1335

siesta: Atomic forces (eV/Ang):
     1    0.000000   -0.000000    0.000000
     2   -0.395478    0.000000   -0.978070
     3    0.395478   -0.000000    0.978070
     4    0.197739   -0.342493   -0.978070
     5   -0.197739    0.342493    0.978070
     6    0.197717    0.342456   -0.978103
     7   -0.197717   -0.342456    0.978103
     8    0.395478   -0.000000   -0.978070
     9   -0.395478    0.000000    0.978070
    10   -0.197739    0.342493   -0.978070
    11    0.197739   -0.342493    0.978070
    12   -0.197717   -0.342456   -0.978103
    13    0.197717    0.342456    0.978103
----------------------------------------
   Tot   -0.000000   -0.000000    0.000000
----------------------------------------
   Max    0.978103
   Res    0.585211    sqrt( Sum f_i^2 / 3N )
----------------------------------------
   Max    0.978103    constrained

Stress tensor Voigt[x,y,z,yz,xz,xy] (kbar):    -1619.66    -1619.67      521.22        0.00        0.00       -0.01
(Free)E + p*V (eV/cell)     -102.4248
Target enthalpy (eV/cell)     -190.1605

siesta: Eigenvalues (eV):
  ik is       eps
   1  1  -15.6046  -14.2955  -12.7751   -9.5342   -5.7395   -5.7394   -4.9661   -0.8048   -0.8048   -0.5962
          -0.5961    0.9608    4.1942    5.9510    5.9511    6.4753    6.4755   12.0284   12.0285   18.4448
   19.6290   19.6291   22.5078   22.5078   23.5125   23.5125   23.5503   23.5975   23.5975   23.8553
   54.6322   95.9631
   2  1  -15.0864  -13.0271  -12.6419  -12.3877  -11.8433   -8.7581   -7.3166   -6.5879   -6.0130   -4.8208
          -4.2482   -3.7429   -3.1627   -2.7584    2.2146    2.9048    6.2606    7.1848   15.6501   15.8817
   17.4010   17.4222   18.2169   18.2977   21.7160   23.7644   30.1894   33.3942   57.2391   58.8750
   76.3535   80.6456
   3  1  -15.0864  -13.0271  -12.6419  -12.3877  -11.8433   -8.7581   -7.3166   -6.5879   -6.0130   -4.8208
          -4.2482   -3.7429   -3.1627   -2.7584    2.2146    2.9048    6.2606    7.1848   15.6501   15.8817
   17.4010   17.4222   18.2169   18.2977   21.7160   23.7644   30.1894   33.3942   57.2391   58.8750
   76.3535   80.6456
   4  1  -15.0864  -13.0271  -12.6419  -12.3877  -11.8433   -8.7581   -7.3166   -6.5879   -6.0130   -4.8208
          -4.2482   -3.7429   -3.1627   -2.7584    2.2146    2.9050    6.2605    7.1849   15.6500   15.8816
   17.4010   17.4222   18.2169   18.2977   21.7160   23.7645   30.1894   33.3941   57.2391   58.8749
   76.3535   80.6456
   5  1  -15.5039  -14.0265  -12.7338  -10.4791   -5.7277   -5.7277   -5.5960   -4.6167    0.6458    0.6458
           0.8236    0.8237    0.8949    0.8950    1.1559    1.1560    3.1307   11.1820   11.1822   13.8915
   14.1400   14.1400   14.1693   14.1693   14.5815   14.5816   23.4289   23.4289   23.6284   23.6641
   53.1829   53.4815
   6  1  -15.0033  -12.7861  -12.5707  -12.3765  -11.6764   -9.0926   -8.1047   -7.1549   -6.5606   -5.7355
          -5.0197   -4.6783   -4.1230   -3.0926   -3.0626   -2.8735    5.2139    6.4598    7.7455    9.7104
   12.0920   15.5017   17.6408   17.8285   17.8372   17.8509   19.9208   34.0697   51.4069   52.6469
   52.9772   54.2630
   7  1  -15.0033  -12.7861  -12.5707  -12.3765  -11.6764   -9.0926   -8.1047   -7.1549   -6.5606   -5.7355
          -5.0197   -4.6783   -4.1230   -3.0926   -3.0626   -2.8735    5.2139    6.4598    7.7455    9.7104
   12.0920   15.5017   17.6408   17.8285   17.8372   17.8509   19.9208   34.0697   51.4069   52.6469
   52.9772   54.2630
   8  1  -15.0033  -12.7861  -12.5707  -12.3765  -11.6764   -9.0926   -8.1047   -7.1549   -6.5606   -5.7355
          -5.0196   -4.6783   -4.1230   -3.0926   -3.0627   -2.8734    5.2138    6.4598    7.7453    9.7105
   12.0920   15.5017   17.6408   17.8285   17.8372   17.8508   19.9208   34.0697   51.4069   52.6469
   52.9772   54.2630
siesta: Fermi energy =      -5.758276 eV

siesta: Program's energy decomposition (eV):
siesta: Ebs     =      -170.845651
siesta: Eions   =       380.620085
siesta: Ena     =       124.593851
siesta: Ekin    =       152.709837
siesta: Enl     =        50.924864
siesta: Eso     =         0.000000
siesta: Edftu   =         0.000000
siesta: DEna    =        13.567122
siesta: DUscf   =         1.147598
siesta: DUext   =         0.000000
siesta: Exc     =      -147.476352
siesta: eta*DQ  =         0.000000
siesta: Emadel  =         0.000000
siesta: Emeta   =         0.000000
siesta: Emolmec =        -4.980342
siesta: Ekinion =         0.000000
siesta: Eharris =      -190.133507
siesta: Etot    =      -190.133507
siesta: FreeEng =      -190.160524

siesta: Final energy (eV):
siesta:  Band Struct. =    -170.845651
siesta:       Kinetic =     152.709837
siesta:       Hartree =      85.874836
siesta:       Edftu   =       0.000000
siesta:       Eso     =       0.000000
siesta:    Ext. field =       0.000000
siesta:   Exch.-corr. =    -147.476352
siesta:  Ion-electron =    -344.097818
siesta:       Ion-ion =      67.836332
siesta:       Ekinion =       0.000000
siesta:         Total =    -190.133507
siesta:         Fermi =      -5.758276

siesta: Atomic forces (eV/Ang):
siesta:      1    0.000000   -0.000000    0.000000
siesta:      2   -0.395478    0.000000   -0.978070
siesta:      3    0.395478   -0.000000    0.978070
siesta:      4    0.197739   -0.342493   -0.978070
siesta:      5   -0.197739    0.342493    0.978070
siesta:      6    0.197717    0.342456   -0.978103
siesta:      7   -0.197717   -0.342456    0.978103
siesta:      8    0.395478   -0.000000   -0.978070
siesta:      9   -0.395478    0.000000    0.978070
siesta:     10   -0.197739    0.342493   -0.978070
siesta:     11    0.197739   -0.342493    0.978070
siesta:     12   -0.197717   -0.342456   -0.978103
siesta:     13    0.197717    0.342456    0.978103
siesta: ----------------------------------------
siesta:    Tot   -0.000000   -0.000000    0.000000

siesta: Stress tensor (static) (eV/Ang**3):
siesta:    -1.010902   -0.000003    0.000000
siesta:    -0.000003   -1.010906    0.000000
siesta:     0.000000    0.000000    0.325317

siesta: Cell volume =        155.147961 Ang**3

siesta: Pressure (static):
siesta:                Solid            Molecule  Units
siesta:           0.00615898          0.00540475  Ry/Bohr**3
siesta:           0.56549687          0.49624567  eV/Ang**3
siesta:         906.03566099        795.08180578  kBar
(Free)E+ p_basis*V_orbitals  =        -168.227960
(Free)Eharris+ p_basis*V_orbitals  =        -168.227960

cite: Please see "LiC12_scf.bib" for an exhaustive BiBTeX file.
cite: Please clearly indicate Siesta version in published work: 4.1.5
cite: This calculation has made use of the following articles
cite: which are encouraged to be cited in a published work.
        Primary SIESTA paper
          DOI: www.doi.org/10.1088/0953-8984/14/11/302

>> End of run:   9-NOV-2022   8:28:54
Job completed
