Siesta Version  : 4.1.5
Architecture    : x86_64-unknown-linux-gnu--unknown
Compiler version: GNU Fortran (GCC) 11.3.0
Compiler flags  : mpif90 -g -O2 -fallow-argument-mismatch
PP flags        : -DMPI -DFC_HAVE_FLUSH -DFC_HAVE_ABORT
Libraries       :  -I/global/software/sl-7.x86_64/modules/intel/2020.4.304/mkl/include  /globall/software/sl-7.x86_64/modules/intel/2020.4.304/mkl/lib/intel64/libmkl_scalapack_lp64.a -Wl,--start-group /global/software/sl-7.x86_64/modules/intel/2020.4.304/mkl/lib/intel64/libmkl_intel_lp64.a /global/software/sl-7.x86_64/modules/intel/2020.4.304/mkl/lib/intel64/libmkl_sequential.a /global/software/sl-7.x86_64/modules/intel/2020.4.304/mkl/lib/intel64/libmkl_core.a /global/software/sl-7.x86_64/modules/intel/2020.4.304/mkl/lib/intel64/libmkl_blacs_openmpi_lp64.a -Wl,--end-group -lpthread -lm -ldl
PARALLEL version

* Running on 12 nodes in parallel
>> Start of run:   9-NOV-2022   8:26:46

                           ***********************       
                           *  WELCOME TO SIESTA  *       
                           ***********************       

reinit: Reading from standard input
reinit: Dumped input in INPUT_TMP.73694
************************** Dump of input data file ****************************
SystemName LiC12_scf
SystemLabel LiC12_scf
NumberOfAtoms   13
NumberOfSpecies 2
%block ChemicalSpeciesLabel
1  3   Li-gga
2  6   C-gga
%endblock ChemicalSpeciesLabel
PAO.BasisSize  DZ
PAO.EnergyShift  10 meV
%block PS.Lmax
C-gga   2
Li-gga  2
%endblock PS.Lmax
LatticeConstant 1.000000 Ang
%block LatticeVectors
	4.2686000000	0.0000000000	0.0000000000
	-2.1343000000	3.6967160386	0.0000000000
	0.0000000000	0.0000000000	9.6916020000
%endblock LatticeVectors
AtomicCoordinatesFormat Ang
%block AtomicCoordinatesAndAtomicSpecies
	0.00000000	0.00000000	0.00000000	2
	1.42144380	0.00000000	2.42290050	1
	2.84715620	0.00000000	7.26870150	1
	-0.71072190	1.23100644	2.42290050	1
	-1.42357810	2.46570960	7.26870150	1
	1.42357810	2.46570960	2.42290050	1
	0.71072190	1.23100644	7.26870150	1
	2.84715620	0.00000000	2.42290050	1
	1.42144380	0.00000000	7.26870150	1
	-1.42357810	2.46570960	2.42290050	1
	-0.71072190	1.23100644	7.26870150	1
	0.71072190	1.23100644	2.42290050	1
	1.42357810	2.46570960	7.26870150	1
%endblock AtomicCoordinatesAndAtomicSpecies
Kgrid_NoTRS  T
%block kgrid_MonkhorstPack
2       0       0       0.0
0       2       0       0.0
0       0       2       0.0
%endblock kgrid_MonkhorstPack
AtomCoorFormatOut Ang
BlockSize 1
#ProcessorY 12
Diag.ParallelOverK   T
Diag.DivideAndConquer F
MeshCutoff   300 Ry
SCF.FreeE.Tolerance 1E-3 eV
SCF.EDM.Tolerance   5E-3 eV
DM.Tolerance  1E-3
DM.Require.Energy.Convergence T
DM.NumberPulay 4
XC.Functional GGA
XC.Authors    PBE
UseSaveData        F
MD.TypeOfRun       CG
MD.VariableCell    F
MD.NumCGsteps      00
MD.MaxCGDispl      0.200000 Bohr
MD.MaxStressTol    1.000000 GPa
MD.MaxForceTol     0.010000 eV/Ang
WriteMDHistory T
WriteCoorStep T
WriteForces T
WriteCoorStep    T
WriteEigenValues T
WriteDM    F
MM.UnitsDistance Ang  # what this program prints out DO NOT CHANGE
MM.UnitsEnergy    eV  # what this program prints out DO NOT CHANGE
MM.Grimme.S6     0.75 # Grimme-paper for PBE (correct for your functional)
MM.Grimme.D     20.   # Grimme-paper (correct for your functional)
%block MM.Potentials
  1   1 Grimme     16.69      1.650 # Li, 10.1002/jcc.20495
  1   2 Grimme     17.40      2.277 # Li / C
  2   2 Grimme     18.14      2.904 # C, 10.1002/jcc.20495
%endblock MM.Potentials
#%block ProjectedDensityOfStates
# -200.0  120.0  0.4  12800  eV
#%endblock ProjectedDensityOfStates
************************** End of input data file *****************************

reinit: -----------------------------------------------------------------------
reinit: System Name: LiC12_scf
reinit: -----------------------------------------------------------------------
reinit: System Label: LiC12_scf
reinit: -----------------------------------------------------------------------
Reading two-body potentials
Grimme - two-body potential between 1 and 1
Grimme - two-body potential between 1 and 2
Grimme - two-body potential between 2 and 2

initatom: Reading input for the pseudopotentials and atomic orbitals ----------
Species number:   1 Atomic number:    3 Label: Li-gga
Species number:   2 Atomic number:    6 Label: C-gga

Ground state valence configuration:   2s01
Reading pseudopotential information in formatted form from Li-gga.psf

Valence configuration for pseudopotential generation:
2s( 1.00) rc: 2.28
2p( 0.00) rc: 2.28
3d( 0.00) rc: 2.59
4f( 0.00) rc: 2.59
Ground state valence configuration:   2s02  2p02
Reading pseudopotential information in formatted form from C-gga.psf

Valence configuration for pseudopotential generation:
2s( 2.00) rc: 1.56
2p( 2.00) rc: 1.56
3d( 0.00) rc: 1.56
4f( 0.00) rc: 1.56
relmxkb: Read Max KB Ang. Momentum=    2 for species C-gga
relmxkb: Read Max KB Ang. Momentum=    2 for species Li-gga

<basis_specs>
===============================================================================
Li-gga               Z=   3    Mass=  6.9400        Charge= 0.17977+309
Lmxo=0 Lmxkb= 2    BasisType=split      Semic=F
L=0  Nsemic=0  Cnfigmx=2
          i=1  nzeta=2  polorb=0  (2s)
            splnorm:   0.15000    
               vcte:    0.0000    
               rinn:    0.0000    
               qcoe:    0.0000    
               qyuk:    0.0000    
               qwid:   0.10000E-01
                rcs:    0.0000      0.0000    
            lambdas:    1.0000      1.0000    
-------------------------------------------------------------------------------
L=0  Nkbl=1  erefs: 0.17977+309
L=1  Nkbl=1  erefs: 0.17977+309
L=2  Nkbl=1  erefs: 0.17977+309
===============================================================================
</basis_specs>

atom: Called for Li-gga                (Z =   3)

read_vps: Pseudopotential generation method:
read_vps: ATM 3.2.2 Troullier-Martins                       
Valence charge for ps generation:    1.00000

read_vps: Pseudopotential includes a core correction:
read_vps: Pseudo-core for xc-correction

xc_check: Exchange-correlation functional:
xc_check: GGA Perdew, Burke & Ernzerhof 1996
V l=0 = -2*Zval/r beyond r=  2.2278
V l=1 = -2*Zval/r beyond r=  2.2278
V l=2 = -2*Zval/r beyond r=  2.5245
All V_l potentials equal beyond r=  2.4622
This should be close to max(r_c) in ps generation
All pots = -2*Zval/r beyond r=  2.5245

VLOCAL1: 99.0% of the norm of Vloc inside      7.160 Ry
VLOCAL1: 99.9% of the norm of Vloc inside     16.318 Ry
atom: Maximum radius for 4*pi*r*r*local-pseudopot. charge    2.86079
atom: Maximum radius for r*vlocal+2*Zval:    2.43160
GHOST: No ghost state for L =  0
GHOST: No ghost state for L =  1
GHOST: No ghost state for L =  2

KBgen: Kleinman-Bylander projectors: 
   l= 0   rc=  2.654023   el= -0.211234   Ekb=  1.742119   kbcos=  0.228463
   l= 1   rc=  2.721230   el= -0.080095   Ekb= -1.122375   kbcos= -0.147941
   l= 2   rc=  2.825246   el=  0.002001   Ekb= -0.207076   kbcos= -0.031965

KBgen: Total number of Kleinman-Bylander projectors:    9
atom: -------------------------------------------------------------------------

atom: SANKEY-TYPE ORBITALS:
atom: Selected multiple-zeta basis: split     

SPLIT: Orbitals with angular momentum L= 0

SPLIT: Basis orbitals for state 2s

SPLIT: PAO cut-off radius determined from an
SPLIT: energy shift=  0.000735 Ry

   izeta = 1
                 lambda =    1.000000
                     rc =   11.897381
                 energy =   -0.210580
                kinetic =    0.143382
    potential(screened) =   -0.353962
       potential(ionic) =   -0.533453

   izeta = 2
                 rmatch =    8.489163
              splitnorm =    0.150000
                 energy =   -0.186081
                kinetic =    0.225882
    potential(screened) =   -0.411964
       potential(ionic) =   -0.593024
atom: Total number of Sankey-type orbitals:  2

atm_pop: Valence configuration (for local Pseudopot. screening):
 2s( 1.00)                                                            
Vna: chval, zval:    1.00000   1.00000

Vna:  Cut-off radius for the neutral-atom potential:  11.897381
comcore: Pseudo-core radius Rcore=  3.450946

atom: _________________________________________________________________________

<basis_specs>
===============================================================================
C-gga                Z=   6    Mass=  12.010        Charge= 0.17977+309
Lmxo=1 Lmxkb= 2    BasisType=split      Semic=F
L=0  Nsemic=0  Cnfigmx=2
          i=1  nzeta=2  polorb=0  (2s)
            splnorm:   0.15000    
               vcte:    0.0000    
               rinn:    0.0000    
               qcoe:    0.0000    
               qyuk:    0.0000    
               qwid:   0.10000E-01
                rcs:    0.0000      0.0000    
            lambdas:    1.0000      1.0000    
L=1  Nsemic=0  Cnfigmx=2
          i=1  nzeta=2  polorb=0  (2p)
            splnorm:   0.15000    
               vcte:    0.0000    
               rinn:    0.0000    
               qcoe:    0.0000    
               qyuk:    0.0000    
               qwid:   0.10000E-01
                rcs:    0.0000      0.0000    
            lambdas:    1.0000      1.0000    
-------------------------------------------------------------------------------
L=0  Nkbl=1  erefs: 0.17977+309
L=1  Nkbl=1  erefs: 0.17977+309
L=2  Nkbl=1  erefs: 0.17977+309
===============================================================================
</basis_specs>

atom: Called for C-gga                 (Z =   6)

read_vps: Pseudopotential generation method:
read_vps: ATM 3.2.2 Troullier-Martins                       
Valence charge for ps generation:    4.00000

xc_check: Exchange-correlation functional:
xc_check: GGA Perdew, Burke & Ernzerhof 1996
V l=0 = -2*Zval/r beyond r=  1.5227
V l=1 = -2*Zval/r beyond r=  1.5227
V l=2 = -2*Zval/r beyond r=  1.5227
All V_l potentials equal beyond r=  1.4851
This should be close to max(r_c) in ps generation
All pots = -2*Zval/r beyond r=  1.5227

VLOCAL1: 99.0% of the norm of Vloc inside     19.682 Ry
VLOCAL1: 99.9% of the norm of Vloc inside     44.856 Ry
atom: Maximum radius for 4*pi*r*r*local-pseudopot. charge    1.79142
atom: Maximum radius for r*vlocal+2*Zval:    1.54183
GHOST: No ghost state for L =  0
GHOST: No ghost state for L =  1
GHOST: No ghost state for L =  2

KBgen: Kleinman-Bylander projectors: 
   l= 0   rc=  1.661951   el= -1.010689   Ekb=  5.289847   kbcos=  0.316429
   l= 1   rc=  1.661951   el= -0.388490   Ekb= -4.102504   kbcos= -0.351025
   l= 2   rc=  1.747182   el=  0.001971   Ekb= -1.006005   kbcos= -0.008530

KBgen: Total number of Kleinman-Bylander projectors:    9
atom: -------------------------------------------------------------------------

atom: SANKEY-TYPE ORBITALS:
atom: Selected multiple-zeta basis: split     

SPLIT: Orbitals with angular momentum L= 0

SPLIT: Basis orbitals for state 2s

SPLIT: PAO cut-off radius determined from an
SPLIT: energy shift=  0.000735 Ry

   izeta = 1
                 lambda =    1.000000
                     rc =    5.948690
                 energy =   -1.010099
                kinetic =    0.827121
    potential(screened) =   -1.837220
       potential(ionic) =   -5.392783

   izeta = 2
                 rmatch =    3.518811
              splitnorm =    0.150000
                 energy =   -0.877891
                kinetic =    1.289227
    potential(screened) =   -2.167118
       potential(ionic) =   -5.982073

SPLIT: Orbitals with angular momentum L= 1

SPLIT: Basis orbitals for state 2p

SPLIT: PAO cut-off radius determined from an
SPLIT: energy shift=  0.000735 Ry

   izeta = 1
                 lambda =    1.000000
                     rc =    7.638387
                 energy =   -0.387843
                kinetic =    2.314739
    potential(screened) =   -2.702582
       potential(ionic) =   -6.092371

   izeta = 2
                 rmatch =    3.840617
              splitnorm =    0.150000
                 energy =   -0.270479
                kinetic =    3.438347
    potential(screened) =   -3.708826
       potential(ionic) =   -7.497707
atom: Total number of Sankey-type orbitals:  8

atm_pop: Valence configuration (for local Pseudopot. screening):
 2s( 2.00)                                                            
 2p( 2.00)                                                            
Vna: chval, zval:    4.00000   4.00000

Vna:  Cut-off radius for the neutral-atom potential:   7.638387

atom: _________________________________________________________________________

prinput: Basis input ----------------------------------------------------------

PAO.BasisType split     

%block ChemicalSpeciesLabel
    1    3 Li-gga                  # Species index, atomic number, species label
    2    6 C-gga                   # Species index, atomic number, species label
%endblock ChemicalSpeciesLabel

%block PAO.Basis                 # Define Basis set
Li-gga                1                    # Species label, number of l-shells
 n=2   0   2                         # n, l, Nzeta 
  11.897      8.489   
   1.000      1.000   
C-gga                 2                    # Species label, number of l-shells
 n=2   0   2                         # n, l, Nzeta 
   5.949      3.519   
   1.000      1.000   
 n=2   1   2                         # n, l, Nzeta 
   7.638      3.841   
   1.000      1.000   
%endblock PAO.Basis

prinput: ----------------------------------------------------------------------

coor:   Atomic-coordinates input format  =     Cartesian coordinates
coor:                                          (in Angstroms)

siesta: Atomic coordinates (Bohr) and species
siesta:      0.00000   0.00000   0.00000  2        1
siesta:      2.68614   0.00000   4.57862  1        2
siesta:      5.38035   0.00000  13.73586  1        3
siesta:     -1.34307   2.32627   4.57862  1        4
siesta:     -2.69017   4.65952  13.73586  1        5
siesta:      2.69017   4.65952   4.57862  1        6
siesta:      1.34307   2.32627  13.73586  1        7
siesta:      5.38035   0.00000   4.57862  1        8
siesta:      2.68614   0.00000  13.73586  1        9
siesta:     -2.69017   4.65952   4.57862  1       10
siesta:     -1.34307   2.32627  13.73586  1       11
siesta:      1.34307   2.32627   4.57862  1       12
siesta:      2.69017   4.65952  13.73586  1       13

siesta: System type = bulk      

initatomlists: Number of atoms, orbitals, and projectors:     13    32   117

siesta: ******************** Simulation parameters ****************************
siesta:
siesta: The following are some of the parameters of the simulation.
siesta: A complete list of the parameters used, including default values,
siesta: can be found in file out.fdf
siesta:
redata: Spin configuration                          = none
redata: Number of spin components                   = 1
redata: Time-Reversal Symmetry                      = T
redata: Spin spiral                                 = F
redata: Long output                                 =   F
redata: Number of Atomic Species                    =        2
redata: Charge density info will appear in .RHO file
redata: Write Mulliken Pop.                         = NO
redata: Matel table size (NRTAB)                    =     1024
redata: Mesh Cutoff                                 =   300.0000 Ry
redata: Net charge of the system                    =     0.0000 |e|
redata: Min. number of SCF Iter                     =        0
redata: Max. number of SCF Iter                     =     1000
redata: SCF convergence failure will abort job
redata: SCF mix quantity                            = Hamiltonian
redata: Mix DM or H after convergence               =   F
redata: Recompute H after scf cycle                 =   F
redata: Mix DM in first SCF step                    =   T
redata: Write Pulay info on disk                    =   F
redata: New DM Occupancy tolerance                  = 0.000000000001
redata: No kicks to SCF
redata: DM Mixing Weight for Kicks                  =     0.5000
redata: Require Harris convergence for SCF          =   F
redata: Harris energy tolerance for SCF             =     0.000100 eV
redata: Require DM convergence for SCF              =   T
redata: DM tolerance for SCF                        =     0.001000
redata: Require EDM convergence for SCF             =   F
redata: EDM tolerance for SCF                       =     0.005000 eV
redata: Require H convergence for SCF               =   T
redata: Hamiltonian tolerance for SCF               =     0.001000 eV
redata: Require (free) Energy convergence for SCF   =   T
redata: (free) Energy tolerance for SCF             =     0.001000 eV
redata: Using Saved Data (generic)                  =   F
redata: Use continuation files for DM               =   F
redata: Neglect nonoverlap interactions             =   F
redata: Method of Calculation                       = Diagonalization
redata: Electronic Temperature                      =   299.9869 K
redata: Fix the spin of the system                  =   F
redata: Dynamics option                             = Single-point calculation
mix.SCF: Pulay mixing                            = Pulay
mix.SCF:    Variant                              = stable
mix.SCF:    History steps                        = 4
mix.SCF:    Linear mixing weight                 =     0.250000
mix.SCF:    Mixing weight                        =     0.250000
mix.SCF:    SVD condition                        = 0.1000E-07
redata: ***********************************************************************

%block SCF.Mixers
  Pulay
%endblock SCF.Mixers

%block SCF.Mixer.Pulay
  # Mixing method
  method pulay
  variant stable

  # Mixing options
  weight 0.2500
  weight.linear 0.2500
  history 4
%endblock SCF.Mixer.Pulay

DM_history_depth set to one: no extrapolation allowed by default for geometry relaxation
Size of DM history Fstack: 1
Total number of electrons:    16.000000
Total ionic charge:    16.000000

* ProcessorY, Blocksize:    3   1


* Orbital distribution balance (max,min):     3     2

k-point displ. along   1 input, could be:     0.00    0.50
k-point displ. along   2 input, could be:     0.00    0.50
k-point displ. along   3 input, could be:     0.00    0.50
 Kpoints in:            8 . Kpoints trimmed:            8

siesta: k-grid: Number of k-points =     8
siesta: k-grid: Cutoff (effective) =     4.269 Ang
siesta: k-grid: Supercell and displacements
siesta: k-grid:    2   0   0      0.000
siesta: k-grid:    0   2   0      0.000
siesta: k-grid:    0   0   2      0.000

diag: Algorithm                                     = Expert
diag: Parallel over k                               =   T
diag: Use parallel 2D distribution                  =   T
diag: Parallel block-size                           = 1
diag: Parallel distribution                         =     3 x     4
diag: Used triangular part                          = Lower
diag: Absolute tolerance                            =  0.100E-15
diag: Orthogonalization factor                      =  0.100E-05
diag: Memory factor                                 =  1.0000

superc: Internal auxiliary supercell:     9 x     9 x     3  =     243
superc: Number of atoms, orbitals, and projectors:   3159   7776  28431


ts: **************************************************************
ts: Save H and S matrices                           =    F
ts: Save DM and EDM matrices                        =    F
ts: Only save the overlap matrix S                  =    F
ts: **************************************************************

************************ Begin: TS CHECKS AND WARNINGS ************************
************************ End: TS CHECKS AND WARNINGS **************************


                     ====================================
                        Single-point calculation
                     ====================================

outcoor: Atomic coordinates (Ang):                          
    0.00000000    0.00000000    0.00000000   2       1  C-gga
    1.42144380    0.00000000    2.42290050   1       2  Li-gga
    2.84715620    0.00000000    7.26870150   1       3  Li-gga
   -0.71072190    1.23100644    2.42290050   1       4  Li-gga
   -1.42357810    2.46570960    7.26870150   1       5  Li-gga
    1.42357810    2.46570960    2.42290050   1       6  Li-gga
    0.71072190    1.23100644    7.26870150   1       7  Li-gga
    2.84715620    0.00000000    2.42290050   1       8  Li-gga
    1.42144380    0.00000000    7.26870150   1       9  Li-gga
   -1.42357810    2.46570960    2.42290050   1      10  Li-gga
   -0.71072190    1.23100644    7.26870150   1      11  Li-gga
    0.71072190    1.23100644    2.42290050   1      12  Li-gga
    1.42357810    2.46570960    7.26870150   1      13  Li-gga

superc: Internal auxiliary supercell:     9 x     9 x     3  =     243
superc: Number of atoms, orbitals, and projectors:   3159   7776  28431

outcell: Unit cell vectors (Ang):
        4.268600    0.000000    0.000000
       -2.134300    3.696716    0.000000
        0.000000    0.000000    9.691602

outcell: Cell vector modules (Ang)   :    4.268600    4.268600    9.691602
outcell: Cell angles (23,13,12) (deg):     90.0000     90.0000    120.0000
outcell: Cell volume (Ang**3)        :    152.9316
<dSpData1D:S at geom step 0
  <sparsity:sparsity for geom step 0
    nrows_g=32 nrows=3 sparsity=4.5801 nnzs=4690, refcount: 7>
  <dData1D:(new from dSpData1D) n=4690, refcount: 1>
refcount: 1>
new_DM -- step:     1
Initializing Density Matrix...
DM filled with atomic data:
<dSpData2D:DM initialized from atoms
  <sparsity:sparsity for geom step 0
    nrows_g=32 nrows=3 sparsity=4.5801 nnzs=4690, refcount: 8>
  <dData2D:DM n=4690 m=1, refcount: 1>
refcount: 1>
No. of atoms with KB's overlaping orbs in proc 0. Max # of overlaps:     182     239
New grid distribution:   1
           1       1:   20    1:    7    1:   14
           2       1:   20    1:    7   15:   28
           3       1:   20    1:    7   29:   41
           4       1:   20    1:    7   42:   54
           5       1:   20    8:   14    1:   14
           6       1:   20    8:   14   15:   28
           7       1:   20    8:   14   29:   41
           8       1:   20    8:   14   42:   54
           9       1:   20   15:   20    1:   14
          10       1:   20   15:   20   15:   28
          11       1:   20   15:   20   29:   41
          12       1:   20   15:   20   42:   54

InitMesh: MESH =    40 x    40 x   108 =      172800
InitMesh: (bp) =    20 x    20 x    54 =       21600
InitMesh: Mesh cutoff (required, used) =   300.000   323.586 Ry
ExtMesh (bp) on 0 =   160 x   147 x   158 =     3716160
New grid distribution:   2
           1       1:   10    8:   20   28:   42
           2       1:   20    1:    7   13:   27
           3       1:   10    8:   20    1:   12
           4       1:   20    1:    7   43:   54
           5       1:   20    1:    7   28:   42
           6      11:   20    8:   20   13:   27
           7       1:   20    1:    7    1:   12
           8      11:   20    8:   20   43:   54
           9      11:   20    8:   20    1:   12
          10       1:   10    8:   20   13:   27
          11      11:   20    8:   20   28:   42
          12       1:   10    8:   20   43:   54
New grid distribution:   3
           1       1:   10    8:   20   15:   27
           2       1:   20    1:    7   15:   27
           3       1:   20    1:    7   28:   41
           4       1:   20    1:    7   42:   54
           5       1:   20    1:    7    1:   14
           6       1:   10    8:   20    1:   14
           7      11:   20    8:   20   28:   41
           8       1:   10    8:   20   42:   54
           9      11:   20    8:   20    1:   14
          10      11:   20    8:   20   15:   27
          11       1:   10    8:   20   28:   41
          12      11:   20    8:   20   42:   54
Setting up quadratic distribution...
ExtMesh (bp) on 0 =   150 x   153 x   159 =     3649050
PhiOnMesh: Number of (b)points on node 0 =                 1950
PhiOnMesh: nlist on node 0 =               233061

stepf: Fermi-Dirac step function

siesta: Program's energy decomposition (eV):
siesta: Ebs     =       -73.539992
siesta: Eions   =       380.620085
siesta: Ena     =       124.215367
siesta: Ekin    =       186.483965
siesta: Enl     =        40.684087
siesta: Eso     =         0.000000
siesta: Edftu   =         0.000000
siesta: DEna    =        -4.852305
siesta: DUscf   =        21.711539
siesta: DUext   =         0.000000
siesta: Exc     =      -157.706037
siesta: eta*DQ  =         0.000000
siesta: Emadel  =         0.000000
siesta: Emeta   =         0.000000
siesta: Emolmec =        -5.012796
siesta: Ekinion =         0.000000
siesta: Eharris =      -112.752134
siesta: Etot    =      -175.096265
siesta: FreeEng =      -175.099625

        iscf     Eharris(eV)        E_KS(eV)     FreeEng(eV)     dDmax    Ef(eV) dHmax(eV)
   scf:    1     -112.752134     -175.096265     -175.099625 18.132816 -6.343583 22.114925
timer: Routine,Calls,Time,% = IterSCF        1       0.900  20.09
   scf:    2      -92.020656     -167.977447     -167.992221116.061800 -5.473340 24.094538
   scf:    3     -170.644088     -188.257453     -188.270030102.845132 -5.867465  8.195902
   scf:    4     -169.538850     -185.965072     -185.977422 69.290352 -5.693488 11.870670
   scf:    5     -169.756470     -186.657616     -186.672155 69.765163 -5.848840 10.894921
   scf:    6     -187.933900     -190.636308     -190.663201 43.090266 -5.767996  2.803410
   scf:    7     -179.398653     -187.721920     -187.736651 39.929355 -5.854925  9.208147
   scf:    8     -190.802294     -190.944368     -190.972958 19.750163 -5.809534  0.291245
   scf:    9     -190.525413     -190.790558     -190.819814 15.793010 -5.798067  1.959327
   scf:   10     -190.658661     -190.903358     -190.933440 22.217493 -5.832040  1.047133
   scf:   11     -190.845041     -190.929930     -190.960565 11.382275 -5.813452  0.637289
   scf:   12     -190.947195     -190.946466     -190.977261  4.558982 -5.821525  0.010531
   scf:   13     -190.947113     -190.946808     -190.977260  0.601233 -5.821035  0.020355
   scf:   14     -190.946555     -190.946696     -190.977271  0.288605 -5.821442  0.010358
   scf:   15     -190.946801     -190.946749     -190.977275  0.108887 -5.821617  0.004223
   scf:   16     -190.946768     -190.946759     -190.977275  0.024513 -5.821737  0.002599
   scf:   17     -190.946764     -190.946762     -190.977276  0.022088 -5.821836  0.000702
   scf:   18     -190.946752     -190.946757     -190.977276  0.012777 -5.821779  0.000292
   scf:   19     -190.946755     -190.946756     -190.977276  0.000947 -5.821779  0.000019

SCF Convergence by FreeE+DM+H criterion
|FreeE_i-FreeE_(i-1)| (eV) <     0.00100000
max |DM_out - DM_in|         :     0.0009472640
max |H_out - H_in|      (eV) :     0.0000193001
SCF cycle converged after 19 iterations

Using DM_out to compute the final energy and forces
No. of atoms with KB's overlaping orbs in proc 0. Max # of overlaps:     182     239

MM-Stress (kbar):        6.92        6.92       24.14       -0.00        0.00        0.00

siesta: E_KS(eV) =             -190.9468

siesta: E_KS - E_eggbox =      -190.9468

siesta: Atomic forces (eV/Ang):
     1    0.000000    0.000000    0.000000
     2   -0.280496    0.000023   -0.942234
     3    0.280496   -0.000023    0.942234
     4    0.140268   -0.242906   -0.942234
     5   -0.140268    0.242906    0.942234
     6    0.140244    0.242910   -0.942246
     7   -0.140244   -0.242910    0.942246
     8    0.280496   -0.000023   -0.942234
     9   -0.280496    0.000023    0.942234
    10   -0.140268    0.242906   -0.942234
    11    0.140268   -0.242906    0.942234
    12   -0.140244   -0.242910   -0.942246
    13    0.140244    0.242910    0.942246
----------------------------------------
   Tot    0.000000    0.000000    0.000000
----------------------------------------
   Max    0.942246
   Res    0.545327    sqrt( Sum f_i^2 / 3N )
----------------------------------------
   Max    0.942246    constrained

Stress tensor Voigt[x,y,z,yz,xz,xy] (kbar):    -1402.73    -1402.73      746.05        0.00        0.00        0.00
(Free)E + p*V (eV/cell)     -125.4527
Target enthalpy (eV/cell)     -190.9773

siesta: Eigenvalues (eV):
  ik is       eps
   1  1  -15.7434  -14.3602  -12.8397   -9.8152   -5.8188   -5.8188   -4.9280   -1.0616   -1.0616   -0.8469
          -0.8469    0.8037    4.0353    5.8103    5.8103    6.5502    6.5504   11.7925   11.7925   17.2767
   20.7000   20.7001   23.1760   23.1761   23.2742   23.2742   23.4317   23.4941   23.4941   23.5784
   52.5443  117.6370
   2  1  -15.2290  -13.1828  -12.7986  -12.4908  -11.9409   -8.9346   -7.4339   -6.6724   -5.7786   -4.8481
          -4.3576   -3.7471   -3.0030   -2.6861    2.2066    2.8617    6.3006    7.1335   16.2330   17.2152
   17.2240   17.4818   18.0217   18.1541   27.6927   29.6148   31.3586   34.3103   55.5768   57.0760
   72.3955   77.1592
   3  1  -15.2290  -13.1828  -12.7986  -12.4908  -11.9409   -8.9346   -7.4339   -6.6724   -5.7786   -4.8481
          -4.3576   -3.7471   -3.0030   -2.6861    2.2066    2.8617    6.3006    7.1335   16.2330   17.2152
   17.2240   17.4818   18.0217   18.1541   27.6927   29.6148   31.3586   34.3103   55.5768   57.0760
   72.3955   77.1592
   4  1  -15.2290  -13.1828  -12.7986  -12.4908  -11.9409   -8.9346   -7.4340   -6.6724   -5.7786   -4.8481
          -4.3576   -3.7472   -3.0030   -2.6861    2.2066    2.8619    6.3004    7.1336   16.2330   17.2152
   17.2239   17.4817   18.0216   18.1541   27.6927   29.6148   31.3586   34.3102   55.5768   57.0760
   72.3955   77.1592
   5  1  -15.6284  -14.1517  -12.8009  -10.6851   -5.8095   -5.8094   -5.6238   -4.9439    0.8792    0.8792
           1.0001    1.0002    1.1605    1.1606    1.3511    1.3512    3.1134   11.1240   11.1242   13.5962
   14.1646   14.1646   14.1933   14.1934   14.5474   14.5475   23.3346   23.3347   23.4493   23.4922
   52.9202   53.2229
   6  1  -15.1264  -12.9324  -12.6863  -12.4739  -11.7479   -9.2870   -8.2464   -7.2514   -6.6695   -5.8923
          -5.1918   -4.7363   -4.1061   -3.0817   -3.0234   -2.9009    5.0620    5.9083    7.4228    9.7426
   11.8206   15.3323   17.3825   17.6310   17.6543   17.6555   19.4536   32.8993   52.9480   54.1350
   54.4083   55.7870
   7  1  -15.1264  -12.9324  -12.6863  -12.4739  -11.7479   -9.2870   -8.2464   -7.2514   -6.6695   -5.8923
          -5.1918   -4.7363   -4.1061   -3.0817   -3.0234   -2.9009    5.0620    5.9083    7.4228    9.7426
   11.8206   15.3323   17.3825   17.6310   17.6543   17.6555   19.4536   32.8993   52.9480   54.1350
   54.4083   55.7870
   8  1  -15.1264  -12.9324  -12.6864  -12.4740  -11.7479   -9.2870   -8.2464   -7.2514   -6.6695   -5.8923
          -5.1917   -4.7363   -4.1061   -3.0817   -3.0234   -2.9008    5.0620    5.9083    7.4225    9.7427
   11.8205   15.3323   17.3825   17.6309   17.6543   17.6555   19.4536   32.8993   52.9480   54.1350
   54.4083   55.7870
siesta: Fermi energy =      -5.821779 eV

siesta: Program's energy decomposition (eV):
siesta: Ebs     =      -172.652951
siesta: Eions   =       380.620085
siesta: Ena     =       124.215367
siesta: Ekin    =       150.805904
siesta: Enl     =        50.871642
siesta: Eso     =         0.000000
siesta: Edftu   =         0.000000
siesta: DEna    =        15.037943
siesta: DUscf   =         1.384191
siesta: DUext   =         0.000000
siesta: Exc     =      -147.628922
siesta: eta*DQ  =         0.000000
siesta: Emadel  =         0.000000
siesta: Emeta   =         0.000000
siesta: Emolmec =        -5.012796
siesta: Ekinion =         0.000000
siesta: Eharris =      -190.946755
siesta: Etot    =      -190.946756
siesta: FreeEng =      -190.977276

siesta: Final energy (eV):
siesta:  Band Struct. =    -172.652951
siesta:       Kinetic =     150.805904
siesta:       Hartree =      85.045763
siesta:       Edftu   =       0.000000
siesta:       Eso     =       0.000000
siesta:    Ext. field =       0.000000
siesta:   Exch.-corr. =    -147.628922
siesta:  Ion-electron =    -342.122581
siesta:       Ion-ion =      67.965875
siesta:       Ekinion =       0.000000
siesta:         Total =    -190.946756
siesta:         Fermi =      -5.821779

siesta: Atomic forces (eV/Ang):
siesta:      1    0.000000    0.000000    0.000000
siesta:      2   -0.280496    0.000023   -0.942234
siesta:      3    0.280496   -0.000023    0.942234
siesta:      4    0.140268   -0.242906   -0.942234
siesta:      5   -0.140268    0.242906    0.942234
siesta:      6    0.140244    0.242910   -0.942246
siesta:      7   -0.140244   -0.242910    0.942246
siesta:      8    0.280496   -0.000023   -0.942234
siesta:      9   -0.280496    0.000023    0.942234
siesta:     10   -0.140268    0.242906   -0.942234
siesta:     11    0.140268   -0.242906    0.942234
siesta:     12   -0.140244   -0.242910   -0.942246
siesta:     13    0.140244    0.242910    0.942246
siesta: ----------------------------------------
siesta:    Tot    0.000000    0.000000    0.000000

siesta: Stress tensor (static) (eV/Ang**3):
siesta:    -0.875509    0.000002    0.000000
siesta:     0.000002   -0.875506    0.000000
siesta:     0.000000    0.000000    0.465645

siesta: Cell volume =        152.931561 Ang**3

siesta: Pressure (static):
siesta:                Solid            Molecule  Units
siesta:           0.00466644          0.00395915  Ry/Bohr**3
siesta:           0.42845680          0.36351531  eV/Ang**3
siesta:         686.47088870        582.42203818  kBar
(Free)E+ p_basis*V_orbitals  =        -169.044712
(Free)Eharris+ p_basis*V_orbitals  =        -169.044711

cite: Please see "LiC12_scf.bib" for an exhaustive BiBTeX file.
cite: Please clearly indicate Siesta version in published work: 4.1.5
cite: This calculation has made use of the following articles
cite: which are encouraged to be cited in a published work.
        Primary SIESTA paper
          DOI: www.doi.org/10.1088/0953-8984/14/11/302

>> End of run:   9-NOV-2022   8:27:03
Job completed
