Siesta Version  : 4.1.5
Architecture    : x86_64-unknown-linux-gnu--unknown
Compiler version: GNU Fortran (GCC) 11.3.0
Compiler flags  : mpif90 -g -O2 -fallow-argument-mismatch
PP flags        : -DMPI -DFC_HAVE_FLUSH -DFC_HAVE_ABORT
Libraries       :  -I/global/software/sl-7.x86_64/modules/intel/2020.4.304/mkl/include  /globall/software/sl-7.x86_64/modules/intel/2020.4.304/mkl/lib/intel64/libmkl_scalapack_lp64.a -Wl,--start-group /global/software/sl-7.x86_64/modules/intel/2020.4.304/mkl/lib/intel64/libmkl_intel_lp64.a /global/software/sl-7.x86_64/modules/intel/2020.4.304/mkl/lib/intel64/libmkl_sequential.a /global/software/sl-7.x86_64/modules/intel/2020.4.304/mkl/lib/intel64/libmkl_core.a /global/software/sl-7.x86_64/modules/intel/2020.4.304/mkl/lib/intel64/libmkl_blacs_openmpi_lp64.a -Wl,--end-group -lpthread -lm -ldl
PARALLEL version

* Running on 12 nodes in parallel
>> Start of run:   9-NOV-2022   8:22:03

                           ***********************       
                           *  WELCOME TO SIESTA  *       
                           ***********************       

reinit: Reading from standard input
reinit: Dumped input in INPUT_TMP.90478
************************** Dump of input data file ****************************
SystemName LiC12_scf
SystemLabel LiC12_scf
NumberOfAtoms   13
NumberOfSpecies 2
%block ChemicalSpeciesLabel
1  3   Li-gga
2  6   C-gga
%endblock ChemicalSpeciesLabel
PAO.BasisSize  DZ
PAO.EnergyShift  10 meV
%block PS.Lmax
C-gga   2
Li-gga  2
%endblock PS.Lmax
LatticeConstant 1.000000 Ang
%block LatticeVectors
	4.2686000000	0.0000000000	0.0000000000
	-2.1343000000	3.6967160386	0.0000000000
	0.0000000000	0.0000000000	7.5847320000
%endblock LatticeVectors
AtomicCoordinatesFormat Ang
%block AtomicCoordinatesAndAtomicSpecies
	0.00000000	0.00000000	0.00000000	2
	1.42144380	0.00000000	1.89618300	1
	2.84715620	0.00000000	5.68854900	1
	-0.71072190	1.23100644	1.89618300	1
	-1.42357810	2.46570960	5.68854900	1
	1.42357810	2.46570960	1.89618300	1
	0.71072190	1.23100644	5.68854900	1
	2.84715620	0.00000000	1.89618300	1
	1.42144380	0.00000000	5.68854900	1
	-1.42357810	2.46570960	1.89618300	1
	-0.71072190	1.23100644	5.68854900	1
	0.71072190	1.23100644	1.89618300	1
	1.42357810	2.46570960	5.68854900	1
%endblock AtomicCoordinatesAndAtomicSpecies
Kgrid_NoTRS  T
%block kgrid_MonkhorstPack
2       0       0       0.0
0       2       0       0.0
0       0       2       0.0
%endblock kgrid_MonkhorstPack
AtomCoorFormatOut Ang
BlockSize 1
#ProcessorY 12
Diag.ParallelOverK   T
Diag.DivideAndConquer F
MeshCutoff   300 Ry
SCF.FreeE.Tolerance 1E-3 eV
SCF.EDM.Tolerance   5E-3 eV
DM.Tolerance  1E-3
DM.Require.Energy.Convergence T
DM.NumberPulay 4
XC.Functional GGA
XC.Authors    PBE
UseSaveData        F
MD.TypeOfRun       CG
MD.VariableCell    F
MD.NumCGsteps      00
MD.MaxCGDispl      0.200000 Bohr
MD.MaxStressTol    1.000000 GPa
MD.MaxForceTol     0.010000 eV/Ang
WriteMDHistory T
WriteCoorStep T
WriteForces T
WriteCoorStep    T
WriteEigenValues T
WriteDM    F
MM.UnitsDistance Ang  # what this program prints out DO NOT CHANGE
MM.UnitsEnergy    eV  # what this program prints out DO NOT CHANGE
MM.Grimme.S6     0.75 # Grimme-paper for PBE (correct for your functional)
MM.Grimme.D     20.   # Grimme-paper (correct for your functional)
%block MM.Potentials
  1   1 Grimme     16.69      1.650 # Li, 10.1002/jcc.20495
  1   2 Grimme     17.40      2.277 # Li / C
  2   2 Grimme     18.14      2.904 # C, 10.1002/jcc.20495
%endblock MM.Potentials
#%block ProjectedDensityOfStates
# -200.0  120.0  0.4  12800  eV
#%endblock ProjectedDensityOfStates
************************** End of input data file *****************************

reinit: -----------------------------------------------------------------------
reinit: System Name: LiC12_scf
reinit: -----------------------------------------------------------------------
reinit: System Label: LiC12_scf
reinit: -----------------------------------------------------------------------
Reading two-body potentials
Grimme - two-body potential between 1 and 1
Grimme - two-body potential between 1 and 2
Grimme - two-body potential between 2 and 2

initatom: Reading input for the pseudopotentials and atomic orbitals ----------
Species number:   1 Atomic number:    3 Label: Li-gga
Species number:   2 Atomic number:    6 Label: C-gga

Ground state valence configuration:   2s01
Reading pseudopotential information in formatted form from Li-gga.psf

Valence configuration for pseudopotential generation:
2s( 1.00) rc: 2.28
2p( 0.00) rc: 2.28
3d( 0.00) rc: 2.59
4f( 0.00) rc: 2.59
Ground state valence configuration:   2s02  2p02
Reading pseudopotential information in formatted form from C-gga.psf

Valence configuration for pseudopotential generation:
2s( 2.00) rc: 1.56
2p( 2.00) rc: 1.56
3d( 0.00) rc: 1.56
4f( 0.00) rc: 1.56
relmxkb: Read Max KB Ang. Momentum=    2 for species C-gga
relmxkb: Read Max KB Ang. Momentum=    2 for species Li-gga

<basis_specs>
===============================================================================
Li-gga               Z=   3    Mass=  6.9400        Charge= 0.17977+309
Lmxo=0 Lmxkb= 2    BasisType=split      Semic=F
L=0  Nsemic=0  Cnfigmx=2
          i=1  nzeta=2  polorb=0  (2s)
            splnorm:   0.15000    
               vcte:    0.0000    
               rinn:    0.0000    
               qcoe:    0.0000    
               qyuk:    0.0000    
               qwid:   0.10000E-01
                rcs:    0.0000      0.0000    
            lambdas:    1.0000      1.0000    
-------------------------------------------------------------------------------
L=0  Nkbl=1  erefs: 0.17977+309
L=1  Nkbl=1  erefs: 0.17977+309
L=2  Nkbl=1  erefs: 0.17977+309
===============================================================================
</basis_specs>

atom: Called for Li-gga                (Z =   3)

read_vps: Pseudopotential generation method:
read_vps: ATM 3.2.2 Troullier-Martins                       
Valence charge for ps generation:    1.00000

read_vps: Pseudopotential includes a core correction:
read_vps: Pseudo-core for xc-correction

xc_check: Exchange-correlation functional:
xc_check: GGA Perdew, Burke & Ernzerhof 1996
V l=0 = -2*Zval/r beyond r=  2.2278
V l=1 = -2*Zval/r beyond r=  2.2278
V l=2 = -2*Zval/r beyond r=  2.5245
All V_l potentials equal beyond r=  2.4622
This should be close to max(r_c) in ps generation
All pots = -2*Zval/r beyond r=  2.5245

VLOCAL1: 99.0% of the norm of Vloc inside      7.160 Ry
VLOCAL1: 99.9% of the norm of Vloc inside     16.318 Ry
atom: Maximum radius for 4*pi*r*r*local-pseudopot. charge    2.86079
atom: Maximum radius for r*vlocal+2*Zval:    2.43160
GHOST: No ghost state for L =  0
GHOST: No ghost state for L =  1
GHOST: No ghost state for L =  2

KBgen: Kleinman-Bylander projectors: 
   l= 0   rc=  2.654023   el= -0.211234   Ekb=  1.742119   kbcos=  0.228463
   l= 1   rc=  2.721230   el= -0.080095   Ekb= -1.122375   kbcos= -0.147941
   l= 2   rc=  2.825246   el=  0.002001   Ekb= -0.207076   kbcos= -0.031965

KBgen: Total number of Kleinman-Bylander projectors:    9
atom: -------------------------------------------------------------------------

atom: SANKEY-TYPE ORBITALS:
atom: Selected multiple-zeta basis: split     

SPLIT: Orbitals with angular momentum L= 0

SPLIT: Basis orbitals for state 2s

SPLIT: PAO cut-off radius determined from an
SPLIT: energy shift=  0.000735 Ry

   izeta = 1
                 lambda =    1.000000
                     rc =   11.897381
                 energy =   -0.210580
                kinetic =    0.143382
    potential(screened) =   -0.353962
       potential(ionic) =   -0.533453

   izeta = 2
                 rmatch =    8.489163
              splitnorm =    0.150000
                 energy =   -0.186081
                kinetic =    0.225882
    potential(screened) =   -0.411964
       potential(ionic) =   -0.593024
atom: Total number of Sankey-type orbitals:  2

atm_pop: Valence configuration (for local Pseudopot. screening):
 2s( 1.00)                                                            
Vna: chval, zval:    1.00000   1.00000

Vna:  Cut-off radius for the neutral-atom potential:  11.897381
comcore: Pseudo-core radius Rcore=  3.450946

atom: _________________________________________________________________________

<basis_specs>
===============================================================================
C-gga                Z=   6    Mass=  12.010        Charge= 0.17977+309
Lmxo=1 Lmxkb= 2    BasisType=split      Semic=F
L=0  Nsemic=0  Cnfigmx=2
          i=1  nzeta=2  polorb=0  (2s)
            splnorm:   0.15000    
               vcte:    0.0000    
               rinn:    0.0000    
               qcoe:    0.0000    
               qyuk:    0.0000    
               qwid:   0.10000E-01
                rcs:    0.0000      0.0000    
            lambdas:    1.0000      1.0000    
L=1  Nsemic=0  Cnfigmx=2
          i=1  nzeta=2  polorb=0  (2p)
            splnorm:   0.15000    
               vcte:    0.0000    
               rinn:    0.0000    
               qcoe:    0.0000    
               qyuk:    0.0000    
               qwid:   0.10000E-01
                rcs:    0.0000      0.0000    
            lambdas:    1.0000      1.0000    
-------------------------------------------------------------------------------
L=0  Nkbl=1  erefs: 0.17977+309
L=1  Nkbl=1  erefs: 0.17977+309
L=2  Nkbl=1  erefs: 0.17977+309
===============================================================================
</basis_specs>

atom: Called for C-gga                 (Z =   6)

read_vps: Pseudopotential generation method:
read_vps: ATM 3.2.2 Troullier-Martins                       
Valence charge for ps generation:    4.00000

xc_check: Exchange-correlation functional:
xc_check: GGA Perdew, Burke & Ernzerhof 1996
V l=0 = -2*Zval/r beyond r=  1.5227
V l=1 = -2*Zval/r beyond r=  1.5227
V l=2 = -2*Zval/r beyond r=  1.5227
All V_l potentials equal beyond r=  1.4851
This should be close to max(r_c) in ps generation
All pots = -2*Zval/r beyond r=  1.5227

VLOCAL1: 99.0% of the norm of Vloc inside     19.682 Ry
VLOCAL1: 99.9% of the norm of Vloc inside     44.856 Ry
atom: Maximum radius for 4*pi*r*r*local-pseudopot. charge    1.79142
atom: Maximum radius for r*vlocal+2*Zval:    1.54183
GHOST: No ghost state for L =  0
GHOST: No ghost state for L =  1
GHOST: No ghost state for L =  2

KBgen: Kleinman-Bylander projectors: 
   l= 0   rc=  1.661951   el= -1.010689   Ekb=  5.289847   kbcos=  0.316429
   l= 1   rc=  1.661951   el= -0.388490   Ekb= -4.102504   kbcos= -0.351025
   l= 2   rc=  1.747182   el=  0.001971   Ekb= -1.006005   kbcos= -0.008530

KBgen: Total number of Kleinman-Bylander projectors:    9
atom: -------------------------------------------------------------------------

atom: SANKEY-TYPE ORBITALS:
atom: Selected multiple-zeta basis: split     

SPLIT: Orbitals with angular momentum L= 0

SPLIT: Basis orbitals for state 2s

SPLIT: PAO cut-off radius determined from an
SPLIT: energy shift=  0.000735 Ry

   izeta = 1
                 lambda =    1.000000
                     rc =    5.948690
                 energy =   -1.010099
                kinetic =    0.827121
    potential(screened) =   -1.837220
       potential(ionic) =   -5.392783

   izeta = 2
                 rmatch =    3.518811
              splitnorm =    0.150000
                 energy =   -0.877891
                kinetic =    1.289227
    potential(screened) =   -2.167118
       potential(ionic) =   -5.982073

SPLIT: Orbitals with angular momentum L= 1

SPLIT: Basis orbitals for state 2p

SPLIT: PAO cut-off radius determined from an
SPLIT: energy shift=  0.000735 Ry

   izeta = 1
                 lambda =    1.000000
                     rc =    7.638387
                 energy =   -0.387843
                kinetic =    2.314739
    potential(screened) =   -2.702582
       potential(ionic) =   -6.092371

   izeta = 2
                 rmatch =    3.840617
              splitnorm =    0.150000
                 energy =   -0.270479
                kinetic =    3.438347
    potential(screened) =   -3.708826
       potential(ionic) =   -7.497707
atom: Total number of Sankey-type orbitals:  8

atm_pop: Valence configuration (for local Pseudopot. screening):
 2s( 2.00)                                                            
 2p( 2.00)                                                            
Vna: chval, zval:    4.00000   4.00000

Vna:  Cut-off radius for the neutral-atom potential:   7.638387

atom: _________________________________________________________________________

prinput: Basis input ----------------------------------------------------------

PAO.BasisType split     

%block ChemicalSpeciesLabel
    1    3 Li-gga                  # Species index, atomic number, species label
    2    6 C-gga                   # Species index, atomic number, species label
%endblock ChemicalSpeciesLabel

%block PAO.Basis                 # Define Basis set
Li-gga                1                    # Species label, number of l-shells
 n=2   0   2                         # n, l, Nzeta 
  11.897      8.489   
   1.000      1.000   
C-gga                 2                    # Species label, number of l-shells
 n=2   0   2                         # n, l, Nzeta 
   5.949      3.519   
   1.000      1.000   
 n=2   1   2                         # n, l, Nzeta 
   7.638      3.841   
   1.000      1.000   
%endblock PAO.Basis

prinput: ----------------------------------------------------------------------

coor:   Atomic-coordinates input format  =     Cartesian coordinates
coor:                                          (in Angstroms)

siesta: Atomic coordinates (Bohr) and species
siesta:      0.00000   0.00000   0.00000  2        1
siesta:      2.68614   0.00000   3.58327  1        2
siesta:      5.38035   0.00000  10.74980  1        3
siesta:     -1.34307   2.32627   3.58327  1        4
siesta:     -2.69017   4.65952  10.74980  1        5
siesta:      2.69017   4.65952   3.58327  1        6
siesta:      1.34307   2.32627  10.74980  1        7
siesta:      5.38035   0.00000   3.58327  1        8
siesta:      2.68614   0.00000  10.74980  1        9
siesta:     -2.69017   4.65952   3.58327  1       10
siesta:     -1.34307   2.32627  10.74980  1       11
siesta:      1.34307   2.32627   3.58327  1       12
siesta:      2.69017   4.65952  10.74980  1       13

siesta: System type = bulk      

initatomlists: Number of atoms, orbitals, and projectors:     13    32   117

siesta: ******************** Simulation parameters ****************************
siesta:
siesta: The following are some of the parameters of the simulation.
siesta: A complete list of the parameters used, including default values,
siesta: can be found in file out.fdf
siesta:
redata: Spin configuration                          = none
redata: Number of spin components                   = 1
redata: Time-Reversal Symmetry                      = T
redata: Spin spiral                                 = F
redata: Long output                                 =   F
redata: Number of Atomic Species                    =        2
redata: Charge density info will appear in .RHO file
redata: Write Mulliken Pop.                         = NO
redata: Matel table size (NRTAB)                    =     1024
redata: Mesh Cutoff                                 =   300.0000 Ry
redata: Net charge of the system                    =     0.0000 |e|
redata: Min. number of SCF Iter                     =        0
redata: Max. number of SCF Iter                     =     1000
redata: SCF convergence failure will abort job
redata: SCF mix quantity                            = Hamiltonian
redata: Mix DM or H after convergence               =   F
redata: Recompute H after scf cycle                 =   F
redata: Mix DM in first SCF step                    =   T
redata: Write Pulay info on disk                    =   F
redata: New DM Occupancy tolerance                  = 0.000000000001
redata: No kicks to SCF
redata: DM Mixing Weight for Kicks                  =     0.5000
redata: Require Harris convergence for SCF          =   F
redata: Harris energy tolerance for SCF             =     0.000100 eV
redata: Require DM convergence for SCF              =   T
redata: DM tolerance for SCF                        =     0.001000
redata: Require EDM convergence for SCF             =   F
redata: EDM tolerance for SCF                       =     0.005000 eV
redata: Require H convergence for SCF               =   T
redata: Hamiltonian tolerance for SCF               =     0.001000 eV
redata: Require (free) Energy convergence for SCF   =   T
redata: (free) Energy tolerance for SCF             =     0.001000 eV
redata: Using Saved Data (generic)                  =   F
redata: Use continuation files for DM               =   F
redata: Neglect nonoverlap interactions             =   F
redata: Method of Calculation                       = Diagonalization
redata: Electronic Temperature                      =   299.9869 K
redata: Fix the spin of the system                  =   F
redata: Dynamics option                             = Single-point calculation
mix.SCF: Pulay mixing                            = Pulay
mix.SCF:    Variant                              = stable
mix.SCF:    History steps                        = 4
mix.SCF:    Linear mixing weight                 =     0.250000
mix.SCF:    Mixing weight                        =     0.250000
mix.SCF:    SVD condition                        = 0.1000E-07
redata: ***********************************************************************

%block SCF.Mixers
  Pulay
%endblock SCF.Mixers

%block SCF.Mixer.Pulay
  # Mixing method
  method pulay
  variant stable

  # Mixing options
  weight 0.2500
  weight.linear 0.2500
  history 4
%endblock SCF.Mixer.Pulay

DM_history_depth set to one: no extrapolation allowed by default for geometry relaxation
Size of DM history Fstack: 1
Total number of electrons:    16.000000
Total ionic charge:    16.000000

* ProcessorY, Blocksize:    3   1


* Orbital distribution balance (max,min):     3     2

k-point displ. along   1 input, could be:     0.00    0.50
k-point displ. along   2 input, could be:     0.00    0.50
k-point displ. along   3 input, could be:     0.00    0.50
 Kpoints in:            8 . Kpoints trimmed:            8

siesta: k-grid: Number of k-points =     8
siesta: k-grid: Cutoff (effective) =     4.269 Ang
siesta: k-grid: Supercell and displacements
siesta: k-grid:    2   0   0      0.000
siesta: k-grid:    0   2   0      0.000
siesta: k-grid:    0   0   2      0.000

diag: Algorithm                                     = Expert
diag: Parallel over k                               =   T
diag: Use parallel 2D distribution                  =   T
diag: Parallel block-size                           = 1
diag: Parallel distribution                         =     3 x     4
diag: Used triangular part                          = Lower
diag: Absolute tolerance                            =  0.100E-15
diag: Orthogonalization factor                      =  0.100E-05
diag: Memory factor                                 =  1.0000

superc: Internal auxiliary supercell:     9 x     9 x     5  =     405
superc: Number of atoms, orbitals, and projectors:   5265  12960  47385


ts: **************************************************************
ts: Save H and S matrices                           =    F
ts: Save DM and EDM matrices                        =    F
ts: Only save the overlap matrix S                  =    F
ts: **************************************************************

************************ Begin: TS CHECKS AND WARNINGS ************************
************************ End: TS CHECKS AND WARNINGS **************************


                     ====================================
                        Single-point calculation
                     ====================================

outcoor: Atomic coordinates (Ang):                          
    0.00000000    0.00000000    0.00000000   2       1  C-gga
    1.42144380    0.00000000    1.89618300   1       2  Li-gga
    2.84715620    0.00000000    5.68854900   1       3  Li-gga
   -0.71072190    1.23100644    1.89618300   1       4  Li-gga
   -1.42357810    2.46570960    5.68854900   1       5  Li-gga
    1.42357810    2.46570960    1.89618300   1       6  Li-gga
    0.71072190    1.23100644    5.68854900   1       7  Li-gga
    2.84715620    0.00000000    1.89618300   1       8  Li-gga
    1.42144380    0.00000000    5.68854900   1       9  Li-gga
   -1.42357810    2.46570960    1.89618300   1      10  Li-gga
   -0.71072190    1.23100644    5.68854900   1      11  Li-gga
    0.71072190    1.23100644    1.89618300   1      12  Li-gga
    1.42357810    2.46570960    5.68854900   1      13  Li-gga

superc: Internal auxiliary supercell:     9 x     9 x     5  =     405
superc: Number of atoms, orbitals, and projectors:   5265  12960  47385

outcell: Unit cell vectors (Ang):
        4.268600    0.000000    0.000000
       -2.134300    3.696716    0.000000
        0.000000    0.000000    7.584732

outcell: Cell vector modules (Ang)   :    4.268600    4.268600    7.584732
outcell: Cell angles (23,13,12) (deg):     90.0000     90.0000    120.0000
outcell: Cell volume (Ang**3)        :    119.6856
<dSpData1D:S at geom step 0
  <sparsity:sparsity for geom step 0
    nrows_g=32 nrows=3 sparsity=6.3477 nnzs=6500, refcount: 7>
  <dData1D:(new from dSpData1D) n=6500, refcount: 1>
refcount: 1>
new_DM -- step:     1
Initializing Density Matrix...
DM filled with atomic data:
<dSpData2D:DM initialized from atoms
  <sparsity:sparsity for geom step 0
    nrows_g=32 nrows=3 sparsity=6.3477 nnzs=6500, refcount: 8>
  <dData2D:DM n=6500 m=1, refcount: 1>
refcount: 1>
No. of atoms with KB's overlaping orbs in proc 0. Max # of overlaps:     238     316
New grid distribution:   1
           1       1:   20    1:    7    1:   10
           2       1:   20    1:    7   11:   20
           3       1:   20    1:    7   21:   30
           4       1:   20    1:    7   31:   40
           5       1:   20    8:   14    1:   10
           6       1:   20    8:   14   11:   20
           7       1:   20    8:   14   21:   30
           8       1:   20    8:   14   31:   40
           9       1:   20   15:   20    1:   10
          10       1:   20   15:   20   11:   20
          11       1:   20   15:   20   21:   30
          12       1:   20   15:   20   31:   40

InitMesh: MESH =    40 x    40 x    80 =      128000
InitMesh: (bp) =    20 x    20 x    40 =       16000
InitMesh: Mesh cutoff (required, used) =   300.000   307.469 Ry
ExtMesh (bp) on 0 =   160 x   147 x   146 =     3433920
New grid distribution:   2
           1       1:   20    1:    7    1:   10
           2       1:   10    8:   20   11:   20
           3       1:   20    1:    7   21:   30
           4      11:   20    8:   20    1:   10
           5       1:   20    1:    7   11:   20
           6       1:   10    8:   20    1:   10
           7      11:   20    8:   20   21:   30
           8      11:   20    8:   20   31:   40
           9       1:   20    1:    7   31:   40
          10      11:   20    8:   20   11:   20
          11       1:   10    8:   20   21:   30
          12       1:   10    8:   20   31:   40
New grid distribution:   3
           1       1:   20    1:    7    1:   10
           2       1:   10    8:   20   11:   20
           3       1:   20    1:    7   21:   30
           4      11:   20    8:   20    1:   10
           5       1:   20    1:    7   11:   20
           6       1:   10    8:   20    1:   10
           7      11:   20    8:   20   21:   30
           8      11:   20    8:   20   31:   40
           9       1:   20    1:    7   31:   40
          10      11:   20    8:   20   11:   20
          11       1:   10    8:   20   21:   30
          12       1:   10    8:   20   31:   40
Setting up quadratic distribution...
ExtMesh (bp) on 0 =   160 x   147 x   146 =     3433920
PhiOnMesh: Number of (b)points on node 0 =                 1400
PhiOnMesh: nlist on node 0 =               227702

stepf: Fermi-Dirac step function

siesta: Program's energy decomposition (eV):
siesta: Ebs     =      -161.929362
siesta: Eions   =       380.620085
siesta: Ena     =       114.558133
siesta: Ekin    =       198.342271
siesta: Enl     =        31.360136
siesta: Eso     =         0.000000
siesta: Edftu   =         0.000000
siesta: DEna    =        -7.317305
siesta: DUscf   =        10.390888
siesta: DUext   =         0.000000
siesta: Exc     =      -162.166058
siesta: eta*DQ  =         0.000000
siesta: Emadel  =         0.000000
siesta: Emeta   =         0.000000
siesta: Emolmec =        -5.674153
siesta: Ekinion =         0.000000
siesta: Eharris =      -163.934272
siesta: Etot    =      -201.126173
siesta: FreeEng =      -201.152587

        iscf     Eharris(eV)        E_KS(eV)     FreeEng(eV)     dDmax    Ef(eV) dHmax(eV)
   scf:    1     -163.934272     -201.126173     -201.152587 36.747306 -9.275308 13.858035
timer: Routine,Calls,Time,% = IterSCF        1       1.146  20.50
   scf:    2     -209.554576     -206.847750     -206.863821 21.784426 -9.422778  2.268483
   scf:    3     -206.839087     -206.986621     -207.006826  7.025004 -9.404845  0.928639
   scf:    4     -207.001395     -207.026061     -207.051062  3.587472 -9.413496  0.431481
   scf:    5     -206.997106     -207.016311     -207.045912  6.308922 -9.404376  0.565733
   scf:    6     -207.050374     -207.041220     -207.065984  3.253867 -9.402997  0.198905
   scf:    7     -207.038739     -207.041259     -207.067629  0.668109 -9.403485  0.090617
   scf:    8     -207.042025     -207.041813     -207.068011  0.246041 -9.403844  0.006833
   scf:    9     -207.041686     -207.041753     -207.068018  0.011495 -9.404270  0.007201
   scf:   10     -207.041969     -207.041862     -207.068023  0.095182 -9.404930  0.002684
   scf:   11     -207.041857     -207.041860     -207.068024  0.006754 -9.405024  0.000296
   scf:   12     -207.041866     -207.041863     -207.068024  0.002254 -9.405122  0.000154
   scf:   13     -207.041850     -207.041857     -207.068024  0.014422 -9.405181  0.000038
   scf:   14     -207.041857     -207.041857     -207.068024  0.000152 -9.405177  0.000021

SCF Convergence by FreeE+DM+H criterion
|FreeE_i-FreeE_(i-1)| (eV) <     0.00100000
max |DM_out - DM_in|         :     0.0001518734
max |H_out - H_in|      (eV) :     0.0000212230
SCF cycle converged after 14 iterations

Using DM_out to compute the final energy and forces
No. of atoms with KB's overlaping orbs in proc 0. Max # of overlaps:     238     316

MM-Stress (kbar):       11.42       11.42       27.39        0.00       -0.00       -0.00

siesta: E_KS(eV) =             -207.0419

siesta: E_KS - E_eggbox =      -207.0419

siesta: Atomic forces (eV/Ang):
     1    0.000000    0.000000    0.000000
     2   -0.945128   -0.000018   -1.959371
     3    0.945128    0.000018    1.959371
     4    0.472549   -0.818514   -1.959371
     5   -0.472549    0.818514    1.959371
     6    0.472557    0.818493   -1.959388
     7   -0.472557   -0.818493    1.959388
     8    0.945128    0.000018   -1.959371
     9   -0.945128   -0.000018    1.959371
    10   -0.472549    0.818514   -1.959371
    11    0.472549   -0.818514    1.959371
    12   -0.472557   -0.818493   -1.959388
    13    0.472557    0.818493    1.959388
----------------------------------------
   Tot    0.000000   -0.000000    0.000000
----------------------------------------
   Max    1.959388
   Res    1.206701    sqrt( Sum f_i^2 / 3N )
----------------------------------------
   Max    1.959388    constrained

Stress tensor Voigt[x,y,z,yz,xz,xy] (kbar):    -1413.65    -1413.66      778.58       -0.00        0.00       -0.01
(Free)E + p*V (eV/cell)     -156.0538
Target enthalpy (eV/cell)     -207.0680

siesta: Eigenvalues (eV):
  ik is       eps
   1  1  -19.1558  -14.7773  -14.5156  -13.2213   -9.5151   -9.5149   -3.1680   -1.3717   -1.3717   -1.2335
          -1.2335   -0.7064    0.8182    1.1670    1.1670    5.1348    5.1348    5.5560    5.5566   19.6505
   22.4060   24.2562   24.2562   24.2729   24.6414   24.6415   49.5390   49.5390   51.1280   51.1280
   67.3675  105.5159
   2  1  -18.5497  -14.4505  -14.3357  -13.2808  -12.5695  -11.6724  -11.5333  -10.1425   -9.4417   -6.4994
          -3.6041   -1.1802   -0.5455    1.4861    3.3005    3.7853   13.8667   15.3617   17.3396   17.3782
   18.1205   18.2965   21.9515   23.9300   25.1121   28.0733   57.7652   60.5816   70.0106   70.4969
   70.7126  140.2745
   3  1  -18.5497  -14.4505  -14.3357  -13.2808  -12.5695  -11.6724  -11.5333  -10.1425   -9.4417   -6.4994
          -3.6041   -1.1802   -0.5455    1.4861    3.3005    3.7853   13.8667   15.3617   17.3396   17.3782
   18.1205   18.2965   21.9515   23.9300   25.1121   28.0733   57.7652   60.5816   70.0106   70.4969
   70.7126  140.2745
   4  1  -18.5497  -14.4505  -14.3357  -13.2808  -12.5695  -11.6724  -11.5333  -10.1426   -9.4417   -6.4994
          -3.6041   -1.1798   -0.5455    1.4861    3.3001    3.7853   13.8667   15.3617   17.3395   17.3782
   18.1205   18.2964   21.9515   23.9299   25.1121   28.0732   57.7653   60.5816   70.0106   70.4968
   70.7125  140.2745
   5  1  -19.0210  -15.5618  -14.4028  -12.7819   -9.5213   -9.5211   -9.3311   -9.2320   -0.6799   -0.6799
          -0.4956   -0.4956   -0.2500   -0.2500    0.3913    3.7730    3.7734    7.9689   10.3440   10.3442
   14.9953   14.9953   15.0505   15.0505   15.1560   15.1561   23.3497   23.4810   24.6752   24.6753
   38.5767   38.6700
   6  1  -18.5527  -14.3065  -13.7840  -13.5179  -13.1698  -11.6338  -10.6207  -10.1777   -9.4081   -9.0373
          -7.9053   -7.1305   -3.4613   -3.4278   -1.0317    1.1281    1.8698    5.5435    6.0800   11.5457
   15.1098   15.1610   17.7824   17.7984   17.8079   21.4976   29.6749   35.9393   49.3326   49.6347
   49.7954   56.0741
   7  1  -18.5527  -14.3065  -13.7840  -13.5179  -13.1698  -11.6338  -10.6207  -10.1777   -9.4081   -9.0373
          -7.9053   -7.1305   -3.4613   -3.4278   -1.0317    1.1281    1.8698    5.5435    6.0800   11.5457
   15.1098   15.1610   17.7824   17.7984   17.8079   21.4976   29.6749   35.9393   49.3326   49.6347
   49.7954   56.0741
   8  1  -18.5527  -14.3065  -13.7840  -13.5179  -13.1698  -11.6338  -10.6206  -10.1778   -9.4081   -9.0373
          -7.9052   -7.1305   -3.4614   -3.4275   -1.0320    1.1281    1.8698    5.5433    6.0800   11.5457
   15.1100   15.1610   17.7824   17.7984   17.8079   21.4976   29.6749   35.9393   49.3326   49.6347
   49.7954   56.0739
siesta: Fermi energy =      -9.405177 eV

siesta: Program's energy decomposition (eV):
siesta: Ebs     =      -209.026656
siesta: Eions   =       380.620085
siesta: Ena     =       114.558133
siesta: Ekin    =       167.710384
siesta: Enl     =        39.115535
siesta: Eso     =         0.000000
siesta: Edftu   =         0.000000
siesta: DEna    =        11.192454
siesta: DUscf   =         1.988951
siesta: DUext   =         0.000000
siesta: Exc     =      -155.313077
siesta: eta*DQ  =         0.000000
siesta: Emadel  =         0.000000
siesta: Emeta   =         0.000000
siesta: Emolmec =        -5.674153
siesta: Ekinion =         0.000000
siesta: Eharris =      -207.041857
siesta: Etot    =      -207.041857
siesta: FreeEng =      -207.068024

siesta: Final energy (eV):
siesta:  Band Struct. =    -209.026656
siesta:       Kinetic =     167.710384
siesta:       Hartree =      80.889025
siesta:       Edftu   =       0.000000
siesta:       Eso     =       0.000000
siesta:    Ext. field =       0.000000
siesta:   Exch.-corr. =    -155.313077
siesta:  Ion-electron =    -376.686958
siesta:       Ion-ion =      82.032921
siesta:       Ekinion =       0.000000
siesta:         Total =    -207.041857
siesta:         Fermi =      -9.405177

siesta: Atomic forces (eV/Ang):
siesta:      1    0.000000    0.000000    0.000000
siesta:      2   -0.945128   -0.000018   -1.959371
siesta:      3    0.945128    0.000018    1.959371
siesta:      4    0.472549   -0.818514   -1.959371
siesta:      5   -0.472549    0.818514    1.959371
siesta:      6    0.472557    0.818493   -1.959388
siesta:      7   -0.472557   -0.818493    1.959388
siesta:      8    0.945128    0.000018   -1.959371
siesta:      9   -0.945128   -0.000018    1.959371
siesta:     10   -0.472549    0.818514   -1.959371
siesta:     11    0.472549   -0.818514    1.959371
siesta:     12   -0.472557   -0.818493   -1.959388
siesta:     13    0.472557    0.818493    1.959388
siesta: ----------------------------------------
siesta:    Tot    0.000000   -0.000000    0.000000

siesta: Stress tensor (static) (eV/Ang**3):
siesta:    -0.882322   -0.000006    0.000000
siesta:    -0.000006   -0.882329   -0.000000
siesta:     0.000000   -0.000000    0.485944

siesta: Cell volume =        119.685570 Ang**3

siesta: Pressure (static):
siesta:                Solid            Molecule  Units
siesta:           0.00464225          0.00304464  Ry/Bohr**3
siesta:           0.42623562          0.27954880  eV/Ang**3
siesta:         682.91213194        447.89140164  kBar
(Free)E+ p_basis*V_orbitals  =        -185.135460
(Free)Eharris+ p_basis*V_orbitals  =        -185.135460

cite: Please see "LiC12_scf.bib" for an exhaustive BiBTeX file.
cite: Please clearly indicate Siesta version in published work: 4.1.5
cite: This calculation has made use of the following articles
cite: which are encouraged to be cited in a published work.
        Primary SIESTA paper
          DOI: www.doi.org/10.1088/0953-8984/14/11/302

>> End of run:   9-NOV-2022   8:22:21
Job completed
