Siesta Version  : 4.1.5
Architecture    : x86_64-unknown-linux-gnu--unknown
Compiler version: GNU Fortran (GCC) 11.3.0
Compiler flags  : mpif90 -g -O2 -fallow-argument-mismatch
PP flags        : -DMPI -DFC_HAVE_FLUSH -DFC_HAVE_ABORT
Libraries       :  -I/global/software/sl-7.x86_64/modules/intel/2020.4.304/mkl/include  /globall/software/sl-7.x86_64/modules/intel/2020.4.304/mkl/lib/intel64/libmkl_scalapack_lp64.a -Wl,--start-group /global/software/sl-7.x86_64/modules/intel/2020.4.304/mkl/lib/intel64/libmkl_intel_lp64.a /global/software/sl-7.x86_64/modules/intel/2020.4.304/mkl/lib/intel64/libmkl_sequential.a /global/software/sl-7.x86_64/modules/intel/2020.4.304/mkl/lib/intel64/libmkl_core.a /global/software/sl-7.x86_64/modules/intel/2020.4.304/mkl/lib/intel64/libmkl_blacs_openmpi_lp64.a -Wl,--end-group -lpthread -lm -ldl
PARALLEL version

* Running on 12 nodes in parallel
>> Start of run:   9-NOV-2022   8:24:43

                           ***********************       
                           *  WELCOME TO SIESTA  *       
                           ***********************       

reinit: Reading from standard input
reinit: Dumped input in INPUT_TMP.50348
************************** Dump of input data file ****************************
SystemName LiC12_scf
SystemLabel LiC12_scf
NumberOfAtoms   13
NumberOfSpecies 2
%block ChemicalSpeciesLabel
1  3   Li-gga
2  6   C-gga
%endblock ChemicalSpeciesLabel
PAO.BasisSize  DZ
PAO.EnergyShift  10 meV
%block PS.Lmax
C-gga   2
Li-gga  2
%endblock PS.Lmax
LatticeConstant 1.000000 Ang
%block LatticeVectors
	4.2686000000	0.0000000000	0.0000000000
	-2.1343000000	3.6967160386	0.0000000000
	0.0000000000	0.0000000000	8.7083960000
%endblock LatticeVectors
AtomicCoordinatesFormat Ang
%block AtomicCoordinatesAndAtomicSpecies
	0.00000000	0.00000000	0.00000000	2
	1.42144380	0.00000000	2.17709900	1
	2.84715620	0.00000000	6.53129700	1
	-0.71072190	1.23100644	2.17709900	1
	-1.42357810	2.46570960	6.53129700	1
	1.42357810	2.46570960	2.17709900	1
	0.71072190	1.23100644	6.53129700	1
	2.84715620	0.00000000	2.17709900	1
	1.42144380	0.00000000	6.53129700	1
	-1.42357810	2.46570960	2.17709900	1
	-0.71072190	1.23100644	6.53129700	1
	0.71072190	1.23100644	2.17709900	1
	1.42357810	2.46570960	6.53129700	1
%endblock AtomicCoordinatesAndAtomicSpecies
Kgrid_NoTRS  T
%block kgrid_MonkhorstPack
2       0       0       0.0
0       2       0       0.0
0       0       2       0.0
%endblock kgrid_MonkhorstPack
AtomCoorFormatOut Ang
BlockSize 1
#ProcessorY 12
Diag.ParallelOverK   T
Diag.DivideAndConquer F
MeshCutoff   300 Ry
SCF.FreeE.Tolerance 1E-3 eV
SCF.EDM.Tolerance   5E-3 eV
DM.Tolerance  1E-3
DM.Require.Energy.Convergence T
DM.NumberPulay 4
XC.Functional GGA
XC.Authors    PBE
UseSaveData        F
MD.TypeOfRun       CG
MD.VariableCell    F
MD.NumCGsteps      00
MD.MaxCGDispl      0.200000 Bohr
MD.MaxStressTol    1.000000 GPa
MD.MaxForceTol     0.010000 eV/Ang
WriteMDHistory T
WriteCoorStep T
WriteForces T
WriteCoorStep    T
WriteEigenValues T
WriteDM    F
MM.UnitsDistance Ang  # what this program prints out DO NOT CHANGE
MM.UnitsEnergy    eV  # what this program prints out DO NOT CHANGE
MM.Grimme.S6     0.75 # Grimme-paper for PBE (correct for your functional)
MM.Grimme.D     20.   # Grimme-paper (correct for your functional)
%block MM.Potentials
  1   1 Grimme     16.69      1.650 # Li, 10.1002/jcc.20495
  1   2 Grimme     17.40      2.277 # Li / C
  2   2 Grimme     18.14      2.904 # C, 10.1002/jcc.20495
%endblock MM.Potentials
#%block ProjectedDensityOfStates
# -200.0  120.0  0.4  12800  eV
#%endblock ProjectedDensityOfStates
************************** End of input data file *****************************

reinit: -----------------------------------------------------------------------
reinit: System Name: LiC12_scf
reinit: -----------------------------------------------------------------------
reinit: System Label: LiC12_scf
reinit: -----------------------------------------------------------------------
Reading two-body potentials
Grimme - two-body potential between 1 and 1
Grimme - two-body potential between 1 and 2
Grimme - two-body potential between 2 and 2

initatom: Reading input for the pseudopotentials and atomic orbitals ----------
Species number:   1 Atomic number:    3 Label: Li-gga
Species number:   2 Atomic number:    6 Label: C-gga

Ground state valence configuration:   2s01
Reading pseudopotential information in formatted form from Li-gga.psf

Valence configuration for pseudopotential generation:
2s( 1.00) rc: 2.28
2p( 0.00) rc: 2.28
3d( 0.00) rc: 2.59
4f( 0.00) rc: 2.59
Ground state valence configuration:   2s02  2p02
Reading pseudopotential information in formatted form from C-gga.psf

Valence configuration for pseudopotential generation:
2s( 2.00) rc: 1.56
2p( 2.00) rc: 1.56
3d( 0.00) rc: 1.56
4f( 0.00) rc: 1.56
relmxkb: Read Max KB Ang. Momentum=    2 for species C-gga
relmxkb: Read Max KB Ang. Momentum=    2 for species Li-gga

<basis_specs>
===============================================================================
Li-gga               Z=   3    Mass=  6.9400        Charge= 0.17977+309
Lmxo=0 Lmxkb= 2    BasisType=split      Semic=F
L=0  Nsemic=0  Cnfigmx=2
          i=1  nzeta=2  polorb=0  (2s)
            splnorm:   0.15000    
               vcte:    0.0000    
               rinn:    0.0000    
               qcoe:    0.0000    
               qyuk:    0.0000    
               qwid:   0.10000E-01
                rcs:    0.0000      0.0000    
            lambdas:    1.0000      1.0000    
-------------------------------------------------------------------------------
L=0  Nkbl=1  erefs: 0.17977+309
L=1  Nkbl=1  erefs: 0.17977+309
L=2  Nkbl=1  erefs: 0.17977+309
===============================================================================
</basis_specs>

atom: Called for Li-gga                (Z =   3)

read_vps: Pseudopotential generation method:
read_vps: ATM 3.2.2 Troullier-Martins                       
Valence charge for ps generation:    1.00000

read_vps: Pseudopotential includes a core correction:
read_vps: Pseudo-core for xc-correction

xc_check: Exchange-correlation functional:
xc_check: GGA Perdew, Burke & Ernzerhof 1996
V l=0 = -2*Zval/r beyond r=  2.2278
V l=1 = -2*Zval/r beyond r=  2.2278
V l=2 = -2*Zval/r beyond r=  2.5245
All V_l potentials equal beyond r=  2.4622
This should be close to max(r_c) in ps generation
All pots = -2*Zval/r beyond r=  2.5245

VLOCAL1: 99.0% of the norm of Vloc inside      7.160 Ry
VLOCAL1: 99.9% of the norm of Vloc inside     16.318 Ry
atom: Maximum radius for 4*pi*r*r*local-pseudopot. charge    2.86079
atom: Maximum radius for r*vlocal+2*Zval:    2.43160
GHOST: No ghost state for L =  0
GHOST: No ghost state for L =  1
GHOST: No ghost state for L =  2

KBgen: Kleinman-Bylander projectors: 
   l= 0   rc=  2.654023   el= -0.211234   Ekb=  1.742119   kbcos=  0.228463
   l= 1   rc=  2.721230   el= -0.080095   Ekb= -1.122375   kbcos= -0.147941
   l= 2   rc=  2.825246   el=  0.002001   Ekb= -0.207076   kbcos= -0.031965

KBgen: Total number of Kleinman-Bylander projectors:    9
atom: -------------------------------------------------------------------------

atom: SANKEY-TYPE ORBITALS:
atom: Selected multiple-zeta basis: split     

SPLIT: Orbitals with angular momentum L= 0

SPLIT: Basis orbitals for state 2s

SPLIT: PAO cut-off radius determined from an
SPLIT: energy shift=  0.000735 Ry

   izeta = 1
                 lambda =    1.000000
                     rc =   11.897381
                 energy =   -0.210580
                kinetic =    0.143382
    potential(screened) =   -0.353962
       potential(ionic) =   -0.533453

   izeta = 2
                 rmatch =    8.489163
              splitnorm =    0.150000
                 energy =   -0.186081
                kinetic =    0.225882
    potential(screened) =   -0.411964
       potential(ionic) =   -0.593024
atom: Total number of Sankey-type orbitals:  2

atm_pop: Valence configuration (for local Pseudopot. screening):
 2s( 1.00)                                                            
Vna: chval, zval:    1.00000   1.00000

Vna:  Cut-off radius for the neutral-atom potential:  11.897381
comcore: Pseudo-core radius Rcore=  3.450946

atom: _________________________________________________________________________

<basis_specs>
===============================================================================
C-gga                Z=   6    Mass=  12.010        Charge= 0.17977+309
Lmxo=1 Lmxkb= 2    BasisType=split      Semic=F
L=0  Nsemic=0  Cnfigmx=2
          i=1  nzeta=2  polorb=0  (2s)
            splnorm:   0.15000    
               vcte:    0.0000    
               rinn:    0.0000    
               qcoe:    0.0000    
               qyuk:    0.0000    
               qwid:   0.10000E-01
                rcs:    0.0000      0.0000    
            lambdas:    1.0000      1.0000    
L=1  Nsemic=0  Cnfigmx=2
          i=1  nzeta=2  polorb=0  (2p)
            splnorm:   0.15000    
               vcte:    0.0000    
               rinn:    0.0000    
               qcoe:    0.0000    
               qyuk:    0.0000    
               qwid:   0.10000E-01
                rcs:    0.0000      0.0000    
            lambdas:    1.0000      1.0000    
-------------------------------------------------------------------------------
L=0  Nkbl=1  erefs: 0.17977+309
L=1  Nkbl=1  erefs: 0.17977+309
L=2  Nkbl=1  erefs: 0.17977+309
===============================================================================
</basis_specs>

atom: Called for C-gga                 (Z =   6)

read_vps: Pseudopotential generation method:
read_vps: ATM 3.2.2 Troullier-Martins                       
Valence charge for ps generation:    4.00000

xc_check: Exchange-correlation functional:
xc_check: GGA Perdew, Burke & Ernzerhof 1996
V l=0 = -2*Zval/r beyond r=  1.5227
V l=1 = -2*Zval/r beyond r=  1.5227
V l=2 = -2*Zval/r beyond r=  1.5227
All V_l potentials equal beyond r=  1.4851
This should be close to max(r_c) in ps generation
All pots = -2*Zval/r beyond r=  1.5227

VLOCAL1: 99.0% of the norm of Vloc inside     19.682 Ry
VLOCAL1: 99.9% of the norm of Vloc inside     44.856 Ry
atom: Maximum radius for 4*pi*r*r*local-pseudopot. charge    1.79142
atom: Maximum radius for r*vlocal+2*Zval:    1.54183
GHOST: No ghost state for L =  0
GHOST: No ghost state for L =  1
GHOST: No ghost state for L =  2

KBgen: Kleinman-Bylander projectors: 
   l= 0   rc=  1.661951   el= -1.010689   Ekb=  5.289847   kbcos=  0.316429
   l= 1   rc=  1.661951   el= -0.388490   Ekb= -4.102504   kbcos= -0.351025
   l= 2   rc=  1.747182   el=  0.001971   Ekb= -1.006005   kbcos= -0.008530

KBgen: Total number of Kleinman-Bylander projectors:    9
atom: -------------------------------------------------------------------------

atom: SANKEY-TYPE ORBITALS:
atom: Selected multiple-zeta basis: split     

SPLIT: Orbitals with angular momentum L= 0

SPLIT: Basis orbitals for state 2s

SPLIT: PAO cut-off radius determined from an
SPLIT: energy shift=  0.000735 Ry

   izeta = 1
                 lambda =    1.000000
                     rc =    5.948690
                 energy =   -1.010099
                kinetic =    0.827121
    potential(screened) =   -1.837220
       potential(ionic) =   -5.392783

   izeta = 2
                 rmatch =    3.518811
              splitnorm =    0.150000
                 energy =   -0.877891
                kinetic =    1.289227
    potential(screened) =   -2.167118
       potential(ionic) =   -5.982073

SPLIT: Orbitals with angular momentum L= 1

SPLIT: Basis orbitals for state 2p

SPLIT: PAO cut-off radius determined from an
SPLIT: energy shift=  0.000735 Ry

   izeta = 1
                 lambda =    1.000000
                     rc =    7.638387
                 energy =   -0.387843
                kinetic =    2.314739
    potential(screened) =   -2.702582
       potential(ionic) =   -6.092371

   izeta = 2
                 rmatch =    3.840617
              splitnorm =    0.150000
                 energy =   -0.270479
                kinetic =    3.438347
    potential(screened) =   -3.708826
       potential(ionic) =   -7.497707
atom: Total number of Sankey-type orbitals:  8

atm_pop: Valence configuration (for local Pseudopot. screening):
 2s( 2.00)                                                            
 2p( 2.00)                                                            
Vna: chval, zval:    4.00000   4.00000

Vna:  Cut-off radius for the neutral-atom potential:   7.638387

atom: _________________________________________________________________________

prinput: Basis input ----------------------------------------------------------

PAO.BasisType split     

%block ChemicalSpeciesLabel
    1    3 Li-gga                  # Species index, atomic number, species label
    2    6 C-gga                   # Species index, atomic number, species label
%endblock ChemicalSpeciesLabel

%block PAO.Basis                 # Define Basis set
Li-gga                1                    # Species label, number of l-shells
 n=2   0   2                         # n, l, Nzeta 
  11.897      8.489   
   1.000      1.000   
C-gga                 2                    # Species label, number of l-shells
 n=2   0   2                         # n, l, Nzeta 
   5.949      3.519   
   1.000      1.000   
 n=2   1   2                         # n, l, Nzeta 
   7.638      3.841   
   1.000      1.000   
%endblock PAO.Basis

prinput: ----------------------------------------------------------------------

coor:   Atomic-coordinates input format  =     Cartesian coordinates
coor:                                          (in Angstroms)

siesta: Atomic coordinates (Bohr) and species
siesta:      0.00000   0.00000   0.00000  2        1
siesta:      2.68614   0.00000   4.11412  1        2
siesta:      5.38035   0.00000  12.34237  1        3
siesta:     -1.34307   2.32627   4.11412  1        4
siesta:     -2.69017   4.65952  12.34237  1        5
siesta:      2.69017   4.65952   4.11412  1        6
siesta:      1.34307   2.32627  12.34237  1        7
siesta:      5.38035   0.00000   4.11412  1        8
siesta:      2.68614   0.00000  12.34237  1        9
siesta:     -2.69017   4.65952   4.11412  1       10
siesta:     -1.34307   2.32627  12.34237  1       11
siesta:      1.34307   2.32627   4.11412  1       12
siesta:      2.69017   4.65952  12.34237  1       13

siesta: System type = bulk      

initatomlists: Number of atoms, orbitals, and projectors:     13    32   117

siesta: ******************** Simulation parameters ****************************
siesta:
siesta: The following are some of the parameters of the simulation.
siesta: A complete list of the parameters used, including default values,
siesta: can be found in file out.fdf
siesta:
redata: Spin configuration                          = none
redata: Number of spin components                   = 1
redata: Time-Reversal Symmetry                      = T
redata: Spin spiral                                 = F
redata: Long output                                 =   F
redata: Number of Atomic Species                    =        2
redata: Charge density info will appear in .RHO file
redata: Write Mulliken Pop.                         = NO
redata: Matel table size (NRTAB)                    =     1024
redata: Mesh Cutoff                                 =   300.0000 Ry
redata: Net charge of the system                    =     0.0000 |e|
redata: Min. number of SCF Iter                     =        0
redata: Max. number of SCF Iter                     =     1000
redata: SCF convergence failure will abort job
redata: SCF mix quantity                            = Hamiltonian
redata: Mix DM or H after convergence               =   F
redata: Recompute H after scf cycle                 =   F
redata: Mix DM in first SCF step                    =   T
redata: Write Pulay info on disk                    =   F
redata: New DM Occupancy tolerance                  = 0.000000000001
redata: No kicks to SCF
redata: DM Mixing Weight for Kicks                  =     0.5000
redata: Require Harris convergence for SCF          =   F
redata: Harris energy tolerance for SCF             =     0.000100 eV
redata: Require DM convergence for SCF              =   T
redata: DM tolerance for SCF                        =     0.001000
redata: Require EDM convergence for SCF             =   F
redata: EDM tolerance for SCF                       =     0.005000 eV
redata: Require H convergence for SCF               =   T
redata: Hamiltonian tolerance for SCF               =     0.001000 eV
redata: Require (free) Energy convergence for SCF   =   T
redata: (free) Energy tolerance for SCF             =     0.001000 eV
redata: Using Saved Data (generic)                  =   F
redata: Use continuation files for DM               =   F
redata: Neglect nonoverlap interactions             =   F
redata: Method of Calculation                       = Diagonalization
redata: Electronic Temperature                      =   299.9869 K
redata: Fix the spin of the system                  =   F
redata: Dynamics option                             = Single-point calculation
mix.SCF: Pulay mixing                            = Pulay
mix.SCF:    Variant                              = stable
mix.SCF:    History steps                        = 4
mix.SCF:    Linear mixing weight                 =     0.250000
mix.SCF:    Mixing weight                        =     0.250000
mix.SCF:    SVD condition                        = 0.1000E-07
redata: ***********************************************************************

%block SCF.Mixers
  Pulay
%endblock SCF.Mixers

%block SCF.Mixer.Pulay
  # Mixing method
  method pulay
  variant stable

  # Mixing options
  weight 0.2500
  weight.linear 0.2500
  history 4
%endblock SCF.Mixer.Pulay

DM_history_depth set to one: no extrapolation allowed by default for geometry relaxation
Size of DM history Fstack: 1
Total number of electrons:    16.000000
Total ionic charge:    16.000000

* ProcessorY, Blocksize:    3   1


* Orbital distribution balance (max,min):     3     2

k-point displ. along   1 input, could be:     0.00    0.50
k-point displ. along   2 input, could be:     0.00    0.50
k-point displ. along   3 input, could be:     0.00    0.50
 Kpoints in:            8 . Kpoints trimmed:            8

siesta: k-grid: Number of k-points =     8
siesta: k-grid: Cutoff (effective) =     4.269 Ang
siesta: k-grid: Supercell and displacements
siesta: k-grid:    2   0   0      0.000
siesta: k-grid:    0   2   0      0.000
siesta: k-grid:    0   0   2      0.000

diag: Algorithm                                     = Expert
diag: Parallel over k                               =   T
diag: Use parallel 2D distribution                  =   T
diag: Parallel block-size                           = 1
diag: Parallel distribution                         =     3 x     4
diag: Used triangular part                          = Lower
diag: Absolute tolerance                            =  0.100E-15
diag: Orthogonalization factor                      =  0.100E-05
diag: Memory factor                                 =  1.0000

superc: Internal auxiliary supercell:     9 x     9 x     3  =     243
superc: Number of atoms, orbitals, and projectors:   3159   7776  28431


ts: **************************************************************
ts: Save H and S matrices                           =    F
ts: Save DM and EDM matrices                        =    F
ts: Only save the overlap matrix S                  =    F
ts: **************************************************************

************************ Begin: TS CHECKS AND WARNINGS ************************
************************ End: TS CHECKS AND WARNINGS **************************


                     ====================================
                        Single-point calculation
                     ====================================

outcoor: Atomic coordinates (Ang):                          
    0.00000000    0.00000000    0.00000000   2       1  C-gga
    1.42144380    0.00000000    2.17709900   1       2  Li-gga
    2.84715620    0.00000000    6.53129700   1       3  Li-gga
   -0.71072190    1.23100644    2.17709900   1       4  Li-gga
   -1.42357810    2.46570960    6.53129700   1       5  Li-gga
    1.42357810    2.46570960    2.17709900   1       6  Li-gga
    0.71072190    1.23100644    6.53129700   1       7  Li-gga
    2.84715620    0.00000000    2.17709900   1       8  Li-gga
    1.42144380    0.00000000    6.53129700   1       9  Li-gga
   -1.42357810    2.46570960    2.17709900   1      10  Li-gga
   -0.71072190    1.23100644    6.53129700   1      11  Li-gga
    0.71072190    1.23100644    2.17709900   1      12  Li-gga
    1.42357810    2.46570960    6.53129700   1      13  Li-gga

superc: Internal auxiliary supercell:     9 x     9 x     3  =     243
superc: Number of atoms, orbitals, and projectors:   3159   7776  28431

outcell: Unit cell vectors (Ang):
        4.268600    0.000000    0.000000
       -2.134300    3.696716    0.000000
        0.000000    0.000000    8.708396

outcell: Cell vector modules (Ang)   :    4.268600    4.268600    8.708396
outcell: Cell angles (23,13,12) (deg):     90.0000     90.0000    120.0000
outcell: Cell volume (Ang**3)        :    137.4168
<dSpData1D:S at geom step 0
  <sparsity:sparsity for geom step 0
    nrows_g=32 nrows=3 sparsity=5.0527 nnzs=5174, refcount: 7>
  <dData1D:(new from dSpData1D) n=5174, refcount: 1>
refcount: 1>
new_DM -- step:     1
Initializing Density Matrix...
DM filled with atomic data:
<dSpData2D:DM initialized from atoms
  <sparsity:sparsity for geom step 0
    nrows_g=32 nrows=3 sparsity=5.0527 nnzs=5174, refcount: 8>
  <dData2D:DM n=5174 m=1, refcount: 1>
refcount: 1>
No. of atoms with KB's overlaping orbs in proc 0. Max # of overlaps:     200     263
New grid distribution:   1
           1       1:   20    1:    7    1:   12
           2       1:   20    1:    7   13:   24
           3       1:   20    1:    7   25:   36
           4       1:   20    1:    7   37:   48
           5       1:   20    8:   14    1:   12
           6       1:   20    8:   14   13:   24
           7       1:   20    8:   14   25:   36
           8       1:   20    8:   14   37:   48
           9       1:   20   15:   20    1:   12
          10       1:   20   15:   20   13:   24
          11       1:   20   15:   20   25:   36
          12       1:   20   15:   20   37:   48

InitMesh: MESH =    40 x    40 x    96 =      153600
InitMesh: (bp) =    20 x    20 x    48 =       19200
InitMesh: Mesh cutoff (required, used) =   300.000   323.586 Ry
ExtMesh (bp) on 0 =   160 x   147 x   152 =     3575040
New grid distribution:   2
           1       1:   10    8:   20   25:   37
           2       1:   20    1:    7   12:   24
           3       1:   10    8:   20    1:   11
           4       1:   20    1:    7   38:   48
           5       1:   20    1:    7   25:   37
           6      11:   20    8:   20   12:   24
           7       1:   20    1:    7    1:   11
           8      11:   20    8:   20   38:   48
           9      11:   20    8:   20    1:   11
          10       1:   10    8:   20   12:   24
          11      11:   20    8:   20   25:   37
          12       1:   10    8:   20   38:   48
New grid distribution:   3
           1       1:   20    1:    7    1:   12
           2       1:   10    8:   20   13:   24
           3       1:   20    1:    7   25:   36
           4      11:   20    8:   20    1:   12
           5       1:   20    1:    7   13:   24
           6       1:   10    8:   20    1:   12
           7      11:   20    8:   20   25:   36
           8      11:   20    8:   20   37:   48
           9       1:   20    1:    7   37:   48
          10      11:   20    8:   20   13:   24
          11       1:   10    8:   20   25:   36
          12       1:   10    8:   20   37:   48
Setting up quadratic distribution...
ExtMesh (bp) on 0 =   150 x   153 x   153 =     3511350
PhiOnMesh: Number of (b)points on node 0 =                 1690
PhiOnMesh: nlist on node 0 =               226143

stepf: Fermi-Dirac step function

siesta: Program's energy decomposition (eV):
siesta: Ebs     =      -117.658994
siesta: Eions   =       380.620085
siesta: Ena     =       120.767756
siesta: Ekin    =       187.790482
siesta: Enl     =        37.362391
siesta: Eso     =         0.000000
siesta: Edftu   =         0.000000
siesta: DEna    =        -5.133266
siesta: DUscf   =        14.529645
siesta: DUext   =         0.000000
siesta: Exc     =      -158.814874
siesta: eta*DQ  =         0.000000
siesta: Emadel  =         0.000000
siesta: Emeta   =         0.000000
siesta: Emolmec =        -5.298620
siesta: Ekinion =         0.000000
siesta: Eharris =      -143.491700
siesta: Etot    =      -189.416571
siesta: FreeEng =      -189.416571

        iscf     Eharris(eV)        E_KS(eV)     FreeEng(eV)     dDmax    Ef(eV) dHmax(eV)
   scf:    1     -143.491700     -189.416571     -189.416571 21.444486 -7.880809 17.379846
timer: Routine,Calls,Time,% = IterSCF        1       0.987  20.34
   scf:    2     -183.776748     -196.229523     -196.238286 22.303438 -6.665921  8.369115
   scf:    3     -190.844316     -197.272834     -197.282443 16.631906 -7.332606  6.038156
   scf:    4     -193.797135     -197.862016     -197.879774 15.572410 -6.839075  5.181803
   scf:    5     -199.201993     -198.674425     -198.687962  1.693819 -7.039443  2.150425
   scf:    6     -198.831065     -198.762822     -198.776456  0.594231 -7.180208  1.251141
   scf:    7     -198.486289     -198.646241     -198.660924  0.628730 -7.050425  2.472682
   scf:    8     -193.674649     -197.469870     -197.484290 12.457579 -7.286503  5.700739
   scf:    9     -199.342075     -198.672076     -198.696180  5.917635 -7.292756  2.091924
   scf:   10     -198.305129     -198.769319     -198.783921  5.750182 -7.205092  1.579007
   scf:   11     -198.714152     -198.845597     -198.869241  3.476497 -7.280360  0.673086
   scf:   12     -198.851376     -198.865727     -198.887014  1.466608 -7.268641  0.223430
   scf:   13     -198.090780     -198.620622     -198.644320  4.240053 -7.297568  2.334550
   scf:   14     -198.861677     -198.867219     -198.889044  3.972965 -7.272938  0.073956
   scf:   15     -198.866700     -198.867000     -198.888683  0.070347 -7.272121  0.117499
   scf:   16     -198.866314     -198.867103     -198.889236  0.230916 -7.275518  0.028414
   scf:   17     -198.867271     -198.867286     -198.889206  0.112245 -7.274621  0.039528
   scf:   18     -198.867063     -198.867217     -198.889272  0.072449 -7.276046  0.005849
   scf:   19     -198.867254     -198.867236     -198.889274  0.009375 -7.275950  0.000144
   scf:   20     -198.867237     -198.867237     -198.889274  0.000348 -7.275983  0.000035

SCF Convergence by FreeE+DM+H criterion
|FreeE_i-FreeE_(i-1)| (eV) <     0.00100000
max |DM_out - DM_in|         :     0.0003483345
max |H_out - H_in|      (eV) :     0.0000345460
SCF cycle converged after 20 iterations

Using DM_out to compute the final energy and forces
No. of atoms with KB's overlaping orbs in proc 0. Max # of overlaps:     200     263

MM-Stress (kbar):       10.84       10.84       34.36        0.00       -0.00        0.00

siesta: E_KS(eV) =             -198.8672

siesta: E_KS - E_eggbox =      -198.8672

siesta: Atomic forces (eV/Ang):
     1    0.000000    0.000000    0.000000
     2   -0.504546   -0.000002   -1.409802
     3    0.504546    0.000002    1.409802
     4    0.252271   -0.436951   -1.409802
     5   -0.252271    0.436951    1.409802
     6    0.252241    0.436894   -1.409855
     7   -0.252241   -0.436894    1.409855
     8    0.504546    0.000002   -1.409802
     9   -0.504546   -0.000002    1.409802
    10   -0.252271    0.436951   -1.409802
    11    0.252271   -0.436951    1.409802
    12   -0.252241   -0.436894   -1.409855
    13    0.252241    0.436894    1.409855
----------------------------------------
   Tot   -0.000000    0.000000    0.000000
----------------------------------------
   Max    1.409855
   Res    0.830595    sqrt( Sum f_i^2 / 3N )
----------------------------------------
   Max    1.409855    constrained

Stress tensor Voigt[x,y,z,yz,xz,xy] (kbar):    -1327.98    -1328.00      823.06       -0.00       -0.00       -0.01
(Free)E + p*V (eV/cell)     -146.4876
Target enthalpy (eV/cell)     -198.8893

siesta: Eigenvalues (eV):
  ik is       eps
   1  1  -17.0628  -14.3143  -13.2900  -11.6439   -7.2619   -7.2618   -5.4304   -2.0363   -2.0363   -1.9341
          -1.9341   -0.2583    2.4911    3.4244    3.4244    6.6797    6.6800    8.5996    8.5996   17.5700
   22.0332   22.7370   22.7371   23.0286   23.0286   23.7396   38.9439   38.9439   41.3842   41.3842
   44.9222  110.4860
   2  1  -16.6782  -13.7728  -13.0803  -12.3651  -12.3577  -10.3459   -9.0626   -7.9840   -6.2015   -4.7031
          -4.6065   -2.7821   -0.8745    0.3257    1.4647    3.3568    5.2360    6.3666   17.4649   17.4701
   18.2393   18.3743   19.7612   34.0238   34.7624   34.8363   52.5921   53.1204   56.3942   59.8068
   64.2491   66.3419
   3  1  -16.6782  -13.7728  -13.0803  -12.3651  -12.3577  -10.3459   -9.0626   -7.9840   -6.2015   -4.7031
          -4.6065   -2.7821   -0.8745    0.3257    1.4647    3.3568    5.2360    6.3666   17.4649   17.4701
   18.2393   18.3743   19.7612   34.0238   34.7624   34.8363   52.5921   53.1204   56.3942   59.8068
   64.2491   66.3419
   4  1  -16.6782  -13.7728  -13.0803  -12.3651  -12.3577  -10.3459   -9.0626   -7.9841   -6.2015   -4.7031
          -4.6064   -2.7821   -0.8743    0.3257    1.4647    3.3569    5.2357    6.3666   17.4649   17.4701
   18.2393   18.3743   19.7613   34.0238   34.7625   34.8362   52.5921   53.1204   56.3942   59.8067
   64.2490   66.3418
   5  1  -16.9454  -14.4466  -12.8551  -12.5421   -7.3254   -7.3254   -7.1144   -6.8585    1.7220    1.7220
           1.8852    1.8852    2.1552    2.1552    2.2973    2.7412    2.7414   11.0773   11.0775   11.4104
   14.4827   14.4827   14.4960   14.4960   14.9505   14.9506   23.6528   23.6607   23.7007   23.7008
   61.9766   62.8017
   6  1  -16.5222  -13.2788  -12.8944  -12.7038  -11.7276  -11.0531   -9.4803   -8.6554   -8.0332   -7.3191
          -6.3653   -5.5673   -3.5007   -3.4847   -2.4377   -2.1071    3.3004    4.7190    5.6619   10.3191
   10.7099   16.8785   17.7325   17.8445   17.8550   17.8608   20.7959   29.7251   62.1234   62.8219
   63.0251   69.9527
   7  1  -16.5222  -13.2788  -12.8944  -12.7038  -11.7276  -11.0531   -9.4803   -8.6554   -8.0332   -7.3191
          -6.3653   -5.5673   -3.5007   -3.4847   -2.4377   -2.1071    3.3004    4.7190    5.6619   10.3191
   10.7099   16.8785   17.7325   17.8445   17.8550   17.8608   20.7959   29.7251   62.1234   62.8219
   63.0251   69.9527
   8  1  -16.5222  -13.2788  -12.8944  -12.7038  -11.7276  -11.0531   -9.4804   -8.6554   -8.0332   -7.3190
          -6.3652   -5.5673   -3.5006   -3.4847   -2.4378   -2.1071    3.3004    4.7190    5.6616   10.3192
   10.7099   16.8785   17.7325   17.8444   17.8550   17.8608   20.7959   29.7252   62.1234   62.8219
   63.0251   69.9526
siesta: Fermi energy =      -7.275983 eV

siesta: Program's energy decomposition (eV):
siesta: Ebs     =      -187.412566
siesta: Eions   =       380.620085
siesta: Ena     =       120.767756
siesta: Ekin    =       156.679287
siesta: Enl     =        45.159732
siesta: Eso     =         0.000000
siesta: Edftu   =         0.000000
siesta: DEna    =        13.539717
siesta: DUscf   =         1.469942
siesta: DUext   =         0.000000
siesta: Exc     =      -150.564966
siesta: eta*DQ  =         0.000000
siesta: Emadel  =         0.000000
siesta: Emeta   =         0.000000
siesta: Emolmec =        -5.298620
siesta: Ekinion =         0.000000
siesta: Eharris =      -198.867237
siesta: Etot    =      -198.867237
siesta: FreeEng =      -198.889274

siesta: Final energy (eV):
siesta:  Band Struct. =    -187.412566
siesta:       Kinetic =     156.679287
siesta:       Hartree =      82.449214
siesta:       Edftu   =       0.000000
siesta:       Eso     =       0.000000
siesta:    Ext. field =       0.000000
siesta:   Exch.-corr. =    -150.564966
siesta:  Ion-electron =    -353.485382
siesta:       Ion-ion =      71.353231
siesta:       Ekinion =       0.000000
siesta:         Total =    -198.867237
siesta:         Fermi =      -7.275983

siesta: Atomic forces (eV/Ang):
siesta:      1    0.000000    0.000000    0.000000
siesta:      2   -0.504546   -0.000002   -1.409802
siesta:      3    0.504546    0.000002    1.409802
siesta:      4    0.252271   -0.436951   -1.409802
siesta:      5   -0.252271    0.436951    1.409802
siesta:      6    0.252241    0.436894   -1.409855
siesta:      7   -0.252241   -0.436894    1.409855
siesta:      8    0.504546    0.000002   -1.409802
siesta:      9   -0.504546   -0.000002    1.409802
siesta:     10   -0.252271    0.436951   -1.409802
siesta:     11    0.252271   -0.436951    1.409802
siesta:     12   -0.252241   -0.436894   -1.409855
siesta:     13    0.252241    0.436894    1.409855
siesta: ----------------------------------------
siesta:    Tot   -0.000000    0.000000    0.000000

siesta: Stress tensor (static) (eV/Ang**3):
siesta:    -0.828853   -0.000007   -0.000000
siesta:    -0.000007   -0.828860   -0.000000
siesta:    -0.000000   -0.000000    0.513711

siesta: Cell volume =        137.416765 Ang**3

siesta: Pressure (static):
siesta:                Solid            Molecule  Units
siesta:           0.00415322          0.00306613  Ry/Bohr**3
siesta:           0.38133410          0.28152182  eV/Ang**3
siesta:         610.97119407        451.05255195  kBar
(Free)E+ p_basis*V_orbitals  =        -176.956710
(Free)Eharris+ p_basis*V_orbitals  =        -176.956710

cite: Please see "LiC12_scf.bib" for an exhaustive BiBTeX file.
cite: Please clearly indicate Siesta version in published work: 4.1.5
cite: This calculation has made use of the following articles
cite: which are encouraged to be cited in a published work.
        Primary SIESTA paper
          DOI: www.doi.org/10.1088/0953-8984/14/11/302

>> End of run:   9-NOV-2022   8:25:00
Job completed
