Siesta Version  : 4.1.5
Architecture    : x86_64-unknown-linux-gnu--unknown
Compiler version: GNU Fortran (GCC) 11.3.0
Compiler flags  : mpif90 -g -O2 -fallow-argument-mismatch
PP flags        : -DMPI -DFC_HAVE_FLUSH -DFC_HAVE_ABORT
Libraries       :  -I/global/software/sl-7.x86_64/modules/intel/2020.4.304/mkl/include  /globall/software/sl-7.x86_64/modules/intel/2020.4.304/mkl/lib/intel64/libmkl_scalapack_lp64.a -Wl,--start-group /global/software/sl-7.x86_64/modules/intel/2020.4.304/mkl/lib/intel64/libmkl_intel_lp64.a /global/software/sl-7.x86_64/modules/intel/2020.4.304/mkl/lib/intel64/libmkl_sequential.a /global/software/sl-7.x86_64/modules/intel/2020.4.304/mkl/lib/intel64/libmkl_core.a /global/software/sl-7.x86_64/modules/intel/2020.4.304/mkl/lib/intel64/libmkl_blacs_openmpi_lp64.a -Wl,--end-group -lpthread -lm -ldl
PARALLEL version

* Running on 12 nodes in parallel
>> Start of run:   9-NOV-2022   8:18:37

                           ***********************       
                           *  WELCOME TO SIESTA  *       
                           ***********************       

reinit: Reading from standard input
reinit: Dumped input in INPUT_TMP.84773
************************** Dump of input data file ****************************
SystemName LiC12_scf
SystemLabel LiC12_scf
NumberOfAtoms   13
NumberOfSpecies 2
%block ChemicalSpeciesLabel
1  3   Li-gga
2  6   C-gga
%endblock ChemicalSpeciesLabel
PAO.BasisSize  DZ
PAO.EnergyShift  10 meV
%block PS.Lmax
C-gga   2
Li-gga  2
%endblock PS.Lmax
LatticeConstant 1.000000 Ang
%block LatticeVectors
	4.2686000000	0.0000000000	0.0000000000
	-2.1343000000	3.6967160386	0.0000000000
	0.0000000000	0.0000000000	3.7923660000
%endblock LatticeVectors
AtomicCoordinatesFormat Ang
%block AtomicCoordinatesAndAtomicSpecies
	0.00000000	0.00000000	0.00000000	2
	1.42144380	0.00000000	0.94809150	1
	2.84715620	0.00000000	2.84427450	1
	-0.71072190	1.23100644	0.94809150	1
	-1.42357810	2.46570960	2.84427450	1
	1.42357810	2.46570960	0.94809150	1
	0.71072190	1.23100644	2.84427450	1
	2.84715620	0.00000000	0.94809150	1
	1.42144380	0.00000000	2.84427450	1
	-1.42357810	2.46570960	0.94809150	1
	-0.71072190	1.23100644	2.84427450	1
	0.71072190	1.23100644	0.94809150	1
	1.42357810	2.46570960	2.84427450	1
%endblock AtomicCoordinatesAndAtomicSpecies
Kgrid_NoTRS  T
%block kgrid_MonkhorstPack
2       0       0       0.0
0       2       0       0.0
0       0       2       0.0
%endblock kgrid_MonkhorstPack
AtomCoorFormatOut Ang
BlockSize 1
#ProcessorY 12
Diag.ParallelOverK   T
Diag.DivideAndConquer F
MeshCutoff   300 Ry
SCF.FreeE.Tolerance 1E-3 eV
SCF.EDM.Tolerance   5E-3 eV
DM.Tolerance  1E-3
DM.Require.Energy.Convergence T
DM.NumberPulay 4
XC.Functional GGA
XC.Authors    PBE
UseSaveData        F
MD.TypeOfRun       CG
MD.VariableCell    F
MD.NumCGsteps      00
MD.MaxCGDispl      0.200000 Bohr
MD.MaxStressTol    1.000000 GPa
MD.MaxForceTol     0.010000 eV/Ang
WriteMDHistory T
WriteCoorStep T
WriteForces T
WriteCoorStep    T
WriteEigenValues T
WriteDM    F
MM.UnitsDistance Ang  # what this program prints out DO NOT CHANGE
MM.UnitsEnergy    eV  # what this program prints out DO NOT CHANGE
MM.Grimme.S6     0.75 # Grimme-paper for PBE (correct for your functional)
MM.Grimme.D     20.   # Grimme-paper (correct for your functional)
%block MM.Potentials
  1   1 Grimme     16.69      1.650 # Li, 10.1002/jcc.20495
  1   2 Grimme     17.40      2.277 # Li / C
  2   2 Grimme     18.14      2.904 # C, 10.1002/jcc.20495
%endblock MM.Potentials
#%block ProjectedDensityOfStates
# -200.0  120.0  0.4  12800  eV
#%endblock ProjectedDensityOfStates
************************** End of input data file *****************************

reinit: -----------------------------------------------------------------------
reinit: System Name: LiC12_scf
reinit: -----------------------------------------------------------------------
reinit: System Label: LiC12_scf
reinit: -----------------------------------------------------------------------
Reading two-body potentials
Grimme - two-body potential between 1 and 1
Grimme - two-body potential between 1 and 2
Grimme - two-body potential between 2 and 2

initatom: Reading input for the pseudopotentials and atomic orbitals ----------
Species number:   1 Atomic number:    3 Label: Li-gga
Species number:   2 Atomic number:    6 Label: C-gga

Ground state valence configuration:   2s01
Reading pseudopotential information in formatted form from Li-gga.psf

Valence configuration for pseudopotential generation:
2s( 1.00) rc: 2.28
2p( 0.00) rc: 2.28
3d( 0.00) rc: 2.59
4f( 0.00) rc: 2.59
Ground state valence configuration:   2s02  2p02
Reading pseudopotential information in formatted form from C-gga.psf

Valence configuration for pseudopotential generation:
2s( 2.00) rc: 1.56
2p( 2.00) rc: 1.56
3d( 0.00) rc: 1.56
4f( 0.00) rc: 1.56
relmxkb: Read Max KB Ang. Momentum=    2 for species C-gga
relmxkb: Read Max KB Ang. Momentum=    2 for species Li-gga

<basis_specs>
===============================================================================
Li-gga               Z=   3    Mass=  6.9400        Charge= 0.17977+309
Lmxo=0 Lmxkb= 2    BasisType=split      Semic=F
L=0  Nsemic=0  Cnfigmx=2
          i=1  nzeta=2  polorb=0  (2s)
            splnorm:   0.15000    
               vcte:    0.0000    
               rinn:    0.0000    
               qcoe:    0.0000    
               qyuk:    0.0000    
               qwid:   0.10000E-01
                rcs:    0.0000      0.0000    
            lambdas:    1.0000      1.0000    
-------------------------------------------------------------------------------
L=0  Nkbl=1  erefs: 0.17977+309
L=1  Nkbl=1  erefs: 0.17977+309
L=2  Nkbl=1  erefs: 0.17977+309
===============================================================================
</basis_specs>

atom: Called for Li-gga                (Z =   3)

read_vps: Pseudopotential generation method:
read_vps: ATM 3.2.2 Troullier-Martins                       
Valence charge for ps generation:    1.00000

read_vps: Pseudopotential includes a core correction:
read_vps: Pseudo-core for xc-correction

xc_check: Exchange-correlation functional:
xc_check: GGA Perdew, Burke & Ernzerhof 1996
V l=0 = -2*Zval/r beyond r=  2.2278
V l=1 = -2*Zval/r beyond r=  2.2278
V l=2 = -2*Zval/r beyond r=  2.5245
All V_l potentials equal beyond r=  2.4622
This should be close to max(r_c) in ps generation
All pots = -2*Zval/r beyond r=  2.5245

VLOCAL1: 99.0% of the norm of Vloc inside      7.160 Ry
VLOCAL1: 99.9% of the norm of Vloc inside     16.318 Ry
atom: Maximum radius for 4*pi*r*r*local-pseudopot. charge    2.86079
atom: Maximum radius for r*vlocal+2*Zval:    2.43160
GHOST: No ghost state for L =  0
GHOST: No ghost state for L =  1
GHOST: No ghost state for L =  2

KBgen: Kleinman-Bylander projectors: 
   l= 0   rc=  2.654023   el= -0.211234   Ekb=  1.742119   kbcos=  0.228463
   l= 1   rc=  2.721230   el= -0.080095   Ekb= -1.122375   kbcos= -0.147941
   l= 2   rc=  2.825246   el=  0.002001   Ekb= -0.207076   kbcos= -0.031965

KBgen: Total number of Kleinman-Bylander projectors:    9
atom: -------------------------------------------------------------------------

atom: SANKEY-TYPE ORBITALS:
atom: Selected multiple-zeta basis: split     

SPLIT: Orbitals with angular momentum L= 0

SPLIT: Basis orbitals for state 2s

SPLIT: PAO cut-off radius determined from an
SPLIT: energy shift=  0.000735 Ry

   izeta = 1
                 lambda =    1.000000
                     rc =   11.897381
                 energy =   -0.210580
                kinetic =    0.143382
    potential(screened) =   -0.353962
       potential(ionic) =   -0.533453

   izeta = 2
                 rmatch =    8.489163
              splitnorm =    0.150000
                 energy =   -0.186081
                kinetic =    0.225882
    potential(screened) =   -0.411964
       potential(ionic) =   -0.593024
atom: Total number of Sankey-type orbitals:  2

atm_pop: Valence configuration (for local Pseudopot. screening):
 2s( 1.00)                                                            
Vna: chval, zval:    1.00000   1.00000

Vna:  Cut-off radius for the neutral-atom potential:  11.897381
comcore: Pseudo-core radius Rcore=  3.450946

atom: _________________________________________________________________________

<basis_specs>
===============================================================================
C-gga                Z=   6    Mass=  12.010        Charge= 0.17977+309
Lmxo=1 Lmxkb= 2    BasisType=split      Semic=F
L=0  Nsemic=0  Cnfigmx=2
          i=1  nzeta=2  polorb=0  (2s)
            splnorm:   0.15000    
               vcte:    0.0000    
               rinn:    0.0000    
               qcoe:    0.0000    
               qyuk:    0.0000    
               qwid:   0.10000E-01
                rcs:    0.0000      0.0000    
            lambdas:    1.0000      1.0000    
L=1  Nsemic=0  Cnfigmx=2
          i=1  nzeta=2  polorb=0  (2p)
            splnorm:   0.15000    
               vcte:    0.0000    
               rinn:    0.0000    
               qcoe:    0.0000    
               qyuk:    0.0000    
               qwid:   0.10000E-01
                rcs:    0.0000      0.0000    
            lambdas:    1.0000      1.0000    
-------------------------------------------------------------------------------
L=0  Nkbl=1  erefs: 0.17977+309
L=1  Nkbl=1  erefs: 0.17977+309
L=2  Nkbl=1  erefs: 0.17977+309
===============================================================================
</basis_specs>

atom: Called for C-gga                 (Z =   6)

read_vps: Pseudopotential generation method:
read_vps: ATM 3.2.2 Troullier-Martins                       
Valence charge for ps generation:    4.00000

xc_check: Exchange-correlation functional:
xc_check: GGA Perdew, Burke & Ernzerhof 1996
V l=0 = -2*Zval/r beyond r=  1.5227
V l=1 = -2*Zval/r beyond r=  1.5227
V l=2 = -2*Zval/r beyond r=  1.5227
All V_l potentials equal beyond r=  1.4851
This should be close to max(r_c) in ps generation
All pots = -2*Zval/r beyond r=  1.5227

VLOCAL1: 99.0% of the norm of Vloc inside     19.682 Ry
VLOCAL1: 99.9% of the norm of Vloc inside     44.856 Ry
atom: Maximum radius for 4*pi*r*r*local-pseudopot. charge    1.79142
atom: Maximum radius for r*vlocal+2*Zval:    1.54183
GHOST: No ghost state for L =  0
GHOST: No ghost state for L =  1
GHOST: No ghost state for L =  2

KBgen: Kleinman-Bylander projectors: 
   l= 0   rc=  1.661951   el= -1.010689   Ekb=  5.289847   kbcos=  0.316429
   l= 1   rc=  1.661951   el= -0.388490   Ekb= -4.102504   kbcos= -0.351025
   l= 2   rc=  1.747182   el=  0.001971   Ekb= -1.006005   kbcos= -0.008530

KBgen: Total number of Kleinman-Bylander projectors:    9
atom: -------------------------------------------------------------------------

atom: SANKEY-TYPE ORBITALS:
atom: Selected multiple-zeta basis: split     

SPLIT: Orbitals with angular momentum L= 0

SPLIT: Basis orbitals for state 2s

SPLIT: PAO cut-off radius determined from an
SPLIT: energy shift=  0.000735 Ry

   izeta = 1
                 lambda =    1.000000
                     rc =    5.948690
                 energy =   -1.010099
                kinetic =    0.827121
    potential(screened) =   -1.837220
       potential(ionic) =   -5.392783

   izeta = 2
                 rmatch =    3.518811
              splitnorm =    0.150000
                 energy =   -0.877891
                kinetic =    1.289227
    potential(screened) =   -2.167118
       potential(ionic) =   -5.982073

SPLIT: Orbitals with angular momentum L= 1

SPLIT: Basis orbitals for state 2p

SPLIT: PAO cut-off radius determined from an
SPLIT: energy shift=  0.000735 Ry

   izeta = 1
                 lambda =    1.000000
                     rc =    7.638387
                 energy =   -0.387843
                kinetic =    2.314739
    potential(screened) =   -2.702582
       potential(ionic) =   -6.092371

   izeta = 2
                 rmatch =    3.840617
              splitnorm =    0.150000
                 energy =   -0.270479
                kinetic =    3.438347
    potential(screened) =   -3.708826
       potential(ionic) =   -7.497707
atom: Total number of Sankey-type orbitals:  8

atm_pop: Valence configuration (for local Pseudopot. screening):
 2s( 2.00)                                                            
 2p( 2.00)                                                            
Vna: chval, zval:    4.00000   4.00000

Vna:  Cut-off radius for the neutral-atom potential:   7.638387

atom: _________________________________________________________________________

prinput: Basis input ----------------------------------------------------------

PAO.BasisType split     

%block ChemicalSpeciesLabel
    1    3 Li-gga                  # Species index, atomic number, species label
    2    6 C-gga                   # Species index, atomic number, species label
%endblock ChemicalSpeciesLabel

%block PAO.Basis                 # Define Basis set
Li-gga                1                    # Species label, number of l-shells
 n=2   0   2                         # n, l, Nzeta 
  11.897      8.489   
   1.000      1.000   
C-gga                 2                    # Species label, number of l-shells
 n=2   0   2                         # n, l, Nzeta 
   5.949      3.519   
   1.000      1.000   
 n=2   1   2                         # n, l, Nzeta 
   7.638      3.841   
   1.000      1.000   
%endblock PAO.Basis

prinput: ----------------------------------------------------------------------

coor:   Atomic-coordinates input format  =     Cartesian coordinates
coor:                                          (in Angstroms)

siesta: Atomic coordinates (Bohr) and species
siesta:      0.00000   0.00000   0.00000  2        1
siesta:      2.68614   0.00000   1.79163  1        2
siesta:      5.38035   0.00000   5.37490  1        3
siesta:     -1.34307   2.32627   1.79163  1        4
siesta:     -2.69017   4.65952   5.37490  1        5
siesta:      2.69017   4.65952   1.79163  1        6
siesta:      1.34307   2.32627   5.37490  1        7
siesta:      5.38035   0.00000   1.79163  1        8
siesta:      2.68614   0.00000   5.37490  1        9
siesta:     -2.69017   4.65952   1.79163  1       10
siesta:     -1.34307   2.32627   5.37490  1       11
siesta:      1.34307   2.32627   1.79163  1       12
siesta:      2.69017   4.65952   5.37490  1       13

siesta: System type = bulk      

initatomlists: Number of atoms, orbitals, and projectors:     13    32   117

siesta: ******************** Simulation parameters ****************************
siesta:
siesta: The following are some of the parameters of the simulation.
siesta: A complete list of the parameters used, including default values,
siesta: can be found in file out.fdf
siesta:
redata: Spin configuration                          = none
redata: Number of spin components                   = 1
redata: Time-Reversal Symmetry                      = T
redata: Spin spiral                                 = F
redata: Long output                                 =   F
redata: Number of Atomic Species                    =        2
redata: Charge density info will appear in .RHO file
redata: Write Mulliken Pop.                         = NO
redata: Matel table size (NRTAB)                    =     1024
redata: Mesh Cutoff                                 =   300.0000 Ry
redata: Net charge of the system                    =     0.0000 |e|
redata: Min. number of SCF Iter                     =        0
redata: Max. number of SCF Iter                     =     1000
redata: SCF convergence failure will abort job
redata: SCF mix quantity                            = Hamiltonian
redata: Mix DM or H after convergence               =   F
redata: Recompute H after scf cycle                 =   F
redata: Mix DM in first SCF step                    =   T
redata: Write Pulay info on disk                    =   F
redata: New DM Occupancy tolerance                  = 0.000000000001
redata: No kicks to SCF
redata: DM Mixing Weight for Kicks                  =     0.5000
redata: Require Harris convergence for SCF          =   F
redata: Harris energy tolerance for SCF             =     0.000100 eV
redata: Require DM convergence for SCF              =   T
redata: DM tolerance for SCF                        =     0.001000
redata: Require EDM convergence for SCF             =   F
redata: EDM tolerance for SCF                       =     0.005000 eV
redata: Require H convergence for SCF               =   T
redata: Hamiltonian tolerance for SCF               =     0.001000 eV
redata: Require (free) Energy convergence for SCF   =   T
redata: (free) Energy tolerance for SCF             =     0.001000 eV
redata: Using Saved Data (generic)                  =   F
redata: Use continuation files for DM               =   F
redata: Neglect nonoverlap interactions             =   F
redata: Method of Calculation                       = Diagonalization
redata: Electronic Temperature                      =   299.9869 K
redata: Fix the spin of the system                  =   F
redata: Dynamics option                             = Single-point calculation
mix.SCF: Pulay mixing                            = Pulay
mix.SCF:    Variant                              = stable
mix.SCF:    History steps                        = 4
mix.SCF:    Linear mixing weight                 =     0.250000
mix.SCF:    Mixing weight                        =     0.250000
mix.SCF:    SVD condition                        = 0.1000E-07
redata: ***********************************************************************

%block SCF.Mixers
  Pulay
%endblock SCF.Mixers

%block SCF.Mixer.Pulay
  # Mixing method
  method pulay
  variant stable

  # Mixing options
  weight 0.2500
  weight.linear 0.2500
  history 4
%endblock SCF.Mixer.Pulay

DM_history_depth set to one: no extrapolation allowed by default for geometry relaxation
Size of DM history Fstack: 1
Total number of electrons:    16.000000
Total ionic charge:    16.000000

* ProcessorY, Blocksize:    3   1


* Orbital distribution balance (max,min):     3     2

k-point displ. along   1 input, could be:     0.00    0.50
k-point displ. along   2 input, could be:     0.00    0.50
k-point displ. along   3 input, could be:     0.00    0.50
 Kpoints in:            8 . Kpoints trimmed:            8

siesta: k-grid: Number of k-points =     8
siesta: k-grid: Cutoff (effective) =     3.792 Ang
siesta: k-grid: Supercell and displacements
siesta: k-grid:    2   0   0      0.000
siesta: k-grid:    0   2   0      0.000
siesta: k-grid:    0   0   2      0.000

diag: Algorithm                                     = Expert
diag: Parallel over k                               =   T
diag: Use parallel 2D distribution                  =   T
diag: Parallel block-size                           = 1
diag: Parallel distribution                         =     3 x     4
diag: Used triangular part                          = Lower
diag: Absolute tolerance                            =  0.100E-15
diag: Orthogonalization factor                      =  0.100E-05
diag: Memory factor                                 =  1.0000

superc: Internal auxiliary supercell:     9 x     9 x     9  =     729
superc: Number of atoms, orbitals, and projectors:   9477  23328  85293


ts: **************************************************************
ts: Save H and S matrices                           =    F
ts: Save DM and EDM matrices                        =    F
ts: Only save the overlap matrix S                  =    F
ts: **************************************************************

************************ Begin: TS CHECKS AND WARNINGS ************************
************************ End: TS CHECKS AND WARNINGS **************************


                     ====================================
                        Single-point calculation
                     ====================================

outcoor: Atomic coordinates (Ang):                          
    0.00000000    0.00000000    0.00000000   2       1  C-gga
    1.42144380    0.00000000    0.94809150   1       2  Li-gga
    2.84715620    0.00000000    2.84427450   1       3  Li-gga
   -0.71072190    1.23100644    0.94809150   1       4  Li-gga
   -1.42357810    2.46570960    2.84427450   1       5  Li-gga
    1.42357810    2.46570960    0.94809150   1       6  Li-gga
    0.71072190    1.23100644    2.84427450   1       7  Li-gga
    2.84715620    0.00000000    0.94809150   1       8  Li-gga
    1.42144380    0.00000000    2.84427450   1       9  Li-gga
   -1.42357810    2.46570960    0.94809150   1      10  Li-gga
   -0.71072190    1.23100644    2.84427450   1      11  Li-gga
    0.71072190    1.23100644    0.94809150   1      12  Li-gga
    1.42357810    2.46570960    2.84427450   1      13  Li-gga

superc: Internal auxiliary supercell:     9 x     9 x     9  =     729
superc: Number of atoms, orbitals, and projectors:   9477  23328  85293

outcell: Unit cell vectors (Ang):
        4.268600    0.000000    0.000000
       -2.134300    3.696716    0.000000
        0.000000    0.000000    3.792366

outcell: Cell vector modules (Ang)   :    4.268600    4.268600    3.792366
outcell: Cell angles (23,13,12) (deg):     90.0000     90.0000    120.0000
outcell: Cell volume (Ang**3)        :     59.8428
<dSpData1D:S at geom step 0
  <sparsity:sparsity for geom step 0
    nrows_g=32 nrows=3 sparsity=13.5391 nnzs=13864, refcount: 7>
  <dData1D:(new from dSpData1D) n=13864, refcount: 1>
refcount: 1>
new_DM -- step:     1
Initializing Density Matrix...
DM filled with atomic data:
<dSpData2D:DM initialized from atoms
  <sparsity:sparsity for geom step 0
    nrows_g=32 nrows=3 sparsity=13.5391 nnzs=13864, refcount: 8>
  <dData2D:DM n=13864 m=1, refcount: 1>
refcount: 1>
No. of atoms with KB's overlaping orbs in proc 0. Max # of overlaps:     498     643
New grid distribution:   1
           1       1:   20    1:    7    1:    5
           2       1:   20    1:    7    6:   10
           3       1:   20    1:    7   11:   15
           4       1:   20    1:    7   16:   20
           5       1:   20    8:   14    1:    5
           6       1:   20    8:   14    6:   10
           7       1:   20    8:   14   11:   15
           8       1:   20    8:   14   16:   20
           9       1:   20   15:   20    1:    5
          10       1:   20   15:   20    6:   10
          11       1:   20   15:   20   11:   15
          12       1:   20   15:   20   16:   20

InitMesh: MESH =    40 x    40 x    40 =       64000
InitMesh: (bp) =    20 x    20 x    20 =        8000
InitMesh: Mesh cutoff (required, used) =   300.000   307.469 Ry
ExtMesh (bp) on 0 =   160 x   147 x   141 =     3316320
New grid distribution:   2
           1       1:    7    1:   10    1:   10
           2       8:   20   11:   20   11:   15
           3       1:    7    1:   10   11:   20
           4       8:   20    1:   10    1:    5
           5       8:   20   11:   20    1:    5
           6       8:   20    1:   10    6:   10
           7       1:    7   11:   20   11:   20
           8       8:   20    1:   10   16:   20
           9       1:    7   11:   20    1:   10
          10       8:   20    1:   10   11:   15
          11       8:   20   11:   20    6:   10
          12       8:   20   11:   20   16:   20
New grid distribution:   3
           1       1:    7    1:   10    1:   10
           2       8:   20   11:   20   11:   15
           3       1:    7    1:   10   11:   20
           4       8:   20    1:   10    1:    5
           5       8:   20   11:   20    1:    5
           6       8:   20    1:   10    6:   10
           7       1:    7   11:   20   11:   20
           8       8:   20    1:   10   16:   20
           9       1:    7   11:   20    1:   10
          10       8:   20    1:   10   11:   15
          11       8:   20   11:   20    6:   10
          12       8:   20   11:   20   16:   20
Setting up quadratic distribution...
ExtMesh (bp) on 0 =   147 x   150 x   146 =     3219300
PhiOnMesh: Number of (b)points on node 0 =                  700
PhiOnMesh: nlist on node 0 =               221331

stepf: Fermi-Dirac step function

siesta: Program's energy decomposition (eV):
siesta: Ebs     =      -293.456835
siesta: Eions   =       380.620085
siesta: Ena     =        74.737979
siesta: Ekin    =       342.293838
siesta: Enl     =        -1.289389
siesta: Eso     =         0.000000
siesta: Edftu   =         0.000000
siesta: DEna    =       -53.055104
siesta: DUscf   =        37.768443
siesta: DUext   =         0.000000
siesta: Exc     =      -200.230672
siesta: eta*DQ  =         0.000000
siesta: Emadel  =         0.000000
siesta: Emeta   =         0.000000
siesta: Emolmec =       -12.913146
siesta: Ekinion =         0.000000
siesta: Eharris =      -126.324120
siesta: Etot    =      -193.308136
siesta: FreeEng =      -193.329818

        iscf     Eharris(eV)        E_KS(eV)     FreeEng(eV)     dDmax    Ef(eV) dHmax(eV)
   scf:    1     -126.324120     -193.308136     -193.329818110.699319-16.608956 21.730386
timer: Routine,Calls,Time,% = IterSCF        1       2.477  21.69
   scf:    2     -223.105114     -211.357461     -211.358567 53.566742-16.647044  6.274405
   scf:    3     -213.891031     -213.051649     -213.072950 43.679429-16.707616  0.745260
   scf:    4     -213.091471     -213.079559     -213.100233  5.625718-16.704446  0.149826
   scf:    5     -213.080804     -213.080431     -213.101392  2.120932-16.700981  0.172244
   scf:    6     -213.081285     -213.081418     -213.101682  3.840270-16.697401  0.012969
   scf:    7     -213.081103     -213.081498     -213.102314  2.828564-16.698308  0.002548
   scf:    8     -213.081468     -213.081483     -213.102318  0.113201-16.698798  0.001845
   scf:    9     -213.081453     -213.081469     -213.102320  0.112938-16.700017  0.000111
   scf:   10     -213.081467     -213.081468     -213.102320  0.004880-16.700021  0.000066
   scf:   11     -213.081467     -213.081468     -213.102320  0.002706-16.700023  0.000015
   scf:   12     -213.081468     -213.081468     -213.102320  0.000359-16.700024  0.000008

SCF Convergence by FreeE+DM+H criterion
|FreeE_i-FreeE_(i-1)| (eV) <     0.00100000
max |DM_out - DM_in|         :     0.0003592345
max |H_out - H_in|      (eV) :     0.0000080545
SCF cycle converged after 12 iterations

Using DM_out to compute the final energy and forces
No. of atoms with KB's overlaping orbs in proc 0. Max # of overlaps:     498     643

MM-Stress (kbar):      210.25      210.25      838.88        0.00       -0.00        0.00

siesta: E_KS(eV) =             -213.0815

siesta: E_KS - E_eggbox =      -213.0815

siesta: Atomic forces (eV/Ang):
     1    0.000000    0.000000   -0.000000
     2    1.114260   -0.000032    1.695011
     3   -1.114260    0.000032   -1.695011
     4   -0.557158    0.964961    1.695011
     5    0.557158   -0.964961   -1.695011
     6   -0.557105   -0.964935    1.694950
     7    0.557105    0.964935   -1.694950
     8   -1.114260    0.000032    1.695011
     9    1.114260   -0.000032   -1.695011
    10    0.557158   -0.964961    1.695011
    11   -0.557158    0.964961   -1.695011
    12    0.557105    0.964935    1.694950
    13   -0.557105   -0.964935   -1.694950
----------------------------------------
   Tot    0.000000    0.000000   -0.000000
----------------------------------------
   Max    1.695011
   Res    1.125171    sqrt( Sum f_i^2 / 3N )
----------------------------------------
   Max    1.695011    constrained

Stress tensor Voigt[x,y,z,yz,xz,xy] (kbar):    -2895.58    -2895.67    -1729.71        0.00       -0.00       -0.08
(Free)E + p*V (eV/cell)     -119.4651
Target enthalpy (eV/cell)     -213.1023

siesta: Eigenvalues (eV):
  ik is       eps
   1  1  -32.4445  -26.4647  -23.0842  -23.0840  -21.3454  -17.3636  -17.3636  -11.4627  -10.1357  -10.1351
          -9.0562    0.4284    0.4285    0.5511    0.5511    5.5490   10.0674   10.0674   11.8543   13.2970
   20.0543   32.3367   32.3368   40.8695   40.8696   44.3381   44.3381   44.7343   44.7343  140.7632
  200.3673  291.3445
   2  1  -31.9284  -25.6322  -25.6024  -25.0100  -22.9119  -22.6140  -21.7271  -16.7212  -13.4592  -10.9651
          -8.6266   -5.1836   -2.5714   -0.9657    1.1577    7.0808    9.6300   11.0030   12.5885   13.1250
   13.1554   13.1733   13.5063   16.1587   16.4977   28.7340   37.9375   44.2627   47.7711   48.4656
   65.8053   75.4071
   3  1  -31.9284  -25.6322  -25.6024  -25.0100  -22.9119  -22.6140  -21.7271  -16.7212  -13.4592  -10.9651
          -8.6266   -5.1836   -2.5714   -0.9657    1.1577    7.0808    9.6300   11.0030   12.5885   13.1250
   13.1554   13.1733   13.5063   16.1587   16.4977   28.7340   37.9375   44.2627   47.7711   48.4656
   65.8053   75.4071
   4  1  -31.9284  -25.6322  -25.6024  -25.0099  -22.9122  -22.6140  -21.7271  -16.7213  -13.4592  -10.9646
          -8.6267   -5.1836   -2.5714   -0.9659    1.1578    7.0808    9.6300   11.0030   12.5885   13.1250
   13.1554   13.1732   13.5063   16.1587   16.4977   28.7340   37.9374   44.2627   47.7711   48.4656
   65.8052   75.4072
   5  1  -31.9878  -26.4683  -25.2736  -25.1168  -23.9073  -23.9071  -16.6957  -16.6957  -15.8348  -15.8347
         -15.7796  -15.7796  -12.1688   -3.9333   -3.9326   -0.2654    8.5341    8.5770   12.3946   12.8417
   14.0664   14.0664   14.0768   14.0768   14.0982   14.0982   14.9850   14.9852   44.9426   45.1346
   64.0275   64.0275
   6  1  -31.3356  -25.8487  -25.5901  -24.1649  -24.0018  -23.8374  -23.6025  -19.8331  -18.3730  -13.0082
         -10.7646   -3.2468    5.2678    6.8161    9.2311    9.3152    9.3230    9.6449   10.5894   14.6942
   14.7435   15.6140   22.3769   25.0140   56.2701   56.4236   57.1201   57.5432   58.6178   63.1821
  123.0677  124.6395
   7  1  -31.3356  -25.8487  -25.5901  -24.1649  -24.0018  -23.8374  -23.6025  -19.8331  -18.3730  -13.0082
         -10.7646   -3.2468    5.2678    6.8161    9.2311    9.3152    9.3230    9.6449   10.5894   14.6942
   14.7435   15.6140   22.3769   25.0140   56.2701   56.4236   57.1201   57.5432   58.6178   63.1821
  123.0677  124.6395
   8  1  -31.3356  -25.8486  -25.5901  -24.1649  -24.0018  -23.8375  -23.6025  -19.8328  -18.3730  -13.0082
         -10.7650   -3.2468    5.2680    6.8160    9.2311    9.3152    9.3229    9.6449   10.5894   14.6942
   14.7435   15.6139   22.3769   25.0141   56.2701   56.4236   57.1202   57.5432   58.6178   63.1821
  123.0677  124.6395
siesta: Fermi energy =     -16.700024 eV

siesta: Program's energy decomposition (eV):
siesta: Ebs     =      -385.997661
siesta: Eions   =       380.620085
siesta: Ena     =        74.737979
siesta: Ekin    =       271.896851
siesta: Enl     =        26.358081
siesta: Eso     =         0.000000
siesta: Edftu   =         0.000000
siesta: DEna    =       -12.687518
siesta: DUscf   =         6.952644
siesta: DUext   =         0.000000
siesta: Exc     =      -186.806274
siesta: eta*DQ  =         0.000000
siesta: Emadel  =         0.000000
siesta: Emeta   =         0.000000
siesta: Emolmec =       -12.913146
siesta: Ekinion =         0.000000
siesta: Eharris =      -213.081468
siesta: Etot    =      -213.081468
siesta: FreeEng =      -213.102320

siesta: Final energy (eV):
siesta:  Band Struct. =    -385.997661
siesta:       Kinetic =     271.896851
siesta:       Hartree =      78.704232
siesta:       Edftu   =       0.000000
siesta:       Eso     =       0.000000
siesta:    Ext. field =       0.000000
siesta:   Exch.-corr. =    -186.806274
siesta:  Ion-electron =    -614.281755
siesta:       Ion-ion =     250.318624
siesta:       Ekinion =       0.000000
siesta:         Total =    -213.081468
siesta:         Fermi =     -16.700024

siesta: Atomic forces (eV/Ang):
siesta:      1    0.000000    0.000000   -0.000000
siesta:      2    1.114260   -0.000032    1.695011
siesta:      3   -1.114260    0.000032   -1.695011
siesta:      4   -0.557158    0.964961    1.695011
siesta:      5    0.557158   -0.964961   -1.695011
siesta:      6   -0.557105   -0.964935    1.694950
siesta:      7    0.557105    0.964935   -1.694950
siesta:      8   -1.114260    0.000032    1.695011
siesta:      9    1.114260   -0.000032   -1.695011
siesta:     10    0.557158   -0.964961    1.695011
siesta:     11   -0.557158    0.964961   -1.695011
siesta:     12    0.557105    0.964935    1.694950
siesta:     13   -0.557105   -0.964935   -1.694950
siesta: ----------------------------------------
siesta:    Tot    0.000000    0.000000   -0.000000

siesta: Stress tensor (static) (eV/Ang**3):
siesta:    -1.807260   -0.000050   -0.000000
siesta:    -0.000050   -1.807317    0.000000
siesta:    -0.000000    0.000000   -1.079587

siesta: Cell volume =         59.842785 Ang**3

siesta: Pressure (static):
siesta:                Solid            Molecule  Units
siesta:           0.01704181          0.01878994  Ry/Bohr**3
siesta:           1.56472107          1.72522841  eV/Ang**3
siesta:        2506.98663812       2764.15051862  kBar
(Free)E+ p_basis*V_orbitals  =        -191.169756
(Free)Eharris+ p_basis*V_orbitals  =        -191.169756

cite: Please see "LiC12_scf.bib" for an exhaustive BiBTeX file.
cite: Please clearly indicate Siesta version in published work: 4.1.5
cite: This calculation has made use of the following articles
cite: which are encouraged to be cited in a published work.
        Primary SIESTA paper
          DOI: www.doi.org/10.1088/0953-8984/14/11/302

>> End of run:   9-NOV-2022   8:19:14
Job completed
