Siesta Version  : 4.1.5
Architecture    : x86_64-unknown-linux-gnu--unknown
Compiler version: GNU Fortran (GCC) 11.3.0
Compiler flags  : mpif90 -g -O2 -fallow-argument-mismatch
PP flags        : -DMPI -DFC_HAVE_FLUSH -DFC_HAVE_ABORT
Libraries       :  -I/global/software/sl-7.x86_64/modules/intel/2020.4.304/mkl/include  /globall/software/sl-7.x86_64/modules/intel/2020.4.304/mkl/lib/intel64/libmkl_scalapack_lp64.a -Wl,--start-group /global/software/sl-7.x86_64/modules/intel/2020.4.304/mkl/lib/intel64/libmkl_intel_lp64.a /global/software/sl-7.x86_64/modules/intel/2020.4.304/mkl/lib/intel64/libmkl_sequential.a /global/software/sl-7.x86_64/modules/intel/2020.4.304/mkl/lib/intel64/libmkl_core.a /global/software/sl-7.x86_64/modules/intel/2020.4.304/mkl/lib/intel64/libmkl_blacs_openmpi_lp64.a -Wl,--end-group -lpthread -lm -ldl
PARALLEL version

* Running on 12 nodes in parallel
>> Start of run:   9-NOV-2022   8:11:30

                           ***********************       
                           *  WELCOME TO SIESTA  *       
                           ***********************       

reinit: Reading from standard input
reinit: Dumped input in INPUT_TMP.57781
************************** Dump of input data file ****************************
SystemName LiC12_scf
SystemLabel LiC12_scf
NumberOfAtoms   13
NumberOfSpecies 2
%block ChemicalSpeciesLabel
1  3   Li-gga
2  6   C-gga
%endblock ChemicalSpeciesLabel
PAO.BasisSize  DZ
PAO.EnergyShift  10 meV
%block PS.Lmax
C-gga   2
Li-gga  2
%endblock PS.Lmax
LatticeConstant 1.000000 Ang
%block LatticeVectors
	4.2686000000	0.0000000000	0.0000000000
	-2.1343000000	3.6967160386	0.0000000000
	0.0000000000	0.0000000000	6.1801520000
%endblock LatticeVectors
AtomicCoordinatesFormat Ang
%block AtomicCoordinatesAndAtomicSpecies
	0.00000000	0.00000000	0.00000000	2
	1.42144380	0.00000000	1.54503800	1
	2.84715620	0.00000000	4.63511400	1
	-0.71072190	1.23100644	1.54503800	1
	-1.42357810	2.46570960	4.63511400	1
	1.42357810	2.46570960	1.54503800	1
	0.71072190	1.23100644	4.63511400	1
	2.84715620	0.00000000	1.54503800	1
	1.42144380	0.00000000	4.63511400	1
	-1.42357810	2.46570960	1.54503800	1
	-0.71072190	1.23100644	4.63511400	1
	0.71072190	1.23100644	1.54503800	1
	1.42357810	2.46570960	4.63511400	1
%endblock AtomicCoordinatesAndAtomicSpecies
Kgrid_NoTRS  T
%block kgrid_MonkhorstPack
2       0       0       0.0
0       2       0       0.0
0       0       2       0.0
%endblock kgrid_MonkhorstPack
AtomCoorFormatOut Ang
BlockSize 1
#ProcessorY 12
Diag.ParallelOverK   T
Diag.DivideAndConquer F
MeshCutoff   300 Ry
SCF.FreeE.Tolerance 1E-3 eV
SCF.EDM.Tolerance   5E-3 eV
DM.Tolerance  1E-3
DM.Require.Energy.Convergence T
DM.NumberPulay 4
XC.Functional GGA
XC.Authors    PBE
UseSaveData        F
MD.TypeOfRun       CG
MD.VariableCell    F
MD.NumCGsteps      00
MD.MaxCGDispl      0.200000 Bohr
MD.MaxStressTol    1.000000 GPa
MD.MaxForceTol     0.010000 eV/Ang
WriteMDHistory T
WriteCoorStep T
WriteForces T
WriteCoorStep    T
WriteEigenValues T
WriteDM    F
MM.UnitsDistance Ang  # what this program prints out DO NOT CHANGE
MM.UnitsEnergy    eV  # what this program prints out DO NOT CHANGE
MM.Grimme.S6     0.75 # Grimme-paper for PBE (correct for your functional)
MM.Grimme.D     20.   # Grimme-paper (correct for your functional)
%block MM.Potentials
  1   1 Grimme     16.69      1.650 # Li, 10.1002/jcc.20495
  1   2 Grimme     17.40      2.277 # Li / C
  2   2 Grimme     18.14      2.904 # C, 10.1002/jcc.20495
%endblock MM.Potentials
#%block ProjectedDensityOfStates
# -200.0  120.0  0.4  12800  eV
#%endblock ProjectedDensityOfStates
************************** End of input data file *****************************

reinit: -----------------------------------------------------------------------
reinit: System Name: LiC12_scf
reinit: -----------------------------------------------------------------------
reinit: System Label: LiC12_scf
reinit: -----------------------------------------------------------------------
Reading two-body potentials
Grimme - two-body potential between 1 and 1
Grimme - two-body potential between 1 and 2
Grimme - two-body potential between 2 and 2

initatom: Reading input for the pseudopotentials and atomic orbitals ----------
Species number:   1 Atomic number:    3 Label: Li-gga
Species number:   2 Atomic number:    6 Label: C-gga

Ground state valence configuration:   2s01
Reading pseudopotential information in formatted form from Li-gga.psf

Valence configuration for pseudopotential generation:
2s( 1.00) rc: 2.28
2p( 0.00) rc: 2.28
3d( 0.00) rc: 2.59
4f( 0.00) rc: 2.59
Ground state valence configuration:   2s02  2p02
Reading pseudopotential information in formatted form from C-gga.psf

Valence configuration for pseudopotential generation:
2s( 2.00) rc: 1.56
2p( 2.00) rc: 1.56
3d( 0.00) rc: 1.56
4f( 0.00) rc: 1.56
relmxkb: Read Max KB Ang. Momentum=    2 for species C-gga
relmxkb: Read Max KB Ang. Momentum=    2 for species Li-gga

<basis_specs>
===============================================================================
Li-gga               Z=   3    Mass=  6.9400        Charge= 0.17977+309
Lmxo=0 Lmxkb= 2    BasisType=split      Semic=F
L=0  Nsemic=0  Cnfigmx=2
          i=1  nzeta=2  polorb=0  (2s)
            splnorm:   0.15000    
               vcte:    0.0000    
               rinn:    0.0000    
               qcoe:    0.0000    
               qyuk:    0.0000    
               qwid:   0.10000E-01
                rcs:    0.0000      0.0000    
            lambdas:    1.0000      1.0000    
-------------------------------------------------------------------------------
L=0  Nkbl=1  erefs: 0.17977+309
L=1  Nkbl=1  erefs: 0.17977+309
L=2  Nkbl=1  erefs: 0.17977+309
===============================================================================
</basis_specs>

atom: Called for Li-gga                (Z =   3)

read_vps: Pseudopotential generation method:
read_vps: ATM 3.2.2 Troullier-Martins                       
Valence charge for ps generation:    1.00000

read_vps: Pseudopotential includes a core correction:
read_vps: Pseudo-core for xc-correction

xc_check: Exchange-correlation functional:
xc_check: GGA Perdew, Burke & Ernzerhof 1996
V l=0 = -2*Zval/r beyond r=  2.2278
V l=1 = -2*Zval/r beyond r=  2.2278
V l=2 = -2*Zval/r beyond r=  2.5245
All V_l potentials equal beyond r=  2.4622
This should be close to max(r_c) in ps generation
All pots = -2*Zval/r beyond r=  2.5245

VLOCAL1: 99.0% of the norm of Vloc inside      7.160 Ry
VLOCAL1: 99.9% of the norm of Vloc inside     16.318 Ry
atom: Maximum radius for 4*pi*r*r*local-pseudopot. charge    2.86079
atom: Maximum radius for r*vlocal+2*Zval:    2.43160
GHOST: No ghost state for L =  0
GHOST: No ghost state for L =  1
GHOST: No ghost state for L =  2

KBgen: Kleinman-Bylander projectors: 
   l= 0   rc=  2.654023   el= -0.211234   Ekb=  1.742119   kbcos=  0.228463
   l= 1   rc=  2.721230   el= -0.080095   Ekb= -1.122375   kbcos= -0.147941
   l= 2   rc=  2.825246   el=  0.002001   Ekb= -0.207076   kbcos= -0.031965

KBgen: Total number of Kleinman-Bylander projectors:    9
atom: -------------------------------------------------------------------------

atom: SANKEY-TYPE ORBITALS:
atom: Selected multiple-zeta basis: split     

SPLIT: Orbitals with angular momentum L= 0

SPLIT: Basis orbitals for state 2s

SPLIT: PAO cut-off radius determined from an
SPLIT: energy shift=  0.000735 Ry

   izeta = 1
                 lambda =    1.000000
                     rc =   11.897381
                 energy =   -0.210580
                kinetic =    0.143382
    potential(screened) =   -0.353962
       potential(ionic) =   -0.533453

   izeta = 2
                 rmatch =    8.489163
              splitnorm =    0.150000
                 energy =   -0.186081
                kinetic =    0.225882
    potential(screened) =   -0.411964
       potential(ionic) =   -0.593024
atom: Total number of Sankey-type orbitals:  2

atm_pop: Valence configuration (for local Pseudopot. screening):
 2s( 1.00)                                                            
Vna: chval, zval:    1.00000   1.00000

Vna:  Cut-off radius for the neutral-atom potential:  11.897381
comcore: Pseudo-core radius Rcore=  3.450946

atom: _________________________________________________________________________

<basis_specs>
===============================================================================
C-gga                Z=   6    Mass=  12.010        Charge= 0.17977+309
Lmxo=1 Lmxkb= 2    BasisType=split      Semic=F
L=0  Nsemic=0  Cnfigmx=2
          i=1  nzeta=2  polorb=0  (2s)
            splnorm:   0.15000    
               vcte:    0.0000    
               rinn:    0.0000    
               qcoe:    0.0000    
               qyuk:    0.0000    
               qwid:   0.10000E-01
                rcs:    0.0000      0.0000    
            lambdas:    1.0000      1.0000    
L=1  Nsemic=0  Cnfigmx=2
          i=1  nzeta=2  polorb=0  (2p)
            splnorm:   0.15000    
               vcte:    0.0000    
               rinn:    0.0000    
               qcoe:    0.0000    
               qyuk:    0.0000    
               qwid:   0.10000E-01
                rcs:    0.0000      0.0000    
            lambdas:    1.0000      1.0000    
-------------------------------------------------------------------------------
L=0  Nkbl=1  erefs: 0.17977+309
L=1  Nkbl=1  erefs: 0.17977+309
L=2  Nkbl=1  erefs: 0.17977+309
===============================================================================
</basis_specs>

atom: Called for C-gga                 (Z =   6)

read_vps: Pseudopotential generation method:
read_vps: ATM 3.2.2 Troullier-Martins                       
Valence charge for ps generation:    4.00000

xc_check: Exchange-correlation functional:
xc_check: GGA Perdew, Burke & Ernzerhof 1996
V l=0 = -2*Zval/r beyond r=  1.5227
V l=1 = -2*Zval/r beyond r=  1.5227
V l=2 = -2*Zval/r beyond r=  1.5227
All V_l potentials equal beyond r=  1.4851
This should be close to max(r_c) in ps generation
All pots = -2*Zval/r beyond r=  1.5227

VLOCAL1: 99.0% of the norm of Vloc inside     19.682 Ry
VLOCAL1: 99.9% of the norm of Vloc inside     44.856 Ry
atom: Maximum radius for 4*pi*r*r*local-pseudopot. charge    1.79142
atom: Maximum radius for r*vlocal+2*Zval:    1.54183
GHOST: No ghost state for L =  0
GHOST: No ghost state for L =  1
GHOST: No ghost state for L =  2

KBgen: Kleinman-Bylander projectors: 
   l= 0   rc=  1.661951   el= -1.010689   Ekb=  5.289847   kbcos=  0.316429
   l= 1   rc=  1.661951   el= -0.388490   Ekb= -4.102504   kbcos= -0.351025
   l= 2   rc=  1.747182   el=  0.001971   Ekb= -1.006005   kbcos= -0.008530

KBgen: Total number of Kleinman-Bylander projectors:    9
atom: -------------------------------------------------------------------------

atom: SANKEY-TYPE ORBITALS:
atom: Selected multiple-zeta basis: split     

SPLIT: Orbitals with angular momentum L= 0

SPLIT: Basis orbitals for state 2s

SPLIT: PAO cut-off radius determined from an
SPLIT: energy shift=  0.000735 Ry

   izeta = 1
                 lambda =    1.000000
                     rc =    5.948690
                 energy =   -1.010099
                kinetic =    0.827121
    potential(screened) =   -1.837220
       potential(ionic) =   -5.392783

   izeta = 2
                 rmatch =    3.518811
              splitnorm =    0.150000
                 energy =   -0.877891
                kinetic =    1.289227
    potential(screened) =   -2.167118
       potential(ionic) =   -5.982073

SPLIT: Orbitals with angular momentum L= 1

SPLIT: Basis orbitals for state 2p

SPLIT: PAO cut-off radius determined from an
SPLIT: energy shift=  0.000735 Ry

   izeta = 1
                 lambda =    1.000000
                     rc =    7.638387
                 energy =   -0.387843
                kinetic =    2.314739
    potential(screened) =   -2.702582
       potential(ionic) =   -6.092371

   izeta = 2
                 rmatch =    3.840617
              splitnorm =    0.150000
                 energy =   -0.270479
                kinetic =    3.438347
    potential(screened) =   -3.708826
       potential(ionic) =   -7.497707
atom: Total number of Sankey-type orbitals:  8

atm_pop: Valence configuration (for local Pseudopot. screening):
 2s( 2.00)                                                            
 2p( 2.00)                                                            
Vna: chval, zval:    4.00000   4.00000

Vna:  Cut-off radius for the neutral-atom potential:   7.638387

atom: _________________________________________________________________________

prinput: Basis input ----------------------------------------------------------

PAO.BasisType split     

%block ChemicalSpeciesLabel
    1    3 Li-gga                  # Species index, atomic number, species label
    2    6 C-gga                   # Species index, atomic number, species label
%endblock ChemicalSpeciesLabel

%block PAO.Basis                 # Define Basis set
Li-gga                1                    # Species label, number of l-shells
 n=2   0   2                         # n, l, Nzeta 
  11.897      8.489   
   1.000      1.000   
C-gga                 2                    # Species label, number of l-shells
 n=2   0   2                         # n, l, Nzeta 
   5.949      3.519   
   1.000      1.000   
 n=2   1   2                         # n, l, Nzeta 
   7.638      3.841   
   1.000      1.000   
%endblock PAO.Basis

prinput: ----------------------------------------------------------------------

coor:   Atomic-coordinates input format  =     Cartesian coordinates
coor:                                          (in Angstroms)

siesta: Atomic coordinates (Bohr) and species
siesta:      0.00000   0.00000   0.00000  2        1
siesta:      2.68614   0.00000   2.91970  1        2
siesta:      5.38035   0.00000   8.75910  1        3
siesta:     -1.34307   2.32627   2.91970  1        4
siesta:     -2.69017   4.65952   8.75910  1        5
siesta:      2.69017   4.65952   2.91970  1        6
siesta:      1.34307   2.32627   8.75910  1        7
siesta:      5.38035   0.00000   2.91970  1        8
siesta:      2.68614   0.00000   8.75910  1        9
siesta:     -2.69017   4.65952   2.91970  1       10
siesta:     -1.34307   2.32627   8.75910  1       11
siesta:      1.34307   2.32627   2.91970  1       12
siesta:      2.69017   4.65952   8.75910  1       13

siesta: System type = bulk      

initatomlists: Number of atoms, orbitals, and projectors:     13    32   117

siesta: ******************** Simulation parameters ****************************
siesta:
siesta: The following are some of the parameters of the simulation.
siesta: A complete list of the parameters used, including default values,
siesta: can be found in file out.fdf
siesta:
redata: Spin configuration                          = none
redata: Number of spin components                   = 1
redata: Time-Reversal Symmetry                      = T
redata: Spin spiral                                 = F
redata: Long output                                 =   F
redata: Number of Atomic Species                    =        2
redata: Charge density info will appear in .RHO file
redata: Write Mulliken Pop.                         = NO
redata: Matel table size (NRTAB)                    =     1024
redata: Mesh Cutoff                                 =   300.0000 Ry
redata: Net charge of the system                    =     0.0000 |e|
redata: Min. number of SCF Iter                     =        0
redata: Max. number of SCF Iter                     =     1000
redata: SCF convergence failure will abort job
redata: SCF mix quantity                            = Hamiltonian
redata: Mix DM or H after convergence               =   F
redata: Recompute H after scf cycle                 =   F
redata: Mix DM in first SCF step                    =   T
redata: Write Pulay info on disk                    =   F
redata: New DM Occupancy tolerance                  = 0.000000000001
redata: No kicks to SCF
redata: DM Mixing Weight for Kicks                  =     0.5000
redata: Require Harris convergence for SCF          =   F
redata: Harris energy tolerance for SCF             =     0.000100 eV
redata: Require DM convergence for SCF              =   T
redata: DM tolerance for SCF                        =     0.001000
redata: Require EDM convergence for SCF             =   F
redata: EDM tolerance for SCF                       =     0.005000 eV
redata: Require H convergence for SCF               =   T
redata: Hamiltonian tolerance for SCF               =     0.001000 eV
redata: Require (free) Energy convergence for SCF   =   T
redata: (free) Energy tolerance for SCF             =     0.001000 eV
redata: Using Saved Data (generic)                  =   F
redata: Use continuation files for DM               =   F
redata: Neglect nonoverlap interactions             =   F
redata: Method of Calculation                       = Diagonalization
redata: Electronic Temperature                      =   299.9869 K
redata: Fix the spin of the system                  =   F
redata: Dynamics option                             = Single-point calculation
mix.SCF: Pulay mixing                            = Pulay
mix.SCF:    Variant                              = stable
mix.SCF:    History steps                        = 4
mix.SCF:    Linear mixing weight                 =     0.250000
mix.SCF:    Mixing weight                        =     0.250000
mix.SCF:    SVD condition                        = 0.1000E-07
redata: ***********************************************************************

%block SCF.Mixers
  Pulay
%endblock SCF.Mixers

%block SCF.Mixer.Pulay
  # Mixing method
  method pulay
  variant stable

  # Mixing options
  weight 0.2500
  weight.linear 0.2500
  history 4
%endblock SCF.Mixer.Pulay

DM_history_depth set to one: no extrapolation allowed by default for geometry relaxation
Size of DM history Fstack: 1
Total number of electrons:    16.000000
Total ionic charge:    16.000000

* ProcessorY, Blocksize:    3   1


* Orbital distribution balance (max,min):     3     2

k-point displ. along   1 input, could be:     0.00    0.50
k-point displ. along   2 input, could be:     0.00    0.50
k-point displ. along   3 input, could be:     0.00    0.50
 Kpoints in:            8 . Kpoints trimmed:            8

siesta: k-grid: Number of k-points =     8
siesta: k-grid: Cutoff (effective) =     4.269 Ang
siesta: k-grid: Supercell and displacements
siesta: k-grid:    2   0   0      0.000
siesta: k-grid:    0   2   0      0.000
siesta: k-grid:    0   0   2      0.000

diag: Algorithm                                     = Expert
diag: Parallel over k                               =   T
diag: Use parallel 2D distribution                  =   T
diag: Parallel block-size                           = 1
diag: Parallel distribution                         =     3 x     4
diag: Used triangular part                          = Lower
diag: Absolute tolerance                            =  0.100E-15
diag: Orthogonalization factor                      =  0.100E-05
diag: Memory factor                                 =  1.0000

superc: Internal auxiliary supercell:     9 x     9 x     5  =     405
superc: Number of atoms, orbitals, and projectors:   5265  12960  47385


ts: **************************************************************
ts: Save H and S matrices                           =    F
ts: Save DM and EDM matrices                        =    F
ts: Only save the overlap matrix S                  =    F
ts: **************************************************************

************************ Begin: TS CHECKS AND WARNINGS ************************
************************ End: TS CHECKS AND WARNINGS **************************


                     ====================================
                        Single-point calculation
                     ====================================

outcoor: Atomic coordinates (Ang):                          
    0.00000000    0.00000000    0.00000000   2       1  C-gga
    1.42144380    0.00000000    1.54503800   1       2  Li-gga
    2.84715620    0.00000000    4.63511400   1       3  Li-gga
   -0.71072190    1.23100644    1.54503800   1       4  Li-gga
   -1.42357810    2.46570960    4.63511400   1       5  Li-gga
    1.42357810    2.46570960    1.54503800   1       6  Li-gga
    0.71072190    1.23100644    4.63511400   1       7  Li-gga
    2.84715620    0.00000000    1.54503800   1       8  Li-gga
    1.42144380    0.00000000    4.63511400   1       9  Li-gga
   -1.42357810    2.46570960    1.54503800   1      10  Li-gga
   -0.71072190    1.23100644    4.63511400   1      11  Li-gga
    0.71072190    1.23100644    1.54503800   1      12  Li-gga
    1.42357810    2.46570960    4.63511400   1      13  Li-gga

superc: Internal auxiliary supercell:     9 x     9 x     5  =     405
superc: Number of atoms, orbitals, and projectors:   5265  12960  47385

outcell: Unit cell vectors (Ang):
        4.268600    0.000000    0.000000
       -2.134300    3.696716    0.000000
        0.000000    0.000000    6.180152

outcell: Cell vector modules (Ang)   :    4.268600    4.268600    6.180152
outcell: Cell angles (23,13,12) (deg):     90.0000     90.0000    120.0000
outcell: Cell volume (Ang**3)        :     97.5216
<dSpData1D:S at geom step 0
  <sparsity:sparsity for geom step 0
    nrows_g=32 nrows=3 sparsity=7.7168 nnzs=7902, refcount: 7>
  <dData1D:(new from dSpData1D) n=7902, refcount: 1>
refcount: 1>
new_DM -- step:     1
Initializing Density Matrix...
DM filled with atomic data:
<dSpData2D:DM initialized from atoms
  <sparsity:sparsity for geom step 0
    nrows_g=32 nrows=3 sparsity=7.7168 nnzs=7902, refcount: 8>
  <dData2D:DM n=7902 m=1, refcount: 1>
refcount: 1>
No. of atoms with KB's overlaping orbs in proc 0. Max # of overlaps:     294     383
New grid distribution:   1
           1       1:   20    1:    7    1:    9
           2       1:   20    1:    7   10:   18
           3       1:   20    1:    7   19:   27
           4       1:   20    1:    7   28:   36
           5       1:   20    8:   14    1:    9
           6       1:   20    8:   14   10:   18
           7       1:   20    8:   14   19:   27
           8       1:   20    8:   14   28:   36
           9       1:   20   15:   20    1:    9
          10       1:   20   15:   20   10:   18
          11       1:   20   15:   20   19:   27
          12       1:   20   15:   20   28:   36

InitMesh: MESH =    40 x    40 x    72 =      115200
InitMesh: (bp) =    20 x    20 x    36 =       14400
InitMesh: Mesh cutoff (required, used) =   300.000   323.586 Ry
ExtMesh (bp) on 0 =   160 x   147 x   157 =     3692640
New grid distribution:   2
           1       1:    7    1:   10    1:   18
           2       8:   20   11:   20   19:   27
           3       1:    7    1:   10   19:   36
           4       8:   20    1:   10    1:    9
           5       8:   20   11:   20    1:    9
           6       8:   20    1:   10   10:   18
           7       1:    7   11:   20   19:   36
           8       8:   20    1:   10   28:   36
           9       1:    7   11:   20    1:   18
          10       8:   20    1:   10   19:   27
          11       8:   20   11:   20   10:   18
          12       8:   20   11:   20   28:   36
New grid distribution:   3
           1       1:    7    1:   10    1:   18
           2       8:   20   11:   20   19:   27
           3       1:    7    1:   10   19:   36
           4       8:   20    1:   10    1:    9
           5       8:   20   11:   20    1:    9
           6       8:   20    1:   10   10:   18
           7       1:    7   11:   20   19:   36
           8       8:   20    1:   10   28:   36
           9       1:    7   11:   20    1:   18
          10       8:   20    1:   10   19:   27
          11       8:   20   11:   20   10:   18
          12       8:   20   11:   20   28:   36
Setting up quadratic distribution...
ExtMesh (bp) on 0 =   147 x   150 x   166 =     3660300
PhiOnMesh: Number of (b)points on node 0 =                 1260
PhiOnMesh: nlist on node 0 =               244317

stepf: Fermi-Dirac step function

siesta: Program's energy decomposition (eV):
siesta: Ebs     =      -204.290513
siesta: Eions   =       380.620085
siesta: Ena     =       102.256372
siesta: Ekin    =       230.823752
siesta: Enl     =        19.086321
siesta: Eso     =         0.000000
siesta: Edftu   =         0.000000
siesta: DEna    =       -17.806963
siesta: DUscf   =        12.901309
siesta: DUext   =         0.000000
siesta: Exc     =      -170.902262
siesta: eta*DQ  =         0.000000
siesta: Emadel  =         0.000000
siesta: Emeta   =         0.000000
siesta: Emolmec =        -6.052058
siesta: Ekinion =         0.000000
siesta: Eharris =      -171.233633
siesta: Etot    =      -210.313614
siesta: FreeEng =      -210.313614

        iscf     Eharris(eV)        E_KS(eV)     FreeEng(eV)     dDmax    Ef(eV) dHmax(eV)
   scf:    1     -171.233633     -210.313614     -210.313614 85.518385-10.360038 14.417215
timer: Routine,Calls,Time,% = IterSCF        1       1.463  19.41
   scf:    2     -220.606018     -216.770298     -216.770298  8.582189-10.806440  3.753456
   scf:    3     -217.355306     -217.209765     -217.209765  4.220879-10.925241  0.175278
   scf:    4     -217.233878     -217.223483     -217.223483  2.460032-10.989655  0.059667
   scf:    5     -217.223688     -217.223595     -217.223595  0.069554-10.989975  0.031042
   scf:    6     -217.223755     -217.223682     -217.223682  0.188903-10.989656  0.000837
   scf:    7     -217.223682     -217.223682     -217.223682  0.002636-10.989749  0.000476
   scf:    8     -217.223682     -217.223682     -217.223682  0.001304-10.989908  0.000336
   scf:    9     -217.223682     -217.223682     -217.223682  0.001287-10.989940  0.000092
   scf:   10     -217.223682     -217.223682     -217.223682  0.000727-10.990079  0.000028

SCF Convergence by FreeE+DM+H criterion
|FreeE_i-FreeE_(i-1)| (eV) <     0.00100000
max |DM_out - DM_in|         :     0.0007267341
max |H_out - H_in|      (eV) :     0.0000284167
SCF cycle converged after 10 iterations

Using DM_out to compute the final energy and forces
No. of atoms with KB's overlaping orbs in proc 0. Max # of overlaps:     294     383

MM-Stress (kbar):       16.28       16.28       51.08        0.00        0.00       -0.00

siesta: E_KS(eV) =             -217.2237

siesta: E_KS - E_eggbox =      -217.2237

siesta: Atomic forces (eV/Ang):
     1    0.000000    0.000000    0.000000
     2   -0.871708   -0.000021   -1.569807
     3    0.871708    0.000021    1.569807
     4    0.435836   -0.754932   -1.569807
     5   -0.435836    0.754932    1.569807
     6    0.435861    0.754933   -1.569820
     7   -0.435861   -0.754933    1.569820
     8    0.871708    0.000021   -1.569807
     9   -0.871708   -0.000021    1.569807
    10   -0.435836    0.754932   -1.569807
    11    0.435836   -0.754932    1.569807
    12   -0.435861   -0.754933   -1.569820
    13    0.435861    0.754933    1.569820
----------------------------------------
   Tot    0.000000    0.000000   -0.000000
----------------------------------------
   Max    1.569820
   Res    0.996021    sqrt( Sum f_i^2 / 3N )
----------------------------------------
   Max    1.569820    constrained

Stress tensor Voigt[x,y,z,yz,xz,xy] (kbar):    -1418.15    -1418.16      681.41        0.00        0.00       -0.01
(Free)E + p*V (eV/cell)     -173.5025
Target enthalpy (eV/cell)     -217.2237

siesta: Eigenvalues (eV):
  ik is       eps
   1  1  -22.7355  -18.3204  -16.8768  -13.4676  -13.3244  -13.3241   -3.3008   -3.3008   -3.0340   -1.6792
          -1.6792   -1.2305   -1.2305   -0.7525    1.4730    1.4734    5.6414    5.6416   15.1635   20.6821
   21.8974   29.0236   29.0237   29.5731   29.5731   39.7068   67.4828   67.4829   87.0040   87.0042
   99.5883  103.0981
   2  1  -22.2639  -17.1071  -16.9995  -16.3345  -15.8918  -14.0174  -13.8390  -12.3810  -12.2713  -10.3302
          -4.1783   -4.0153   -3.4937   -0.5585    1.1082    9.4123   12.9045   14.7473   16.2841   16.3228
   17.6334   17.9055   20.4100   20.5547   20.8485   21.7950   24.2707   31.7025   41.8837   49.8459
   53.5775   54.5711
   3  1  -22.2639  -17.1071  -16.9995  -16.3345  -15.8918  -14.0174  -13.8390  -12.3810  -12.2713  -10.3302
          -4.1783   -4.0153   -3.4937   -0.5585    1.1082    9.4123   12.9045   14.7473   16.2841   16.3228
   17.6334   17.9055   20.4100   20.5547   20.8485   21.7950   24.2707   31.7025   41.8837   49.8459
   53.5775   54.5711
   4  1  -22.2639  -17.1071  -16.9995  -16.3345  -15.8918  -14.0174  -13.8391  -12.3810  -12.2713  -10.3302
          -4.1778   -4.0153   -3.4937   -0.5585    1.1078    9.4123   12.9045   14.7473   16.2841   16.3228
   17.6334   17.9055   20.4099   20.5547   20.8486   21.7950   24.2708   31.7025   41.8836   49.8457
   53.5776   54.5711
   5  1  -22.6133  -18.9665  -16.1113  -13.3745  -13.3743  -13.2433  -11.4294   -8.5890   -3.7099   -3.7099
          -3.4117   -3.4117   -2.2168   -2.2168   -0.4991    2.7998    3.1287    3.1293   20.5400   20.5400
   20.7187   20.7188   20.7380   20.7380   21.9881   21.9883   22.4728   22.5310   38.5617   38.5617
   88.2561   88.6964
   6  1  -22.2577  -17.0399  -16.3892  -16.1889  -16.1051  -13.7474  -12.5474  -12.1093  -10.5222   -9.8556
          -3.9016   -2.3284   -1.5750    0.8377    1.0240   11.6078   17.3433   17.3560   17.3719   21.2003
   22.7562   22.9133   22.9598   30.4291   32.4332   38.8060   41.1726   42.4490   59.3954   59.8618
   60.0528   67.4370
   7  1  -22.2577  -17.0399  -16.3892  -16.1889  -16.1051  -13.7474  -12.5474  -12.1093  -10.5222   -9.8556
          -3.9016   -2.3284   -1.5750    0.8377    1.0240   11.6078   17.3433   17.3560   17.3719   21.2003
   22.7562   22.9133   22.9598   30.4291   32.4332   38.8060   41.1726   42.4490   59.3954   59.8618
   60.0528   67.4370
   8  1  -22.2577  -17.0399  -16.3892  -16.1889  -16.1051  -13.7475  -12.5474  -12.1093  -10.5222   -9.8556
          -3.9016   -2.3280   -1.5753    0.8377    1.0240   11.6077   17.3433   17.3559   17.3718   21.2003
   22.7562   22.9133   22.9598   30.4291   32.4331   38.8060   41.1726   42.4489   59.3954   59.8618
   60.0528   67.4369
siesta: Fermi energy =     -10.990079 eV

siesta: Program's energy decomposition (eV):
siesta: Ebs     =      -252.408269
siesta: Eions   =       380.620085
siesta: Ena     =       102.256372
siesta: Ekin    =       192.950977
siesta: Enl     =        31.166854
siesta: Eso     =         0.000000
siesta: Edftu   =         0.000000
siesta: DEna    =         3.908869
siesta: DUscf   =         2.400260
siesta: DUext   =         0.000000
siesta: Exc     =      -163.234873
siesta: eta*DQ  =         0.000000
siesta: Emadel  =         0.000000
siesta: Emeta   =         0.000000
siesta: Emolmec =        -6.052058
siesta: Ekinion =         0.000000
siesta: Eharris =      -217.223682
siesta: Etot    =      -217.223682
siesta: FreeEng =      -217.223682

siesta: Final energy (eV):
siesta:  Band Struct. =    -252.408269
siesta:       Kinetic =     192.950977
siesta:       Hartree =      78.559249
siesta:       Edftu   =       0.000000
siesta:       Eso     =       0.000000
siesta:    Ext. field =       0.000000
siesta:   Exch.-corr. =    -163.234873
siesta:  Ion-electron =    -430.497144
siesta:       Ion-ion =     111.050167
siesta:       Ekinion =       0.000000
siesta:         Total =    -217.223682
siesta:         Fermi =     -10.990079

siesta: Atomic forces (eV/Ang):
siesta:      1    0.000000    0.000000    0.000000
siesta:      2   -0.871708   -0.000021   -1.569807
siesta:      3    0.871708    0.000021    1.569807
siesta:      4    0.435836   -0.754932   -1.569807
siesta:      5   -0.435836    0.754932    1.569807
siesta:      6    0.435861    0.754933   -1.569820
siesta:      7   -0.435861   -0.754933    1.569820
siesta:      8    0.871708    0.000021   -1.569807
siesta:      9   -0.871708   -0.000021    1.569807
siesta:     10   -0.435836    0.754932   -1.569807
siesta:     11    0.435836   -0.754932    1.569807
siesta:     12   -0.435861   -0.754933   -1.569820
siesta:     13    0.435861    0.754933    1.569820
siesta: ----------------------------------------
siesta:    Tot    0.000000    0.000000   -0.000000

siesta: Stress tensor (static) (eV/Ang**3):
siesta:    -0.885128   -0.000008    0.000000
siesta:    -0.000008   -0.885137    0.000000
siesta:     0.000000    0.000000    0.425296

siesta: Cell volume =         97.521575 Ang**3

siesta: Pressure (static):
siesta:                Solid            Molecule  Units
siesta:           0.00488281          0.00352172  Ry/Bohr**3
siesta:           0.44832295          0.32335270  eV/Ang**3
siesta:         718.30031945        518.07373722  kBar
(Free)E+ p_basis*V_orbitals  =        -195.291118
(Free)Eharris+ p_basis*V_orbitals  =        -195.291118

cite: Please see "LiC12_scf.bib" for an exhaustive BiBTeX file.
cite: Please clearly indicate Siesta version in published work: 4.1.5
cite: This calculation has made use of the following articles
cite: which are encouraged to be cited in a published work.
        Primary SIESTA paper
          DOI: www.doi.org/10.1088/0953-8984/14/11/302

>> End of run:   9-NOV-2022   8:11:49
Job completed
