Siesta Version  : 4.1.5
Architecture    : x86_64-unknown-linux-gnu--unknown
Compiler version: GNU Fortran (GCC) 11.3.0
Compiler flags  : mpif90 -g -O2 -fallow-argument-mismatch
PP flags        : -DMPI -DFC_HAVE_FLUSH -DFC_HAVE_ABORT
Libraries       :  -I/global/software/sl-7.x86_64/modules/intel/2020.4.304/mkl/include  /globall/software/sl-7.x86_64/modules/intel/2020.4.304/mkl/lib/intel64/libmkl_scalapack_lp64.a -Wl,--start-group /global/software/sl-7.x86_64/modules/intel/2020.4.304/mkl/lib/intel64/libmkl_intel_lp64.a /global/software/sl-7.x86_64/modules/intel/2020.4.304/mkl/lib/intel64/libmkl_sequential.a /global/software/sl-7.x86_64/modules/intel/2020.4.304/mkl/lib/intel64/libmkl_core.a /global/software/sl-7.x86_64/modules/intel/2020.4.304/mkl/lib/intel64/libmkl_blacs_openmpi_lp64.a -Wl,--end-group -lpthread -lm -ldl
PARALLEL version

* Running on 12 nodes in parallel
>> Start of run:   9-NOV-2022   8:25:16

                           ***********************       
                           *  WELCOME TO SIESTA  *       
                           ***********************       

reinit: Reading from standard input
reinit: Dumped input in INPUT_TMP.83547
************************** Dump of input data file ****************************
SystemName LiC12_scf
SystemLabel LiC12_scf
NumberOfAtoms   13
NumberOfSpecies 2
%block ChemicalSpeciesLabel
1  3   Li-gga
2  6   C-gga
%endblock ChemicalSpeciesLabel
PAO.BasisSize  DZ
PAO.EnergyShift  10 meV
%block PS.Lmax
C-gga   2
Li-gga  2
%endblock PS.Lmax
LatticeConstant 1.000000 Ang
%block LatticeVectors
	4.2686000000	0.0000000000	0.0000000000
	-2.1343000000	3.6967160386	0.0000000000
	0.0000000000	0.0000000000	8.9893120000
%endblock LatticeVectors
AtomicCoordinatesFormat Ang
%block AtomicCoordinatesAndAtomicSpecies
	0.00000000	0.00000000	0.00000000	2
	1.42144380	0.00000000	2.24732800	1
	2.84715620	0.00000000	6.74198400	1
	-0.71072190	1.23100644	2.24732800	1
	-1.42357810	2.46570960	6.74198400	1
	1.42357810	2.46570960	2.24732800	1
	0.71072190	1.23100644	6.74198400	1
	2.84715620	0.00000000	2.24732800	1
	1.42144380	0.00000000	6.74198400	1
	-1.42357810	2.46570960	2.24732800	1
	-0.71072190	1.23100644	6.74198400	1
	0.71072190	1.23100644	2.24732800	1
	1.42357810	2.46570960	6.74198400	1
%endblock AtomicCoordinatesAndAtomicSpecies
Kgrid_NoTRS  T
%block kgrid_MonkhorstPack
2       0       0       0.0
0       2       0       0.0
0       0       2       0.0
%endblock kgrid_MonkhorstPack
AtomCoorFormatOut Ang
BlockSize 1
#ProcessorY 12
Diag.ParallelOverK   T
Diag.DivideAndConquer F
MeshCutoff   300 Ry
SCF.FreeE.Tolerance 1E-3 eV
SCF.EDM.Tolerance   5E-3 eV
DM.Tolerance  1E-3
DM.Require.Energy.Convergence T
DM.NumberPulay 4
XC.Functional GGA
XC.Authors    PBE
UseSaveData        F
MD.TypeOfRun       CG
MD.VariableCell    F
MD.NumCGsteps      00
MD.MaxCGDispl      0.200000 Bohr
MD.MaxStressTol    1.000000 GPa
MD.MaxForceTol     0.010000 eV/Ang
WriteMDHistory T
WriteCoorStep T
WriteForces T
WriteCoorStep    T
WriteEigenValues T
WriteDM    F
MM.UnitsDistance Ang  # what this program prints out DO NOT CHANGE
MM.UnitsEnergy    eV  # what this program prints out DO NOT CHANGE
MM.Grimme.S6     0.75 # Grimme-paper for PBE (correct for your functional)
MM.Grimme.D     20.   # Grimme-paper (correct for your functional)
%block MM.Potentials
  1   1 Grimme     16.69      1.650 # Li, 10.1002/jcc.20495
  1   2 Grimme     17.40      2.277 # Li / C
  2   2 Grimme     18.14      2.904 # C, 10.1002/jcc.20495
%endblock MM.Potentials
#%block ProjectedDensityOfStates
# -200.0  120.0  0.4  12800  eV
#%endblock ProjectedDensityOfStates
************************** End of input data file *****************************

reinit: -----------------------------------------------------------------------
reinit: System Name: LiC12_scf
reinit: -----------------------------------------------------------------------
reinit: System Label: LiC12_scf
reinit: -----------------------------------------------------------------------
Reading two-body potentials
Grimme - two-body potential between 1 and 1
Grimme - two-body potential between 1 and 2
Grimme - two-body potential between 2 and 2

initatom: Reading input for the pseudopotentials and atomic orbitals ----------
Species number:   1 Atomic number:    3 Label: Li-gga
Species number:   2 Atomic number:    6 Label: C-gga

Ground state valence configuration:   2s01
Reading pseudopotential information in formatted form from Li-gga.psf

Valence configuration for pseudopotential generation:
2s( 1.00) rc: 2.28
2p( 0.00) rc: 2.28
3d( 0.00) rc: 2.59
4f( 0.00) rc: 2.59
Ground state valence configuration:   2s02  2p02
Reading pseudopotential information in formatted form from C-gga.psf

Valence configuration for pseudopotential generation:
2s( 2.00) rc: 1.56
2p( 2.00) rc: 1.56
3d( 0.00) rc: 1.56
4f( 0.00) rc: 1.56
relmxkb: Read Max KB Ang. Momentum=    2 for species C-gga
relmxkb: Read Max KB Ang. Momentum=    2 for species Li-gga

<basis_specs>
===============================================================================
Li-gga               Z=   3    Mass=  6.9400        Charge= 0.17977+309
Lmxo=0 Lmxkb= 2    BasisType=split      Semic=F
L=0  Nsemic=0  Cnfigmx=2
          i=1  nzeta=2  polorb=0  (2s)
            splnorm:   0.15000    
               vcte:    0.0000    
               rinn:    0.0000    
               qcoe:    0.0000    
               qyuk:    0.0000    
               qwid:   0.10000E-01
                rcs:    0.0000      0.0000    
            lambdas:    1.0000      1.0000    
-------------------------------------------------------------------------------
L=0  Nkbl=1  erefs: 0.17977+309
L=1  Nkbl=1  erefs: 0.17977+309
L=2  Nkbl=1  erefs: 0.17977+309
===============================================================================
</basis_specs>

atom: Called for Li-gga                (Z =   3)

read_vps: Pseudopotential generation method:
read_vps: ATM 3.2.2 Troullier-Martins                       
Valence charge for ps generation:    1.00000

read_vps: Pseudopotential includes a core correction:
read_vps: Pseudo-core for xc-correction

xc_check: Exchange-correlation functional:
xc_check: GGA Perdew, Burke & Ernzerhof 1996
V l=0 = -2*Zval/r beyond r=  2.2278
V l=1 = -2*Zval/r beyond r=  2.2278
V l=2 = -2*Zval/r beyond r=  2.5245
All V_l potentials equal beyond r=  2.4622
This should be close to max(r_c) in ps generation
All pots = -2*Zval/r beyond r=  2.5245

VLOCAL1: 99.0% of the norm of Vloc inside      7.160 Ry
VLOCAL1: 99.9% of the norm of Vloc inside     16.318 Ry
atom: Maximum radius for 4*pi*r*r*local-pseudopot. charge    2.86079
atom: Maximum radius for r*vlocal+2*Zval:    2.43160
GHOST: No ghost state for L =  0
GHOST: No ghost state for L =  1
GHOST: No ghost state for L =  2

KBgen: Kleinman-Bylander projectors: 
   l= 0   rc=  2.654023   el= -0.211234   Ekb=  1.742119   kbcos=  0.228463
   l= 1   rc=  2.721230   el= -0.080095   Ekb= -1.122375   kbcos= -0.147941
   l= 2   rc=  2.825246   el=  0.002001   Ekb= -0.207076   kbcos= -0.031965

KBgen: Total number of Kleinman-Bylander projectors:    9
atom: -------------------------------------------------------------------------

atom: SANKEY-TYPE ORBITALS:
atom: Selected multiple-zeta basis: split     

SPLIT: Orbitals with angular momentum L= 0

SPLIT: Basis orbitals for state 2s

SPLIT: PAO cut-off radius determined from an
SPLIT: energy shift=  0.000735 Ry

   izeta = 1
                 lambda =    1.000000
                     rc =   11.897381
                 energy =   -0.210580
                kinetic =    0.143382
    potential(screened) =   -0.353962
       potential(ionic) =   -0.533453

   izeta = 2
                 rmatch =    8.489163
              splitnorm =    0.150000
                 energy =   -0.186081
                kinetic =    0.225882
    potential(screened) =   -0.411964
       potential(ionic) =   -0.593024
atom: Total number of Sankey-type orbitals:  2

atm_pop: Valence configuration (for local Pseudopot. screening):
 2s( 1.00)                                                            
Vna: chval, zval:    1.00000   1.00000

Vna:  Cut-off radius for the neutral-atom potential:  11.897381
comcore: Pseudo-core radius Rcore=  3.450946

atom: _________________________________________________________________________

<basis_specs>
===============================================================================
C-gga                Z=   6    Mass=  12.010        Charge= 0.17977+309
Lmxo=1 Lmxkb= 2    BasisType=split      Semic=F
L=0  Nsemic=0  Cnfigmx=2
          i=1  nzeta=2  polorb=0  (2s)
            splnorm:   0.15000    
               vcte:    0.0000    
               rinn:    0.0000    
               qcoe:    0.0000    
               qyuk:    0.0000    
               qwid:   0.10000E-01
                rcs:    0.0000      0.0000    
            lambdas:    1.0000      1.0000    
L=1  Nsemic=0  Cnfigmx=2
          i=1  nzeta=2  polorb=0  (2p)
            splnorm:   0.15000    
               vcte:    0.0000    
               rinn:    0.0000    
               qcoe:    0.0000    
               qyuk:    0.0000    
               qwid:   0.10000E-01
                rcs:    0.0000      0.0000    
            lambdas:    1.0000      1.0000    
-------------------------------------------------------------------------------
L=0  Nkbl=1  erefs: 0.17977+309
L=1  Nkbl=1  erefs: 0.17977+309
L=2  Nkbl=1  erefs: 0.17977+309
===============================================================================
</basis_specs>

atom: Called for C-gga                 (Z =   6)

read_vps: Pseudopotential generation method:
read_vps: ATM 3.2.2 Troullier-Martins                       
Valence charge for ps generation:    4.00000

xc_check: Exchange-correlation functional:
xc_check: GGA Perdew, Burke & Ernzerhof 1996
V l=0 = -2*Zval/r beyond r=  1.5227
V l=1 = -2*Zval/r beyond r=  1.5227
V l=2 = -2*Zval/r beyond r=  1.5227
All V_l potentials equal beyond r=  1.4851
This should be close to max(r_c) in ps generation
All pots = -2*Zval/r beyond r=  1.5227

VLOCAL1: 99.0% of the norm of Vloc inside     19.682 Ry
VLOCAL1: 99.9% of the norm of Vloc inside     44.856 Ry
atom: Maximum radius for 4*pi*r*r*local-pseudopot. charge    1.79142
atom: Maximum radius for r*vlocal+2*Zval:    1.54183
GHOST: No ghost state for L =  0
GHOST: No ghost state for L =  1
GHOST: No ghost state for L =  2

KBgen: Kleinman-Bylander projectors: 
   l= 0   rc=  1.661951   el= -1.010689   Ekb=  5.289847   kbcos=  0.316429
   l= 1   rc=  1.661951   el= -0.388490   Ekb= -4.102504   kbcos= -0.351025
   l= 2   rc=  1.747182   el=  0.001971   Ekb= -1.006005   kbcos= -0.008530

KBgen: Total number of Kleinman-Bylander projectors:    9
atom: -------------------------------------------------------------------------

atom: SANKEY-TYPE ORBITALS:
atom: Selected multiple-zeta basis: split     

SPLIT: Orbitals with angular momentum L= 0

SPLIT: Basis orbitals for state 2s

SPLIT: PAO cut-off radius determined from an
SPLIT: energy shift=  0.000735 Ry

   izeta = 1
                 lambda =    1.000000
                     rc =    5.948690
                 energy =   -1.010099
                kinetic =    0.827121
    potential(screened) =   -1.837220
       potential(ionic) =   -5.392783

   izeta = 2
                 rmatch =    3.518811
              splitnorm =    0.150000
                 energy =   -0.877891
                kinetic =    1.289227
    potential(screened) =   -2.167118
       potential(ionic) =   -5.982073

SPLIT: Orbitals with angular momentum L= 1

SPLIT: Basis orbitals for state 2p

SPLIT: PAO cut-off radius determined from an
SPLIT: energy shift=  0.000735 Ry

   izeta = 1
                 lambda =    1.000000
                     rc =    7.638387
                 energy =   -0.387843
                kinetic =    2.314739
    potential(screened) =   -2.702582
       potential(ionic) =   -6.092371

   izeta = 2
                 rmatch =    3.840617
              splitnorm =    0.150000
                 energy =   -0.270479
                kinetic =    3.438347
    potential(screened) =   -3.708826
       potential(ionic) =   -7.497707
atom: Total number of Sankey-type orbitals:  8

atm_pop: Valence configuration (for local Pseudopot. screening):
 2s( 2.00)                                                            
 2p( 2.00)                                                            
Vna: chval, zval:    4.00000   4.00000

Vna:  Cut-off radius for the neutral-atom potential:   7.638387

atom: _________________________________________________________________________

prinput: Basis input ----------------------------------------------------------

PAO.BasisType split     

%block ChemicalSpeciesLabel
    1    3 Li-gga                  # Species index, atomic number, species label
    2    6 C-gga                   # Species index, atomic number, species label
%endblock ChemicalSpeciesLabel

%block PAO.Basis                 # Define Basis set
Li-gga                1                    # Species label, number of l-shells
 n=2   0   2                         # n, l, Nzeta 
  11.897      8.489   
   1.000      1.000   
C-gga                 2                    # Species label, number of l-shells
 n=2   0   2                         # n, l, Nzeta 
   5.949      3.519   
   1.000      1.000   
 n=2   1   2                         # n, l, Nzeta 
   7.638      3.841   
   1.000      1.000   
%endblock PAO.Basis

prinput: ----------------------------------------------------------------------

coor:   Atomic-coordinates input format  =     Cartesian coordinates
coor:                                          (in Angstroms)

siesta: Atomic coordinates (Bohr) and species
siesta:      0.00000   0.00000   0.00000  2        1
siesta:      2.68614   0.00000   4.24684  1        2
siesta:      5.38035   0.00000  12.74051  1        3
siesta:     -1.34307   2.32627   4.24684  1        4
siesta:     -2.69017   4.65952  12.74051  1        5
siesta:      2.69017   4.65952   4.24684  1        6
siesta:      1.34307   2.32627  12.74051  1        7
siesta:      5.38035   0.00000   4.24684  1        8
siesta:      2.68614   0.00000  12.74051  1        9
siesta:     -2.69017   4.65952   4.24684  1       10
siesta:     -1.34307   2.32627  12.74051  1       11
siesta:      1.34307   2.32627   4.24684  1       12
siesta:      2.69017   4.65952  12.74051  1       13

siesta: System type = bulk      

initatomlists: Number of atoms, orbitals, and projectors:     13    32   117

siesta: ******************** Simulation parameters ****************************
siesta:
siesta: The following are some of the parameters of the simulation.
siesta: A complete list of the parameters used, including default values,
siesta: can be found in file out.fdf
siesta:
redata: Spin configuration                          = none
redata: Number of spin components                   = 1
redata: Time-Reversal Symmetry                      = T
redata: Spin spiral                                 = F
redata: Long output                                 =   F
redata: Number of Atomic Species                    =        2
redata: Charge density info will appear in .RHO file
redata: Write Mulliken Pop.                         = NO
redata: Matel table size (NRTAB)                    =     1024
redata: Mesh Cutoff                                 =   300.0000 Ry
redata: Net charge of the system                    =     0.0000 |e|
redata: Min. number of SCF Iter                     =        0
redata: Max. number of SCF Iter                     =     1000
redata: SCF convergence failure will abort job
redata: SCF mix quantity                            = Hamiltonian
redata: Mix DM or H after convergence               =   F
redata: Recompute H after scf cycle                 =   F
redata: Mix DM in first SCF step                    =   T
redata: Write Pulay info on disk                    =   F
redata: New DM Occupancy tolerance                  = 0.000000000001
redata: No kicks to SCF
redata: DM Mixing Weight for Kicks                  =     0.5000
redata: Require Harris convergence for SCF          =   F
redata: Harris energy tolerance for SCF             =     0.000100 eV
redata: Require DM convergence for SCF              =   T
redata: DM tolerance for SCF                        =     0.001000
redata: Require EDM convergence for SCF             =   F
redata: EDM tolerance for SCF                       =     0.005000 eV
redata: Require H convergence for SCF               =   T
redata: Hamiltonian tolerance for SCF               =     0.001000 eV
redata: Require (free) Energy convergence for SCF   =   T
redata: (free) Energy tolerance for SCF             =     0.001000 eV
redata: Using Saved Data (generic)                  =   F
redata: Use continuation files for DM               =   F
redata: Neglect nonoverlap interactions             =   F
redata: Method of Calculation                       = Diagonalization
redata: Electronic Temperature                      =   299.9869 K
redata: Fix the spin of the system                  =   F
redata: Dynamics option                             = Single-point calculation
mix.SCF: Pulay mixing                            = Pulay
mix.SCF:    Variant                              = stable
mix.SCF:    History steps                        = 4
mix.SCF:    Linear mixing weight                 =     0.250000
mix.SCF:    Mixing weight                        =     0.250000
mix.SCF:    SVD condition                        = 0.1000E-07
redata: ***********************************************************************

%block SCF.Mixers
  Pulay
%endblock SCF.Mixers

%block SCF.Mixer.Pulay
  # Mixing method
  method pulay
  variant stable

  # Mixing options
  weight 0.2500
  weight.linear 0.2500
  history 4
%endblock SCF.Mixer.Pulay

DM_history_depth set to one: no extrapolation allowed by default for geometry relaxation
Size of DM history Fstack: 1
Total number of electrons:    16.000000
Total ionic charge:    16.000000

* ProcessorY, Blocksize:    3   1


* Orbital distribution balance (max,min):     3     2

k-point displ. along   1 input, could be:     0.00    0.50
k-point displ. along   2 input, could be:     0.00    0.50
k-point displ. along   3 input, could be:     0.00    0.50
 Kpoints in:            8 . Kpoints trimmed:            8

siesta: k-grid: Number of k-points =     8
siesta: k-grid: Cutoff (effective) =     4.269 Ang
siesta: k-grid: Supercell and displacements
siesta: k-grid:    2   0   0      0.000
siesta: k-grid:    0   2   0      0.000
siesta: k-grid:    0   0   2      0.000

diag: Algorithm                                     = Expert
diag: Parallel over k                               =   T
diag: Use parallel 2D distribution                  =   T
diag: Parallel block-size                           = 1
diag: Parallel distribution                         =     3 x     4
diag: Used triangular part                          = Lower
diag: Absolute tolerance                            =  0.100E-15
diag: Orthogonalization factor                      =  0.100E-05
diag: Memory factor                                 =  1.0000

superc: Internal auxiliary supercell:     9 x     9 x     3  =     243
superc: Number of atoms, orbitals, and projectors:   3159   7776  28431


ts: **************************************************************
ts: Save H and S matrices                           =    F
ts: Save DM and EDM matrices                        =    F
ts: Only save the overlap matrix S                  =    F
ts: **************************************************************

************************ Begin: TS CHECKS AND WARNINGS ************************
************************ End: TS CHECKS AND WARNINGS **************************


                     ====================================
                        Single-point calculation
                     ====================================

outcoor: Atomic coordinates (Ang):                          
    0.00000000    0.00000000    0.00000000   2       1  C-gga
    1.42144380    0.00000000    2.24732800   1       2  Li-gga
    2.84715620    0.00000000    6.74198400   1       3  Li-gga
   -0.71072190    1.23100644    2.24732800   1       4  Li-gga
   -1.42357810    2.46570960    6.74198400   1       5  Li-gga
    1.42357810    2.46570960    2.24732800   1       6  Li-gga
    0.71072190    1.23100644    6.74198400   1       7  Li-gga
    2.84715620    0.00000000    2.24732800   1       8  Li-gga
    1.42144380    0.00000000    6.74198400   1       9  Li-gga
   -1.42357810    2.46570960    2.24732800   1      10  Li-gga
   -0.71072190    1.23100644    6.74198400   1      11  Li-gga
    0.71072190    1.23100644    2.24732800   1      12  Li-gga
    1.42357810    2.46570960    6.74198400   1      13  Li-gga

superc: Internal auxiliary supercell:     9 x     9 x     3  =     243
superc: Number of atoms, orbitals, and projectors:   3159   7776  28431

outcell: Unit cell vectors (Ang):
        4.268600    0.000000    0.000000
       -2.134300    3.696716    0.000000
        0.000000    0.000000    8.989312

outcell: Cell vector modules (Ang)   :    4.268600    4.268600    8.989312
outcell: Cell angles (23,13,12) (deg):     90.0000     90.0000    120.0000
outcell: Cell volume (Ang**3)        :    141.8496
<dSpData1D:S at geom step 0
  <sparsity:sparsity for geom step 0
    nrows_g=32 nrows=3 sparsity=5.0215 nnzs=5142, refcount: 7>
  <dData1D:(new from dSpData1D) n=5142, refcount: 1>
refcount: 1>
new_DM -- step:     1
Initializing Density Matrix...
DM filled with atomic data:
<dSpData2D:DM initialized from atoms
  <sparsity:sparsity for geom step 0
    nrows_g=32 nrows=3 sparsity=5.0215 nnzs=5142, refcount: 8>
  <dData2D:DM n=5142 m=1, refcount: 1>
refcount: 1>
No. of atoms with KB's overlaping orbs in proc 0. Max # of overlaps:     200     263
New grid distribution:   1
           1       1:   20    1:    7    1:   12
           2       1:   20    1:    7   13:   24
           3       1:   20    1:    7   25:   36
           4       1:   20    1:    7   37:   48
           5       1:   20    8:   14    1:   12
           6       1:   20    8:   14   13:   24
           7       1:   20    8:   14   25:   36
           8       1:   20    8:   14   37:   48
           9       1:   20   15:   20    1:   12
          10       1:   20   15:   20   13:   24
          11       1:   20   15:   20   25:   36
          12       1:   20   15:   20   37:   48

InitMesh: MESH =    40 x    40 x    96 =      153600
InitMesh: (bp) =    20 x    20 x    48 =       19200
InitMesh: Mesh cutoff (required, used) =   300.000   315.204 Ry
ExtMesh (bp) on 0 =   160 x   147 x   148 =     3480960
New grid distribution:   2
           1       1:   10    8:   20   25:   37
           2       1:   20    1:    7   12:   24
           3       1:   10    8:   20    1:   11
           4       1:   20    1:    7   38:   48
           5       1:   20    1:    7   25:   37
           6      11:   20    8:   20   12:   24
           7       1:   20    1:    7    1:   11
           8      11:   20    8:   20   38:   48
           9      11:   20    8:   20    1:   11
          10       1:   10    8:   20   12:   24
          11      11:   20    8:   20   25:   37
          12       1:   10    8:   20   38:   48
New grid distribution:   3
           1       1:   20    1:    7    1:   12
           2       1:   10    8:   20   13:   24
           3       1:   20    1:    7   25:   36
           4      11:   20    8:   20    1:   12
           5       1:   20    1:    7   13:   24
           6       1:   10    8:   20    1:   12
           7      11:   20    8:   20   25:   36
           8      11:   20    8:   20   37:   48
           9       1:   20    1:    7   37:   48
          10      11:   20    8:   20   13:   24
          11       1:   10    8:   20   25:   36
          12       1:   10    8:   20   37:   48
Setting up quadratic distribution...
ExtMesh (bp) on 0 =   150 x   153 x   149 =     3419550
PhiOnMesh: Number of (b)points on node 0 =                 1690
PhiOnMesh: nlist on node 0 =               218598

stepf: Fermi-Dirac step function

siesta: Program's energy decomposition (eV):
siesta: Ebs     =      -105.475036
siesta: Eions   =       380.620085
siesta: Ena     =       121.911983
siesta: Ekin    =       186.497911
siesta: Enl     =        38.885518
siesta: Eso     =         0.000000
siesta: Edftu   =         0.000000
siesta: DEna    =        -4.927476
siesta: DUscf   =        16.226255
siesta: DUext   =         0.000000
siesta: Exc     =      -158.353866
siesta: eta*DQ  =         0.000000
siesta: Emadel  =         0.000000
siesta: Emeta   =         0.000000
siesta: Emolmec =        -5.206697
siesta: Ekinion =         0.000000
siesta: Eharris =      -135.702498
siesta: Etot    =      -185.586458
siesta: FreeEng =      -185.586458

        iscf     Eharris(eV)        E_KS(eV)     FreeEng(eV)     dDmax    Ef(eV) dHmax(eV)
   scf:    1     -135.702498     -185.586458     -185.586458 19.280132 -7.448790 18.582748
timer: Routine,Calls,Time,% = IterSCF        1       0.932  20.94
   scf:    2     -172.730393     -192.082895     -192.083857 25.673765 -5.956152 10.946390
   scf:    3     -189.236672     -195.320073     -195.332790 15.146579 -6.911113  5.481501
   scf:    4     -179.198817     -191.991175     -191.992841 14.737254 -5.820920 11.196440
   scf:    5     -198.025626     -196.499979     -196.515762  5.100874 -6.673815  1.454021
   scf:    6     -196.472683     -196.486621     -196.502358  0.104763 -6.649269  1.605006
   scf:    7     -196.589899     -196.544105     -196.560504  0.755800 -6.771018  0.956162
   scf:    8     -194.125717     -195.853062     -195.874995  7.643792 -6.877486  4.035857
   scf:    9     -196.571982     -196.575294     -196.596093  6.624705 -6.833702  0.080136
   scf:   10     -196.573909     -196.574770     -196.595135  0.142921 -6.831286  0.169773
   scf:   11     -196.575054     -196.574920     -196.595406  0.035762 -6.832864  0.148727
   scf:   12     -196.574693     -196.575202     -196.596354  0.207853 -6.837290  0.010091
   scf:   13     -196.575258     -196.575231     -196.596345  0.014683 -6.837474  0.017484
   scf:   14     -196.575080     -196.575163     -196.596358  0.027524 -6.838003  0.000496
   scf:   15     -196.575172     -196.575167     -196.596358  0.001537 -6.837991  0.000469
   scf:   16     -196.575165     -196.575166     -196.596358  0.000583 -6.838030  0.000036

SCF Convergence by FreeE+DM+H criterion
|FreeE_i-FreeE_(i-1)| (eV) <     0.00100000
max |DM_out - DM_in|         :     0.0005833826
max |H_out - H_in|      (eV) :     0.0000359665
SCF cycle converged after 16 iterations

Using DM_out to compute the final energy and forces
No. of atoms with KB's overlaping orbs in proc 0. Max # of overlaps:     200     263

MM-Stress (kbar):        9.67        9.67       31.76        0.00       -0.00       -0.00

siesta: E_KS(eV) =             -196.5752

siesta: E_KS - E_eggbox =      -196.5752

siesta: Atomic forces (eV/Ang):
     1    0.000000   -0.000000    0.000000
     2   -0.443108   -0.000001   -1.221168
     3    0.443108    0.000001    1.221168
     4    0.221553   -0.383743   -1.221168
     5   -0.221553    0.383743    1.221168
     6    0.221522    0.383687   -1.221216
     7   -0.221522   -0.383687    1.221216
     8    0.443108    0.000001   -1.221168
     9   -0.443108   -0.000001    1.221168
    10   -0.221553    0.383743   -1.221168
    11    0.221553   -0.383743    1.221168
    12   -0.221522   -0.383687   -1.221216
    13    0.221522    0.383687    1.221216
----------------------------------------
   Tot   -0.000000   -0.000000    0.000000
----------------------------------------
   Max    1.221216
   Res    0.720602    sqrt( Sum f_i^2 / 3N )
----------------------------------------
   Max    1.221216    constrained

Stress tensor Voigt[x,y,z,yz,xz,xy] (kbar):    -1329.64    -1329.65      827.43        0.00       -0.00       -0.01
(Free)E + p*V (eV/cell)     -142.5353
Target enthalpy (eV/cell)     -196.5964

siesta: Eigenvalues (eV):
  ik is       eps
   1  1  -16.6471  -14.2972  -13.1135  -11.1444   -6.8247   -6.8246   -5.3330   -1.7781   -1.7780   -1.6401
          -1.6401   -0.0366    2.9358    4.3535    4.3536    6.8402    6.8405    9.8686    9.8687   16.6227
   22.2707   22.6865   22.6865   22.9157   22.9158   23.7668   33.6323   33.6323   35.9067   35.9067
   43.4230  176.8220
   2  1  -16.2411  -13.5552  -12.9421  -12.3747  -12.1780   -9.9401   -8.5779   -7.5676   -5.4734   -4.6738
          -4.3388   -3.9152   -2.1844   -1.8241    1.6677    2.4232    5.5987    6.4459   17.3899   17.3957
   18.1844   18.3052   19.0015   28.5063   42.7692   42.8212   46.5426   49.1680   50.9904   51.5722
   55.9179   59.0423
   3  1  -16.2411  -13.5552  -12.9421  -12.3747  -12.1780   -9.9401   -8.5779   -7.5676   -5.4734   -4.6738
          -4.3388   -3.9152   -2.1844   -1.8241    1.6677    2.4232    5.5987    6.4459   17.3899   17.3957
   18.1844   18.3052   19.0015   28.5063   42.7692   42.8212   46.5426   49.1680   50.9904   51.5722
   55.9179   59.0423
   4  1  -16.2411  -13.5552  -12.9421  -12.3747  -12.1780   -9.9401   -8.5779   -7.5677   -5.4733   -4.6738
          -4.3388   -3.9151   -2.1843   -1.8241    1.6677    2.4235    5.5984    6.4459   17.3899   17.3956
   18.1844   18.3052   19.0015   28.5062   42.7692   42.8212   46.5425   49.1679   50.9904   51.5722
   55.9178   59.0423
   5  1  -16.5300  -14.3164  -12.8480  -12.0130   -6.8654   -6.8653   -6.5602   -6.4293    1.6104    1.6105
           1.6508    1.6508    2.0143    2.0144    2.2446    2.2448    2.6151   10.8807   10.8809   12.0591
   14.2476   14.2476   14.2630   14.2630   14.7155   14.7156   23.5283   23.5283   23.6488   23.6678
   62.0092   62.6594
   6  1  -16.1038  -13.1342  -12.8121  -12.6002  -11.7272  -10.5257   -9.1571   -8.2941   -7.6134   -6.9022
          -6.0445   -5.2614   -3.4452   -3.3735   -2.9231   -2.6704    3.8308    4.5937    5.9665    9.9548
   10.7921   16.4899   17.0233   17.7806   17.7982   17.8029   19.2789   29.7371   63.3778   64.3819
   64.6776   69.5615
   7  1  -16.1038  -13.1342  -12.8121  -12.6002  -11.7272  -10.5257   -9.1571   -8.2941   -7.6134   -6.9022
          -6.0445   -5.2614   -3.4452   -3.3735   -2.9231   -2.6704    3.8308    4.5937    5.9665    9.9548
   10.7921   16.4899   17.0233   17.7806   17.7982   17.8029   19.2789   29.7371   63.3778   64.3819
   64.6776   69.5615
   8  1  -16.1038  -13.1342  -12.8121  -12.6002  -11.7272  -10.5257   -9.1571   -8.2941   -7.6134   -6.9022
          -6.0444   -5.2614   -3.4452   -3.3734   -2.9231   -2.6705    3.8307    4.5937    5.9662    9.9549
   10.7921   16.4899   17.0233   17.7806   17.7982   17.8029   19.2789   29.7372   63.3778   64.3819
   64.6776   69.5615
siesta: Fermi energy =      -6.838030 eV

siesta: Program's energy decomposition (eV):
siesta: Ebs     =      -182.835343
siesta: Eions   =       380.620085
siesta: Ena     =       121.911983
siesta: Ekin    =       154.244959
siesta: Enl     =        47.183199
siesta: Eso     =         0.000000
siesta: Edftu   =         0.000000
siesta: DEna    =        14.118903
siesta: DUscf   =         1.434354
siesta: DUext   =         0.000000
siesta: Exc     =      -149.641781
siesta: eta*DQ  =         0.000000
siesta: Emadel  =         0.000000
siesta: Emeta   =         0.000000
siesta: Emolmec =        -5.206697
siesta: Ekinion =         0.000000
siesta: Eharris =      -196.575165
siesta: Etot    =      -196.575166
siesta: FreeEng =      -196.596358

siesta: Final energy (eV):
siesta:  Band Struct. =    -182.835343
siesta:       Kinetic =     154.244959
siesta:       Hartree =      83.008587
siesta:       Edftu   =       0.000000
siesta:       Eso     =       0.000000
siesta:    Ext. field =       0.000000
siesta:   Exch.-corr. =    -149.641781
siesta:  Ion-electron =    -348.882968
siesta:       Ion-ion =      69.902733
siesta:       Ekinion =       0.000000
siesta:         Total =    -196.575166
siesta:         Fermi =      -6.838030

siesta: Atomic forces (eV/Ang):
siesta:      1    0.000000   -0.000000    0.000000
siesta:      2   -0.443108   -0.000001   -1.221168
siesta:      3    0.443108    0.000001    1.221168
siesta:      4    0.221553   -0.383743   -1.221168
siesta:      5   -0.221553    0.383743    1.221168
siesta:      6    0.221522    0.383687   -1.221216
siesta:      7   -0.221522   -0.383687    1.221216
siesta:      8    0.443108    0.000001   -1.221168
siesta:      9   -0.443108   -0.000001    1.221168
siesta:     10   -0.221553    0.383743   -1.221168
siesta:     11    0.221553   -0.383743    1.221168
siesta:     12   -0.221522   -0.383687   -1.221216
siesta:     13    0.221522    0.383687    1.221216
siesta: ----------------------------------------
siesta:    Tot   -0.000000   -0.000000    0.000000

siesta: Stress tensor (static) (eV/Ang**3):
siesta:    -0.829887   -0.000007   -0.000000
siesta:    -0.000007   -0.829895    0.000000
siesta:    -0.000000    0.000000    0.516435

siesta: Cell volume =        141.849564 Ang**3

siesta: Pressure (static):
siesta:                Solid            Molecule  Units
siesta:           0.00415084          0.00321096  Ry/Bohr**3
siesta:           0.38111558          0.29481970  eV/Ang**3
siesta:         610.62107357        472.35833789  kBar
(Free)E+ p_basis*V_orbitals  =        -174.663794
(Free)Eharris+ p_basis*V_orbitals  =        -174.663793

cite: Please see "LiC12_scf.bib" for an exhaustive BiBTeX file.
cite: Please clearly indicate Siesta version in published work: 4.1.5
cite: This calculation has made use of the following articles
cite: which are encouraged to be cited in a published work.
        Primary SIESTA paper
          DOI: www.doi.org/10.1088/0953-8984/14/11/302

>> End of run:   9-NOV-2022   8:25:34
Job completed
