Siesta Version  : 4.1.5
Architecture    : x86_64-unknown-linux-gnu--unknown
Compiler version: GNU Fortran (GCC) 11.3.0
Compiler flags  : mpif90 -g -O2 -fallow-argument-mismatch
PP flags        : -DMPI -DFC_HAVE_FLUSH -DFC_HAVE_ABORT
Libraries       :  -I/global/software/sl-7.x86_64/modules/intel/2020.4.304/mkl/include  /globall/software/sl-7.x86_64/modules/intel/2020.4.304/mkl/lib/intel64/libmkl_scalapack_lp64.a -Wl,--start-group /global/software/sl-7.x86_64/modules/intel/2020.4.304/mkl/lib/intel64/libmkl_intel_lp64.a /global/software/sl-7.x86_64/modules/intel/2020.4.304/mkl/lib/intel64/libmkl_sequential.a /global/software/sl-7.x86_64/modules/intel/2020.4.304/mkl/lib/intel64/libmkl_core.a /global/software/sl-7.x86_64/modules/intel/2020.4.304/mkl/lib/intel64/libmkl_blacs_openmpi_lp64.a -Wl,--end-group -lpthread -lm -ldl
PARALLEL version

* Running on 4 nodes in parallel
>> Start of run:   3-NOV-2022  14:29:51

                           ***********************       
                           *  WELCOME TO SIESTA  *       
                           ***********************       

reinit: Reading from standard input
reinit: Dumped input in INPUT_TMP.62979
************************** Dump of input data file ****************************
SystemName LiC6_scf
SystemLabel LiC6_scf
NumberOfAtoms   7
NumberOfSpecies 2
%block ChemicalSpeciesLabel
1  3   Li-gga
2  6   C-gga
%endblock ChemicalSpeciesLabel
PAO.BasisSize  SZ
PAO.EnergyShift  10 meV
%block PS.Lmax
C-gga   2
Li-gga  2
%endblock PS.Lmax
LatticeConstant 1.000000 Ang
%block LatticeVectors
	4.3161300000	0.0000000000	0.0000000000
	-2.1580650000	3.7378782260	0.0000000000
	0.0000000000	0.0000000000	4.8098180000
%endblock LatticeVectors
AtomicCoordinatesFormat Ang
%block AtomicCoordinatesAndAtomicSpecies
	0.00000000	0.00000000	0.00000000	2
	-0.70288177	1.21742694	2.40490900	1
	-1.45518323	2.52045129	2.40490900	1
	1.45518323	2.52045129	2.40490900	1
	0.70288177	1.21742694	2.40490900	1
	1.40576354	0.00000000	2.40490900	1
	2.91036646	0.00000000	2.40490900	1
%endblock AtomicCoordinatesAndAtomicSpecies
Kgrid_NoTRS  T
%block kgrid_MonkhorstPack
4       0       0       0.0
0       4       0       0.0
0       0       4       0.0
%endblock kgrid_MonkhorstPack
AtomCoorFormatOut Ang
BlockSize 1
#ProcessorY 12
Diag.ParallelOverK   T
Diag.DivideAndConquer F
MeshCutoff   300 Ry
SCF.FreeE.Tolerance 1E-3 eV
SCF.EDM.Tolerance   5E-3 eV
DM.Tolerance  1E-3
DM.Require.Energy.Convergence T
DM.NumberPulay 4
XC.Functional GGA
XC.Authors    PBE
UseSaveData        F
MD.TypeOfRun       CG
MD.VariableCell    F
MD.NumCGsteps      00
MD.MaxCGDispl      0.200000 Bohr
MD.MaxStressTol    1.000000 GPa
MD.MaxForceTol     0.010000 eV/Ang
WriteMDHistory T
WriteCoorStep T
WriteForces T
WriteCoorStep    T
WriteEigenValues T
WriteDM    F
MM.UnitsDistance Ang  # what this program prints out DO NOT CHANGE
MM.UnitsEnergy    eV  # what this program prints out DO NOT CHANGE
MM.Grimme.S6     0.75 # Grimme-paper for PBE (correct for your functional)
MM.Grimme.D     20.   # Grimme-paper (correct for your functional)
%block MM.Potentials
  1   1 Grimme     16.69      1.650 # Li, 10.1002/jcc.20495
  1   2 Grimme     17.40      2.277 # Li / C
  2   2 Grimme     18.14      2.904 # C, 10.1002/jcc.20495
%endblock MM.Potentials
#%block ProjectedDensityOfStates
# -200.0  120.0  0.4  12800  eV
#%endblock ProjectedDensityOfStates
************************** End of input data file *****************************

reinit: -----------------------------------------------------------------------
reinit: System Name: LiC6_scf
reinit: -----------------------------------------------------------------------
reinit: System Label: LiC6_scf
reinit: -----------------------------------------------------------------------
Reading two-body potentials
Grimme - two-body potential between 1 and 1
Grimme - two-body potential between 1 and 2
Grimme - two-body potential between 2 and 2

initatom: Reading input for the pseudopotentials and atomic orbitals ----------
Species number:   1 Atomic number:    3 Label: Li-gga
Species number:   2 Atomic number:    6 Label: C-gga

Ground state valence configuration:   2s01
Reading pseudopotential information in formatted form from Li-gga.psf

Valence configuration for pseudopotential generation:
2s( 1.00) rc: 2.28
2p( 0.00) rc: 2.28
3d( 0.00) rc: 2.59
4f( 0.00) rc: 2.59
Ground state valence configuration:   2s02  2p02
Reading pseudopotential information in formatted form from C-gga.psf

Valence configuration for pseudopotential generation:
2s( 2.00) rc: 1.56
2p( 2.00) rc: 1.56
3d( 0.00) rc: 1.56
4f( 0.00) rc: 1.56
relmxkb: Read Max KB Ang. Momentum=    2 for species C-gga
relmxkb: Read Max KB Ang. Momentum=    2 for species Li-gga

<basis_specs>
===============================================================================
Li-gga               Z=   3    Mass=  6.9400        Charge= 0.17977+309
Lmxo=0 Lmxkb= 2    BasisType=split      Semic=F
L=0  Nsemic=0  Cnfigmx=2
          i=1  nzeta=1  polorb=0  (2s)
            splnorm:   0.15000    
               vcte:    0.0000    
               rinn:    0.0000    
               qcoe:    0.0000    
               qyuk:    0.0000    
               qwid:   0.10000E-01
                rcs:    0.0000    
            lambdas:    1.0000    
-------------------------------------------------------------------------------
L=0  Nkbl=1  erefs: 0.17977+309
L=1  Nkbl=1  erefs: 0.17977+309
L=2  Nkbl=1  erefs: 0.17977+309
===============================================================================
</basis_specs>

atom: Called for Li-gga                (Z =   3)

read_vps: Pseudopotential generation method:
read_vps: ATM 3.2.2 Troullier-Martins                       
Valence charge for ps generation:    1.00000

read_vps: Pseudopotential includes a core correction:
read_vps: Pseudo-core for xc-correction

xc_check: Exchange-correlation functional:
xc_check: GGA Perdew, Burke & Ernzerhof 1996
V l=0 = -2*Zval/r beyond r=  2.2278
V l=1 = -2*Zval/r beyond r=  2.2278
V l=2 = -2*Zval/r beyond r=  2.5245
All V_l potentials equal beyond r=  2.4622
This should be close to max(r_c) in ps generation
All pots = -2*Zval/r beyond r=  2.5245

VLOCAL1: 99.0% of the norm of Vloc inside      7.160 Ry
VLOCAL1: 99.9% of the norm of Vloc inside     16.318 Ry
atom: Maximum radius for 4*pi*r*r*local-pseudopot. charge    2.86079
atom: Maximum radius for r*vlocal+2*Zval:    2.43160
GHOST: No ghost state for L =  0
GHOST: No ghost state for L =  1
GHOST: No ghost state for L =  2

KBgen: Kleinman-Bylander projectors: 
   l= 0   rc=  2.654023   el= -0.211234   Ekb=  1.742119   kbcos=  0.228463
   l= 1   rc=  2.721230   el= -0.080095   Ekb= -1.122375   kbcos= -0.147941
   l= 2   rc=  2.825246   el=  0.002001   Ekb= -0.207076   kbcos= -0.031965

KBgen: Total number of Kleinman-Bylander projectors:    9
atom: -------------------------------------------------------------------------

atom: SANKEY-TYPE ORBITALS:

SPLIT: Orbitals with angular momentum L= 0

SPLIT: Basis orbitals for state 2s

SPLIT: PAO cut-off radius determined from an
SPLIT: energy shift=  0.000735 Ry

   izeta = 1
                 lambda =    1.000000
                     rc =   11.897381
                 energy =   -0.210580
                kinetic =    0.143382
    potential(screened) =   -0.353962
       potential(ionic) =   -0.533453
atom: Total number of Sankey-type orbitals:  1

atm_pop: Valence configuration (for local Pseudopot. screening):
 2s( 1.00)                                                            
Vna: chval, zval:    1.00000   1.00000

Vna:  Cut-off radius for the neutral-atom potential:  11.897381
comcore: Pseudo-core radius Rcore=  3.450946

atom: _________________________________________________________________________

<basis_specs>
===============================================================================
C-gga                Z=   6    Mass=  12.010        Charge= 0.17977+309
Lmxo=1 Lmxkb= 2    BasisType=split      Semic=F
L=0  Nsemic=0  Cnfigmx=2
          i=1  nzeta=1  polorb=0  (2s)
            splnorm:   0.15000    
               vcte:    0.0000    
               rinn:    0.0000    
               qcoe:    0.0000    
               qyuk:    0.0000    
               qwid:   0.10000E-01
                rcs:    0.0000    
            lambdas:    1.0000    
L=1  Nsemic=0  Cnfigmx=2
          i=1  nzeta=1  polorb=0  (2p)
            splnorm:   0.15000    
               vcte:    0.0000    
               rinn:    0.0000    
               qcoe:    0.0000    
               qyuk:    0.0000    
               qwid:   0.10000E-01
                rcs:    0.0000    
            lambdas:    1.0000    
-------------------------------------------------------------------------------
L=0  Nkbl=1  erefs: 0.17977+309
L=1  Nkbl=1  erefs: 0.17977+309
L=2  Nkbl=1  erefs: 0.17977+309
===============================================================================
</basis_specs>

atom: Called for C-gga                 (Z =   6)

read_vps: Pseudopotential generation method:
read_vps: ATM 3.2.2 Troullier-Martins                       
Valence charge for ps generation:    4.00000

xc_check: Exchange-correlation functional:
xc_check: GGA Perdew, Burke & Ernzerhof 1996
V l=0 = -2*Zval/r beyond r=  1.5227
V l=1 = -2*Zval/r beyond r=  1.5227
V l=2 = -2*Zval/r beyond r=  1.5227
All V_l potentials equal beyond r=  1.4851
This should be close to max(r_c) in ps generation
All pots = -2*Zval/r beyond r=  1.5227

VLOCAL1: 99.0% of the norm of Vloc inside     19.682 Ry
VLOCAL1: 99.9% of the norm of Vloc inside     44.856 Ry
atom: Maximum radius for 4*pi*r*r*local-pseudopot. charge    1.79142
atom: Maximum radius for r*vlocal+2*Zval:    1.54183
GHOST: No ghost state for L =  0
GHOST: No ghost state for L =  1
GHOST: No ghost state for L =  2

KBgen: Kleinman-Bylander projectors: 
   l= 0   rc=  1.661951   el= -1.010689   Ekb=  5.289847   kbcos=  0.316429
   l= 1   rc=  1.661951   el= -0.388490   Ekb= -4.102504   kbcos= -0.351025
   l= 2   rc=  1.747182   el=  0.001971   Ekb= -1.006005   kbcos= -0.008530

KBgen: Total number of Kleinman-Bylander projectors:    9
atom: -------------------------------------------------------------------------

atom: SANKEY-TYPE ORBITALS:

SPLIT: Orbitals with angular momentum L= 0

SPLIT: Basis orbitals for state 2s

SPLIT: PAO cut-off radius determined from an
SPLIT: energy shift=  0.000735 Ry

   izeta = 1
                 lambda =    1.000000
                     rc =    5.948690
                 energy =   -1.010099
                kinetic =    0.827121
    potential(screened) =   -1.837220
       potential(ionic) =   -5.392783

SPLIT: Orbitals with angular momentum L= 1

SPLIT: Basis orbitals for state 2p

SPLIT: PAO cut-off radius determined from an
SPLIT: energy shift=  0.000735 Ry

   izeta = 1
                 lambda =    1.000000
                     rc =    7.638387
                 energy =   -0.387843
                kinetic =    2.314739
    potential(screened) =   -2.702582
       potential(ionic) =   -6.092371
atom: Total number of Sankey-type orbitals:  4

atm_pop: Valence configuration (for local Pseudopot. screening):
 2s( 2.00)                                                            
 2p( 2.00)                                                            
Vna: chval, zval:    4.00000   4.00000

Vna:  Cut-off radius for the neutral-atom potential:   7.638387

atom: _________________________________________________________________________

prinput: Basis input ----------------------------------------------------------

PAO.BasisType split     

%block ChemicalSpeciesLabel
    1    3 Li-gga                  # Species index, atomic number, species label
    2    6 C-gga                   # Species index, atomic number, species label
%endblock ChemicalSpeciesLabel

%block PAO.Basis                 # Define Basis set
Li-gga                1                    # Species label, number of l-shells
 n=2   0   1                         # n, l, Nzeta 
  11.897   
   1.000   
C-gga                 2                    # Species label, number of l-shells
 n=2   0   1                         # n, l, Nzeta 
   5.949   
   1.000   
 n=2   1   1                         # n, l, Nzeta 
   7.638   
   1.000   
%endblock PAO.Basis

prinput: ----------------------------------------------------------------------

coor:   Atomic-coordinates input format  =     Cartesian coordinates
coor:                                          (in Angstroms)

siesta: Atomic coordinates (Bohr) and species
siesta:      0.00000   0.00000   0.00000  2        1
siesta:     -1.32825   2.30060   4.54462  1        2
siesta:     -2.74990   4.76296   4.54462  1        3
siesta:      2.74990   4.76296   4.54462  1        4
siesta:      1.32825   2.30060   4.54462  1        5
siesta:      2.65651   0.00000   4.54462  1        6
siesta:      5.49980   0.00000   4.54462  1        7

siesta: System type = bulk      

initatomlists: Number of atoms, orbitals, and projectors:      7    10    63

siesta: ******************** Simulation parameters ****************************
siesta:
siesta: The following are some of the parameters of the simulation.
siesta: A complete list of the parameters used, including default values,
siesta: can be found in file out.fdf
siesta:
redata: Spin configuration                          = none
redata: Number of spin components                   = 1
redata: Time-Reversal Symmetry                      = T
redata: Spin spiral                                 = F
redata: Long output                                 =   F
redata: Number of Atomic Species                    =        2
redata: Charge density info will appear in .RHO file
redata: Write Mulliken Pop.                         = NO
redata: Matel table size (NRTAB)                    =     1024
redata: Mesh Cutoff                                 =   300.0000 Ry
redata: Net charge of the system                    =     0.0000 |e|
redata: Min. number of SCF Iter                     =        0
redata: Max. number of SCF Iter                     =     1000
redata: SCF convergence failure will abort job
redata: SCF mix quantity                            = Hamiltonian
redata: Mix DM or H after convergence               =   F
redata: Recompute H after scf cycle                 =   F
redata: Mix DM in first SCF step                    =   T
redata: Write Pulay info on disk                    =   F
redata: New DM Occupancy tolerance                  = 0.000000000001
redata: No kicks to SCF
redata: DM Mixing Weight for Kicks                  =     0.5000
redata: Require Harris convergence for SCF          =   F
redata: Harris energy tolerance for SCF             =     0.000100 eV
redata: Require DM convergence for SCF              =   T
redata: DM tolerance for SCF                        =     0.001000
redata: Require EDM convergence for SCF             =   F
redata: EDM tolerance for SCF                       =     0.005000 eV
redata: Require H convergence for SCF               =   T
redata: Hamiltonian tolerance for SCF               =     0.001000 eV
redata: Require (free) Energy convergence for SCF   =   T
redata: (free) Energy tolerance for SCF             =     0.001000 eV
redata: Using Saved Data (generic)                  =   F
redata: Use continuation files for DM               =   F
redata: Neglect nonoverlap interactions             =   F
redata: Method of Calculation                       = Diagonalization
redata: Electronic Temperature                      =   299.9869 K
redata: Fix the spin of the system                  =   F
redata: Dynamics option                             = Single-point calculation
mix.SCF: Pulay mixing                            = Pulay
mix.SCF:    Variant                              = stable
mix.SCF:    History steps                        = 4
mix.SCF:    Linear mixing weight                 =     0.250000
mix.SCF:    Mixing weight                        =     0.250000
mix.SCF:    SVD condition                        = 0.1000E-07
redata: ***********************************************************************

%block SCF.Mixers
  Pulay
%endblock SCF.Mixers

%block SCF.Mixer.Pulay
  # Mixing method
  method pulay
  variant stable

  # Mixing options
  weight 0.2500
  weight.linear 0.2500
  history 4
%endblock SCF.Mixer.Pulay

DM_history_depth set to one: no extrapolation allowed by default for geometry relaxation
Size of DM history Fstack: 1
Total number of electrons:    10.000000
Total ionic charge:    10.000000

* ProcessorY, Blocksize:    2   1


* Orbital distribution balance (max,min):     3     2

k-point displ. along   1 input, could be:     0.00    0.50
k-point displ. along   2 input, could be:     0.00    0.50
k-point displ. along   3 input, could be:     0.00    0.50
 Kpoints in:           48 . Kpoints trimmed:           44

siesta: k-grid: Number of k-points =    44
siesta: k-grid: Cutoff (effective) =     8.632 Ang
siesta: k-grid: Supercell and displacements
siesta: k-grid:    4   0   0      0.000
siesta: k-grid:    0   4   0      0.000
siesta: k-grid:    0   0   4      0.000

diag: Algorithm                                     = Expert
diag: Parallel over k                               =   T
diag: Use parallel 2D distribution                  =   T
diag: Parallel block-size                           = 1
diag: Parallel distribution                         =     2 x     2
diag: Used triangular part                          = Lower
diag: Absolute tolerance                            =  0.100E-15
diag: Orthogonalization factor                      =  0.100E-05
diag: Memory factor                                 =  1.0000

superc: Internal auxiliary supercell:     9 x     9 x     5  =     405
superc: Number of atoms, orbitals, and projectors:   2835   4050  25515


ts: **************************************************************
ts: Save H and S matrices                           =    F
ts: Save DM and EDM matrices                        =    F
ts: Only save the overlap matrix S                  =    F
ts: **************************************************************

************************ Begin: TS CHECKS AND WARNINGS ************************
************************ End: TS CHECKS AND WARNINGS **************************


                     ====================================
                        Single-point calculation
                     ====================================

outcoor: Atomic coordinates (Ang):                          
    0.00000000    0.00000000    0.00000000   2       1  C-gga
   -0.70288177    1.21742694    2.40490900   1       2  Li-gga
   -1.45518323    2.52045129    2.40490900   1       3  Li-gga
    1.45518323    2.52045129    2.40490900   1       4  Li-gga
    0.70288177    1.21742694    2.40490900   1       5  Li-gga
    1.40576354    0.00000000    2.40490900   1       6  Li-gga
    2.91036646    0.00000000    2.40490900   1       7  Li-gga

superc: Internal auxiliary supercell:     9 x     9 x     5  =     405
superc: Number of atoms, orbitals, and projectors:   2835   4050  25515

outcell: Unit cell vectors (Ang):
        4.316130    0.000000    0.000000
       -2.158065    3.737878    0.000000
        0.000000    0.000000    4.809818

outcell: Cell vector modules (Ang)   :    4.316130    4.316130    4.809818
outcell: Cell angles (23,13,12) (deg):     90.0000     90.0000    120.0000
outcell: Cell volume (Ang**3)        :     77.5976
<dSpData1D:S at geom step 0
  <sparsity:sparsity for geom step 0
    nrows_g=10 nrows=3 sparsity=32.7800 nnzs=3278, refcount: 7>
  <dData1D:(new from dSpData1D) n=3278, refcount: 1>
refcount: 1>
new_DM -- step:     1
Initializing Density Matrix...
DM filled with atomic data:
<dSpData2D:DM initialized from atoms
  <sparsity:sparsity for geom step 0
    nrows_g=10 nrows=3 sparsity=32.7800 nnzs=3278, refcount: 8>
  <dData2D:DM n=3278 m=1, refcount: 1>
refcount: 1>
No. of atoms with KB's overlaping orbs in proc 0. Max # of overlaps:     211     185
New grid distribution:   1
           1       1:   20    1:   10    1:   14
           2       1:   20    1:   10   15:   27
           3       1:   20   11:   20    1:   14
           4       1:   20   11:   20   15:   27

InitMesh: MESH =    40 x    40 x    54 =       86400
InitMesh: (bp) =    20 x    20 x    27 =       10800
InitMesh: Mesh cutoff (required, used) =   300.000   316.498 Ry
ExtMesh (bp) on 0 =   156 x   146 x   158 =     3598608
New grid distribution:   2
           1       1:   20    1:   10    1:   14
           2       1:   20    1:   10   15:   27
           3       1:   20   11:   20    1:   14
           4       1:   20   11:   20   15:   27
New grid distribution:   3
           1       1:   20    1:   10    1:   14
           2       1:   20    1:   10   15:   27
           3       1:   20   11:   20    1:   14
           4       1:   20   11:   20   15:   27
Setting up quadratic distribution...
ExtMesh (bp) on 0 =   156 x   146 x   158 =     3598608
PhiOnMesh: Number of (b)points on node 0 =                 2800
PhiOnMesh: nlist on node 0 =               271337

stepf: Fermi-Dirac step function

siesta: Program's energy decomposition (eV):
siesta: Ebs     =       -55.837522
siesta: Eions   =       321.344870
siesta: Ena     =        93.846097
siesta: Ekin    =       167.844217
siesta: Enl     =         9.625095
siesta: Eso     =         0.000000
siesta: Edftu   =         0.000000
siesta: DEna    =       -15.222485
siesta: DUscf   =        12.834690
siesta: DUext   =         0.000000
siesta: Exc     =      -105.602687
siesta: eta*DQ  =         0.000000
siesta: Emadel  =         0.000000
siesta: Emeta   =         0.000000
siesta: Emolmec =        -2.799115
siesta: Ekinion =         0.000000
siesta: Eharris =      -123.601459
siesta: Etot    =      -160.819058
siesta: FreeEng =      -160.832506

        iscf     Eharris(eV)        E_KS(eV)     FreeEng(eV)     dDmax    Ef(eV) dHmax(eV)
   scf:    1     -123.601459     -160.819058     -160.832506  0.822634 -7.997525 11.790937
timer: Routine,Calls,Time,% = IterSCF        1       0.782  23.22
   scf:    2     -171.749244     -167.441407     -167.448516  2.039989 -5.502564  3.496061
   scf:    3     -168.240579     -167.999758     -168.008108  1.363605 -4.391439  0.326620
   scf:    4     -168.003134     -168.004323     -168.011246  0.202399 -4.265459  0.182290
   scf:    5     -168.006074     -168.005453     -168.012546  0.062654 -4.358008  0.018352
   scf:    6     -168.005405     -168.005431     -168.012559  0.005159 -4.362240  0.006899
   scf:    7     -168.005387     -168.005410     -168.012561  0.003437 -4.365370  0.000985
   scf:    8     -168.005417     -168.005413     -168.012561  0.000479 -4.364982  0.000052

SCF Convergence by FreeE+DM+H criterion
|FreeE_i-FreeE_(i-1)| (eV) <     0.00100000
max |DM_out - DM_in|         :     0.0004793836
max |H_out - H_in|      (eV) :     0.0000517502
SCF cycle converged after 8 iterations

Using DM_out to compute the final energy and forces
No. of atoms with KB's overlaping orbs in proc 0. Max # of overlaps:     211     185

MM-Stress (kbar):       -4.69       -4.69       41.52        0.00       -0.00       -0.00

siesta: E_KS(eV) =             -168.0054

siesta: E_KS - E_eggbox =      -168.0054

siesta: Atomic forces (eV/Ang):
     1    0.000000    0.000000    0.000000
     2   -0.239339    0.414527   -0.000000
     3    0.239339   -0.414527   -0.000000
     4   -0.239359   -0.414582   -0.000000
     5    0.239359    0.414582   -0.000000
     6    0.478661   -0.000010   -0.000000
     7   -0.478661    0.000010   -0.000000
----------------------------------------
   Tot   -0.000000    0.000000    0.000000
----------------------------------------
   Max    0.478661
   Res    0.255865    sqrt( Sum f_i^2 / 3N )
----------------------------------------
   Max    0.478661    constrained

Stress tensor Voigt[x,y,z,yz,xz,xy] (kbar):    -1403.57    -1403.58      418.39       -0.00        0.00       -0.01
(Free)E + p*V (eV/cell)     -129.4483
Target enthalpy (eV/cell)     -168.0126

siesta: Eigenvalues (eV):
  ik is       eps
   1  1  -14.7886  -12.1273  -11.3357   -7.5159   -6.2325   -3.3806   -3.2543   17.6933   17.8783   19.3056
   2  1  -15.1881  -11.2430   -8.2740   -6.4848   -6.1944   -3.2754    1.3085    2.0329   19.7371   21.7455
   3  1  -15.1881  -11.2430   -8.2740   -6.4848   -6.1945   -3.2753    1.3084    2.0329   19.7371   21.7455
   4  1  -14.7886  -12.1273  -11.3357   -7.5159   -6.2325   -3.3807   -3.2541   17.6933   17.8783   19.3056
   5  1  -15.1881  -11.2430   -8.2740   -6.4848   -6.1944   -3.2754    1.3085    2.0329   19.7371   21.7455
   6  1  -15.4899   -9.4731   -6.7290   -4.8195   -4.8194    5.6032    5.6033   13.7436   13.7438   23.3161
   7  1  -14.7588  -12.5240   -8.8219   -6.9985   -6.2324   -3.3783   -1.9882    0.3765   18.1588   18.4210
   8  1  -14.7886  -12.1273  -11.3357   -7.5159   -6.2325   -3.3807   -3.2541   17.6933   17.8783   19.3056
   9  1  -14.7886  -12.1273  -11.3357   -7.5159   -6.2325   -3.3807   -3.2541   17.6933   17.8783   19.3056
  10  1  -14.7588  -12.5240   -8.8219   -6.9985   -6.2324   -3.3783   -1.9882    0.3765   18.1588   18.4210
  11  1  -14.7886  -12.1273  -11.3357   -7.5159   -6.2325   -3.3807   -3.2541   17.6933   17.8783   19.3056
  12  1  -14.7588  -12.5240   -8.8218   -6.9985   -6.2324   -3.3781   -1.9881    0.3763   18.1588   18.4210
  13  1  -14.4350  -12.0501  -11.1962   -9.8977   -4.3185   -4.0381   -3.4411   18.3033   18.4611   19.3035
  14  1  -14.8688  -11.3220   -9.7383   -5.6284   -5.0835   -3.9963   -0.4547    2.6398   20.2030   21.8694
  15  1  -14.8688  -11.3220   -9.7383   -5.6285   -5.0835   -3.9961   -0.4548    2.6398   20.2030   21.8694
  16  1  -14.4350  -12.0501  -11.1962   -9.8977   -4.3183   -4.0382   -3.4411   18.3034   18.4611   19.3035
  17  1  -14.8688  -11.3220   -9.7383   -5.6284   -5.0835   -3.9963   -0.4547    2.6398   20.2030   21.8694
  18  1  -15.1795  -10.8892   -5.3552   -4.5438   -4.5436    6.7365    6.7365   10.5801   10.5802   23.4104
  19  1  -14.8688  -11.3220   -9.7383   -5.6284   -5.0835   -3.9963   -0.4547    2.6398   20.2030   21.8694
  20  1  -14.4140  -12.4941  -10.2810   -6.3848   -5.7881   -4.4847   -1.4816    0.2075   17.7258   17.9994
  21  1  -14.8688  -11.3220   -9.7383   -5.6285   -5.0835   -3.9961   -0.4548    2.6398   20.2030   21.8694
  22  1  -14.8688  -11.3220   -9.7383   -5.6284   -5.0835   -3.9963   -0.4547    2.6398   20.2030   21.8694
  23  1  -14.4350  -12.0501  -11.1962   -9.8977   -4.3185   -4.0381   -3.4411   18.3033   18.4611   19.3035
  24  1  -14.4350  -12.0501  -11.1962   -9.8977   -4.3183   -4.0382   -3.4411   18.3034   18.4611   19.3035
  25  1  -14.4350  -12.0501  -11.1962   -9.8977   -4.3183   -4.0382   -3.4411   18.3034   18.4611   19.3035
  26  1  -14.4140  -12.4941  -10.2810   -6.3848   -5.7881   -4.4847   -1.4816    0.2075   17.7258   17.9994
  27  1  -14.4350  -12.0501  -11.1962   -9.8977   -4.3183   -4.0382   -3.4411   18.3034   18.4611   19.3035
  28  1  -14.4140  -12.4942  -10.2810   -6.3848   -5.7881   -4.4845   -1.4818    0.2075   17.7257   17.9994
  29  1  -13.0003  -12.9905  -11.4934  -11.0299   -5.6985   -4.9562   -1.2273   18.8434   19.0272   19.6525
  30  1  -13.6098  -13.1050  -10.0273   -5.1374   -4.3347   -3.8856   -2.9149    3.6655   21.0982   22.0007
  31  1  -13.6098  -13.1050  -10.0273   -5.1373   -4.3349   -3.8856   -2.9149    3.6656   21.0981   22.0007
  32  1  -13.0003  -12.9905  -11.4934  -11.0299   -5.6984   -4.9563   -1.2273   18.8434   19.0272   19.6525
  33  1  -13.6098  -13.1050  -10.0273   -5.1374   -4.3347   -3.8856   -2.9149    3.6655   21.0982   22.0007
  34  1  -13.9344  -13.1954   -4.1237   -4.1236   -3.6246    7.0721    7.0722    8.5251    8.5252   23.5223
  35  1  -13.6098  -13.1050  -10.0273   -5.1374   -4.3347   -3.8856   -2.9149    3.6655   21.0982   22.0007
  36  1  -12.9856  -12.8272  -12.5261   -6.0510   -4.9962   -4.5369   -4.4675    2.3820   17.3042   17.5903
  37  1  -13.6098  -13.1050  -10.0273   -5.1373   -4.3349   -3.8856   -2.9149    3.6656   21.0981   22.0007
  38  1  -13.6098  -13.1050  -10.0273   -5.1374   -4.3347   -3.8856   -2.9149    3.6655   21.0982   22.0007
  39  1  -13.0003  -12.9905  -11.4934  -11.0299   -5.6985   -4.9562   -1.2273   18.8434   19.0272   19.6525
  40  1  -13.0003  -12.9905  -11.4934  -11.0299   -5.6984   -4.9563   -1.2273   18.8434   19.0272   19.6525
  41  1  -13.0003  -12.9905  -11.4934  -11.0299   -5.6984   -4.9563   -1.2273   18.8434   19.0272   19.6525
  42  1  -12.9856  -12.8272  -12.5261   -6.0510   -4.9962   -4.5369   -4.4675    2.3820   17.3042   17.5903
  43  1  -13.0003  -12.9905  -11.4934  -11.0299   -5.6984   -4.9563   -1.2273   18.8434   19.0272   19.6525
  44  1  -12.9856  -12.8272  -12.5261   -6.0509   -4.9962   -4.5370   -4.4675    2.3820   17.3042   17.5903
siesta: Fermi energy =      -4.364982 eV

siesta: Program's energy decomposition (eV):
siesta: Ebs     =       -98.185794
siesta: Eions   =       321.344870
siesta: Ena     =        93.846097
siesta: Ekin    =       142.377038
siesta: Enl     =        21.802630
siesta: Eso     =         0.000000
siesta: Edftu   =         0.000000
siesta: DEna    =        -4.987677
siesta: DUscf   =         1.845768
siesta: DUext   =         0.000000
siesta: Exc     =       -98.745285
siesta: eta*DQ  =         0.000000
siesta: Emadel  =         0.000000
siesta: Emeta   =         0.000000
siesta: Emolmec =        -2.799115
siesta: Ekinion =         0.000000
siesta: Eharris =      -168.005417
siesta: Etot    =      -168.005413
siesta: FreeEng =      -168.012561

siesta: Final energy (eV):
siesta:  Band Struct. =     -98.185794
siesta:       Kinetic =     142.377038
siesta:       Hartree =      57.434029
siesta:       Edftu   =       0.000000
siesta:       Eso     =       0.000000
siesta:    Ext. field =       0.000000
siesta:   Exch.-corr. =     -98.745285
siesta:  Ion-electron =    -247.323223
siesta:       Ion-ion =     -18.948857
siesta:       Ekinion =       0.000000
siesta:         Total =    -168.005413
siesta:         Fermi =      -4.364982

siesta: Atomic forces (eV/Ang):
siesta:      1    0.000000    0.000000    0.000000
siesta:      2   -0.239339    0.414527   -0.000000
siesta:      3    0.239339   -0.414527   -0.000000
siesta:      4   -0.239359   -0.414582   -0.000000
siesta:      5    0.239359    0.414582   -0.000000
siesta:      6    0.478661   -0.000010   -0.000000
siesta:      7   -0.478661    0.000010   -0.000000
siesta: ----------------------------------------
siesta:    Tot   -0.000000    0.000000    0.000000

siesta: Stress tensor (static) (eV/Ang**3):
siesta:    -0.876033   -0.000006    0.000000
siesta:    -0.000006   -0.876039   -0.000000
siesta:     0.000000   -0.000000    0.261137

siesta: Cell volume =         77.597604 Ang**3

siesta: Pressure (static):
siesta:                Solid            Molecule  Units
siesta:           0.00541273          0.00551381  Ry/Bohr**3
siesta:           0.49697801          0.50625952  eV/Ang**3
siesta:         796.25516580        811.12594771  kBar
(Free)E+ p_basis*V_orbitals  =        -159.675045
(Free)Eharris+ p_basis*V_orbitals  =        -159.675049

cite: Please see "LiC6_scf.bib" for an exhaustive BiBTeX file.
cite: Please clearly indicate Siesta version in published work: 4.1.5
cite: This calculation has made use of the following articles
cite: which are encouraged to be cited in a published work.
        Primary SIESTA paper
          DOI: www.doi.org/10.1088/0953-8984/14/11/302

>> End of run:   3-NOV-2022  14:29:59
Job completed
