Siesta Version  : 4.1.5
Architecture    : x86_64-unknown-linux-gnu--unknown
Compiler version: GNU Fortran (GCC) 11.3.0
Compiler flags  : mpif90 -g -O2 -fallow-argument-mismatch
PP flags        : -DMPI -DFC_HAVE_FLUSH -DFC_HAVE_ABORT
Libraries       :  -I/global/software/sl-7.x86_64/modules/intel/2020.4.304/mkl/include  /globall/software/sl-7.x86_64/modules/intel/2020.4.304/mkl/lib/intel64/libmkl_scalapack_lp64.a -Wl,--start-group /global/software/sl-7.x86_64/modules/intel/2020.4.304/mkl/lib/intel64/libmkl_intel_lp64.a /global/software/sl-7.x86_64/modules/intel/2020.4.304/mkl/lib/intel64/libmkl_sequential.a /global/software/sl-7.x86_64/modules/intel/2020.4.304/mkl/lib/intel64/libmkl_core.a /global/software/sl-7.x86_64/modules/intel/2020.4.304/mkl/lib/intel64/libmkl_blacs_openmpi_lp64.a -Wl,--end-group -lpthread -lm -ldl
PARALLEL version

* Running on 4 nodes in parallel
>> Start of run:   3-NOV-2022  14:29:40

                           ***********************       
                           *  WELCOME TO SIESTA  *       
                           ***********************       

reinit: Reading from standard input
reinit: Dumped input in INPUT_TMP.52734
************************** Dump of input data file ****************************
SystemName LiC6_scf
SystemLabel LiC6_scf
NumberOfAtoms   7
NumberOfSpecies 2
%block ChemicalSpeciesLabel
1  3   Li-gga
2  6   C-gga
%endblock ChemicalSpeciesLabel
PAO.BasisSize  SZ
PAO.EnergyShift  10 meV
%block PS.Lmax
C-gga   2
Li-gga  2
%endblock PS.Lmax
LatticeConstant 1.000000 Ang
%block LatticeVectors
	4.3161300000	0.0000000000	0.0000000000
	-2.1580650000	3.7378782260	0.0000000000
	0.0000000000	0.0000000000	4.4398320000
%endblock LatticeVectors
AtomicCoordinatesFormat Ang
%block AtomicCoordinatesAndAtomicSpecies
	0.00000000	0.00000000	0.00000000	2
	-0.70288177	1.21742694	2.21991600	1
	-1.45518323	2.52045129	2.21991600	1
	1.45518323	2.52045129	2.21991600	1
	0.70288177	1.21742694	2.21991600	1
	1.40576354	0.00000000	2.21991600	1
	2.91036646	0.00000000	2.21991600	1
%endblock AtomicCoordinatesAndAtomicSpecies
Kgrid_NoTRS  T
%block kgrid_MonkhorstPack
4       0       0       0.0
0       4       0       0.0
0       0       4       0.0
%endblock kgrid_MonkhorstPack
AtomCoorFormatOut Ang
BlockSize 1
#ProcessorY 12
Diag.ParallelOverK   T
Diag.DivideAndConquer F
MeshCutoff   300 Ry
SCF.FreeE.Tolerance 1E-3 eV
SCF.EDM.Tolerance   5E-3 eV
DM.Tolerance  1E-3
DM.Require.Energy.Convergence T
DM.NumberPulay 4
XC.Functional GGA
XC.Authors    PBE
UseSaveData        F
MD.TypeOfRun       CG
MD.VariableCell    F
MD.NumCGsteps      00
MD.MaxCGDispl      0.200000 Bohr
MD.MaxStressTol    1.000000 GPa
MD.MaxForceTol     0.010000 eV/Ang
WriteMDHistory T
WriteCoorStep T
WriteForces T
WriteCoorStep    T
WriteEigenValues T
WriteDM    F
MM.UnitsDistance Ang  # what this program prints out DO NOT CHANGE
MM.UnitsEnergy    eV  # what this program prints out DO NOT CHANGE
MM.Grimme.S6     0.75 # Grimme-paper for PBE (correct for your functional)
MM.Grimme.D     20.   # Grimme-paper (correct for your functional)
%block MM.Potentials
  1   1 Grimme     16.69      1.650 # Li, 10.1002/jcc.20495
  1   2 Grimme     17.40      2.277 # Li / C
  2   2 Grimme     18.14      2.904 # C, 10.1002/jcc.20495
%endblock MM.Potentials
#%block ProjectedDensityOfStates
# -200.0  120.0  0.4  12800  eV
#%endblock ProjectedDensityOfStates
************************** End of input data file *****************************

reinit: -----------------------------------------------------------------------
reinit: System Name: LiC6_scf
reinit: -----------------------------------------------------------------------
reinit: System Label: LiC6_scf
reinit: -----------------------------------------------------------------------
Reading two-body potentials
Grimme - two-body potential between 1 and 1
Grimme - two-body potential between 1 and 2
Grimme - two-body potential between 2 and 2

initatom: Reading input for the pseudopotentials and atomic orbitals ----------
Species number:   1 Atomic number:    3 Label: Li-gga
Species number:   2 Atomic number:    6 Label: C-gga

Ground state valence configuration:   2s01
Reading pseudopotential information in formatted form from Li-gga.psf

Valence configuration for pseudopotential generation:
2s( 1.00) rc: 2.28
2p( 0.00) rc: 2.28
3d( 0.00) rc: 2.59
4f( 0.00) rc: 2.59
Ground state valence configuration:   2s02  2p02
Reading pseudopotential information in formatted form from C-gga.psf

Valence configuration for pseudopotential generation:
2s( 2.00) rc: 1.56
2p( 2.00) rc: 1.56
3d( 0.00) rc: 1.56
4f( 0.00) rc: 1.56
relmxkb: Read Max KB Ang. Momentum=    2 for species C-gga
relmxkb: Read Max KB Ang. Momentum=    2 for species Li-gga

<basis_specs>
===============================================================================
Li-gga               Z=   3    Mass=  6.9400        Charge= 0.17977+309
Lmxo=0 Lmxkb= 2    BasisType=split      Semic=F
L=0  Nsemic=0  Cnfigmx=2
          i=1  nzeta=1  polorb=0  (2s)
            splnorm:   0.15000    
               vcte:    0.0000    
               rinn:    0.0000    
               qcoe:    0.0000    
               qyuk:    0.0000    
               qwid:   0.10000E-01
                rcs:    0.0000    
            lambdas:    1.0000    
-------------------------------------------------------------------------------
L=0  Nkbl=1  erefs: 0.17977+309
L=1  Nkbl=1  erefs: 0.17977+309
L=2  Nkbl=1  erefs: 0.17977+309
===============================================================================
</basis_specs>

atom: Called for Li-gga                (Z =   3)

read_vps: Pseudopotential generation method:
read_vps: ATM 3.2.2 Troullier-Martins                       
Valence charge for ps generation:    1.00000

read_vps: Pseudopotential includes a core correction:
read_vps: Pseudo-core for xc-correction

xc_check: Exchange-correlation functional:
xc_check: GGA Perdew, Burke & Ernzerhof 1996
V l=0 = -2*Zval/r beyond r=  2.2278
V l=1 = -2*Zval/r beyond r=  2.2278
V l=2 = -2*Zval/r beyond r=  2.5245
All V_l potentials equal beyond r=  2.4622
This should be close to max(r_c) in ps generation
All pots = -2*Zval/r beyond r=  2.5245

VLOCAL1: 99.0% of the norm of Vloc inside      7.160 Ry
VLOCAL1: 99.9% of the norm of Vloc inside     16.318 Ry
atom: Maximum radius for 4*pi*r*r*local-pseudopot. charge    2.86079
atom: Maximum radius for r*vlocal+2*Zval:    2.43160
GHOST: No ghost state for L =  0
GHOST: No ghost state for L =  1
GHOST: No ghost state for L =  2

KBgen: Kleinman-Bylander projectors: 
   l= 0   rc=  2.654023   el= -0.211234   Ekb=  1.742119   kbcos=  0.228463
   l= 1   rc=  2.721230   el= -0.080095   Ekb= -1.122375   kbcos= -0.147941
   l= 2   rc=  2.825246   el=  0.002001   Ekb= -0.207076   kbcos= -0.031965

KBgen: Total number of Kleinman-Bylander projectors:    9
atom: -------------------------------------------------------------------------

atom: SANKEY-TYPE ORBITALS:

SPLIT: Orbitals with angular momentum L= 0

SPLIT: Basis orbitals for state 2s

SPLIT: PAO cut-off radius determined from an
SPLIT: energy shift=  0.000735 Ry

   izeta = 1
                 lambda =    1.000000
                     rc =   11.897381
                 energy =   -0.210580
                kinetic =    0.143382
    potential(screened) =   -0.353962
       potential(ionic) =   -0.533453
atom: Total number of Sankey-type orbitals:  1

atm_pop: Valence configuration (for local Pseudopot. screening):
 2s( 1.00)                                                            
Vna: chval, zval:    1.00000   1.00000

Vna:  Cut-off radius for the neutral-atom potential:  11.897381
comcore: Pseudo-core radius Rcore=  3.450946

atom: _________________________________________________________________________

<basis_specs>
===============================================================================
C-gga                Z=   6    Mass=  12.010        Charge= 0.17977+309
Lmxo=1 Lmxkb= 2    BasisType=split      Semic=F
L=0  Nsemic=0  Cnfigmx=2
          i=1  nzeta=1  polorb=0  (2s)
            splnorm:   0.15000    
               vcte:    0.0000    
               rinn:    0.0000    
               qcoe:    0.0000    
               qyuk:    0.0000    
               qwid:   0.10000E-01
                rcs:    0.0000    
            lambdas:    1.0000    
L=1  Nsemic=0  Cnfigmx=2
          i=1  nzeta=1  polorb=0  (2p)
            splnorm:   0.15000    
               vcte:    0.0000    
               rinn:    0.0000    
               qcoe:    0.0000    
               qyuk:    0.0000    
               qwid:   0.10000E-01
                rcs:    0.0000    
            lambdas:    1.0000    
-------------------------------------------------------------------------------
L=0  Nkbl=1  erefs: 0.17977+309
L=1  Nkbl=1  erefs: 0.17977+309
L=2  Nkbl=1  erefs: 0.17977+309
===============================================================================
</basis_specs>

atom: Called for C-gga                 (Z =   6)

read_vps: Pseudopotential generation method:
read_vps: ATM 3.2.2 Troullier-Martins                       
Valence charge for ps generation:    4.00000

xc_check: Exchange-correlation functional:
xc_check: GGA Perdew, Burke & Ernzerhof 1996
V l=0 = -2*Zval/r beyond r=  1.5227
V l=1 = -2*Zval/r beyond r=  1.5227
V l=2 = -2*Zval/r beyond r=  1.5227
All V_l potentials equal beyond r=  1.4851
This should be close to max(r_c) in ps generation
All pots = -2*Zval/r beyond r=  1.5227

VLOCAL1: 99.0% of the norm of Vloc inside     19.682 Ry
VLOCAL1: 99.9% of the norm of Vloc inside     44.856 Ry
atom: Maximum radius for 4*pi*r*r*local-pseudopot. charge    1.79142
atom: Maximum radius for r*vlocal+2*Zval:    1.54183
GHOST: No ghost state for L =  0
GHOST: No ghost state for L =  1
GHOST: No ghost state for L =  2

KBgen: Kleinman-Bylander projectors: 
   l= 0   rc=  1.661951   el= -1.010689   Ekb=  5.289847   kbcos=  0.316429
   l= 1   rc=  1.661951   el= -0.388490   Ekb= -4.102504   kbcos= -0.351025
   l= 2   rc=  1.747182   el=  0.001971   Ekb= -1.006005   kbcos= -0.008530

KBgen: Total number of Kleinman-Bylander projectors:    9
atom: -------------------------------------------------------------------------

atom: SANKEY-TYPE ORBITALS:

SPLIT: Orbitals with angular momentum L= 0

SPLIT: Basis orbitals for state 2s

SPLIT: PAO cut-off radius determined from an
SPLIT: energy shift=  0.000735 Ry

   izeta = 1
                 lambda =    1.000000
                     rc =    5.948690
                 energy =   -1.010099
                kinetic =    0.827121
    potential(screened) =   -1.837220
       potential(ionic) =   -5.392783

SPLIT: Orbitals with angular momentum L= 1

SPLIT: Basis orbitals for state 2p

SPLIT: PAO cut-off radius determined from an
SPLIT: energy shift=  0.000735 Ry

   izeta = 1
                 lambda =    1.000000
                     rc =    7.638387
                 energy =   -0.387843
                kinetic =    2.314739
    potential(screened) =   -2.702582
       potential(ionic) =   -6.092371
atom: Total number of Sankey-type orbitals:  4

atm_pop: Valence configuration (for local Pseudopot. screening):
 2s( 2.00)                                                            
 2p( 2.00)                                                            
Vna: chval, zval:    4.00000   4.00000

Vna:  Cut-off radius for the neutral-atom potential:   7.638387

atom: _________________________________________________________________________

prinput: Basis input ----------------------------------------------------------

PAO.BasisType split     

%block ChemicalSpeciesLabel
    1    3 Li-gga                  # Species index, atomic number, species label
    2    6 C-gga                   # Species index, atomic number, species label
%endblock ChemicalSpeciesLabel

%block PAO.Basis                 # Define Basis set
Li-gga                1                    # Species label, number of l-shells
 n=2   0   1                         # n, l, Nzeta 
  11.897   
   1.000   
C-gga                 2                    # Species label, number of l-shells
 n=2   0   1                         # n, l, Nzeta 
   5.949   
   1.000   
 n=2   1   1                         # n, l, Nzeta 
   7.638   
   1.000   
%endblock PAO.Basis

prinput: ----------------------------------------------------------------------

coor:   Atomic-coordinates input format  =     Cartesian coordinates
coor:                                          (in Angstroms)

siesta: Atomic coordinates (Bohr) and species
siesta:      0.00000   0.00000   0.00000  2        1
siesta:     -1.32825   2.30060   4.19503  1        2
siesta:     -2.74990   4.76296   4.19503  1        3
siesta:      2.74990   4.76296   4.19503  1        4
siesta:      1.32825   2.30060   4.19503  1        5
siesta:      2.65651   0.00000   4.19503  1        6
siesta:      5.49980   0.00000   4.19503  1        7

siesta: System type = bulk      

initatomlists: Number of atoms, orbitals, and projectors:      7    10    63

siesta: ******************** Simulation parameters ****************************
siesta:
siesta: The following are some of the parameters of the simulation.
siesta: A complete list of the parameters used, including default values,
siesta: can be found in file out.fdf
siesta:
redata: Spin configuration                          = none
redata: Number of spin components                   = 1
redata: Time-Reversal Symmetry                      = T
redata: Spin spiral                                 = F
redata: Long output                                 =   F
redata: Number of Atomic Species                    =        2
redata: Charge density info will appear in .RHO file
redata: Write Mulliken Pop.                         = NO
redata: Matel table size (NRTAB)                    =     1024
redata: Mesh Cutoff                                 =   300.0000 Ry
redata: Net charge of the system                    =     0.0000 |e|
redata: Min. number of SCF Iter                     =        0
redata: Max. number of SCF Iter                     =     1000
redata: SCF convergence failure will abort job
redata: SCF mix quantity                            = Hamiltonian
redata: Mix DM or H after convergence               =   F
redata: Recompute H after scf cycle                 =   F
redata: Mix DM in first SCF step                    =   T
redata: Write Pulay info on disk                    =   F
redata: New DM Occupancy tolerance                  = 0.000000000001
redata: No kicks to SCF
redata: DM Mixing Weight for Kicks                  =     0.5000
redata: Require Harris convergence for SCF          =   F
redata: Harris energy tolerance for SCF             =     0.000100 eV
redata: Require DM convergence for SCF              =   T
redata: DM tolerance for SCF                        =     0.001000
redata: Require EDM convergence for SCF             =   F
redata: EDM tolerance for SCF                       =     0.005000 eV
redata: Require H convergence for SCF               =   T
redata: Hamiltonian tolerance for SCF               =     0.001000 eV
redata: Require (free) Energy convergence for SCF   =   T
redata: (free) Energy tolerance for SCF             =     0.001000 eV
redata: Using Saved Data (generic)                  =   F
redata: Use continuation files for DM               =   F
redata: Neglect nonoverlap interactions             =   F
redata: Method of Calculation                       = Diagonalization
redata: Electronic Temperature                      =   299.9869 K
redata: Fix the spin of the system                  =   F
redata: Dynamics option                             = Single-point calculation
mix.SCF: Pulay mixing                            = Pulay
mix.SCF:    Variant                              = stable
mix.SCF:    History steps                        = 4
mix.SCF:    Linear mixing weight                 =     0.250000
mix.SCF:    Mixing weight                        =     0.250000
mix.SCF:    SVD condition                        = 0.1000E-07
redata: ***********************************************************************

%block SCF.Mixers
  Pulay
%endblock SCF.Mixers

%block SCF.Mixer.Pulay
  # Mixing method
  method pulay
  variant stable

  # Mixing options
  weight 0.2500
  weight.linear 0.2500
  history 4
%endblock SCF.Mixer.Pulay

DM_history_depth set to one: no extrapolation allowed by default for geometry relaxation
Size of DM history Fstack: 1
Total number of electrons:    10.000000
Total ionic charge:    10.000000

* ProcessorY, Blocksize:    2   1


* Orbital distribution balance (max,min):     3     2

k-point displ. along   1 input, could be:     0.00    0.50
k-point displ. along   2 input, could be:     0.00    0.50
k-point displ. along   3 input, could be:     0.00    0.50
 Kpoints in:           48 . Kpoints trimmed:           44

siesta: k-grid: Number of k-points =    44
siesta: k-grid: Cutoff (effective) =     8.632 Ang
siesta: k-grid: Supercell and displacements
siesta: k-grid:    4   0   0      0.000
siesta: k-grid:    0   4   0      0.000
siesta: k-grid:    0   0   4      0.000

diag: Algorithm                                     = Expert
diag: Parallel over k                               =   T
diag: Use parallel 2D distribution                  =   T
diag: Parallel block-size                           = 1
diag: Parallel distribution                         =     2 x     2
diag: Used triangular part                          = Lower
diag: Absolute tolerance                            =  0.100E-15
diag: Orthogonalization factor                      =  0.100E-05
diag: Memory factor                                 =  1.0000

superc: Internal auxiliary supercell:     9 x     9 x     7  =     567
superc: Number of atoms, orbitals, and projectors:   3969   5670  35721


ts: **************************************************************
ts: Save H and S matrices                           =    F
ts: Save DM and EDM matrices                        =    F
ts: Only save the overlap matrix S                  =    F
ts: **************************************************************

************************ Begin: TS CHECKS AND WARNINGS ************************
************************ End: TS CHECKS AND WARNINGS **************************


                     ====================================
                        Single-point calculation
                     ====================================

outcoor: Atomic coordinates (Ang):                          
    0.00000000    0.00000000    0.00000000   2       1  C-gga
   -0.70288177    1.21742694    2.21991600   1       2  Li-gga
   -1.45518323    2.52045129    2.21991600   1       3  Li-gga
    1.45518323    2.52045129    2.21991600   1       4  Li-gga
    0.70288177    1.21742694    2.21991600   1       5  Li-gga
    1.40576354    0.00000000    2.21991600   1       6  Li-gga
    2.91036646    0.00000000    2.21991600   1       7  Li-gga

superc: Internal auxiliary supercell:     9 x     9 x     7  =     567
superc: Number of atoms, orbitals, and projectors:   3969   5670  35721

outcell: Unit cell vectors (Ang):
        4.316130    0.000000    0.000000
       -2.158065    3.737878    0.000000
        0.000000    0.000000    4.439832

outcell: Cell vector modules (Ang)   :    4.316130    4.316130    4.439832
outcell: Cell angles (23,13,12) (deg):     90.0000     90.0000    120.0000
outcell: Cell volume (Ang**3)        :     71.6286
<dSpData1D:S at geom step 0
  <sparsity:sparsity for geom step 0
    nrows_g=10 nrows=3 sparsity=35.3800 nnzs=3538, refcount: 7>
  <dData1D:(new from dSpData1D) n=3538, refcount: 1>
refcount: 1>
new_DM -- step:     1
Initializing Density Matrix...
DM filled with atomic data:
<dSpData2D:DM initialized from atoms
  <sparsity:sparsity for geom step 0
    nrows_g=10 nrows=3 sparsity=35.3800 nnzs=3538, refcount: 8>
  <dData2D:DM n=3538 m=1, refcount: 1>
refcount: 1>
No. of atoms with KB's overlaping orbs in proc 0. Max # of overlaps:     225     197
New grid distribution:   1
           1       1:   20    1:   10    1:   12
           2       1:   20    1:   10   13:   24
           3       1:   20   11:   20    1:   12
           4       1:   20   11:   20   13:   24

InitMesh: MESH =    40 x    40 x    48 =       76800
InitMesh: (bp) =    20 x    20 x    24 =        9600
InitMesh: Mesh cutoff (required, used) =   300.000   316.498 Ry
ExtMesh (bp) on 0 =   156 x   146 x   152 =     3461952
New grid distribution:   2
           1       1:   20    1:   10    1:   12
           2       1:   20    1:   10   13:   24
           3       1:   20   11:   20    1:   12
           4       1:   20   11:   20   13:   24
New grid distribution:   3
           1       1:   20    1:   10    1:   12
           2       1:   20    1:   10   13:   24
           3       1:   20   11:   20    1:   12
           4       1:   20   11:   20   13:   24
Setting up quadratic distribution...
ExtMesh (bp) on 0 =   156 x   146 x   152 =     3461952
PhiOnMesh: Number of (b)points on node 0 =                 2400
PhiOnMesh: nlist on node 0 =               251031

stepf: Fermi-Dirac step function

siesta: Program's energy decomposition (eV):
siesta: Ebs     =       -48.220159
siesta: Eions   =       321.344870
siesta: Ena     =        92.069201
siesta: Ekin    =       181.611453
siesta: Enl     =         3.803863
siesta: Eso     =         0.000000
siesta: Edftu   =         0.000000
siesta: DEna    =       -20.779183
siesta: DUscf   =        17.434565
siesta: DUext   =         0.000000
siesta: Exc     =      -109.463097
siesta: eta*DQ  =         0.000000
siesta: Emadel  =         0.000000
siesta: Emeta   =         0.000000
siesta: Emolmec =        -2.977013
siesta: Ekinion =         0.000000
siesta: Eharris =      -114.853946
siesta: Etot    =      -159.645081
siesta: FreeEng =      -159.656275

        iscf     Eharris(eV)        E_KS(eV)     FreeEng(eV)     dDmax    Ef(eV) dHmax(eV)
   scf:    1     -114.853946     -159.645081     -159.656275  0.839291 -8.468023 13.473597
timer: Routine,Calls,Time,% = IterSCF        1       0.769  21.47
   scf:    2     -175.035906     -169.271107     -169.276970  2.342416 -5.805175  3.282288
   scf:    3     -170.055325     -169.734057     -169.739074  0.841421 -4.868682  0.886609
   scf:    4     -169.610141     -169.734479     -169.737550  0.998003 -4.380521  0.972569
   scf:    5     -169.713095     -169.762989     -169.768263  0.811025 -4.759124  0.454176
   scf:    6     -169.773716     -169.775625     -169.781055  0.355662 -4.690352  0.076333
   scf:    7     -169.774678     -169.775549     -169.781312  0.084314 -4.704607  0.043526
   scf:    8     -169.775849     -169.775721     -169.781427  0.019864 -4.701452  0.015421
   scf:    9     -169.775799     -169.775764     -169.781443  0.007948 -4.700344  0.004541
   scf:   10     -169.775788     -169.775776     -169.781444  0.003203 -4.699835  0.000014
   scf:   11     -169.775776     -169.775776     -169.781444  0.000015 -4.699833  0.000013

SCF Convergence by FreeE+DM+H criterion
|FreeE_i-FreeE_(i-1)| (eV) <     0.00100000
max |DM_out - DM_in|         :     0.0000152027
max |H_out - H_in|      (eV) :     0.0000126866
SCF cycle converged after 11 iterations

Using DM_out to compute the final energy and forces
No. of atoms with KB's overlaping orbs in proc 0. Max # of overlaps:     225     197

MM-Stress (kbar):       -1.37       -1.37       53.16        0.00        0.00        0.00

siesta: E_KS(eV) =             -169.7758

siesta: E_KS - E_eggbox =      -169.7758

siesta: Atomic forces (eV/Ang):
     1   -0.000000   -0.000000    0.000000
     2   -0.180378    0.312404   -0.000000
     3    0.180378   -0.312404   -0.000000
     4   -0.180394   -0.312452   -0.000000
     5    0.180394    0.312452   -0.000000
     6    0.360739   -0.000010   -0.000000
     7   -0.360739    0.000010   -0.000000
----------------------------------------
   Tot    0.000000   -0.000000   -0.000000
----------------------------------------
   Max    0.360739
   Res    0.192832    sqrt( Sum f_i^2 / 3N )
----------------------------------------
   Max    0.360739    constrained

Stress tensor Voigt[x,y,z,yz,xz,xy] (kbar):    -1501.70    -1501.71      528.99       -0.00       -0.00       -0.01
(Free)E + p*V (eV/cell)     -132.9072
Target enthalpy (eV/cell)     -169.7814

siesta: Eigenvalues (eV):
  ik is       eps
   1  1  -15.6321  -12.6643  -11.7875   -6.9125   -6.5921   -3.5930   -3.1776   17.5501   17.7803   19.2358
   2  1  -16.0115  -11.7080   -7.9652   -7.1544   -7.0137   -3.4038    2.1393    2.8403   19.9826   21.7588
   3  1  -16.0115  -11.7080   -7.9652   -7.1544   -7.0137   -3.4036    2.1391    2.8404   19.9825   21.7588
   4  1  -15.6321  -12.6643  -11.7875   -6.9125   -6.5921   -3.5932   -3.1774   17.5501   17.7803   19.2358
   5  1  -16.0115  -11.7080   -7.9652   -7.1544   -7.0137   -3.4038    2.1393    2.8403   19.9826   21.7588
   6  1  -16.2984   -9.3219   -7.3891   -5.6916   -5.6915    4.4405    4.4406   15.1530   15.1532   23.7056
   7  1  -15.5990  -13.0791   -8.6652   -7.7602   -6.9124   -3.3465   -1.0210    1.3729   18.1723   18.4237
   8  1  -15.6321  -12.6643  -11.7875   -6.9125   -6.5921   -3.5932   -3.1774   17.5501   17.7803   19.2358
   9  1  -15.6321  -12.6643  -11.7875   -6.9125   -6.5921   -3.5932   -3.1774   17.5501   17.7803   19.2358
  10  1  -15.5990  -13.0791   -8.6652   -7.7602   -6.9124   -3.3465   -1.0210    1.3729   18.1723   18.4237
  11  1  -15.6321  -12.6643  -11.7875   -6.9125   -6.5921   -3.5932   -3.1774   17.5501   17.7803   19.2358
  12  1  -15.5990  -13.0791   -8.6652   -7.7602   -6.9124   -3.3463   -1.0210    1.3727   18.1723   18.4237
  13  1  -15.2213  -12.4410  -11.5457  -10.0729   -4.5881   -4.4178   -2.9682   18.3322   18.4842   19.2745
  14  1  -15.6259  -11.6079  -10.0468   -6.4747   -5.4825   -4.2998    0.0890    3.6350   20.0617   21.8100
  15  1  -15.6259  -11.6080  -10.0468   -6.4747   -5.4825   -4.2997    0.0889    3.6351   20.0617   21.8100
  16  1  -15.2213  -12.4410  -11.5457  -10.0729   -4.5879   -4.4180   -2.9682   18.3322   18.4842   19.2745
  17  1  -15.6259  -11.6079  -10.0468   -6.4747   -5.4825   -4.2998    0.0890    3.6350   20.0617   21.8100
  18  1  -15.9222  -10.9600   -5.9159   -5.3848   -5.3846    6.2726    6.2727   12.3449   12.3451   23.3729
  19  1  -15.6259  -11.6079  -10.0468   -6.4747   -5.4825   -4.2998    0.0890    3.6350   20.0617   21.8100
  20  1  -15.2016  -12.8894  -10.3778   -7.1636   -6.3876   -4.6873   -0.9939    1.3363   17.6849   17.9516
  21  1  -15.6259  -11.6080  -10.0468   -6.4747   -5.4825   -4.2997    0.0889    3.6351   20.0617   21.8100
  22  1  -15.6259  -11.6079  -10.0468   -6.4747   -5.4825   -4.2998    0.0890    3.6350   20.0617   21.8100
  23  1  -15.2213  -12.4410  -11.5457  -10.0729   -4.5881   -4.4178   -2.9682   18.3322   18.4842   19.2745
  24  1  -15.2213  -12.4410  -11.5457  -10.0729   -4.5879   -4.4180   -2.9682   18.3322   18.4842   19.2745
  25  1  -15.2213  -12.4410  -11.5457  -10.0729   -4.5879   -4.4180   -2.9682   18.3322   18.4842   19.2745
  26  1  -15.2016  -12.8894  -10.3778   -7.1636   -6.3876   -4.6873   -0.9939    1.3363   17.6849   17.9516
  27  1  -15.2213  -12.4410  -11.5457  -10.0729   -4.5879   -4.4180   -2.9682   18.3322   18.4842   19.2745
  28  1  -15.2015  -12.8894  -10.3778   -7.1637   -6.3875   -4.6871   -0.9940    1.3363   17.6849   17.9516
  29  1  -13.7261  -13.2172  -11.8207  -11.2394   -6.4996   -5.7085   -0.5627   19.0337   19.1695   19.9102
  30  1  -13.8478  -13.7527  -10.5153   -5.8980   -5.0441   -4.2028   -3.1337    4.8825   20.8497   21.8972
  31  1  -13.8478  -13.7527  -10.5153   -5.8979   -5.0442   -4.2028   -3.1337    4.8825   20.8497   21.8972
  32  1  -13.7261  -13.2172  -11.8207  -11.2394   -6.4995   -5.7086   -0.5627   19.0337   19.1695   19.9102
  33  1  -13.8478  -13.7527  -10.5153   -5.8980   -5.0441   -4.2028   -3.1337    4.8825   20.8497   21.8972
  34  1  -14.0514  -13.9414   -4.8172   -4.8170   -3.9765    8.5304    8.5305   10.1292   10.1292   23.0014
  35  1  -13.8478  -13.7527  -10.5153   -5.8980   -5.0441   -4.2028   -3.1337    4.8825   20.8497   21.8972
  36  1  -13.7203  -13.1256  -12.6399   -6.8763   -5.5129   -5.2616   -4.7026    3.6515   17.2389   17.5217
  37  1  -13.8478  -13.7527  -10.5153   -5.8979   -5.0442   -4.2028   -3.1337    4.8825   20.8497   21.8972
  38  1  -13.8478  -13.7527  -10.5153   -5.8980   -5.0441   -4.2028   -3.1337    4.8825   20.8497   21.8972
  39  1  -13.7261  -13.2172  -11.8207  -11.2394   -6.4996   -5.7085   -0.5627   19.0337   19.1695   19.9102
  40  1  -13.7261  -13.2172  -11.8207  -11.2394   -6.4995   -5.7086   -0.5627   19.0337   19.1695   19.9102
  41  1  -13.7261  -13.2172  -11.8207  -11.2394   -6.4995   -5.7086   -0.5627   19.0337   19.1695   19.9102
  42  1  -13.7203  -13.1256  -12.6399   -6.8763   -5.5129   -5.2616   -4.7026    3.6515   17.2389   17.5217
  43  1  -13.7261  -13.2172  -11.8207  -11.2394   -6.4995   -5.7086   -0.5627   19.0337   19.1695   19.9102
  44  1  -13.7203  -13.1256  -12.6399   -6.8762   -5.5129   -5.2617   -4.7026    3.6515   17.2389   17.5217
siesta: Fermi energy =      -4.699833 eV

siesta: Program's energy decomposition (eV):
siesta: Ebs     =      -103.061813
siesta: Eions   =       321.344870
siesta: Ena     =        92.069201
siesta: Ekin    =       146.862589
siesta: Enl     =        20.323070
siesta: Eso     =         0.000000
siesta: Edftu   =         0.000000
siesta: DEna    =        -6.457865
siesta: DUscf   =         2.319320
siesta: DUext   =         0.000000
siesta: Exc     =      -100.570209
siesta: eta*DQ  =         0.000000
siesta: Emadel  =         0.000000
siesta: Emeta   =         0.000000
siesta: Emolmec =        -2.977013
siesta: Ekinion =         0.000000
siesta: Eharris =      -169.775776
siesta: Etot    =      -169.775776
siesta: FreeEng =      -169.781444

siesta: Final energy (eV):
siesta:  Band Struct. =    -103.061813
siesta:       Kinetic =     146.862589
siesta:       Hartree =      60.808139
siesta:       Edftu   =       0.000000
siesta:       Eso     =       0.000000
siesta:    Ext. field =       0.000000
siesta:   Exch.-corr. =    -100.570209
siesta:  Ion-electron =    -261.008616
siesta:       Ion-ion =     -12.890666
siesta:       Ekinion =       0.000000
siesta:         Total =    -169.775776
siesta:         Fermi =      -4.699833

siesta: Atomic forces (eV/Ang):
siesta:      1   -0.000000   -0.000000    0.000000
siesta:      2   -0.180378    0.312404   -0.000000
siesta:      3    0.180378   -0.312404   -0.000000
siesta:      4   -0.180394   -0.312452   -0.000000
siesta:      5    0.180394    0.312452   -0.000000
siesta:      6    0.360739   -0.000010   -0.000000
siesta:      7   -0.360739    0.000010   -0.000000
siesta: ----------------------------------------
siesta:    Tot    0.000000   -0.000000   -0.000000

siesta: Stress tensor (static) (eV/Ang**3):
siesta:    -0.937274   -0.000006   -0.000000
siesta:    -0.000006   -0.937281   -0.000000
siesta:    -0.000000   -0.000000    0.330163

siesta: Cell volume =         71.628557 Ang**3

siesta: Pressure (static):
siesta:                Solid            Molecule  Units
siesta:           0.00560680          0.00568934  Ry/Bohr**3
siesta:           0.51479753          0.52237543  eV/Ang**3
siesta:         824.80548400        836.94674956  kBar
(Free)E+ p_basis*V_orbitals  =        -161.443928
(Free)Eharris+ p_basis*V_orbitals  =        -161.443928

cite: Please see "LiC6_scf.bib" for an exhaustive BiBTeX file.
cite: Please clearly indicate Siesta version in published work: 4.1.5
cite: This calculation has made use of the following articles
cite: which are encouraged to be cited in a published work.
        Primary SIESTA paper
          DOI: www.doi.org/10.1088/0953-8984/14/11/302

>> End of run:   3-NOV-2022  14:29:50
Job completed
