Siesta Version  : 4.1.5
Architecture    : x86_64-unknown-linux-gnu--unknown
Compiler version: GNU Fortran (GCC) 11.3.0
Compiler flags  : mpif90 -g -O2 -fallow-argument-mismatch
PP flags        : -DMPI -DFC_HAVE_FLUSH -DFC_HAVE_ABORT
Libraries       :  -I/global/software/sl-7.x86_64/modules/intel/2020.4.304/mkl/include  /globall/software/sl-7.x86_64/modules/intel/2020.4.304/mkl/lib/intel64/libmkl_scalapack_lp64.a -Wl,--start-group /global/software/sl-7.x86_64/modules/intel/2020.4.304/mkl/lib/intel64/libmkl_intel_lp64.a /global/software/sl-7.x86_64/modules/intel/2020.4.304/mkl/lib/intel64/libmkl_sequential.a /global/software/sl-7.x86_64/modules/intel/2020.4.304/mkl/lib/intel64/libmkl_core.a /global/software/sl-7.x86_64/modules/intel/2020.4.304/mkl/lib/intel64/libmkl_blacs_openmpi_lp64.a -Wl,--end-group -lpthread -lm -ldl
PARALLEL version

* Running on 4 nodes in parallel
>> Start of run:   3-NOV-2022  14:27:48

                           ***********************       
                           *  WELCOME TO SIESTA  *       
                           ***********************       

reinit: Reading from standard input
reinit: Dumped input in INPUT_TMP.40194
************************** Dump of input data file ****************************
SystemName LiC6_scf
SystemLabel LiC6_scf
NumberOfAtoms   7
NumberOfSpecies 2
%block ChemicalSpeciesLabel
1  3   Li-gga
2  6   C-gga
%endblock ChemicalSpeciesLabel
PAO.BasisSize  SZ
PAO.EnergyShift  10 meV
%block PS.Lmax
C-gga   2
Li-gga  2
%endblock PS.Lmax
LatticeConstant 1.000000 Ang
%block LatticeVectors
	4.3161300000	0.0000000000	0.0000000000
	-2.1580650000	3.7378782260	0.0000000000
	0.0000000000	0.0000000000	3.6998600000
%endblock LatticeVectors
AtomicCoordinatesFormat Ang
%block AtomicCoordinatesAndAtomicSpecies
	0.00000000	0.00000000	0.00000000	2
	-0.70288177	1.21742694	1.84993000	1
	-1.45518323	2.52045129	1.84993000	1
	1.45518323	2.52045129	1.84993000	1
	0.70288177	1.21742694	1.84993000	1
	1.40576354	0.00000000	1.84993000	1
	2.91036646	0.00000000	1.84993000	1
%endblock AtomicCoordinatesAndAtomicSpecies
Kgrid_NoTRS  T
%block kgrid_MonkhorstPack
4       0       0       0.0
0       4       0       0.0
0       0       4       0.0
%endblock kgrid_MonkhorstPack
AtomCoorFormatOut Ang
BlockSize 1
#ProcessorY 12
Diag.ParallelOverK   T
Diag.DivideAndConquer F
MeshCutoff   300 Ry
SCF.FreeE.Tolerance 1E-3 eV
SCF.EDM.Tolerance   5E-3 eV
DM.Tolerance  1E-3
DM.Require.Energy.Convergence T
DM.NumberPulay 4
XC.Functional GGA
XC.Authors    PBE
UseSaveData        F
MD.TypeOfRun       CG
MD.VariableCell    F
MD.NumCGsteps      00
MD.MaxCGDispl      0.200000 Bohr
MD.MaxStressTol    1.000000 GPa
MD.MaxForceTol     0.010000 eV/Ang
WriteMDHistory T
WriteCoorStep T
WriteForces T
WriteCoorStep    T
WriteEigenValues T
WriteDM    F
MM.UnitsDistance Ang  # what this program prints out DO NOT CHANGE
MM.UnitsEnergy    eV  # what this program prints out DO NOT CHANGE
MM.Grimme.S6     0.75 # Grimme-paper for PBE (correct for your functional)
MM.Grimme.D     20.   # Grimme-paper (correct for your functional)
%block MM.Potentials
  1   1 Grimme     16.69      1.650 # Li, 10.1002/jcc.20495
  1   2 Grimme     17.40      2.277 # Li / C
  2   2 Grimme     18.14      2.904 # C, 10.1002/jcc.20495
%endblock MM.Potentials
#%block ProjectedDensityOfStates
# -200.0  120.0  0.4  12800  eV
#%endblock ProjectedDensityOfStates
************************** End of input data file *****************************

reinit: -----------------------------------------------------------------------
reinit: System Name: LiC6_scf
reinit: -----------------------------------------------------------------------
reinit: System Label: LiC6_scf
reinit: -----------------------------------------------------------------------
Reading two-body potentials
Grimme - two-body potential between 1 and 1
Grimme - two-body potential between 1 and 2
Grimme - two-body potential between 2 and 2

initatom: Reading input for the pseudopotentials and atomic orbitals ----------
Species number:   1 Atomic number:    3 Label: Li-gga
Species number:   2 Atomic number:    6 Label: C-gga

Ground state valence configuration:   2s01
Reading pseudopotential information in formatted form from Li-gga.psf

Valence configuration for pseudopotential generation:
2s( 1.00) rc: 2.28
2p( 0.00) rc: 2.28
3d( 0.00) rc: 2.59
4f( 0.00) rc: 2.59
Ground state valence configuration:   2s02  2p02
Reading pseudopotential information in formatted form from C-gga.psf

Valence configuration for pseudopotential generation:
2s( 2.00) rc: 1.56
2p( 2.00) rc: 1.56
3d( 0.00) rc: 1.56
4f( 0.00) rc: 1.56
relmxkb: Read Max KB Ang. Momentum=    2 for species C-gga
relmxkb: Read Max KB Ang. Momentum=    2 for species Li-gga

<basis_specs>
===============================================================================
Li-gga               Z=   3    Mass=  6.9400        Charge= 0.17977+309
Lmxo=0 Lmxkb= 2    BasisType=split      Semic=F
L=0  Nsemic=0  Cnfigmx=2
          i=1  nzeta=1  polorb=0  (2s)
            splnorm:   0.15000    
               vcte:    0.0000    
               rinn:    0.0000    
               qcoe:    0.0000    
               qyuk:    0.0000    
               qwid:   0.10000E-01
                rcs:    0.0000    
            lambdas:    1.0000    
-------------------------------------------------------------------------------
L=0  Nkbl=1  erefs: 0.17977+309
L=1  Nkbl=1  erefs: 0.17977+309
L=2  Nkbl=1  erefs: 0.17977+309
===============================================================================
</basis_specs>

atom: Called for Li-gga                (Z =   3)

read_vps: Pseudopotential generation method:
read_vps: ATM 3.2.2 Troullier-Martins                       
Valence charge for ps generation:    1.00000

read_vps: Pseudopotential includes a core correction:
read_vps: Pseudo-core for xc-correction

xc_check: Exchange-correlation functional:
xc_check: GGA Perdew, Burke & Ernzerhof 1996
V l=0 = -2*Zval/r beyond r=  2.2278
V l=1 = -2*Zval/r beyond r=  2.2278
V l=2 = -2*Zval/r beyond r=  2.5245
All V_l potentials equal beyond r=  2.4622
This should be close to max(r_c) in ps generation
All pots = -2*Zval/r beyond r=  2.5245

VLOCAL1: 99.0% of the norm of Vloc inside      7.160 Ry
VLOCAL1: 99.9% of the norm of Vloc inside     16.318 Ry
atom: Maximum radius for 4*pi*r*r*local-pseudopot. charge    2.86079
atom: Maximum radius for r*vlocal+2*Zval:    2.43160
GHOST: No ghost state for L =  0
GHOST: No ghost state for L =  1
GHOST: No ghost state for L =  2

KBgen: Kleinman-Bylander projectors: 
   l= 0   rc=  2.654023   el= -0.211234   Ekb=  1.742119   kbcos=  0.228463
   l= 1   rc=  2.721230   el= -0.080095   Ekb= -1.122375   kbcos= -0.147941
   l= 2   rc=  2.825246   el=  0.002001   Ekb= -0.207076   kbcos= -0.031965

KBgen: Total number of Kleinman-Bylander projectors:    9
atom: -------------------------------------------------------------------------

atom: SANKEY-TYPE ORBITALS:

SPLIT: Orbitals with angular momentum L= 0

SPLIT: Basis orbitals for state 2s

SPLIT: PAO cut-off radius determined from an
SPLIT: energy shift=  0.000735 Ry

   izeta = 1
                 lambda =    1.000000
                     rc =   11.897381
                 energy =   -0.210580
                kinetic =    0.143382
    potential(screened) =   -0.353962
       potential(ionic) =   -0.533453
atom: Total number of Sankey-type orbitals:  1

atm_pop: Valence configuration (for local Pseudopot. screening):
 2s( 1.00)                                                            
Vna: chval, zval:    1.00000   1.00000

Vna:  Cut-off radius for the neutral-atom potential:  11.897381
comcore: Pseudo-core radius Rcore=  3.450946

atom: _________________________________________________________________________

<basis_specs>
===============================================================================
C-gga                Z=   6    Mass=  12.010        Charge= 0.17977+309
Lmxo=1 Lmxkb= 2    BasisType=split      Semic=F
L=0  Nsemic=0  Cnfigmx=2
          i=1  nzeta=1  polorb=0  (2s)
            splnorm:   0.15000    
               vcte:    0.0000    
               rinn:    0.0000    
               qcoe:    0.0000    
               qyuk:    0.0000    
               qwid:   0.10000E-01
                rcs:    0.0000    
            lambdas:    1.0000    
L=1  Nsemic=0  Cnfigmx=2
          i=1  nzeta=1  polorb=0  (2p)
            splnorm:   0.15000    
               vcte:    0.0000    
               rinn:    0.0000    
               qcoe:    0.0000    
               qyuk:    0.0000    
               qwid:   0.10000E-01
                rcs:    0.0000    
            lambdas:    1.0000    
-------------------------------------------------------------------------------
L=0  Nkbl=1  erefs: 0.17977+309
L=1  Nkbl=1  erefs: 0.17977+309
L=2  Nkbl=1  erefs: 0.17977+309
===============================================================================
</basis_specs>

atom: Called for C-gga                 (Z =   6)

read_vps: Pseudopotential generation method:
read_vps: ATM 3.2.2 Troullier-Martins                       
Valence charge for ps generation:    4.00000

xc_check: Exchange-correlation functional:
xc_check: GGA Perdew, Burke & Ernzerhof 1996
V l=0 = -2*Zval/r beyond r=  1.5227
V l=1 = -2*Zval/r beyond r=  1.5227
V l=2 = -2*Zval/r beyond r=  1.5227
All V_l potentials equal beyond r=  1.4851
This should be close to max(r_c) in ps generation
All pots = -2*Zval/r beyond r=  1.5227

VLOCAL1: 99.0% of the norm of Vloc inside     19.682 Ry
VLOCAL1: 99.9% of the norm of Vloc inside     44.856 Ry
atom: Maximum radius for 4*pi*r*r*local-pseudopot. charge    1.79142
atom: Maximum radius for r*vlocal+2*Zval:    1.54183
GHOST: No ghost state for L =  0
GHOST: No ghost state for L =  1
GHOST: No ghost state for L =  2

KBgen: Kleinman-Bylander projectors: 
   l= 0   rc=  1.661951   el= -1.010689   Ekb=  5.289847   kbcos=  0.316429
   l= 1   rc=  1.661951   el= -0.388490   Ekb= -4.102504   kbcos= -0.351025
   l= 2   rc=  1.747182   el=  0.001971   Ekb= -1.006005   kbcos= -0.008530

KBgen: Total number of Kleinman-Bylander projectors:    9
atom: -------------------------------------------------------------------------

atom: SANKEY-TYPE ORBITALS:

SPLIT: Orbitals with angular momentum L= 0

SPLIT: Basis orbitals for state 2s

SPLIT: PAO cut-off radius determined from an
SPLIT: energy shift=  0.000735 Ry

   izeta = 1
                 lambda =    1.000000
                     rc =    5.948690
                 energy =   -1.010099
                kinetic =    0.827121
    potential(screened) =   -1.837220
       potential(ionic) =   -5.392783

SPLIT: Orbitals with angular momentum L= 1

SPLIT: Basis orbitals for state 2p

SPLIT: PAO cut-off radius determined from an
SPLIT: energy shift=  0.000735 Ry

   izeta = 1
                 lambda =    1.000000
                     rc =    7.638387
                 energy =   -0.387843
                kinetic =    2.314739
    potential(screened) =   -2.702582
       potential(ionic) =   -6.092371
atom: Total number of Sankey-type orbitals:  4

atm_pop: Valence configuration (for local Pseudopot. screening):
 2s( 2.00)                                                            
 2p( 2.00)                                                            
Vna: chval, zval:    4.00000   4.00000

Vna:  Cut-off radius for the neutral-atom potential:   7.638387

atom: _________________________________________________________________________

prinput: Basis input ----------------------------------------------------------

PAO.BasisType split     

%block ChemicalSpeciesLabel
    1    3 Li-gga                  # Species index, atomic number, species label
    2    6 C-gga                   # Species index, atomic number, species label
%endblock ChemicalSpeciesLabel

%block PAO.Basis                 # Define Basis set
Li-gga                1                    # Species label, number of l-shells
 n=2   0   1                         # n, l, Nzeta 
  11.897   
   1.000   
C-gga                 2                    # Species label, number of l-shells
 n=2   0   1                         # n, l, Nzeta 
   5.949   
   1.000   
 n=2   1   1                         # n, l, Nzeta 
   7.638   
   1.000   
%endblock PAO.Basis

prinput: ----------------------------------------------------------------------

coor:   Atomic-coordinates input format  =     Cartesian coordinates
coor:                                          (in Angstroms)

siesta: Atomic coordinates (Bohr) and species
siesta:      0.00000   0.00000   0.00000  2        1
siesta:     -1.32825   2.30060   3.49586  1        2
siesta:     -2.74990   4.76296   3.49586  1        3
siesta:      2.74990   4.76296   3.49586  1        4
siesta:      1.32825   2.30060   3.49586  1        5
siesta:      2.65651   0.00000   3.49586  1        6
siesta:      5.49980   0.00000   3.49586  1        7

siesta: System type = bulk      

initatomlists: Number of atoms, orbitals, and projectors:      7    10    63

siesta: ******************** Simulation parameters ****************************
siesta:
siesta: The following are some of the parameters of the simulation.
siesta: A complete list of the parameters used, including default values,
siesta: can be found in file out.fdf
siesta:
redata: Spin configuration                          = none
redata: Number of spin components                   = 1
redata: Time-Reversal Symmetry                      = T
redata: Spin spiral                                 = F
redata: Long output                                 =   F
redata: Number of Atomic Species                    =        2
redata: Charge density info will appear in .RHO file
redata: Write Mulliken Pop.                         = NO
redata: Matel table size (NRTAB)                    =     1024
redata: Mesh Cutoff                                 =   300.0000 Ry
redata: Net charge of the system                    =     0.0000 |e|
redata: Min. number of SCF Iter                     =        0
redata: Max. number of SCF Iter                     =     1000
redata: SCF convergence failure will abort job
redata: SCF mix quantity                            = Hamiltonian
redata: Mix DM or H after convergence               =   F
redata: Recompute H after scf cycle                 =   F
redata: Mix DM in first SCF step                    =   T
redata: Write Pulay info on disk                    =   F
redata: New DM Occupancy tolerance                  = 0.000000000001
redata: No kicks to SCF
redata: DM Mixing Weight for Kicks                  =     0.5000
redata: Require Harris convergence for SCF          =   F
redata: Harris energy tolerance for SCF             =     0.000100 eV
redata: Require DM convergence for SCF              =   T
redata: DM tolerance for SCF                        =     0.001000
redata: Require EDM convergence for SCF             =   F
redata: EDM tolerance for SCF                       =     0.005000 eV
redata: Require H convergence for SCF               =   T
redata: Hamiltonian tolerance for SCF               =     0.001000 eV
redata: Require (free) Energy convergence for SCF   =   T
redata: (free) Energy tolerance for SCF             =     0.001000 eV
redata: Using Saved Data (generic)                  =   F
redata: Use continuation files for DM               =   F
redata: Neglect nonoverlap interactions             =   F
redata: Method of Calculation                       = Diagonalization
redata: Electronic Temperature                      =   299.9869 K
redata: Fix the spin of the system                  =   F
redata: Dynamics option                             = Single-point calculation
mix.SCF: Pulay mixing                            = Pulay
mix.SCF:    Variant                              = stable
mix.SCF:    History steps                        = 4
mix.SCF:    Linear mixing weight                 =     0.250000
mix.SCF:    Mixing weight                        =     0.250000
mix.SCF:    SVD condition                        = 0.1000E-07
redata: ***********************************************************************

%block SCF.Mixers
  Pulay
%endblock SCF.Mixers

%block SCF.Mixer.Pulay
  # Mixing method
  method pulay
  variant stable

  # Mixing options
  weight 0.2500
  weight.linear 0.2500
  history 4
%endblock SCF.Mixer.Pulay

DM_history_depth set to one: no extrapolation allowed by default for geometry relaxation
Size of DM history Fstack: 1
Total number of electrons:    10.000000
Total ionic charge:    10.000000

* ProcessorY, Blocksize:    2   1


* Orbital distribution balance (max,min):     3     2

k-point displ. along   1 input, could be:     0.00    0.50
k-point displ. along   2 input, could be:     0.00    0.50
k-point displ. along   3 input, could be:     0.00    0.50
 Kpoints in:           48 . Kpoints trimmed:           44

siesta: k-grid: Number of k-points =    44
siesta: k-grid: Cutoff (effective) =     7.400 Ang
siesta: k-grid: Supercell and displacements
siesta: k-grid:    4   0   0      0.000
siesta: k-grid:    0   4   0      0.000
siesta: k-grid:    0   0   4      0.000

diag: Algorithm                                     = Expert
diag: Parallel over k                               =   T
diag: Use parallel 2D distribution                  =   T
diag: Parallel block-size                           = 1
diag: Parallel distribution                         =     2 x     2
diag: Used triangular part                          = Lower
diag: Absolute tolerance                            =  0.100E-15
diag: Orthogonalization factor                      =  0.100E-05
diag: Memory factor                                 =  1.0000

superc: Internal auxiliary supercell:     9 x     9 x     9  =     729
superc: Number of atoms, orbitals, and projectors:   5103   7290  45927


ts: **************************************************************
ts: Save H and S matrices                           =    F
ts: Save DM and EDM matrices                        =    F
ts: Only save the overlap matrix S                  =    F
ts: **************************************************************

************************ Begin: TS CHECKS AND WARNINGS ************************
************************ End: TS CHECKS AND WARNINGS **************************


                     ====================================
                        Single-point calculation
                     ====================================

outcoor: Atomic coordinates (Ang):                          
    0.00000000    0.00000000    0.00000000   2       1  C-gga
   -0.70288177    1.21742694    1.84993000   1       2  Li-gga
   -1.45518323    2.52045129    1.84993000   1       3  Li-gga
    1.45518323    2.52045129    1.84993000   1       4  Li-gga
    0.70288177    1.21742694    1.84993000   1       5  Li-gga
    1.40576354    0.00000000    1.84993000   1       6  Li-gga
    2.91036646    0.00000000    1.84993000   1       7  Li-gga

superc: Internal auxiliary supercell:     9 x     9 x     9  =     729
superc: Number of atoms, orbitals, and projectors:   5103   7290  45927

outcell: Unit cell vectors (Ang):
        4.316130    0.000000    0.000000
       -2.158065    3.737878    0.000000
        0.000000    0.000000    3.699860

outcell: Cell vector modules (Ang)   :    4.316130    4.316130    3.699860
outcell: Cell angles (23,13,12) (deg):     90.0000     90.0000    120.0000
outcell: Cell volume (Ang**3)        :     59.6905
<dSpData1D:S at geom step 0
  <sparsity:sparsity for geom step 0
    nrows_g=10 nrows=3 sparsity=47.1200 nnzs=4712, refcount: 7>
  <dData1D:(new from dSpData1D) n=4712, refcount: 1>
refcount: 1>
new_DM -- step:     1
Initializing Density Matrix...
DM filled with atomic data:
<dSpData2D:DM initialized from atoms
  <sparsity:sparsity for geom step 0
    nrows_g=10 nrows=3 sparsity=47.1200 nnzs=4712, refcount: 8>
  <dData2D:DM n=4712 m=1, refcount: 1>
refcount: 1>
No. of atoms with KB's overlaping orbs in proc 0. Max # of overlaps:     279     245
New grid distribution:   1
           1       1:   20    1:   10    1:   10
           2       1:   20    1:   10   11:   20
           3       1:   20   11:   20    1:   10
           4       1:   20   11:   20   11:   20

InitMesh: MESH =    40 x    40 x    40 =       64000
InitMesh: (bp) =    20 x    20 x    20 =        8000
InitMesh: Mesh cutoff (required, used) =   300.000   316.498 Ry
ExtMesh (bp) on 0 =   156 x   146 x   150 =     3416400
New grid distribution:   2
           1       1:   20    1:   10    1:   10
           2       1:   20    1:   10   11:   20
           3       1:   20   11:   20    1:   10
           4       1:   20   11:   20   11:   20
New grid distribution:   3
           1       1:   20    1:   10    1:   10
           2       1:   20    1:   10   11:   20
           3       1:   20   11:   20    1:   10
           4       1:   20   11:   20   11:   20
Setting up quadratic distribution...
ExtMesh (bp) on 0 =   156 x   146 x   150 =     3416400
PhiOnMesh: Number of (b)points on node 0 =                 2000
PhiOnMesh: nlist on node 0 =               251669

stepf: Fermi-Dirac step function

siesta: Program's energy decomposition (eV):
siesta: Ebs     =       -53.767649
siesta: Eions   =       321.344870
siesta: Ena     =        86.786586
siesta: Ekin    =       205.333185
siesta: Enl     =        -2.669386
siesta: Eso     =         0.000000
siesta: Edftu   =         0.000000
siesta: DEna    =       -33.696618
siesta: DUscf   =        23.264248
siesta: DUext   =         0.000000
siesta: Exc     =      -116.323740
siesta: eta*DQ  =         0.000000
siesta: Emadel  =         0.000000
siesta: Emeta   =         0.000000
siesta: Emolmec =        -3.307427
siesta: Ekinion =         0.000000
siesta: Eharris =      -108.749864
siesta: Etot    =      -161.958021
siesta: FreeEng =      -161.968047

        iscf     Eharris(eV)        E_KS(eV)     FreeEng(eV)     dDmax    Ef(eV) dHmax(eV)
   scf:    1     -108.749864     -161.958021     -161.968047  1.512956 -9.765212 15.011555
timer: Routine,Calls,Time,% = IterSCF        1       1.035  20.89
   scf:    2     -180.346365     -172.793136     -172.802528  1.920414 -7.305403  5.099492
   scf:    3     -174.885059     -174.190161     -174.199394  1.760669 -5.687327  0.382110
   scf:    4     -174.198882     -174.197459     -174.206408  0.183216 -5.497554  0.144102
   scf:    5     -174.198406     -174.197937     -174.206560  0.007216 -5.521393  0.131320
   scf:    6     -174.198948     -174.198719     -174.207265  0.057674 -5.597504  0.027020
   scf:    7     -174.198727     -174.198731     -174.207299  0.009478 -5.585314  0.000752
   scf:    8     -174.198732     -174.198732     -174.207299  0.000283 -5.584962  0.000008

SCF Convergence by FreeE+DM+H criterion
|FreeE_i-FreeE_(i-1)| (eV) <     0.00100000
max |DM_out - DM_in|         :     0.0002825623
max |H_out - H_in|      (eV) :     0.0000080476
SCF cycle converged after 8 iterations

Using DM_out to compute the final energy and forces
No. of atoms with KB's overlaping orbs in proc 0. Max # of overlaps:     279     245

MM-Stress (kbar):       -9.63       -9.63       14.57        0.00        0.00        0.00

siesta: E_KS(eV) =             -174.1987

siesta: E_KS - E_eggbox =      -174.1987

siesta: Atomic forces (eV/Ang):
     1    0.000000    0.000000    0.000000
     2    0.042101   -0.072883   -0.000000
     3   -0.042101    0.072883   -0.000000
     4    0.042103    0.072925   -0.000000
     5   -0.042103   -0.072925   -0.000000
     6   -0.084169    0.000019   -0.000000
     7    0.084169   -0.000018   -0.000000
----------------------------------------
   Tot    0.000000    0.000000    0.000000
----------------------------------------
   Max    0.084169
   Res    0.044997    sqrt( Sum f_i^2 / 3N )
----------------------------------------
   Max    0.084169    constrained

Stress tensor Voigt[x,y,z,yz,xz,xy] (kbar):    -1699.36    -1699.40      614.97        0.00       -0.00       -0.04
(Free)E + p*V (eV/cell)     -139.6368
Target enthalpy (eV/cell)     -174.2073

siesta: Eigenvalues (eV):
  ik is       eps
   1  1  -17.9169  -14.4787  -13.4807   -8.3612   -5.3304   -4.8070   -2.7096   17.8825   17.8834   19.4423
   2  1  -18.2445  -13.5074   -9.5396   -8.5463   -8.5178   -4.5696    1.9254    5.0076   20.8938   21.4683
   3  1  -18.2445  -13.5074   -9.5396   -8.5463   -8.5177   -4.5695    1.9251    5.0077   20.8937   21.4683
   4  1  -17.9169  -14.4788  -13.4806   -8.3612   -5.3303   -4.8072   -2.7095   17.8824   17.8834   19.4423
   5  1  -18.2445  -13.5074   -9.5396   -8.5463   -8.5178   -4.5696    1.9254    5.0076   20.8938   21.4683
   6  1  -18.5017   -9.7689   -8.7277   -8.3517   -8.3516    0.7143    0.7144   16.2841   16.2845   23.7914
   7  1  -17.8836  -14.9072  -10.1571   -9.4803   -8.3611   -3.9176    1.7806    1.9479   18.0494   18.4217
   8  1  -17.9169  -14.4788  -13.4806   -8.3612   -5.3303   -4.8072   -2.7095   17.8824   17.8834   19.4423
   9  1  -17.9169  -14.4788  -13.4806   -8.3612   -5.3303   -4.8072   -2.7095   17.8824   17.8834   19.4423
  10  1  -17.8836  -14.9072  -10.1571   -9.4803   -8.3611   -3.9176    1.7806    1.9479   18.0494   18.4217
  11  1  -17.9169  -14.4788  -13.4806   -8.3612   -5.3303   -4.8072   -2.7095   17.8824   17.8834   19.4423
  12  1  -17.8836  -14.9072  -10.1570   -9.4802   -8.3611   -3.9175    1.7806    1.9476   18.0493   18.4217
  13  1  -17.4475  -13.9948  -13.0308  -10.9175   -5.6121   -5.5253   -1.4850   18.1083   18.4374   19.0949
  14  1  -17.7879  -13.1241  -11.0372   -9.0867   -6.9890   -5.2800    1.0791    6.7626   19.7022   21.6158
  15  1  -17.7879  -13.1242  -11.0372   -9.0867   -6.9890   -5.2799    1.0789    6.7626   19.7022   21.6158
  16  1  -17.4475  -13.9949  -13.0307  -10.9175   -5.6123   -5.5252   -1.4850   18.1083   18.4373   19.0950
  17  1  -17.7879  -13.1241  -11.0372   -9.0867   -6.9890   -5.2800    1.0791    6.7626   19.7022   21.6158
  18  1  -18.0435  -11.4891   -7.9546   -7.9546   -7.7656    4.0430    4.0431   16.8415   16.8417   23.1263
  19  1  -17.7879  -13.1241  -11.0372   -9.0867   -6.9890   -5.2800    1.0791    6.7626   19.7022   21.6158
  20  1  -17.4227  -14.4164  -11.0607   -9.6667   -8.1995   -5.4016    0.1663    4.7676   17.5065   17.7730
  21  1  -17.7879  -13.1242  -11.0372   -9.0867   -6.9890   -5.2799    1.0789    6.7626   19.7022   21.6158
  22  1  -17.7879  -13.1241  -11.0372   -9.0867   -6.9890   -5.2800    1.0791    6.7626   19.7022   21.6158
  23  1  -17.4475  -13.9948  -13.0308  -10.9175   -5.6121   -5.5253   -1.4850   18.1083   18.4374   19.0949
  24  1  -17.4475  -13.9949  -13.0307  -10.9175   -5.6123   -5.5252   -1.4850   18.1083   18.4373   19.0950
  25  1  -17.4475  -13.9949  -13.0307  -10.9175   -5.6123   -5.5252   -1.4850   18.1083   18.4373   19.0950
  26  1  -17.4227  -14.4164  -11.0607   -9.6667   -8.1995   -5.4016    0.1663    4.7676   17.5065   17.7730
  27  1  -17.4475  -13.9949  -13.0307  -10.9175   -5.6123   -5.5252   -1.4850   18.1083   18.4373   19.0950
  28  1  -17.4227  -14.4165  -11.0607   -9.6667   -8.1995   -5.4015    0.1661    4.7676   17.5064   17.7731
  29  1  -15.8845  -14.0057  -12.5045  -11.8056   -8.8310   -7.9720    1.3026   18.5204   19.0167   19.6807
  30  1  -16.0198  -14.1907  -11.5863   -8.1688   -7.2478   -4.5421   -1.9553    9.7319   19.4977   21.7346
  31  1  -16.0198  -14.1907  -11.5863   -8.1687   -7.2479   -4.5421   -1.9553    9.7320   19.4977   21.7346
  32  1  -15.8845  -14.0057  -12.5046  -11.8055   -8.8310   -7.9721    1.3026   18.5204   19.0168   19.6807
  33  1  -16.0198  -14.1907  -11.5863   -8.1688   -7.2478   -4.5421   -1.9553    9.7319   19.4977   21.7346
  34  1  -16.1189  -14.3510   -6.9972   -6.9971   -5.4700   16.4751   16.4752   18.1797   18.1798   22.5604
  35  1  -16.0198  -14.1907  -11.5863   -8.1688   -7.2478   -4.5421   -1.9553    9.7319   19.4977   21.7346
  36  1  -15.8768  -14.0144  -12.8894   -9.2439   -7.4885   -6.3564   -4.2435    8.1134   17.0498   17.2215
  37  1  -16.0198  -14.1907  -11.5863   -8.1687   -7.2479   -4.5421   -1.9553    9.7320   19.4977   21.7346
  38  1  -16.0198  -14.1907  -11.5863   -8.1688   -7.2478   -4.5421   -1.9553    9.7319   19.4977   21.7346
  39  1  -15.8845  -14.0057  -12.5045  -11.8056   -8.8310   -7.9720    1.3026   18.5204   19.0167   19.6807
  40  1  -15.8845  -14.0057  -12.5046  -11.8055   -8.8310   -7.9721    1.3026   18.5204   19.0168   19.6807
  41  1  -15.8845  -14.0057  -12.5046  -11.8055   -8.8310   -7.9721    1.3026   18.5204   19.0168   19.6807
  42  1  -15.8768  -14.0144  -12.8894   -9.2439   -7.4885   -6.3564   -4.2435    8.1134   17.0498   17.2215
  43  1  -15.8845  -14.0057  -12.5046  -11.8055   -8.8310   -7.9721    1.3026   18.5204   19.0168   19.6807
  44  1  -15.8768  -14.0144  -12.8895   -9.2438   -7.4886   -6.3563   -4.2435    8.1134   17.0497   17.2215
siesta: Fermi energy =      -5.584962 eV

siesta: Program's energy decomposition (eV):
siesta: Ebs     =      -119.094502
siesta: Eions   =       321.344870
siesta: Ena     =        86.786586
siesta: Ekin    =       162.888340
siesta: Enl     =        14.135266
siesta: Eso     =         0.000000
siesta: Edftu   =         0.000000
siesta: DEna    =       -11.664855
siesta: DUscf   =         3.796724
siesta: DUext   =         0.000000
siesta: Exc     =      -105.488495
siesta: eta*DQ  =         0.000000
siesta: Emadel  =         0.000000
siesta: Emeta   =         0.000000
siesta: Emolmec =        -3.307427
siesta: Ekinion =         0.000000
siesta: Eharris =      -174.198732
siesta: Etot    =      -174.198732
siesta: FreeEng =      -174.207299

siesta: Final energy (eV):
siesta:  Band Struct. =    -119.094502
siesta:       Kinetic =     162.888340
siesta:       Hartree =      69.050678
siesta:       Edftu   =       0.000000
siesta:       Eso     =       0.000000
siesta:    Ext. field =       0.000000
siesta:   Exch.-corr. =    -105.488495
siesta:  Ion-electron =    -303.081985
siesta:       Ion-ion =       5.740158
siesta:       Ekinion =       0.000000
siesta:         Total =    -174.198732
siesta:         Fermi =      -5.584962

siesta: Atomic forces (eV/Ang):
siesta:      1    0.000000    0.000000    0.000000
siesta:      2    0.042101   -0.072883   -0.000000
siesta:      3   -0.042101    0.072883   -0.000000
siesta:      4    0.042103    0.072925   -0.000000
siesta:      5   -0.042103   -0.072925   -0.000000
siesta:      6   -0.084169    0.000019   -0.000000
siesta:      7    0.084169   -0.000018   -0.000000
siesta: ----------------------------------------
siesta:    Tot    0.000000    0.000000    0.000000

siesta: Stress tensor (static) (eV/Ang**3):
siesta:    -1.060647   -0.000023   -0.000000
siesta:    -0.000023   -1.060673    0.000000
siesta:    -0.000000    0.000000    0.383833

siesta: Cell volume =         59.690464 Ang**3

siesta: Pressure (static):
siesta:                Solid            Molecule  Units
siesta:           0.00630782          0.00628471  Ry/Bohr**3
siesta:           0.57916239          0.57704044  eV/Ang**3
siesta:         927.93048222        924.53070710  kBar
(Free)E+ p_basis*V_orbitals  =        -165.869783
(Free)Eharris+ p_basis*V_orbitals  =        -165.869783

cite: Please see "LiC6_scf.bib" for an exhaustive BiBTeX file.
cite: Please clearly indicate Siesta version in published work: 4.1.5
cite: This calculation has made use of the following articles
cite: which are encouraged to be cited in a published work.
        Primary SIESTA paper
          DOI: www.doi.org/10.1088/0953-8984/14/11/302

>> End of run:   3-NOV-2022  14:27:59
Job completed
