Siesta Version  : 4.1.5
Architecture    : x86_64-unknown-linux-gnu--unknown
Compiler version: GNU Fortran (GCC) 11.3.0
Compiler flags  : mpif90 -g -O2 -fallow-argument-mismatch
PP flags        : -DMPI -DFC_HAVE_FLUSH -DFC_HAVE_ABORT
Libraries       :  -I/global/software/sl-7.x86_64/modules/intel/2020.4.304/mkl/include  /globall/software/sl-7.x86_64/modules/intel/2020.4.304/mkl/lib/intel64/libmkl_scalapack_lp64.a -Wl,--start-group /global/software/sl-7.x86_64/modules/intel/2020.4.304/mkl/lib/intel64/libmkl_intel_lp64.a /global/software/sl-7.x86_64/modules/intel/2020.4.304/mkl/lib/intel64/libmkl_sequential.a /global/software/sl-7.x86_64/modules/intel/2020.4.304/mkl/lib/intel64/libmkl_core.a /global/software/sl-7.x86_64/modules/intel/2020.4.304/mkl/lib/intel64/libmkl_blacs_openmpi_lp64.a -Wl,--end-group -lpthread -lm -ldl
PARALLEL version

* Running on 4 nodes in parallel
>> Start of run:   9-NOV-2022  12:17:50

                           ***********************       
                           *  WELCOME TO SIESTA  *       
                           ***********************       

reinit: Reading from standard input
reinit: Dumped input in INPUT_TMP.37098
************************** Dump of input data file ****************************
SystemName LiC6_scf
SystemLabel LiC6_scf
NumberOfAtoms   7
NumberOfSpecies 2
%block ChemicalSpeciesLabel
1  3   Li-gga
2  6   C-gga
%endblock ChemicalSpeciesLabel
PAO.BasisSize  SZP
PAO.EnergyShift  10 meV
%block PS.Lmax
C-gga   2
Li-gga  2
%endblock PS.Lmax
LatticeConstant 1.000000 Ang
%block LatticeVectors
	4.3161300000	0.0000000000	0.0000000000
	-2.1580650000	3.7378782260	0.0000000000
	0.0000000000	0.0000000000	4.5138292000
%endblock LatticeVectors
AtomicCoordinatesFormat Ang
%block AtomicCoordinatesAndAtomicSpecies
	0.00000000	0.00000000	0.00000000	2
	-0.70288177	1.21742694	2.25691460	1
	-1.45518323	2.52045129	2.25691460	1
	1.45518323	2.52045129	2.25691460	1
	0.70288177	1.21742694	2.25691460	1
	1.40576354	0.00000000	2.25691460	1
	2.91036646	0.00000000	2.25691460	1
%endblock AtomicCoordinatesAndAtomicSpecies
Kgrid_NoTRS  T
%block kgrid_MonkhorstPack
2       0       0       0.0
0       2       0       0.0
0       0       2       0.0
%endblock kgrid_MonkhorstPack
AtomCoorFormatOut Ang
BlockSize 1
#ProcessorY 12
Diag.ParallelOverK   T
Diag.DivideAndConquer F
MeshCutoff   300 Ry
SCF.FreeE.Tolerance 1E-3 eV
SCF.EDM.Tolerance   5E-3 eV
DM.Tolerance  1E-3
DM.Require.Energy.Convergence T
DM.NumberPulay 4
XC.Functional GGA
XC.Authors    PBE
UseSaveData        F
MD.TypeOfRun       CG
MD.VariableCell    F
MD.NumCGsteps      00
MD.MaxCGDispl      0.200000 Bohr
MD.MaxStressTol    1.000000 GPa
MD.MaxForceTol     0.010000 eV/Ang
WriteMDHistory T
WriteCoorStep T
WriteForces T
WriteCoorStep    T
WriteEigenValues T
WriteDM    F
MM.UnitsDistance Ang  # what this program prints out DO NOT CHANGE
MM.UnitsEnergy    eV  # what this program prints out DO NOT CHANGE
MM.Grimme.S6     0.75 # Grimme-paper for PBE (correct for your functional)
MM.Grimme.D     20.   # Grimme-paper (correct for your functional)
%block MM.Potentials
  1   1 Grimme     16.69      1.650 # Li, 10.1002/jcc.20495
  1   2 Grimme     17.40      2.277 # Li / C
  2   2 Grimme     18.14      2.904 # C, 10.1002/jcc.20495
%endblock MM.Potentials
#%block ProjectedDensityOfStates
# -200.0  120.0  0.4  12800  eV
#%endblock ProjectedDensityOfStates
************************** End of input data file *****************************

reinit: -----------------------------------------------------------------------
reinit: System Name: LiC6_scf
reinit: -----------------------------------------------------------------------
reinit: System Label: LiC6_scf
reinit: -----------------------------------------------------------------------
Reading two-body potentials
Grimme - two-body potential between 1 and 1
Grimme - two-body potential between 1 and 2
Grimme - two-body potential between 2 and 2

initatom: Reading input for the pseudopotentials and atomic orbitals ----------
Species number:   1 Atomic number:    3 Label: Li-gga
Species number:   2 Atomic number:    6 Label: C-gga

Ground state valence configuration:   2s01
Reading pseudopotential information in formatted form from Li-gga.psf

Valence configuration for pseudopotential generation:
2s( 1.00) rc: 2.28
2p( 0.00) rc: 2.28
3d( 0.00) rc: 2.59
4f( 0.00) rc: 2.59
Ground state valence configuration:   2s02  2p02
Reading pseudopotential information in formatted form from C-gga.psf

Valence configuration for pseudopotential generation:
2s( 2.00) rc: 1.56
2p( 2.00) rc: 1.56
3d( 0.00) rc: 1.56
4f( 0.00) rc: 1.56
relmxkb: Read Max KB Ang. Momentum=    2 for species C-gga
relmxkb: Read Max KB Ang. Momentum=    2 for species Li-gga

<basis_specs>
===============================================================================
Li-gga               Z=   3    Mass=  6.9400        Charge= 0.17977+309
Lmxo=0 Lmxkb= 2    BasisType=split      Semic=F
L=0  Nsemic=0  Cnfigmx=2
          i=1  nzeta=1  polorb=1  (2s)
            splnorm:   0.15000    
               vcte:    0.0000    
               rinn:    0.0000    
               qcoe:    0.0000    
               qyuk:    0.0000    
               qwid:   0.10000E-01
                rcs:    0.0000    
            lambdas:    1.0000    
-------------------------------------------------------------------------------
L=0  Nkbl=1  erefs: 0.17977+309
L=1  Nkbl=1  erefs: 0.17977+309
L=2  Nkbl=1  erefs: 0.17977+309
===============================================================================
</basis_specs>

atom: Called for Li-gga                (Z =   3)

read_vps: Pseudopotential generation method:
read_vps: ATM 3.2.2 Troullier-Martins                       
Valence charge for ps generation:    1.00000

read_vps: Pseudopotential includes a core correction:
read_vps: Pseudo-core for xc-correction

xc_check: Exchange-correlation functional:
xc_check: GGA Perdew, Burke & Ernzerhof 1996
V l=0 = -2*Zval/r beyond r=  2.2278
V l=1 = -2*Zval/r beyond r=  2.2278
V l=2 = -2*Zval/r beyond r=  2.5245
All V_l potentials equal beyond r=  2.4622
This should be close to max(r_c) in ps generation
All pots = -2*Zval/r beyond r=  2.5245

VLOCAL1: 99.0% of the norm of Vloc inside      7.160 Ry
VLOCAL1: 99.9% of the norm of Vloc inside     16.318 Ry
atom: Maximum radius for 4*pi*r*r*local-pseudopot. charge    2.86079
atom: Maximum radius for r*vlocal+2*Zval:    2.43160
GHOST: No ghost state for L =  0
GHOST: No ghost state for L =  1
GHOST: No ghost state for L =  2

KBgen: Kleinman-Bylander projectors: 
   l= 0   rc=  2.654023   el= -0.211234   Ekb=  1.742119   kbcos=  0.228463
   l= 1   rc=  2.721230   el= -0.080095   Ekb= -1.122375   kbcos= -0.147941
   l= 2   rc=  2.825246   el=  0.002001   Ekb= -0.207076   kbcos= -0.031965

KBgen: Total number of Kleinman-Bylander projectors:    9
atom: -------------------------------------------------------------------------

atom: SANKEY-TYPE ORBITALS:

SPLIT: Orbitals with angular momentum L= 0

SPLIT: Basis orbitals for state 2s

SPLIT: PAO cut-off radius determined from an
SPLIT: energy shift=  0.000735 Ry

   izeta = 1
                 lambda =    1.000000
                     rc =   11.897381
                 energy =   -0.210580
                kinetic =    0.143382
    potential(screened) =   -0.353962
       potential(ionic) =   -0.533453

POLgen: Perturbative polarization orbital with L=  1

POLgen: Polarization orbital for state 2s

   izeta = 1
                     rc =   11.897381
                 energy =   -0.027011
                kinetic =    0.282985
    potential(screened) =   -0.309997
       potential(ionic) =   -0.490997
atom: Total number of Sankey-type orbitals:  4

atm_pop: Valence configuration (for local Pseudopot. screening):
 2s( 1.00)                                                            
Vna: chval, zval:    1.00000   1.00000

Vna:  Cut-off radius for the neutral-atom potential:  11.897381
comcore: Pseudo-core radius Rcore=  3.450946

atom: _________________________________________________________________________

<basis_specs>
===============================================================================
C-gga                Z=   6    Mass=  12.010        Charge= 0.17977+309
Lmxo=1 Lmxkb= 2    BasisType=split      Semic=F
L=0  Nsemic=0  Cnfigmx=2
          i=1  nzeta=1  polorb=0  (2s)
            splnorm:   0.15000    
               vcte:    0.0000    
               rinn:    0.0000    
               qcoe:    0.0000    
               qyuk:    0.0000    
               qwid:   0.10000E-01
                rcs:    0.0000    
            lambdas:    1.0000    
L=1  Nsemic=0  Cnfigmx=2
          i=1  nzeta=1  polorb=1  (2p)
            splnorm:   0.15000    
               vcte:    0.0000    
               rinn:    0.0000    
               qcoe:    0.0000    
               qyuk:    0.0000    
               qwid:   0.10000E-01
                rcs:    0.0000    
            lambdas:    1.0000    
-------------------------------------------------------------------------------
L=0  Nkbl=1  erefs: 0.17977+309
L=1  Nkbl=1  erefs: 0.17977+309
L=2  Nkbl=1  erefs: 0.17977+309
===============================================================================
</basis_specs>

atom: Called for C-gga                 (Z =   6)

read_vps: Pseudopotential generation method:
read_vps: ATM 3.2.2 Troullier-Martins                       
Valence charge for ps generation:    4.00000

xc_check: Exchange-correlation functional:
xc_check: GGA Perdew, Burke & Ernzerhof 1996
V l=0 = -2*Zval/r beyond r=  1.5227
V l=1 = -2*Zval/r beyond r=  1.5227
V l=2 = -2*Zval/r beyond r=  1.5227
All V_l potentials equal beyond r=  1.4851
This should be close to max(r_c) in ps generation
All pots = -2*Zval/r beyond r=  1.5227

VLOCAL1: 99.0% of the norm of Vloc inside     19.682 Ry
VLOCAL1: 99.9% of the norm of Vloc inside     44.856 Ry
atom: Maximum radius for 4*pi*r*r*local-pseudopot. charge    1.79142
atom: Maximum radius for r*vlocal+2*Zval:    1.54183
GHOST: No ghost state for L =  0
GHOST: No ghost state for L =  1
GHOST: No ghost state for L =  2

KBgen: Kleinman-Bylander projectors: 
   l= 0   rc=  1.661951   el= -1.010689   Ekb=  5.289847   kbcos=  0.316429
   l= 1   rc=  1.661951   el= -0.388490   Ekb= -4.102504   kbcos= -0.351025
   l= 2   rc=  1.747182   el=  0.001971   Ekb= -1.006005   kbcos= -0.008530

KBgen: Total number of Kleinman-Bylander projectors:    9
atom: -------------------------------------------------------------------------

atom: SANKEY-TYPE ORBITALS:

SPLIT: Orbitals with angular momentum L= 0

SPLIT: Basis orbitals for state 2s

SPLIT: PAO cut-off radius determined from an
SPLIT: energy shift=  0.000735 Ry

   izeta = 1
                 lambda =    1.000000
                     rc =    5.948690
                 energy =   -1.010099
                kinetic =    0.827121
    potential(screened) =   -1.837220
       potential(ionic) =   -5.392783

SPLIT: Orbitals with angular momentum L= 1

SPLIT: Basis orbitals for state 2p

SPLIT: PAO cut-off radius determined from an
SPLIT: energy shift=  0.000735 Ry

   izeta = 1
                 lambda =    1.000000
                     rc =    7.638387
                 energy =   -0.387843
                kinetic =    2.314739
    potential(screened) =   -2.702582
       potential(ionic) =   -6.092371

POLgen: Perturbative polarization orbital with L=  2

POLgen: Polarization orbital for state 2p

   izeta = 1
                     rc =    7.638387
                 energy =    0.921402
                kinetic =    1.955040
    potential(screened) =   -1.033637
       potential(ionic) =   -3.679558
atom: Total number of Sankey-type orbitals:  9

atm_pop: Valence configuration (for local Pseudopot. screening):
 2s( 2.00)                                                            
 2p( 2.00)                                                            
Vna: chval, zval:    4.00000   4.00000

Vna:  Cut-off radius for the neutral-atom potential:   7.638387

atom: _________________________________________________________________________

prinput: Basis input ----------------------------------------------------------

PAO.BasisType split     

%block ChemicalSpeciesLabel
    1    3 Li-gga                  # Species index, atomic number, species label
    2    6 C-gga                   # Species index, atomic number, species label
%endblock ChemicalSpeciesLabel

%block PAO.Basis                 # Define Basis set
Li-gga                1                    # Species label, number of l-shells
 n=2   0   1 P   1                   # n, l, Nzeta, Polarization, NzetaPol
  11.897   
   1.000   
C-gga                 2                    # Species label, number of l-shells
 n=2   0   1                         # n, l, Nzeta 
   5.949   
   1.000   
 n=2   1   1 P   1                   # n, l, Nzeta, Polarization, NzetaPol
   7.638   
   1.000   
%endblock PAO.Basis

prinput: ----------------------------------------------------------------------

coor:   Atomic-coordinates input format  =     Cartesian coordinates
coor:                                          (in Angstroms)

siesta: Atomic coordinates (Bohr) and species
siesta:      0.00000   0.00000   0.00000  2        1
siesta:     -1.32825   2.30060   4.26495  1        2
siesta:     -2.74990   4.76296   4.26495  1        3
siesta:      2.74990   4.76296   4.26495  1        4
siesta:      1.32825   2.30060   4.26495  1        5
siesta:      2.65651   0.00000   4.26495  1        6
siesta:      5.49980   0.00000   4.26495  1        7

siesta: System type = bulk      

initatomlists: Number of atoms, orbitals, and projectors:      7    33    63

siesta: ******************** Simulation parameters ****************************
siesta:
siesta: The following are some of the parameters of the simulation.
siesta: A complete list of the parameters used, including default values,
siesta: can be found in file out.fdf
siesta:
redata: Spin configuration                          = none
redata: Number of spin components                   = 1
redata: Time-Reversal Symmetry                      = T
redata: Spin spiral                                 = F
redata: Long output                                 =   F
redata: Number of Atomic Species                    =        2
redata: Charge density info will appear in .RHO file
redata: Write Mulliken Pop.                         = NO
redata: Matel table size (NRTAB)                    =     1024
redata: Mesh Cutoff                                 =   300.0000 Ry
redata: Net charge of the system                    =     0.0000 |e|
redata: Min. number of SCF Iter                     =        0
redata: Max. number of SCF Iter                     =     1000
redata: SCF convergence failure will abort job
redata: SCF mix quantity                            = Hamiltonian
redata: Mix DM or H after convergence               =   F
redata: Recompute H after scf cycle                 =   F
redata: Mix DM in first SCF step                    =   T
redata: Write Pulay info on disk                    =   F
redata: New DM Occupancy tolerance                  = 0.000000000001
redata: No kicks to SCF
redata: DM Mixing Weight for Kicks                  =     0.5000
redata: Require Harris convergence for SCF          =   F
redata: Harris energy tolerance for SCF             =     0.000100 eV
redata: Require DM convergence for SCF              =   T
redata: DM tolerance for SCF                        =     0.001000
redata: Require EDM convergence for SCF             =   F
redata: EDM tolerance for SCF                       =     0.005000 eV
redata: Require H convergence for SCF               =   T
redata: Hamiltonian tolerance for SCF               =     0.001000 eV
redata: Require (free) Energy convergence for SCF   =   T
redata: (free) Energy tolerance for SCF             =     0.001000 eV
redata: Using Saved Data (generic)                  =   F
redata: Use continuation files for DM               =   F
redata: Neglect nonoverlap interactions             =   F
redata: Method of Calculation                       = Diagonalization
redata: Electronic Temperature                      =   299.9869 K
redata: Fix the spin of the system                  =   F
redata: Dynamics option                             = Single-point calculation
mix.SCF: Pulay mixing                            = Pulay
mix.SCF:    Variant                              = stable
mix.SCF:    History steps                        = 4
mix.SCF:    Linear mixing weight                 =     0.250000
mix.SCF:    Mixing weight                        =     0.250000
mix.SCF:    SVD condition                        = 0.1000E-07
redata: ***********************************************************************

%block SCF.Mixers
  Pulay
%endblock SCF.Mixers

%block SCF.Mixer.Pulay
  # Mixing method
  method pulay
  variant stable

  # Mixing options
  weight 0.2500
  weight.linear 0.2500
  history 4
%endblock SCF.Mixer.Pulay

DM_history_depth set to one: no extrapolation allowed by default for geometry relaxation
Size of DM history Fstack: 1
Total number of electrons:    10.000000
Total ionic charge:    10.000000

* ProcessorY, Blocksize:    2   1


* Orbital distribution balance (max,min):     9     8

k-point displ. along   1 input, could be:     0.00    0.50
k-point displ. along   2 input, could be:     0.00    0.50
k-point displ. along   3 input, could be:     0.00    0.50
 Kpoints in:            8 . Kpoints trimmed:            8

siesta: k-grid: Number of k-points =     8
siesta: k-grid: Cutoff (effective) =     4.316 Ang
siesta: k-grid: Supercell and displacements
siesta: k-grid:    2   0   0      0.000
siesta: k-grid:    0   2   0      0.000
siesta: k-grid:    0   0   2      0.000

diag: Algorithm                                     = Expert
diag: Parallel over k                               =   T
diag: Use parallel 2D distribution                  =   T
diag: Parallel block-size                           = 1
diag: Parallel distribution                         =     2 x     2
diag: Used triangular part                          = Lower
diag: Absolute tolerance                            =  0.100E-15
diag: Orthogonalization factor                      =  0.100E-05
diag: Memory factor                                 =  1.0000

superc: Internal auxiliary supercell:     9 x     9 x     7  =     567
superc: Number of atoms, orbitals, and projectors:   3969  18711  35721


ts: **************************************************************
ts: Save H and S matrices                           =    F
ts: Save DM and EDM matrices                        =    F
ts: Only save the overlap matrix S                  =    F
ts: **************************************************************

************************ Begin: TS CHECKS AND WARNINGS ************************
************************ End: TS CHECKS AND WARNINGS **************************


                     ====================================
                        Single-point calculation
                     ====================================

outcoor: Atomic coordinates (Ang):                          
    0.00000000    0.00000000    0.00000000   2       1  C-gga
   -0.70288177    1.21742694    2.25691460   1       2  Li-gga
   -1.45518323    2.52045129    2.25691460   1       3  Li-gga
    1.45518323    2.52045129    2.25691460   1       4  Li-gga
    0.70288177    1.21742694    2.25691460   1       5  Li-gga
    1.40576354    0.00000000    2.25691460   1       6  Li-gga
    2.91036646    0.00000000    2.25691460   1       7  Li-gga

superc: Internal auxiliary supercell:     9 x     9 x     7  =     567
superc: Number of atoms, orbitals, and projectors:   3969  18711  35721

outcell: Unit cell vectors (Ang):
        4.316130    0.000000    0.000000
       -2.158065    3.737878    0.000000
        0.000000    0.000000    4.513829

outcell: Cell vector modules (Ang)   :    4.316130    4.316130    4.513829
outcell: Cell angles (23,13,12) (deg):     90.0000     90.0000    120.0000
outcell: Cell volume (Ang**3)        :     72.8224
<dSpData1D:S at geom step 0
  <sparsity:sparsity for geom step 0
    nrows_g=33 nrows=9 sparsity=34.9247 nnzs=38033, refcount: 7>
  <dData1D:(new from dSpData1D) n=38033, refcount: 1>
refcount: 1>
new_DM -- step:     1
Initializing Density Matrix...
DM filled with atomic data:
<dSpData2D:DM initialized from atoms
  <sparsity:sparsity for geom step 0
    nrows_g=33 nrows=9 sparsity=34.9247 nnzs=38033, refcount: 8>
  <dData2D:DM n=38033 m=1, refcount: 1>
refcount: 1>
No. of atoms with KB's overlaping orbs in proc 0. Max # of overlaps:     296     732
New grid distribution:   1
           1       1:   20    1:   10    1:   12
           2       1:   20    1:   10   13:   24
           3       1:   20   11:   20    1:   12
           4       1:   20   11:   20   13:   24

InitMesh: MESH =    40 x    40 x    48 =       76800
InitMesh: (bp) =    20 x    20 x    24 =        9600
InitMesh: Mesh cutoff (required, used) =   300.000   312.532 Ry
ExtMesh (bp) on 0 =   156 x   146 x   148 =     3370848
New grid distribution:   2
           1       1:   20    1:   10    1:   12
           2       1:   20    1:   10   13:   24
           3       1:   20   11:   20    1:   12
           4       1:   20   11:   20   13:   24
New grid distribution:   3
           1       1:   20    1:   10    1:   12
           2       1:   20    1:   10   13:   24
           3       1:   20   11:   20    1:   12
           4       1:   20   11:   20   13:   24
Setting up quadratic distribution...
ExtMesh (bp) on 0 =   156 x   146 x   148 =     3370848
PhiOnMesh: Number of (b)points on node 0 =                 2400
PhiOnMesh: nlist on node 0 =               935944

stepf: Fermi-Dirac step function

siesta: Program's energy decomposition (eV):
siesta: Ebs     =      -145.328062
siesta: Eions   =       321.344870
siesta: Ena     =        92.464371
siesta: Ekin    =       113.812230
siesta: Enl     =        12.118645
siesta: Eso     =         0.000000
siesta: Edftu   =         0.000000
siesta: DEna    =        13.409434
siesta: DUscf   =         2.674036
siesta: DUext   =         0.000000
siesta: Exc     =       -93.520530
siesta: eta*DQ  =         0.000000
siesta: Emadel  =         0.000000
siesta: Emeta   =         0.000000
siesta: Emolmec =        -2.937993
siesta: Ekinion =         0.000000
siesta: Eharris =      -176.366428
siesta: Etot    =      -183.324676
siesta: FreeEng =      -183.340990

        iscf     Eharris(eV)        E_KS(eV)     FreeEng(eV)     dDmax    Ef(eV) dHmax(eV)
   scf:    1     -176.366428     -183.324676     -183.340990  1.175160 -9.958361  3.676581
timer: Routine,Calls,Time,% = IterSCF        1       8.697  56.85
   scf:    2     -184.371125     -184.166752     -184.181862  0.155565-10.643807  0.166723
   scf:    3     -184.130472     -184.174351     -184.183386  0.067362-10.624157  0.682883
   scf:    4     -183.139620     -183.895669     -183.913560  0.138080-10.392937  1.999452
   scf:    5     -184.265378     -184.208828     -184.222509  0.110734-10.556426  0.083299
   scf:    6     -184.141601     -184.189906     -184.200154  0.048991-10.579180  0.503675
   scf:    7     -184.217144     -184.209634     -184.222525  0.029980-10.558825  0.118810
   scf:    8     -184.202336     -184.208010     -184.222663  0.015352-10.554974  0.108914
   scf:    9     -184.210004     -184.210416     -184.223259  0.010684-10.560182  0.082395
   scf:   10     -184.210501     -184.210467     -184.223467  0.003094-10.561664  0.064719
   scf:   11     -184.209777     -184.210264     -184.223798  0.003572-10.560423  0.003300
   scf:   12     -184.210260     -184.210262     -184.223798  0.000112-10.560210  0.001547
   scf:   13     -184.210278     -184.210270     -184.223798  0.000110-10.559905  0.000314

SCF Convergence by FreeE+DM+H criterion
|FreeE_i-FreeE_(i-1)| (eV) <     0.00100000
max |DM_out - DM_in|         :     0.0001100740
max |H_out - H_in|      (eV) :     0.0003143475
SCF cycle converged after 13 iterations

Using DM_out to compute the final energy and forces
No. of atoms with KB's overlaping orbs in proc 0. Max # of overlaps:     296     732

MM-Stress (kbar):       -2.03       -2.03       51.24        0.00       -0.00       -0.00

siesta: E_KS(eV) =             -184.2103

siesta: E_KS - E_eggbox =      -184.2103

siesta: Atomic forces (eV/Ang):
     1    0.000000    0.000000    0.000000
     2   -0.023007    0.039864   -0.000000
     3    0.023007   -0.039864   -0.000000
     4   -0.023037   -0.039902   -0.000000
     5    0.023037    0.039902   -0.000000
     6    0.046027    0.000007   -0.000000
     7   -0.046027   -0.000007   -0.000000
----------------------------------------
   Tot   -0.000000   -0.000000    0.000000
----------------------------------------
   Max    0.046027
   Res    0.024611    sqrt( Sum f_i^2 / 3N )
----------------------------------------
   Max    0.046027    constrained

Stress tensor Voigt[x,y,z,yz,xz,xy] (kbar):     -893.50     -893.52      606.20       -0.00        0.00       -0.02
(Free)E + p*V (eV/cell)     -166.3338
Target enthalpy (eV/cell)     -184.2238

siesta: Eigenvalues (eV):
  ik is       eps
   1  1  -19.7515  -13.7361  -12.5835  -10.5387  -10.4944  -10.3871  -10.3869   -6.1892   -4.5875   -4.5875
          -1.5724   -1.5722   -0.9999   -0.9999    0.8345    0.8345    7.1622   10.0442   10.0443   16.4862
   16.4862   18.9462   18.9463   24.8675   29.6405   29.6411   31.5962   31.5963   34.4984   34.4985
   44.5902   46.6396   63.8150
   2  1  -19.5932  -13.1637  -13.0588  -11.5306  -10.7261  -10.3563   -8.7830   -8.5161   -4.7119   -3.8785
          -3.6746   -1.0607    1.0275    1.2823    1.3224    1.4121    1.9233    7.9142   15.1867   16.0912
   16.0992   16.1430   17.7581   18.5500   18.9182   20.3735   20.7938   25.5063   27.6764   37.7166
   50.5890   51.3043   57.4079
   3  1  -19.5932  -13.1637  -13.0588  -11.5306  -10.7261  -10.3563   -8.7830   -8.5161   -4.7119   -3.8785
          -3.6746   -1.0607    1.0275    1.2823    1.3224    1.4121    1.9233    7.9142   15.1867   16.0912
   16.0992   16.1430   17.7581   18.5500   18.9182   20.3735   20.7938   25.5063   27.6764   37.7166
   50.5890   51.3043   57.4079
   4  1  -19.5932  -13.1637  -13.0588  -11.5306  -10.7262  -10.3563   -8.7829   -8.5161   -4.7119   -3.8785
          -3.6747   -1.0607    1.0275    1.2824    1.3224    1.4121    1.9233    7.9144   15.1866   16.0911
   16.0992   16.1431   17.7577   18.5500   18.9182   20.3735   20.7939   25.5062   27.6763   37.7166
   50.5890   51.3043   57.4081
   5  1  -19.5626  -15.0880  -12.2324  -10.7143  -10.2672  -10.2670   -8.6318   -6.1205   -4.1352   -4.1352
          -3.7759   -3.7758   -2.3373   -2.3372    2.3796    2.3799    6.7582   16.8161   16.8161   21.2903
   21.2903   22.4813   22.4820   22.5460   22.5461   24.3515   30.1222   30.1222   36.4675   45.9730
   46.9627   46.9628   48.7857
   6  1  -19.2919  -15.1470  -12.1392  -12.0737  -11.2938  -10.6101   -6.6781   -6.1878   -5.3433   -5.0859
          -1.3540   -1.1478   -1.0147   -0.5111    0.8955    1.7418    3.5798    7.5870   12.1087   12.5404
   12.7860   15.4437   16.2741   20.1618   21.3238   24.8081   25.2300   31.5613   32.5091   38.0008
   48.0425   51.9579   53.8907
   7  1  -19.2919  -15.1470  -12.1392  -12.0737  -11.2938  -10.6101   -6.6781   -6.1878   -5.3433   -5.0859
          -1.3540   -1.1478   -1.0147   -0.5111    0.8955    1.7418    3.5798    7.5870   12.1087   12.5404
   12.7860   15.4437   16.2741   20.1618   21.3238   24.8081   25.2300   31.5613   32.5091   38.0008
   48.0425   51.9579   53.8907
   8  1  -19.2919  -15.1470  -12.1392  -12.0736  -11.2938  -10.6102   -6.6780   -6.1878   -5.3433   -5.0857
          -1.3540   -1.1480   -1.0147   -0.5111    0.8955    1.7418    3.5798    7.5870   12.1087   12.5403
   12.7860   15.4436   16.2741   20.1618   21.3244   24.8080   25.2299   31.5607   32.5092   38.0007
   48.0425   51.9578   53.8908
siesta: Fermi energy =     -10.559905 eV

siesta: Program's energy decomposition (eV):
siesta: Ebs     =      -137.379065
siesta: Eions   =       321.344870
siesta: Ena     =        92.464371
siesta: Ekin    =       124.649382
siesta: Enl     =         8.844208
siesta: Eso     =         0.000000
siesta: Edftu   =         0.000000
siesta: DEna    =         8.517652
siesta: DUscf   =         1.082415
siesta: DUext   =         0.000000
siesta: Exc     =       -95.485436
siesta: eta*DQ  =         0.000000
siesta: Emadel  =         0.000000
siesta: Emeta   =         0.000000
siesta: Emolmec =        -2.937993
siesta: Ekinion =         0.000000
siesta: Eharris =      -184.210278
siesta: Etot    =      -184.210270
siesta: FreeEng =      -184.223798

siesta: Final energy (eV):
siesta:  Band Struct. =    -137.379065
siesta:       Kinetic =     124.649382
siesta:       Hartree =      38.505924
siesta:       Edftu   =       0.000000
siesta:       Eso     =       0.000000
siesta:    Ext. field =       0.000000
siesta:   Exch.-corr. =     -95.485436
siesta:  Ion-electron =    -234.697209
siesta:       Ion-ion =     -14.244938
siesta:       Ekinion =       0.000000
siesta:         Total =    -184.210270
siesta:         Fermi =     -10.559905

siesta: Atomic forces (eV/Ang):
siesta:      1    0.000000    0.000000    0.000000
siesta:      2   -0.023007    0.039864   -0.000000
siesta:      3    0.023007   -0.039864   -0.000000
siesta:      4   -0.023037   -0.039902   -0.000000
siesta:      5    0.023037    0.039902   -0.000000
siesta:      6    0.046027    0.000007   -0.000000
siesta:      7   -0.046027   -0.000007   -0.000000
siesta: ----------------------------------------
siesta:    Tot   -0.000000   -0.000000    0.000000

siesta: Stress tensor (static) (eV/Ang**3):
siesta:    -0.557671   -0.000011    0.000000
siesta:    -0.000011   -0.557684    0.000000
siesta:     0.000000   -0.000000    0.378357

siesta: Cell volume =         72.822366 Ang**3

siesta: Pressure (static):
siesta:                Solid            Molecule  Units
siesta:           0.00267562          0.00268598  Ry/Bohr**3
siesta:           0.24566626          0.24661756  eV/Ang**3
siesta:         393.60499097        395.12916706  kBar
(Free)E+ p_basis*V_orbitals  =        -167.711873
(Free)Eharris+ p_basis*V_orbitals  =        -167.711881

cite: Please see "LiC6_scf.bib" for an exhaustive BiBTeX file.
cite: Please clearly indicate Siesta version in published work: 4.1.5
cite: This calculation has made use of the following articles
cite: which are encouraged to be cited in a published work.
        Primary SIESTA paper
          DOI: www.doi.org/10.1088/0953-8984/14/11/302

>> End of run:   9-NOV-2022  12:19:25
Job completed
