Siesta Version  : 4.1.5
Architecture    : x86_64-unknown-linux-gnu--unknown
Compiler version: GNU Fortran (GCC) 11.3.0
Compiler flags  : mpif90 -g -O2 -fallow-argument-mismatch
PP flags        : -DMPI -DFC_HAVE_FLUSH -DFC_HAVE_ABORT
Libraries       :  -I/global/software/sl-7.x86_64/modules/intel/2020.4.304/mkl/include  /globall/software/sl-7.x86_64/modules/intel/2020.4.304/mkl/lib/intel64/libmkl_scalapack_lp64.a -Wl,--start-group /global/software/sl-7.x86_64/modules/intel/2020.4.304/mkl/lib/intel64/libmkl_intel_lp64.a /global/software/sl-7.x86_64/modules/intel/2020.4.304/mkl/lib/intel64/libmkl_sequential.a /global/software/sl-7.x86_64/modules/intel/2020.4.304/mkl/lib/intel64/libmkl_core.a /global/software/sl-7.x86_64/modules/intel/2020.4.304/mkl/lib/intel64/libmkl_blacs_openmpi_lp64.a -Wl,--end-group -lpthread -lm -ldl
PARALLEL version

* Running on 4 nodes in parallel
>> Start of run:   9-NOV-2022  12:19:25

                           ***********************       
                           *  WELCOME TO SIESTA  *       
                           ***********************       

reinit: Reading from standard input
reinit: Dumped input in INPUT_TMP.32771
************************** Dump of input data file ****************************
SystemName LiC6_scf
SystemLabel LiC6_scf
NumberOfAtoms   7
NumberOfSpecies 2
%block ChemicalSpeciesLabel
1  3   Li-gga
2  6   C-gga
%endblock ChemicalSpeciesLabel
PAO.BasisSize  SZP
PAO.EnergyShift  10 meV
%block PS.Lmax
C-gga   2
Li-gga  2
%endblock PS.Lmax
LatticeConstant 1.000000 Ang
%block LatticeVectors
	4.3161300000	0.0000000000	0.0000000000
	-2.1580650000	3.7378782260	0.0000000000
	0.0000000000	0.0000000000	4.5878264000
%endblock LatticeVectors
AtomicCoordinatesFormat Ang
%block AtomicCoordinatesAndAtomicSpecies
	0.00000000	0.00000000	0.00000000	2
	-0.70288177	1.21742694	2.29391320	1
	-1.45518323	2.52045129	2.29391320	1
	1.45518323	2.52045129	2.29391320	1
	0.70288177	1.21742694	2.29391320	1
	1.40576354	0.00000000	2.29391320	1
	2.91036646	0.00000000	2.29391320	1
%endblock AtomicCoordinatesAndAtomicSpecies
Kgrid_NoTRS  T
%block kgrid_MonkhorstPack
2       0       0       0.0
0       2       0       0.0
0       0       2       0.0
%endblock kgrid_MonkhorstPack
AtomCoorFormatOut Ang
BlockSize 1
#ProcessorY 12
Diag.ParallelOverK   T
Diag.DivideAndConquer F
MeshCutoff   300 Ry
SCF.FreeE.Tolerance 1E-3 eV
SCF.EDM.Tolerance   5E-3 eV
DM.Tolerance  1E-3
DM.Require.Energy.Convergence T
DM.NumberPulay 4
XC.Functional GGA
XC.Authors    PBE
UseSaveData        F
MD.TypeOfRun       CG
MD.VariableCell    F
MD.NumCGsteps      00
MD.MaxCGDispl      0.200000 Bohr
MD.MaxStressTol    1.000000 GPa
MD.MaxForceTol     0.010000 eV/Ang
WriteMDHistory T
WriteCoorStep T
WriteForces T
WriteCoorStep    T
WriteEigenValues T
WriteDM    F
MM.UnitsDistance Ang  # what this program prints out DO NOT CHANGE
MM.UnitsEnergy    eV  # what this program prints out DO NOT CHANGE
MM.Grimme.S6     0.75 # Grimme-paper for PBE (correct for your functional)
MM.Grimme.D     20.   # Grimme-paper (correct for your functional)
%block MM.Potentials
  1   1 Grimme     16.69      1.650 # Li, 10.1002/jcc.20495
  1   2 Grimme     17.40      2.277 # Li / C
  2   2 Grimme     18.14      2.904 # C, 10.1002/jcc.20495
%endblock MM.Potentials
#%block ProjectedDensityOfStates
# -200.0  120.0  0.4  12800  eV
#%endblock ProjectedDensityOfStates
************************** End of input data file *****************************

reinit: -----------------------------------------------------------------------
reinit: System Name: LiC6_scf
reinit: -----------------------------------------------------------------------
reinit: System Label: LiC6_scf
reinit: -----------------------------------------------------------------------
Reading two-body potentials
Grimme - two-body potential between 1 and 1
Grimme - two-body potential between 1 and 2
Grimme - two-body potential between 2 and 2

initatom: Reading input for the pseudopotentials and atomic orbitals ----------
Species number:   1 Atomic number:    3 Label: Li-gga
Species number:   2 Atomic number:    6 Label: C-gga

Ground state valence configuration:   2s01
Reading pseudopotential information in formatted form from Li-gga.psf

Valence configuration for pseudopotential generation:
2s( 1.00) rc: 2.28
2p( 0.00) rc: 2.28
3d( 0.00) rc: 2.59
4f( 0.00) rc: 2.59
Ground state valence configuration:   2s02  2p02
Reading pseudopotential information in formatted form from C-gga.psf

Valence configuration for pseudopotential generation:
2s( 2.00) rc: 1.56
2p( 2.00) rc: 1.56
3d( 0.00) rc: 1.56
4f( 0.00) rc: 1.56
relmxkb: Read Max KB Ang. Momentum=    2 for species C-gga
relmxkb: Read Max KB Ang. Momentum=    2 for species Li-gga

<basis_specs>
===============================================================================
Li-gga               Z=   3    Mass=  6.9400        Charge= 0.17977+309
Lmxo=0 Lmxkb= 2    BasisType=split      Semic=F
L=0  Nsemic=0  Cnfigmx=2
          i=1  nzeta=1  polorb=1  (2s)
            splnorm:   0.15000    
               vcte:    0.0000    
               rinn:    0.0000    
               qcoe:    0.0000    
               qyuk:    0.0000    
               qwid:   0.10000E-01
                rcs:    0.0000    
            lambdas:    1.0000    
-------------------------------------------------------------------------------
L=0  Nkbl=1  erefs: 0.17977+309
L=1  Nkbl=1  erefs: 0.17977+309
L=2  Nkbl=1  erefs: 0.17977+309
===============================================================================
</basis_specs>

atom: Called for Li-gga                (Z =   3)

read_vps: Pseudopotential generation method:
read_vps: ATM 3.2.2 Troullier-Martins                       
Valence charge for ps generation:    1.00000

read_vps: Pseudopotential includes a core correction:
read_vps: Pseudo-core for xc-correction

xc_check: Exchange-correlation functional:
xc_check: GGA Perdew, Burke & Ernzerhof 1996
V l=0 = -2*Zval/r beyond r=  2.2278
V l=1 = -2*Zval/r beyond r=  2.2278
V l=2 = -2*Zval/r beyond r=  2.5245
All V_l potentials equal beyond r=  2.4622
This should be close to max(r_c) in ps generation
All pots = -2*Zval/r beyond r=  2.5245

VLOCAL1: 99.0% of the norm of Vloc inside      7.160 Ry
VLOCAL1: 99.9% of the norm of Vloc inside     16.318 Ry
atom: Maximum radius for 4*pi*r*r*local-pseudopot. charge    2.86079
atom: Maximum radius for r*vlocal+2*Zval:    2.43160
GHOST: No ghost state for L =  0
GHOST: No ghost state for L =  1
GHOST: No ghost state for L =  2

KBgen: Kleinman-Bylander projectors: 
   l= 0   rc=  2.654023   el= -0.211234   Ekb=  1.742119   kbcos=  0.228463
   l= 1   rc=  2.721230   el= -0.080095   Ekb= -1.122375   kbcos= -0.147941
   l= 2   rc=  2.825246   el=  0.002001   Ekb= -0.207076   kbcos= -0.031965

KBgen: Total number of Kleinman-Bylander projectors:    9
atom: -------------------------------------------------------------------------

atom: SANKEY-TYPE ORBITALS:

SPLIT: Orbitals with angular momentum L= 0

SPLIT: Basis orbitals for state 2s

SPLIT: PAO cut-off radius determined from an
SPLIT: energy shift=  0.000735 Ry

   izeta = 1
                 lambda =    1.000000
                     rc =   11.897381
                 energy =   -0.210580
                kinetic =    0.143382
    potential(screened) =   -0.353962
       potential(ionic) =   -0.533453

POLgen: Perturbative polarization orbital with L=  1

POLgen: Polarization orbital for state 2s

   izeta = 1
                     rc =   11.897381
                 energy =   -0.027011
                kinetic =    0.282985
    potential(screened) =   -0.309997
       potential(ionic) =   -0.490997
atom: Total number of Sankey-type orbitals:  4

atm_pop: Valence configuration (for local Pseudopot. screening):
 2s( 1.00)                                                            
Vna: chval, zval:    1.00000   1.00000

Vna:  Cut-off radius for the neutral-atom potential:  11.897381
comcore: Pseudo-core radius Rcore=  3.450946

atom: _________________________________________________________________________

<basis_specs>
===============================================================================
C-gga                Z=   6    Mass=  12.010        Charge= 0.17977+309
Lmxo=1 Lmxkb= 2    BasisType=split      Semic=F
L=0  Nsemic=0  Cnfigmx=2
          i=1  nzeta=1  polorb=0  (2s)
            splnorm:   0.15000    
               vcte:    0.0000    
               rinn:    0.0000    
               qcoe:    0.0000    
               qyuk:    0.0000    
               qwid:   0.10000E-01
                rcs:    0.0000    
            lambdas:    1.0000    
L=1  Nsemic=0  Cnfigmx=2
          i=1  nzeta=1  polorb=1  (2p)
            splnorm:   0.15000    
               vcte:    0.0000    
               rinn:    0.0000    
               qcoe:    0.0000    
               qyuk:    0.0000    
               qwid:   0.10000E-01
                rcs:    0.0000    
            lambdas:    1.0000    
-------------------------------------------------------------------------------
L=0  Nkbl=1  erefs: 0.17977+309
L=1  Nkbl=1  erefs: 0.17977+309
L=2  Nkbl=1  erefs: 0.17977+309
===============================================================================
</basis_specs>

atom: Called for C-gga                 (Z =   6)

read_vps: Pseudopotential generation method:
read_vps: ATM 3.2.2 Troullier-Martins                       
Valence charge for ps generation:    4.00000

xc_check: Exchange-correlation functional:
xc_check: GGA Perdew, Burke & Ernzerhof 1996
V l=0 = -2*Zval/r beyond r=  1.5227
V l=1 = -2*Zval/r beyond r=  1.5227
V l=2 = -2*Zval/r beyond r=  1.5227
All V_l potentials equal beyond r=  1.4851
This should be close to max(r_c) in ps generation
All pots = -2*Zval/r beyond r=  1.5227

VLOCAL1: 99.0% of the norm of Vloc inside     19.682 Ry
VLOCAL1: 99.9% of the norm of Vloc inside     44.856 Ry
atom: Maximum radius for 4*pi*r*r*local-pseudopot. charge    1.79142
atom: Maximum radius for r*vlocal+2*Zval:    1.54183
GHOST: No ghost state for L =  0
GHOST: No ghost state for L =  1
GHOST: No ghost state for L =  2

KBgen: Kleinman-Bylander projectors: 
   l= 0   rc=  1.661951   el= -1.010689   Ekb=  5.289847   kbcos=  0.316429
   l= 1   rc=  1.661951   el= -0.388490   Ekb= -4.102504   kbcos= -0.351025
   l= 2   rc=  1.747182   el=  0.001971   Ekb= -1.006005   kbcos= -0.008530

KBgen: Total number of Kleinman-Bylander projectors:    9
atom: -------------------------------------------------------------------------

atom: SANKEY-TYPE ORBITALS:

SPLIT: Orbitals with angular momentum L= 0

SPLIT: Basis orbitals for state 2s

SPLIT: PAO cut-off radius determined from an
SPLIT: energy shift=  0.000735 Ry

   izeta = 1
                 lambda =    1.000000
                     rc =    5.948690
                 energy =   -1.010099
                kinetic =    0.827121
    potential(screened) =   -1.837220
       potential(ionic) =   -5.392783

SPLIT: Orbitals with angular momentum L= 1

SPLIT: Basis orbitals for state 2p

SPLIT: PAO cut-off radius determined from an
SPLIT: energy shift=  0.000735 Ry

   izeta = 1
                 lambda =    1.000000
                     rc =    7.638387
                 energy =   -0.387843
                kinetic =    2.314739
    potential(screened) =   -2.702582
       potential(ionic) =   -6.092371

POLgen: Perturbative polarization orbital with L=  2

POLgen: Polarization orbital for state 2p

   izeta = 1
                     rc =    7.638387
                 energy =    0.921402
                kinetic =    1.955040
    potential(screened) =   -1.033637
       potential(ionic) =   -3.679558
atom: Total number of Sankey-type orbitals:  9

atm_pop: Valence configuration (for local Pseudopot. screening):
 2s( 2.00)                                                            
 2p( 2.00)                                                            
Vna: chval, zval:    4.00000   4.00000

Vna:  Cut-off radius for the neutral-atom potential:   7.638387

atom: _________________________________________________________________________

prinput: Basis input ----------------------------------------------------------

PAO.BasisType split     

%block ChemicalSpeciesLabel
    1    3 Li-gga                  # Species index, atomic number, species label
    2    6 C-gga                   # Species index, atomic number, species label
%endblock ChemicalSpeciesLabel

%block PAO.Basis                 # Define Basis set
Li-gga                1                    # Species label, number of l-shells
 n=2   0   1 P   1                   # n, l, Nzeta, Polarization, NzetaPol
  11.897   
   1.000   
C-gga                 2                    # Species label, number of l-shells
 n=2   0   1                         # n, l, Nzeta 
   5.949   
   1.000   
 n=2   1   1 P   1                   # n, l, Nzeta, Polarization, NzetaPol
   7.638   
   1.000   
%endblock PAO.Basis

prinput: ----------------------------------------------------------------------

coor:   Atomic-coordinates input format  =     Cartesian coordinates
coor:                                          (in Angstroms)

siesta: Atomic coordinates (Bohr) and species
siesta:      0.00000   0.00000   0.00000  2        1
siesta:     -1.32825   2.30060   4.33487  1        2
siesta:     -2.74990   4.76296   4.33487  1        3
siesta:      2.74990   4.76296   4.33487  1        4
siesta:      1.32825   2.30060   4.33487  1        5
siesta:      2.65651   0.00000   4.33487  1        6
siesta:      5.49980   0.00000   4.33487  1        7

siesta: System type = bulk      

initatomlists: Number of atoms, orbitals, and projectors:      7    33    63

siesta: ******************** Simulation parameters ****************************
siesta:
siesta: The following are some of the parameters of the simulation.
siesta: A complete list of the parameters used, including default values,
siesta: can be found in file out.fdf
siesta:
redata: Spin configuration                          = none
redata: Number of spin components                   = 1
redata: Time-Reversal Symmetry                      = T
redata: Spin spiral                                 = F
redata: Long output                                 =   F
redata: Number of Atomic Species                    =        2
redata: Charge density info will appear in .RHO file
redata: Write Mulliken Pop.                         = NO
redata: Matel table size (NRTAB)                    =     1024
redata: Mesh Cutoff                                 =   300.0000 Ry
redata: Net charge of the system                    =     0.0000 |e|
redata: Min. number of SCF Iter                     =        0
redata: Max. number of SCF Iter                     =     1000
redata: SCF convergence failure will abort job
redata: SCF mix quantity                            = Hamiltonian
redata: Mix DM or H after convergence               =   F
redata: Recompute H after scf cycle                 =   F
redata: Mix DM in first SCF step                    =   T
redata: Write Pulay info on disk                    =   F
redata: New DM Occupancy tolerance                  = 0.000000000001
redata: No kicks to SCF
redata: DM Mixing Weight for Kicks                  =     0.5000
redata: Require Harris convergence for SCF          =   F
redata: Harris energy tolerance for SCF             =     0.000100 eV
redata: Require DM convergence for SCF              =   T
redata: DM tolerance for SCF                        =     0.001000
redata: Require EDM convergence for SCF             =   F
redata: EDM tolerance for SCF                       =     0.005000 eV
redata: Require H convergence for SCF               =   T
redata: Hamiltonian tolerance for SCF               =     0.001000 eV
redata: Require (free) Energy convergence for SCF   =   T
redata: (free) Energy tolerance for SCF             =     0.001000 eV
redata: Using Saved Data (generic)                  =   F
redata: Use continuation files for DM               =   F
redata: Neglect nonoverlap interactions             =   F
redata: Method of Calculation                       = Diagonalization
redata: Electronic Temperature                      =   299.9869 K
redata: Fix the spin of the system                  =   F
redata: Dynamics option                             = Single-point calculation
mix.SCF: Pulay mixing                            = Pulay
mix.SCF:    Variant                              = stable
mix.SCF:    History steps                        = 4
mix.SCF:    Linear mixing weight                 =     0.250000
mix.SCF:    Mixing weight                        =     0.250000
mix.SCF:    SVD condition                        = 0.1000E-07
redata: ***********************************************************************

%block SCF.Mixers
  Pulay
%endblock SCF.Mixers

%block SCF.Mixer.Pulay
  # Mixing method
  method pulay
  variant stable

  # Mixing options
  weight 0.2500
  weight.linear 0.2500
  history 4
%endblock SCF.Mixer.Pulay

DM_history_depth set to one: no extrapolation allowed by default for geometry relaxation
Size of DM history Fstack: 1
Total number of electrons:    10.000000
Total ionic charge:    10.000000

* ProcessorY, Blocksize:    2   1


* Orbital distribution balance (max,min):     9     8

k-point displ. along   1 input, could be:     0.00    0.50
k-point displ. along   2 input, could be:     0.00    0.50
k-point displ. along   3 input, could be:     0.00    0.50
 Kpoints in:            8 . Kpoints trimmed:            8

siesta: k-grid: Number of k-points =     8
siesta: k-grid: Cutoff (effective) =     4.316 Ang
siesta: k-grid: Supercell and displacements
siesta: k-grid:    2   0   0      0.000
siesta: k-grid:    0   2   0      0.000
siesta: k-grid:    0   0   2      0.000

diag: Algorithm                                     = Expert
diag: Parallel over k                               =   T
diag: Use parallel 2D distribution                  =   T
diag: Parallel block-size                           = 1
diag: Parallel distribution                         =     2 x     2
diag: Used triangular part                          = Lower
diag: Absolute tolerance                            =  0.100E-15
diag: Orthogonalization factor                      =  0.100E-05
diag: Memory factor                                 =  1.0000

superc: Internal auxiliary supercell:     9 x     9 x     7  =     567
superc: Number of atoms, orbitals, and projectors:   3969  18711  35721


ts: **************************************************************
ts: Save H and S matrices                           =    F
ts: Save DM and EDM matrices                        =    F
ts: Only save the overlap matrix S                  =    F
ts: **************************************************************

************************ Begin: TS CHECKS AND WARNINGS ************************
************************ End: TS CHECKS AND WARNINGS **************************


                     ====================================
                        Single-point calculation
                     ====================================

outcoor: Atomic coordinates (Ang):                          
    0.00000000    0.00000000    0.00000000   2       1  C-gga
   -0.70288177    1.21742694    2.29391320   1       2  Li-gga
   -1.45518323    2.52045129    2.29391320   1       3  Li-gga
    1.45518323    2.52045129    2.29391320   1       4  Li-gga
    0.70288177    1.21742694    2.29391320   1       5  Li-gga
    1.40576354    0.00000000    2.29391320   1       6  Li-gga
    2.91036646    0.00000000    2.29391320   1       7  Li-gga

superc: Internal auxiliary supercell:     9 x     9 x     7  =     567
superc: Number of atoms, orbitals, and projectors:   3969  18711  35721

outcell: Unit cell vectors (Ang):
        4.316130    0.000000    0.000000
       -2.158065    3.737878    0.000000
        0.000000    0.000000    4.587826

outcell: Cell vector modules (Ang)   :    4.316130    4.316130    4.587826
outcell: Cell angles (23,13,12) (deg):     90.0000     90.0000    120.0000
outcell: Cell volume (Ang**3)        :     74.0162
<dSpData1D:S at geom step 0
  <sparsity:sparsity for geom step 0
    nrows_g=33 nrows=9 sparsity=33.4040 nnzs=36377, refcount: 7>
  <dData1D:(new from dSpData1D) n=36377, refcount: 1>
refcount: 1>
new_DM -- step:     1
Initializing Density Matrix...
DM filled with atomic data:
<dSpData2D:DM initialized from atoms
  <sparsity:sparsity for geom step 0
    nrows_g=33 nrows=9 sparsity=33.4040 nnzs=36377, refcount: 8>
  <dData2D:DM n=36377 m=1, refcount: 1>
refcount: 1>
No. of atoms with KB's overlaping orbs in proc 0. Max # of overlaps:     288     700
New grid distribution:   1
           1       1:   20    1:   10    1:   12
           2       1:   20    1:   10   13:   24
           3       1:   20   11:   20    1:   12
           4       1:   20   11:   20   13:   24

InitMesh: MESH =    40 x    40 x    48 =       76800
InitMesh: (bp) =    20 x    20 x    24 =        9600
InitMesh: Mesh cutoff (required, used) =   300.000   302.531 Ry
ExtMesh (bp) on 0 =   156 x   146 x   144 =     3279744
New grid distribution:   2
           1       1:   20    1:   10    1:   12
           2       1:   20    1:   10   13:   24
           3       1:   20   11:   20    1:   12
           4       1:   20   11:   20   13:   24
New grid distribution:   3
           1       1:   20    1:   10    1:   12
           2       1:   20    1:   10   13:   24
           3       1:   20   11:   20    1:   12
           4       1:   20   11:   20   13:   24
Setting up quadratic distribution...
ExtMesh (bp) on 0 =   156 x   146 x   144 =     3279744
PhiOnMesh: Number of (b)points on node 0 =                 2400
PhiOnMesh: nlist on node 0 =               921168

stepf: Fermi-Dirac step function

siesta: Program's energy decomposition (eV):
siesta: Ebs     =      -145.536201
siesta: Eions   =       321.344870
siesta: Ena     =        92.838762
siesta: Ekin    =       106.845181
siesta: Enl     =        19.764568
siesta: Eso     =         0.000000
siesta: Edftu   =         0.000000
siesta: DEna    =        11.609163
siesta: DUscf   =         4.462419
siesta: DUext   =         0.000000
siesta: Exc     =       -92.859113
siesta: eta*DQ  =         0.000000
siesta: Emadel  =         0.000000
siesta: Emeta   =         0.000000
siesta: Emolmec =        -2.900560
siesta: Ekinion =         0.000000
siesta: Eharris =      -171.931401
siesta: Etot    =      -181.584450
siesta: FreeEng =      -181.608997

        iscf     Eharris(eV)        E_KS(eV)     FreeEng(eV)     dDmax    Ef(eV) dHmax(eV)
   scf:    1     -171.931401     -181.584450     -181.608997  1.417653 -9.842057  5.394334
timer: Routine,Calls,Time,% = IterSCF        1       8.349  57.62
   scf:    2     -180.286643     -183.173680     -183.183227  0.624479-10.631026  2.716047
   scf:    3     -183.417349     -183.673196     -183.686649  0.163660-10.425490  0.655766
   scf:    4     -183.583603     -183.629970     -183.643315  0.023791-10.353542  0.934936
   scf:    5     -180.172107     -182.677394     -182.707914  0.910303-10.858189  2.003642
   scf:    6     -183.698580     -183.472797     -183.486008  0.738690-10.546164  1.858945
   scf:    7     -183.410059     -183.708672     -183.723868  0.222866-10.479640  0.465875
   scf:    8     -182.432786     -183.392302     -183.405375  0.274402-10.566042  1.987131
   scf:    9     -183.902192     -183.731956     -183.751615  0.156995-10.513834  0.709916
   scf:   10     -183.706625     -183.719664     -183.738707  0.007170-10.514371  0.803790
   scf:   11     -183.775574     -183.775022     -183.798046  0.049904-10.507830  0.013349
   scf:   12     -183.775179     -183.775303     -183.798215  0.014174-10.510400  0.043125
   scf:   13     -183.775307     -183.775345     -183.798359  0.002218-10.509952  0.015180
   scf:   14     -183.775345     -183.775346     -183.798369  0.001143-10.510171  0.007625
   scf:   15     -183.775317     -183.775333     -183.798373  0.000358-10.510056  0.001959
   scf:   16     -183.775331     -183.775332     -183.798373  0.000042-10.510003  0.001373
   scf:   17     -183.775327     -183.775329     -183.798373  0.000090-10.509821  0.000046

SCF Convergence by FreeE+DM+H criterion
|FreeE_i-FreeE_(i-1)| (eV) <     0.00100000
max |DM_out - DM_in|         :     0.0000902925
max |H_out - H_in|      (eV) :     0.0000462514
SCF cycle converged after 17 iterations

Using DM_out to compute the final energy and forces
No. of atoms with KB's overlaping orbs in proc 0. Max # of overlaps:     288     700

MM-Stress (kbar):       -2.72       -2.72       48.99        0.00       -0.00       -0.00

siesta: E_KS(eV) =             -183.7753

siesta: E_KS - E_eggbox =      -183.7753

siesta: Atomic forces (eV/Ang):
     1   -0.000000    0.000000    0.000000
     2   -0.058836    0.101937    0.000000
     3    0.058836   -0.101937   -0.000000
     4   -0.058874   -0.101973    0.000000
     5    0.058874    0.101973   -0.000000
     6    0.117698    0.000015    0.000000
     7   -0.117698   -0.000015   -0.000000
----------------------------------------
   Tot   -0.000000   -0.000000   -0.000000
----------------------------------------
   Max    0.117698
   Res    0.062921    sqrt( Sum f_i^2 / 3N )
----------------------------------------
   Max    0.117698    constrained

Stress tensor Voigt[x,y,z,yz,xz,xy] (kbar):     -883.26     -883.29      533.43       -0.00       -0.00       -0.02
(Free)E + p*V (eV/cell)     -164.8096
Target enthalpy (eV/cell)     -183.7984

siesta: Eigenvalues (eV):
  ik is       eps
   1  1  -19.6215  -13.5989  -12.4596  -10.5289  -10.4937  -10.3001  -10.2999   -6.2440   -4.4818   -4.4818
          -1.6447   -1.6445   -1.0778   -1.0777    0.6474    0.6475    7.0473    9.9562    9.9564   16.1716
   16.1716   19.0719   19.0721   24.9451   29.0932   29.0937   30.6292   30.6292   34.5266   34.5267
   45.2468   47.3305   64.0824
   2  1  -19.4552  -13.0423  -12.8964  -11.4375  -10.6311  -10.3639   -8.7857   -8.4967   -4.7759   -3.8846
          -3.6945   -0.9115    1.0990    1.1089    1.6078    1.6604    2.0588    7.7511   15.3622   16.1963
   16.2156   16.4830   17.5661   18.7247   18.9451   20.2663   20.7143   25.5628   27.7284   36.7693
   50.6630   51.5412   57.4389
   3  1  -19.4552  -13.0423  -12.8964  -11.4375  -10.6311  -10.3639   -8.7857   -8.4967   -4.7759   -3.8846
          -3.6945   -0.9115    1.0990    1.1089    1.6078    1.6604    2.0588    7.7511   15.3622   16.1963
   16.2156   16.4830   17.5661   18.7247   18.9451   20.2663   20.7143   25.5628   27.7284   36.7693
   50.6630   51.5412   57.4389
   4  1  -19.4552  -13.0423  -12.8964  -11.4375  -10.6312  -10.3639   -8.7856   -8.4968   -4.7759   -3.8846
          -3.6946   -0.9114    1.0990    1.1089    1.6078    1.6604    2.0588    7.7513   15.3621   16.1963
   16.2156   16.4830   17.5658   18.7247   18.9451   20.2663   20.7144   25.5628   27.7282   36.7693
   50.6629   51.5412   57.4391
   5  1  -19.4633  -14.8264  -12.1167  -10.5913  -10.1910  -10.1909   -8.6443   -6.2523   -3.9957   -3.9956
          -3.6964   -3.6964   -2.1836   -2.1836    2.3223    2.3225    6.5235   16.5603   16.5604   21.7261
   21.7261   22.1195   22.1201   22.3086   22.3087   24.6410   30.1697   30.1697   36.4729   46.1999
   46.2106   46.2107   48.9389
   6  1  -19.1956  -14.8747  -12.0695  -11.9729  -11.1947  -10.5289   -6.6655   -6.3298   -5.2555   -5.1662
          -1.2145   -1.2060   -1.1788   -0.4242    0.9623    1.7795    3.3758    7.7164   11.8092   12.6488
   12.6573   15.0863   16.0421   20.1688   20.7911   24.9124   25.3892   30.4804   31.7585   37.2715
   48.4813   51.9604   54.6361
   7  1  -19.1956  -14.8747  -12.0695  -11.9729  -11.1947  -10.5289   -6.6655   -6.3298   -5.2555   -5.1662
          -1.2145   -1.2060   -1.1788   -0.4242    0.9623    1.7795    3.3758    7.7164   11.8092   12.6488
   12.6573   15.0863   16.0421   20.1688   20.7911   24.9124   25.3892   30.4804   31.7585   37.2715
   48.4813   51.9604   54.6361
   8  1  -19.1956  -14.8747  -12.0695  -11.9728  -11.1947  -10.5290   -6.6655   -6.3298   -5.2555   -5.1660
          -1.2145   -1.2062   -1.1788   -0.4242    0.9623    1.7795    3.3758    7.7163   11.8092   12.6487
   12.6572   15.0862   16.0421   20.1689   20.7916   24.9124   25.3892   30.4799   31.7586   37.2715
   48.4812   51.9604   54.6362
siesta: Fermi energy =     -10.509821 eV

siesta: Program's energy decomposition (eV):
siesta: Ebs     =      -136.138648
siesta: Eions   =       321.344870
siesta: Ena     =        92.838762
siesta: Ekin    =       123.091239
siesta: Enl     =        10.866678
siesta: Eso     =         0.000000
siesta: Edftu   =         0.000000
siesta: DEna    =         7.816297
siesta: DUscf   =         1.066679
siesta: DUext   =         0.000000
siesta: Exc     =       -95.209555
siesta: eta*DQ  =         0.000000
siesta: Emadel  =         0.000000
siesta: Emeta   =         0.000000
siesta: Emolmec =        -2.900560
siesta: Ekinion =         0.000000
siesta: Eharris =      -183.775327
siesta: Etot    =      -183.775329
siesta: FreeEng =      -183.798373

siesta: Final energy (eV):
siesta:  Band Struct. =    -136.138648
siesta:       Kinetic =     123.091239
siesta:       Hartree =      37.929176
siesta:       Edftu   =       0.000000
siesta:       Eso     =       0.000000
siesta:    Ext. field =       0.000000
siesta:   Exch.-corr. =     -95.209555
siesta:  Ion-electron =    -231.161152
siesta:       Ion-ion =     -15.524478
siesta:       Ekinion =       0.000000
siesta:         Total =    -183.775329
siesta:         Fermi =     -10.509821

siesta: Atomic forces (eV/Ang):
siesta:      1   -0.000000    0.000000    0.000000
siesta:      2   -0.058836    0.101937    0.000000
siesta:      3    0.058836   -0.101937   -0.000000
siesta:      4   -0.058874   -0.101973    0.000000
siesta:      5    0.058874    0.101973   -0.000000
siesta:      6    0.117698    0.000015    0.000000
siesta:      7   -0.117698   -0.000015   -0.000000
siesta: ----------------------------------------
siesta:    Tot   -0.000000   -0.000000   -0.000000

siesta: Stress tensor (static) (eV/Ang**3):
siesta:    -0.551284   -0.000012   -0.000000
siesta:    -0.000012   -0.551297   -0.000000
siesta:    -0.000000   -0.000000    0.332935

siesta: Cell volume =         74.016176 Ang**3

siesta: Pressure (static):
siesta:                Solid            Molecule  Units
siesta:           0.00279414          0.00282020  Ry/Bohr**3
siesta:           0.25654852          0.25894142  eV/Ang**3
siesta:         411.04048004        414.87438349  kBar
(Free)E+ p_basis*V_orbitals  =        -167.286448
(Free)Eharris+ p_basis*V_orbitals  =        -167.286445

cite: Please see "LiC6_scf.bib" for an exhaustive BiBTeX file.
cite: Please clearly indicate Siesta version in published work: 4.1.5
cite: This calculation has made use of the following articles
cite: which are encouraged to be cited in a published work.
        Primary SIESTA paper
          DOI: www.doi.org/10.1088/0953-8984/14/11/302

>> End of run:   9-NOV-2022  12:21:12
Job completed
