Siesta Version  : 4.1.5
Architecture    : x86_64-unknown-linux-gnu--unknown
Compiler version: GNU Fortran (GCC) 11.3.0
Compiler flags  : mpif90 -g -O2 -fallow-argument-mismatch
PP flags        : -DMPI -DFC_HAVE_FLUSH -DFC_HAVE_ABORT
Libraries       :  -I/global/software/sl-7.x86_64/modules/intel/2020.4.304/mkl/include  /globall/software/sl-7.x86_64/modules/intel/2020.4.304/mkl/lib/intel64/libmkl_scalapack_lp64.a -Wl,--start-group /global/software/sl-7.x86_64/modules/intel/2020.4.304/mkl/lib/intel64/libmkl_intel_lp64.a /global/software/sl-7.x86_64/modules/intel/2020.4.304/mkl/lib/intel64/libmkl_sequential.a /global/software/sl-7.x86_64/modules/intel/2020.4.304/mkl/lib/intel64/libmkl_core.a /global/software/sl-7.x86_64/modules/intel/2020.4.304/mkl/lib/intel64/libmkl_blacs_openmpi_lp64.a -Wl,--end-group -lpthread -lm -ldl
PARALLEL version

* Running on 4 nodes in parallel
>> Start of run:   9-NOV-2022  11:16:38

                           ***********************       
                           *  WELCOME TO SIESTA  *       
                           ***********************       

reinit: Reading from standard input
reinit: Dumped input in INPUT_TMP.65800
************************** Dump of input data file ****************************
SystemName LiC6_scf
SystemLabel LiC6_scf
NumberOfAtoms   7
NumberOfSpecies 2
%block ChemicalSpeciesLabel
1  3   Li-gga
2  6   C-gga
%endblock ChemicalSpeciesLabel
PAO.BasisSize  SZP
PAO.EnergyShift  10 meV
%block PS.Lmax
C-gga   2
Li-gga  2
%endblock PS.Lmax
LatticeConstant 1.000000 Ang
%block LatticeVectors
	4.3161300000	0.0000000000	0.0000000000
	-2.1580650000	3.7378782260	0.0000000000
	0.0000000000	0.0000000000	2.9598880000
%endblock LatticeVectors
AtomicCoordinatesFormat Ang
%block AtomicCoordinatesAndAtomicSpecies
	0.00000000	0.00000000	0.00000000	2
	-0.70288177	1.21742694	1.47994400	1
	-1.45518323	2.52045129	1.47994400	1
	1.45518323	2.52045129	1.47994400	1
	0.70288177	1.21742694	1.47994400	1
	1.40576354	0.00000000	1.47994400	1
	2.91036646	0.00000000	1.47994400	1
%endblock AtomicCoordinatesAndAtomicSpecies
Kgrid_NoTRS  T
%block kgrid_MonkhorstPack
2       0       0       0.0
0       2       0       0.0
0       0       2       0.0
%endblock kgrid_MonkhorstPack
AtomCoorFormatOut Ang
BlockSize 1
#ProcessorY 12
Diag.ParallelOverK   T
Diag.DivideAndConquer F
MeshCutoff   300 Ry
SCF.FreeE.Tolerance 1E-3 eV
SCF.EDM.Tolerance   5E-3 eV
DM.Tolerance  1E-3
DM.Require.Energy.Convergence T
DM.NumberPulay 4
XC.Functional GGA
XC.Authors    PBE
UseSaveData        F
MD.TypeOfRun       CG
MD.VariableCell    F
MD.NumCGsteps      00
MD.MaxCGDispl      0.200000 Bohr
MD.MaxStressTol    1.000000 GPa
MD.MaxForceTol     0.010000 eV/Ang
WriteMDHistory T
WriteCoorStep T
WriteForces T
WriteCoorStep    T
WriteEigenValues T
WriteDM    F
MM.UnitsDistance Ang  # what this program prints out DO NOT CHANGE
MM.UnitsEnergy    eV  # what this program prints out DO NOT CHANGE
MM.Grimme.S6     0.75 # Grimme-paper for PBE (correct for your functional)
MM.Grimme.D     20.   # Grimme-paper (correct for your functional)
%block MM.Potentials
  1   1 Grimme     16.69      1.650 # Li, 10.1002/jcc.20495
  1   2 Grimme     17.40      2.277 # Li / C
  2   2 Grimme     18.14      2.904 # C, 10.1002/jcc.20495
%endblock MM.Potentials
#%block ProjectedDensityOfStates
# -200.0  120.0  0.4  12800  eV
#%endblock ProjectedDensityOfStates
************************** End of input data file *****************************

reinit: -----------------------------------------------------------------------
reinit: System Name: LiC6_scf
reinit: -----------------------------------------------------------------------
reinit: System Label: LiC6_scf
reinit: -----------------------------------------------------------------------
Reading two-body potentials
Grimme - two-body potential between 1 and 1
Grimme - two-body potential between 1 and 2
Grimme - two-body potential between 2 and 2

initatom: Reading input for the pseudopotentials and atomic orbitals ----------
Species number:   1 Atomic number:    3 Label: Li-gga
Species number:   2 Atomic number:    6 Label: C-gga

Ground state valence configuration:   2s01
Reading pseudopotential information in formatted form from Li-gga.psf

Valence configuration for pseudopotential generation:
2s( 1.00) rc: 2.28
2p( 0.00) rc: 2.28
3d( 0.00) rc: 2.59
4f( 0.00) rc: 2.59
Ground state valence configuration:   2s02  2p02
Reading pseudopotential information in formatted form from C-gga.psf

Valence configuration for pseudopotential generation:
2s( 2.00) rc: 1.56
2p( 2.00) rc: 1.56
3d( 0.00) rc: 1.56
4f( 0.00) rc: 1.56
relmxkb: Read Max KB Ang. Momentum=    2 for species C-gga
relmxkb: Read Max KB Ang. Momentum=    2 for species Li-gga

<basis_specs>
===============================================================================
Li-gga               Z=   3    Mass=  6.9400        Charge= 0.17977+309
Lmxo=0 Lmxkb= 2    BasisType=split      Semic=F
L=0  Nsemic=0  Cnfigmx=2
          i=1  nzeta=1  polorb=1  (2s)
            splnorm:   0.15000    
               vcte:    0.0000    
               rinn:    0.0000    
               qcoe:    0.0000    
               qyuk:    0.0000    
               qwid:   0.10000E-01
                rcs:    0.0000    
            lambdas:    1.0000    
-------------------------------------------------------------------------------
L=0  Nkbl=1  erefs: 0.17977+309
L=1  Nkbl=1  erefs: 0.17977+309
L=2  Nkbl=1  erefs: 0.17977+309
===============================================================================
</basis_specs>

atom: Called for Li-gga                (Z =   3)

read_vps: Pseudopotential generation method:
read_vps: ATM 3.2.2 Troullier-Martins                       
Valence charge for ps generation:    1.00000

read_vps: Pseudopotential includes a core correction:
read_vps: Pseudo-core for xc-correction

xc_check: Exchange-correlation functional:
xc_check: GGA Perdew, Burke & Ernzerhof 1996
V l=0 = -2*Zval/r beyond r=  2.2278
V l=1 = -2*Zval/r beyond r=  2.2278
V l=2 = -2*Zval/r beyond r=  2.5245
All V_l potentials equal beyond r=  2.4622
This should be close to max(r_c) in ps generation
All pots = -2*Zval/r beyond r=  2.5245

VLOCAL1: 99.0% of the norm of Vloc inside      7.160 Ry
VLOCAL1: 99.9% of the norm of Vloc inside     16.318 Ry
atom: Maximum radius for 4*pi*r*r*local-pseudopot. charge    2.86079
atom: Maximum radius for r*vlocal+2*Zval:    2.43160
GHOST: No ghost state for L =  0
GHOST: No ghost state for L =  1
GHOST: No ghost state for L =  2

KBgen: Kleinman-Bylander projectors: 
   l= 0   rc=  2.654023   el= -0.211234   Ekb=  1.742119   kbcos=  0.228463
   l= 1   rc=  2.721230   el= -0.080095   Ekb= -1.122375   kbcos= -0.147941
   l= 2   rc=  2.825246   el=  0.002001   Ekb= -0.207076   kbcos= -0.031965

KBgen: Total number of Kleinman-Bylander projectors:    9
atom: -------------------------------------------------------------------------

atom: SANKEY-TYPE ORBITALS:

SPLIT: Orbitals with angular momentum L= 0

SPLIT: Basis orbitals for state 2s

SPLIT: PAO cut-off radius determined from an
SPLIT: energy shift=  0.000735 Ry

   izeta = 1
                 lambda =    1.000000
                     rc =   11.897381
                 energy =   -0.210580
                kinetic =    0.143382
    potential(screened) =   -0.353962
       potential(ionic) =   -0.533453

POLgen: Perturbative polarization orbital with L=  1

POLgen: Polarization orbital for state 2s

   izeta = 1
                     rc =   11.897381
                 energy =   -0.027011
                kinetic =    0.282985
    potential(screened) =   -0.309997
       potential(ionic) =   -0.490997
atom: Total number of Sankey-type orbitals:  4

atm_pop: Valence configuration (for local Pseudopot. screening):
 2s( 1.00)                                                            
Vna: chval, zval:    1.00000   1.00000

Vna:  Cut-off radius for the neutral-atom potential:  11.897381
comcore: Pseudo-core radius Rcore=  3.450946

atom: _________________________________________________________________________

<basis_specs>
===============================================================================
C-gga                Z=   6    Mass=  12.010        Charge= 0.17977+309
Lmxo=1 Lmxkb= 2    BasisType=split      Semic=F
L=0  Nsemic=0  Cnfigmx=2
          i=1  nzeta=1  polorb=0  (2s)
            splnorm:   0.15000    
               vcte:    0.0000    
               rinn:    0.0000    
               qcoe:    0.0000    
               qyuk:    0.0000    
               qwid:   0.10000E-01
                rcs:    0.0000    
            lambdas:    1.0000    
L=1  Nsemic=0  Cnfigmx=2
          i=1  nzeta=1  polorb=1  (2p)
            splnorm:   0.15000    
               vcte:    0.0000    
               rinn:    0.0000    
               qcoe:    0.0000    
               qyuk:    0.0000    
               qwid:   0.10000E-01
                rcs:    0.0000    
            lambdas:    1.0000    
-------------------------------------------------------------------------------
L=0  Nkbl=1  erefs: 0.17977+309
L=1  Nkbl=1  erefs: 0.17977+309
L=2  Nkbl=1  erefs: 0.17977+309
===============================================================================
</basis_specs>

atom: Called for C-gga                 (Z =   6)

read_vps: Pseudopotential generation method:
read_vps: ATM 3.2.2 Troullier-Martins                       
Valence charge for ps generation:    4.00000

xc_check: Exchange-correlation functional:
xc_check: GGA Perdew, Burke & Ernzerhof 1996
V l=0 = -2*Zval/r beyond r=  1.5227
V l=1 = -2*Zval/r beyond r=  1.5227
V l=2 = -2*Zval/r beyond r=  1.5227
All V_l potentials equal beyond r=  1.4851
This should be close to max(r_c) in ps generation
All pots = -2*Zval/r beyond r=  1.5227

VLOCAL1: 99.0% of the norm of Vloc inside     19.682 Ry
VLOCAL1: 99.9% of the norm of Vloc inside     44.856 Ry
atom: Maximum radius for 4*pi*r*r*local-pseudopot. charge    1.79142
atom: Maximum radius for r*vlocal+2*Zval:    1.54183
GHOST: No ghost state for L =  0
GHOST: No ghost state for L =  1
GHOST: No ghost state for L =  2

KBgen: Kleinman-Bylander projectors: 
   l= 0   rc=  1.661951   el= -1.010689   Ekb=  5.289847   kbcos=  0.316429
   l= 1   rc=  1.661951   el= -0.388490   Ekb= -4.102504   kbcos= -0.351025
   l= 2   rc=  1.747182   el=  0.001971   Ekb= -1.006005   kbcos= -0.008530

KBgen: Total number of Kleinman-Bylander projectors:    9
atom: -------------------------------------------------------------------------

atom: SANKEY-TYPE ORBITALS:

SPLIT: Orbitals with angular momentum L= 0

SPLIT: Basis orbitals for state 2s

SPLIT: PAO cut-off radius determined from an
SPLIT: energy shift=  0.000735 Ry

   izeta = 1
                 lambda =    1.000000
                     rc =    5.948690
                 energy =   -1.010099
                kinetic =    0.827121
    potential(screened) =   -1.837220
       potential(ionic) =   -5.392783

SPLIT: Orbitals with angular momentum L= 1

SPLIT: Basis orbitals for state 2p

SPLIT: PAO cut-off radius determined from an
SPLIT: energy shift=  0.000735 Ry

   izeta = 1
                 lambda =    1.000000
                     rc =    7.638387
                 energy =   -0.387843
                kinetic =    2.314739
    potential(screened) =   -2.702582
       potential(ionic) =   -6.092371

POLgen: Perturbative polarization orbital with L=  2

POLgen: Polarization orbital for state 2p

   izeta = 1
                     rc =    7.638387
                 energy =    0.921402
                kinetic =    1.955040
    potential(screened) =   -1.033637
       potential(ionic) =   -3.679558
atom: Total number of Sankey-type orbitals:  9

atm_pop: Valence configuration (for local Pseudopot. screening):
 2s( 2.00)                                                            
 2p( 2.00)                                                            
Vna: chval, zval:    4.00000   4.00000

Vna:  Cut-off radius for the neutral-atom potential:   7.638387

atom: _________________________________________________________________________

prinput: Basis input ----------------------------------------------------------

PAO.BasisType split     

%block ChemicalSpeciesLabel
    1    3 Li-gga                  # Species index, atomic number, species label
    2    6 C-gga                   # Species index, atomic number, species label
%endblock ChemicalSpeciesLabel

%block PAO.Basis                 # Define Basis set
Li-gga                1                    # Species label, number of l-shells
 n=2   0   1 P   1                   # n, l, Nzeta, Polarization, NzetaPol
  11.897   
   1.000   
C-gga                 2                    # Species label, number of l-shells
 n=2   0   1                         # n, l, Nzeta 
   5.949   
   1.000   
 n=2   1   1 P   1                   # n, l, Nzeta, Polarization, NzetaPol
   7.638   
   1.000   
%endblock PAO.Basis

prinput: ----------------------------------------------------------------------

coor:   Atomic-coordinates input format  =     Cartesian coordinates
coor:                                          (in Angstroms)

siesta: Atomic coordinates (Bohr) and species
siesta:      0.00000   0.00000   0.00000  2        1
siesta:     -1.32825   2.30060   2.79669  1        2
siesta:     -2.74990   4.76296   2.79669  1        3
siesta:      2.74990   4.76296   2.79669  1        4
siesta:      1.32825   2.30060   2.79669  1        5
siesta:      2.65651   0.00000   2.79669  1        6
siesta:      5.49980   0.00000   2.79669  1        7

siesta: System type = bulk      

initatomlists: Number of atoms, orbitals, and projectors:      7    33    63

siesta: ******************** Simulation parameters ****************************
siesta:
siesta: The following are some of the parameters of the simulation.
siesta: A complete list of the parameters used, including default values,
siesta: can be found in file out.fdf
siesta:
redata: Spin configuration                          = none
redata: Number of spin components                   = 1
redata: Time-Reversal Symmetry                      = T
redata: Spin spiral                                 = F
redata: Long output                                 =   F
redata: Number of Atomic Species                    =        2
redata: Charge density info will appear in .RHO file
redata: Write Mulliken Pop.                         = NO
redata: Matel table size (NRTAB)                    =     1024
redata: Mesh Cutoff                                 =   300.0000 Ry
redata: Net charge of the system                    =     0.0000 |e|
redata: Min. number of SCF Iter                     =        0
redata: Max. number of SCF Iter                     =     1000
redata: SCF convergence failure will abort job
redata: SCF mix quantity                            = Hamiltonian
redata: Mix DM or H after convergence               =   F
redata: Recompute H after scf cycle                 =   F
redata: Mix DM in first SCF step                    =   T
redata: Write Pulay info on disk                    =   F
redata: New DM Occupancy tolerance                  = 0.000000000001
redata: No kicks to SCF
redata: DM Mixing Weight for Kicks                  =     0.5000
redata: Require Harris convergence for SCF          =   F
redata: Harris energy tolerance for SCF             =     0.000100 eV
redata: Require DM convergence for SCF              =   T
redata: DM tolerance for SCF                        =     0.001000
redata: Require EDM convergence for SCF             =   F
redata: EDM tolerance for SCF                       =     0.005000 eV
redata: Require H convergence for SCF               =   T
redata: Hamiltonian tolerance for SCF               =     0.001000 eV
redata: Require (free) Energy convergence for SCF   =   T
redata: (free) Energy tolerance for SCF             =     0.001000 eV
redata: Using Saved Data (generic)                  =   F
redata: Use continuation files for DM               =   F
redata: Neglect nonoverlap interactions             =   F
redata: Method of Calculation                       = Diagonalization
redata: Electronic Temperature                      =   299.9869 K
redata: Fix the spin of the system                  =   F
redata: Dynamics option                             = Single-point calculation
mix.SCF: Pulay mixing                            = Pulay
mix.SCF:    Variant                              = stable
mix.SCF:    History steps                        = 4
mix.SCF:    Linear mixing weight                 =     0.250000
mix.SCF:    Mixing weight                        =     0.250000
mix.SCF:    SVD condition                        = 0.1000E-07
redata: ***********************************************************************

%block SCF.Mixers
  Pulay
%endblock SCF.Mixers

%block SCF.Mixer.Pulay
  # Mixing method
  method pulay
  variant stable

  # Mixing options
  weight 0.2500
  weight.linear 0.2500
  history 4
%endblock SCF.Mixer.Pulay

DM_history_depth set to one: no extrapolation allowed by default for geometry relaxation
Size of DM history Fstack: 1
Total number of electrons:    10.000000
Total ionic charge:    10.000000

* ProcessorY, Blocksize:    2   1


* Orbital distribution balance (max,min):     9     8

k-point displ. along   1 input, could be:     0.00    0.50
k-point displ. along   2 input, could be:     0.00    0.50
k-point displ. along   3 input, could be:     0.00    0.50
 Kpoints in:            8 . Kpoints trimmed:            8

siesta: k-grid: Number of k-points =     8
siesta: k-grid: Cutoff (effective) =     2.960 Ang
siesta: k-grid: Supercell and displacements
siesta: k-grid:    2   0   0      0.000
siesta: k-grid:    0   2   0      0.000
siesta: k-grid:    0   0   2      0.000

diag: Algorithm                                     = Expert
diag: Parallel over k                               =   T
diag: Use parallel 2D distribution                  =   T
diag: Parallel block-size                           = 1
diag: Parallel distribution                         =     2 x     2
diag: Used triangular part                          = Lower
diag: Absolute tolerance                            =  0.100E-15
diag: Orthogonalization factor                      =  0.100E-05
diag: Memory factor                                 =  1.0000

superc: Internal auxiliary supercell:     9 x     9 x     9  =     729
superc: Number of atoms, orbitals, and projectors:   5103  24057  45927


ts: **************************************************************
ts: Save H and S matrices                           =    F
ts: Save DM and EDM matrices                        =    F
ts: Only save the overlap matrix S                  =    F
ts: **************************************************************

************************ Begin: TS CHECKS AND WARNINGS ************************
************************ End: TS CHECKS AND WARNINGS **************************


                     ====================================
                        Single-point calculation
                     ====================================

outcoor: Atomic coordinates (Ang):                          
    0.00000000    0.00000000    0.00000000   2       1  C-gga
   -0.70288177    1.21742694    1.47994400   1       2  Li-gga
   -1.45518323    2.52045129    1.47994400   1       3  Li-gga
    1.45518323    2.52045129    1.47994400   1       4  Li-gga
    0.70288177    1.21742694    1.47994400   1       5  Li-gga
    1.40576354    0.00000000    1.47994400   1       6  Li-gga
    2.91036646    0.00000000    1.47994400   1       7  Li-gga

superc: Internal auxiliary supercell:     9 x     9 x     9  =     729
superc: Number of atoms, orbitals, and projectors:   5103  24057  45927

outcell: Unit cell vectors (Ang):
        4.316130    0.000000    0.000000
       -2.158065    3.737878    0.000000
        0.000000    0.000000    2.959888

outcell: Cell vector modules (Ang)   :    4.316130    4.316130    2.959888
outcell: Cell angles (23,13,12) (deg):     90.0000     90.0000    120.0000
outcell: Cell volume (Ang**3)        :     47.7524
<dSpData1D:S at geom step 0
  <sparsity:sparsity for geom step 0
    nrows_g=33 nrows=9 sparsity=60.1423 nnzs=65495, refcount: 7>
  <dData1D:(new from dSpData1D) n=65495, refcount: 1>
refcount: 1>
new_DM -- step:     1
Initializing Density Matrix...
DM filled with atomic data:
<dSpData2D:DM initialized from atoms
  <sparsity:sparsity for geom step 0
    nrows_g=33 nrows=9 sparsity=60.1423 nnzs=65495, refcount: 8>
  <dData2D:DM n=65495 m=1, refcount: 1>
refcount: 1>
No. of atoms with KB's overlaping orbs in proc 0. Max # of overlaps:     454    1148
New grid distribution:   1
           1       1:   20    1:   10    1:    8
           2       1:   20    1:   10    9:   16
           3       1:   20   11:   20    1:    8
           4       1:   20   11:   20    9:   16

InitMesh: MESH =    40 x    40 x    32 =       51200
InitMesh: (bp) =    20 x    20 x    16 =        6400
InitMesh: Mesh cutoff (required, used) =   300.000   316.498 Ry
ExtMesh (bp) on 0 =   156 x   146 x   148 =     3370848
New grid distribution:   2
           1       1:   10    1:   10    1:   16
           2      11:   20    1:   10    1:   16
           3       1:   10   11:   20    1:   16
           4      11:   20   11:   20    1:   16
New grid distribution:   3
           1       1:   10    1:   10    1:   16
           2      11:   20    1:   10    1:   16
           3       1:   10   11:   20    1:   16
           4      11:   20   11:   20    1:   16
Setting up quadratic distribution...
ExtMesh (bp) on 0 =   146 x   146 x   156 =     3325296
PhiOnMesh: Number of (b)points on node 0 =                 1600
PhiOnMesh: nlist on node 0 =               948494

stepf: Fermi-Dirac step function

siesta: Program's energy decomposition (eV):
siesta: Ebs     =      -119.680928
siesta: Eions   =       321.344870
siesta: Ena     =        78.749888
siesta: Ekin    =       203.714726
siesta: Enl     =       -14.073616
siesta: Eso     =         0.000000
siesta: Edftu   =         0.000000
siesta: DEna    =       -26.152560
siesta: DUscf   =        17.665945
siesta: DUext   =         0.000000
siesta: Exc     =      -117.134079
siesta: eta*DQ  =         0.000000
siesta: Emadel  =         0.000000
siesta: Emeta   =         0.000000
siesta: Emolmec =        -3.407235
siesta: Ekinion =         0.000000
siesta: Eharris =      -148.959085
siesta: Etot    =      -181.981800
siesta: FreeEng =      -181.982342

        iscf     Eharris(eV)        E_KS(eV)     FreeEng(eV)     dDmax    Ef(eV) dHmax(eV)
   scf:    1     -148.959085     -181.981800     -181.982342  1.497895-14.038396 12.630453
timer: Routine,Calls,Time,% = IterSCF        1      14.084  58.82
   scf:    2     -195.998413     -192.029420     -192.055093  1.164906-13.694718  1.359930
   scf:    3     -192.174999     -192.122263     -192.148107  0.070980-13.842786  0.352490
   scf:    4     -192.107865     -192.121638     -192.147646  0.046264-14.023174  0.321607
   scf:    5     -192.128312     -192.128367     -192.154337  0.032910-14.026119  0.073486
   scf:    6     -192.128825     -192.128703     -192.154686  0.006078-14.032129  0.002713
   scf:    7     -192.128614     -192.128678     -192.154659  0.006331-14.029855  0.003441
   scf:    8     -192.128685     -192.128704     -192.154686  0.006824-14.030975  0.001777
   scf:    9     -192.128707     -192.128706     -192.154688  0.001268-14.029686  0.000332
   scf:   10     -192.128706     -192.128706     -192.154688  0.000079-14.029693  0.000174

SCF Convergence by FreeE+DM+H criterion
|FreeE_i-FreeE_(i-1)| (eV) <     0.00100000
max |DM_out - DM_in|         :     0.0000788982
max |H_out - H_in|      (eV) :     0.0001736620
SCF cycle converged after 10 iterations

Using DM_out to compute the final energy and forces
No. of atoms with KB's overlaping orbs in proc 0. Max # of overlaps:     454    1148

MM-Stress (kbar):       -4.86       -4.86       54.65        0.00        0.00       -0.00

siesta: E_KS(eV) =             -192.1287

siesta: E_KS - E_eggbox =      -192.1287

siesta: Atomic forces (eV/Ang):
     1   -0.000000   -0.000000    0.000000
     2   -0.016304    0.028270   -0.000000
     3    0.016343   -0.028247   -0.000000
     4   -0.016355   -0.028283   -0.000000
     5    0.016316    0.028305   -0.000000
     6    0.032635   -0.000030   -0.000000
     7   -0.032635   -0.000015   -0.000000
----------------------------------------
   Tot   -0.000000    0.000000   -0.000000
----------------------------------------
   Max    0.032635
   Res    0.017450    sqrt( Sum f_i^2 / 3N )
----------------------------------------
   Max    0.032635    constrained

Stress tensor Voigt[x,y,z,yz,xz,xy] (kbar):    -1222.57    -1222.59      198.31       -0.00        0.00       -0.02
(Free)E + p*V (eV/cell)     -169.8327
Target enthalpy (eV/cell)     -192.1547

siesta: Eigenvalues (eV):
  ik is       eps
   1  1  -24.3803  -17.8825  -15.3935  -15.3933  -15.3224  -14.9687   -9.9763   -9.9763   -4.3785   -3.2036
           0.8497    0.8502    3.6931    3.6931    8.1237    8.1237   11.3600   11.3601   11.8611   17.3995
   17.3996   19.0059   19.0060   22.0393   27.6360   35.6187   35.6200   41.8224   42.9555   42.9562
   43.9014   43.9016   44.9594
   2  1  -24.5620  -18.7614  -16.5997  -15.7516  -14.4886  -12.7474   -7.3333   -7.1311   -6.8276   -4.2144
          -2.8641   -2.8051   -1.1346    1.0591    4.4593    7.4470    9.6255   11.3673   12.9009   14.8968
   16.5060   19.6921   20.5212   21.6568   21.8008   21.8935   23.2905   26.4304   32.0222   41.9037
   45.9242   47.8132   65.5839
   3  1  -24.5620  -18.7614  -16.5997  -15.7516  -14.4886  -12.7474   -7.3333   -7.1311   -6.8276   -4.2144
          -2.8641   -2.8051   -1.1346    1.0591    4.4593    7.4470    9.6255   11.3673   12.9009   14.8968
   16.5060   19.6921   20.5212   21.6568   21.8008   21.8935   23.2905   26.4304   32.0222   41.9037
   45.9242   47.8132   65.5839
   4  1  -24.5620  -18.7614  -16.5997  -15.7517  -14.4886  -12.7473   -7.3334   -7.1311   -6.8276   -4.2144
          -2.8641   -2.8051   -1.1347    1.0591    4.4589    7.4472    9.6255   11.3678   12.9013   14.8968
   16.5059   19.6922   20.5213   21.6570   21.8008   21.8934   23.2898   26.4302   32.0222   41.9038
   45.9240   47.8131   65.5838
   5  1  -23.9874  -18.8908  -15.1870  -15.1868  -13.8476  -13.7714  -12.9155   -8.0356   -8.0356   -4.6282
          -4.6282   -4.4294   -4.4294    3.7370    4.5078    4.5085   19.7902   19.7902   21.6528   22.5524
   23.3161   23.3171   23.9497   23.9497   29.2340   29.2341   30.2194   30.2195   40.2417   44.8674
   46.1980   87.9269   87.9273
   6  1  -23.4716  -19.0137  -18.1776  -15.8606  -14.0412  -14.0181  -12.0393   -7.5837   -5.3884   -3.8600
          -2.3780   -1.2516   -1.0408   -0.6612   -0.4653    0.7186    2.0844    3.6656   13.2472   18.1069
   21.1757   22.2300   23.0578   24.1837   24.9269   28.8510   30.5161   40.2428   53.3388   56.5595
   57.0825   60.3173   63.6300
   7  1  -23.4716  -19.0137  -18.1776  -15.8606  -14.0412  -14.0181  -12.0393   -7.5837   -5.3884   -3.8600
          -2.3780   -1.2516   -1.0408   -0.6612   -0.4653    0.7186    2.0844    3.6656   13.2472   18.1069
   21.1757   22.2300   23.0578   24.1837   24.9269   28.8510   30.5161   40.2428   53.3388   56.5595
   57.0825   60.3173   63.6299
   8  1  -23.4716  -19.0137  -18.1775  -15.8607  -14.0412  -14.0181  -12.0393   -7.5833   -5.3884   -3.8603
          -2.3780   -1.2516   -1.0408   -0.6613   -0.4653    0.7186    2.0844    3.6656   13.2469   18.1070
   21.1764   22.2299   23.0578   24.1837   24.9269   28.8510   30.5160   40.2417   53.3389   56.5592
   57.0827   60.3175   63.6299
siesta: Fermi energy =     -14.029693 eV

siesta: Program's energy decomposition (eV):
siesta: Ebs     =      -179.687026
siesta: Eions   =       321.344870
siesta: Ena     =        78.749888
siesta: Ekin    =       157.786671
siesta: Enl     =         0.722628
siesta: Eso     =         0.000000
siesta: Edftu   =         0.000000
siesta: DEna    =         0.323974
siesta: DUscf   =         2.308640
siesta: DUext   =         0.000000
siesta: Exc     =      -107.268403
siesta: eta*DQ  =         0.000000
siesta: Emadel  =         0.000000
siesta: Emeta   =         0.000000
siesta: Emolmec =        -3.407235
siesta: Ekinion =         0.000000
siesta: Eharris =      -192.128706
siesta: Etot    =      -192.128706
siesta: FreeEng =      -192.154688

siesta: Final energy (eV):
siesta:  Band Struct. =    -179.687026
siesta:       Kinetic =     157.786671
siesta:       Hartree =      60.037093
siesta:       Edftu   =       0.000000
siesta:       Eso     =       0.000000
siesta:    Ext. field =       0.000000
siesta:   Exch.-corr. =    -107.268403
siesta:  Ion-electron =    -337.788962
siesta:       Ion-ion =      38.512131
siesta:       Ekinion =       0.000000
siesta:         Total =    -192.128706
siesta:         Fermi =     -14.029693

siesta: Atomic forces (eV/Ang):
siesta:      1   -0.000000   -0.000000    0.000000
siesta:      2   -0.016304    0.028270   -0.000000
siesta:      3    0.016343   -0.028247   -0.000000
siesta:      4   -0.016355   -0.028283   -0.000000
siesta:      5    0.016316    0.028305   -0.000000
siesta:      6    0.032635   -0.000030   -0.000000
siesta:      7   -0.032635   -0.000015   -0.000000
siesta: ----------------------------------------
siesta:    Tot   -0.000000    0.000000   -0.000000

siesta: Stress tensor (static) (eV/Ang**3):
siesta:    -0.763063   -0.000011   -0.000000
siesta:    -0.000011   -0.763075   -0.000000
siesta:     0.000000   -0.000000    0.123776

siesta: Cell volume =         47.752371 Ang**3

siesta: Pressure (static):
siesta:                Solid            Molecule  Units
siesta:           0.00509117          0.00510237  Ry/Bohr**3
siesta:           0.46745402          0.46848267  eV/Ang**3
siesta:         748.95200081        750.60009434  kBar
(Free)E+ p_basis*V_orbitals  =        -175.642763
(Free)Eharris+ p_basis*V_orbitals  =        -175.642763

cite: Please see "LiC6_scf.bib" for an exhaustive BiBTeX file.
cite: Please clearly indicate Siesta version in published work: 4.1.5
cite: This calculation has made use of the following articles
cite: which are encouraged to be cited in a published work.
        Primary SIESTA paper
          DOI: www.doi.org/10.1088/0953-8984/14/11/302

>> End of run:   9-NOV-2022  11:18:48
Job completed
