Siesta Version  : 4.1.5
Architecture    : x86_64-unknown-linux-gnu--unknown
Compiler version: GNU Fortran (GCC) 11.3.0
Compiler flags  : mpif90 -g -O2 -fallow-argument-mismatch
PP flags        : -DMPI -DFC_HAVE_FLUSH -DFC_HAVE_ABORT
Libraries       :  -I/global/software/sl-7.x86_64/modules/intel/2020.4.304/mkl/include  /globall/software/sl-7.x86_64/modules/intel/2020.4.304/mkl/lib/intel64/libmkl_scalapack_lp64.a -Wl,--start-group /global/software/sl-7.x86_64/modules/intel/2020.4.304/mkl/lib/intel64/libmkl_intel_lp64.a /global/software/sl-7.x86_64/modules/intel/2020.4.304/mkl/lib/intel64/libmkl_sequential.a /global/software/sl-7.x86_64/modules/intel/2020.4.304/mkl/lib/intel64/libmkl_core.a /global/software/sl-7.x86_64/modules/intel/2020.4.304/mkl/lib/intel64/libmkl_blacs_openmpi_lp64.a -Wl,--end-group -lpthread -lm -ldl
PARALLEL version

* Running on 12 nodes in parallel
>> Start of run:   9-NOV-2022   2:44:34

                           ***********************       
                           *  WELCOME TO SIESTA  *       
                           ***********************       

reinit: Reading from standard input
reinit: Dumped input in INPUT_TMP.41097
************************** Dump of input data file ****************************
SystemName LiC12_scf
SystemLabel LiC12_scf
NumberOfAtoms   13
NumberOfSpecies 2
%block ChemicalSpeciesLabel
1  3   Li-gga
2  6   C-gga
%endblock ChemicalSpeciesLabel
PAO.BasisSize  DZP
PAO.EnergyShift  10 meV
%block PS.Lmax
C-gga   2
Li-gga  2
%endblock PS.Lmax
LatticeConstant 1.000000 Ang
%block LatticeVectors
	4.2686000000	0.0000000000	0.0000000000
	-2.1343000000	3.6967160386	0.0000000000
	0.0000000000	0.0000000000	8.5679380000
%endblock LatticeVectors
AtomicCoordinatesFormat Ang
%block AtomicCoordinatesAndAtomicSpecies
	0.00000000	0.00000000	0.00000000	2
	1.42144380	0.00000000	2.14198450	1
	2.84715620	0.00000000	6.42595350	1
	-0.71072190	1.23100644	2.14198450	1
	-1.42357810	2.46570960	6.42595350	1
	1.42357810	2.46570960	2.14198450	1
	0.71072190	1.23100644	6.42595350	1
	2.84715620	0.00000000	2.14198450	1
	1.42144380	0.00000000	6.42595350	1
	-1.42357810	2.46570960	2.14198450	1
	-0.71072190	1.23100644	6.42595350	1
	0.71072190	1.23100644	2.14198450	1
	1.42357810	2.46570960	6.42595350	1
%endblock AtomicCoordinatesAndAtomicSpecies
Kgrid_NoTRS  T
%block kgrid_MonkhorstPack
2       0       0       0.0
0       2       0       0.0
0       0       2       0.0
%endblock kgrid_MonkhorstPack
AtomCoorFormatOut Ang
BlockSize 1
#ProcessorY 12
Diag.ParallelOverK   T
Diag.DivideAndConquer F
MeshCutoff   300 Ry
SCF.FreeE.Tolerance 1E-3 eV
SCF.EDM.Tolerance   5E-3 eV
DM.Tolerance  1E-3
DM.Require.Energy.Convergence T
DM.NumberPulay 4
XC.Functional GGA
XC.Authors    PBE
UseSaveData        F
MD.TypeOfRun       CG
MD.VariableCell    F
MD.NumCGsteps      00
MD.MaxCGDispl      0.200000 Bohr
MD.MaxStressTol    1.000000 GPa
MD.MaxForceTol     0.010000 eV/Ang
WriteMDHistory T
WriteCoorStep T
WriteForces T
WriteCoorStep    T
WriteEigenValues T
WriteDM    F
MM.UnitsDistance Ang  # what this program prints out DO NOT CHANGE
MM.UnitsEnergy    eV  # what this program prints out DO NOT CHANGE
MM.Grimme.S6     0.75 # Grimme-paper for PBE (correct for your functional)
MM.Grimme.D     20.   # Grimme-paper (correct for your functional)
%block MM.Potentials
  1   1 Grimme     16.69      1.650 # Li, 10.1002/jcc.20495
  1   2 Grimme     17.40      2.277 # Li / C
  2   2 Grimme     18.14      2.904 # C, 10.1002/jcc.20495
%endblock MM.Potentials
#%block ProjectedDensityOfStates
# -200.0  120.0  0.4  12800  eV
#%endblock ProjectedDensityOfStates
************************** End of input data file *****************************

reinit: -----------------------------------------------------------------------
reinit: System Name: LiC12_scf
reinit: -----------------------------------------------------------------------
reinit: System Label: LiC12_scf
reinit: -----------------------------------------------------------------------
Reading two-body potentials
Grimme - two-body potential between 1 and 1
Grimme - two-body potential between 1 and 2
Grimme - two-body potential between 2 and 2

initatom: Reading input for the pseudopotentials and atomic orbitals ----------
Species number:   1 Atomic number:    3 Label: Li-gga
Species number:   2 Atomic number:    6 Label: C-gga

Ground state valence configuration:   2s01
Reading pseudopotential information in formatted form from Li-gga.psf

Valence configuration for pseudopotential generation:
2s( 1.00) rc: 2.28
2p( 0.00) rc: 2.28
3d( 0.00) rc: 2.59
4f( 0.00) rc: 2.59
Ground state valence configuration:   2s02  2p02
Reading pseudopotential information in formatted form from C-gga.psf

Valence configuration for pseudopotential generation:
2s( 2.00) rc: 1.56
2p( 2.00) rc: 1.56
3d( 0.00) rc: 1.56
4f( 0.00) rc: 1.56
relmxkb: Read Max KB Ang. Momentum=    2 for species C-gga
relmxkb: Read Max KB Ang. Momentum=    2 for species Li-gga

<basis_specs>
===============================================================================
Li-gga               Z=   3    Mass=  6.9400        Charge= 0.17977+309
Lmxo=0 Lmxkb= 2    BasisType=split      Semic=F
L=0  Nsemic=0  Cnfigmx=2
          i=1  nzeta=2  polorb=1  (2s)
            splnorm:   0.15000    
               vcte:    0.0000    
               rinn:    0.0000    
               qcoe:    0.0000    
               qyuk:    0.0000    
               qwid:   0.10000E-01
                rcs:    0.0000      0.0000    
            lambdas:    1.0000      1.0000    
-------------------------------------------------------------------------------
L=0  Nkbl=1  erefs: 0.17977+309
L=1  Nkbl=1  erefs: 0.17977+309
L=2  Nkbl=1  erefs: 0.17977+309
===============================================================================
</basis_specs>

atom: Called for Li-gga                (Z =   3)

read_vps: Pseudopotential generation method:
read_vps: ATM 3.2.2 Troullier-Martins                       
Valence charge for ps generation:    1.00000

read_vps: Pseudopotential includes a core correction:
read_vps: Pseudo-core for xc-correction

xc_check: Exchange-correlation functional:
xc_check: GGA Perdew, Burke & Ernzerhof 1996
V l=0 = -2*Zval/r beyond r=  2.2278
V l=1 = -2*Zval/r beyond r=  2.2278
V l=2 = -2*Zval/r beyond r=  2.5245
All V_l potentials equal beyond r=  2.4622
This should be close to max(r_c) in ps generation
All pots = -2*Zval/r beyond r=  2.5245

VLOCAL1: 99.0% of the norm of Vloc inside      7.160 Ry
VLOCAL1: 99.9% of the norm of Vloc inside     16.318 Ry
atom: Maximum radius for 4*pi*r*r*local-pseudopot. charge    2.86079
atom: Maximum radius for r*vlocal+2*Zval:    2.43160
GHOST: No ghost state for L =  0
GHOST: No ghost state for L =  1
GHOST: No ghost state for L =  2

KBgen: Kleinman-Bylander projectors: 
   l= 0   rc=  2.654023   el= -0.211234   Ekb=  1.742119   kbcos=  0.228463
   l= 1   rc=  2.721230   el= -0.080095   Ekb= -1.122375   kbcos= -0.147941
   l= 2   rc=  2.825246   el=  0.002001   Ekb= -0.207076   kbcos= -0.031965

KBgen: Total number of Kleinman-Bylander projectors:    9
atom: -------------------------------------------------------------------------

atom: SANKEY-TYPE ORBITALS:
atom: Selected multiple-zeta basis: split     

SPLIT: Orbitals with angular momentum L= 0

SPLIT: Basis orbitals for state 2s

SPLIT: PAO cut-off radius determined from an
SPLIT: energy shift=  0.000735 Ry

   izeta = 1
                 lambda =    1.000000
                     rc =   11.897381
                 energy =   -0.210580
                kinetic =    0.143382
    potential(screened) =   -0.353962
       potential(ionic) =   -0.533453

   izeta = 2
                 rmatch =    8.489163
              splitnorm =    0.150000
                 energy =   -0.186081
                kinetic =    0.225882
    potential(screened) =   -0.411964
       potential(ionic) =   -0.593024

POLgen: Perturbative polarization orbital with L=  1

POLgen: Polarization orbital for state 2s

   izeta = 1
                     rc =   11.897381
                 energy =   -0.027011
                kinetic =    0.282985
    potential(screened) =   -0.309997
       potential(ionic) =   -0.490997
atom: Total number of Sankey-type orbitals:  5

atm_pop: Valence configuration (for local Pseudopot. screening):
 2s( 1.00)                                                            
Vna: chval, zval:    1.00000   1.00000

Vna:  Cut-off radius for the neutral-atom potential:  11.897381
comcore: Pseudo-core radius Rcore=  3.450946

atom: _________________________________________________________________________

<basis_specs>
===============================================================================
C-gga                Z=   6    Mass=  12.010        Charge= 0.17977+309
Lmxo=1 Lmxkb= 2    BasisType=split      Semic=F
L=0  Nsemic=0  Cnfigmx=2
          i=1  nzeta=2  polorb=0  (2s)
            splnorm:   0.15000    
               vcte:    0.0000    
               rinn:    0.0000    
               qcoe:    0.0000    
               qyuk:    0.0000    
               qwid:   0.10000E-01
                rcs:    0.0000      0.0000    
            lambdas:    1.0000      1.0000    
L=1  Nsemic=0  Cnfigmx=2
          i=1  nzeta=2  polorb=1  (2p)
            splnorm:   0.15000    
               vcte:    0.0000    
               rinn:    0.0000    
               qcoe:    0.0000    
               qyuk:    0.0000    
               qwid:   0.10000E-01
                rcs:    0.0000      0.0000    
            lambdas:    1.0000      1.0000    
-------------------------------------------------------------------------------
L=0  Nkbl=1  erefs: 0.17977+309
L=1  Nkbl=1  erefs: 0.17977+309
L=2  Nkbl=1  erefs: 0.17977+309
===============================================================================
</basis_specs>

atom: Called for C-gga                 (Z =   6)

read_vps: Pseudopotential generation method:
read_vps: ATM 3.2.2 Troullier-Martins                       
Valence charge for ps generation:    4.00000

xc_check: Exchange-correlation functional:
xc_check: GGA Perdew, Burke & Ernzerhof 1996
V l=0 = -2*Zval/r beyond r=  1.5227
V l=1 = -2*Zval/r beyond r=  1.5227
V l=2 = -2*Zval/r beyond r=  1.5227
All V_l potentials equal beyond r=  1.4851
This should be close to max(r_c) in ps generation
All pots = -2*Zval/r beyond r=  1.5227

VLOCAL1: 99.0% of the norm of Vloc inside     19.682 Ry
VLOCAL1: 99.9% of the norm of Vloc inside     44.856 Ry
atom: Maximum radius for 4*pi*r*r*local-pseudopot. charge    1.79142
atom: Maximum radius for r*vlocal+2*Zval:    1.54183
GHOST: No ghost state for L =  0
GHOST: No ghost state for L =  1
GHOST: No ghost state for L =  2

KBgen: Kleinman-Bylander projectors: 
   l= 0   rc=  1.661951   el= -1.010689   Ekb=  5.289847   kbcos=  0.316429
   l= 1   rc=  1.661951   el= -0.388490   Ekb= -4.102504   kbcos= -0.351025
   l= 2   rc=  1.747182   el=  0.001971   Ekb= -1.006005   kbcos= -0.008530

KBgen: Total number of Kleinman-Bylander projectors:    9
atom: -------------------------------------------------------------------------

atom: SANKEY-TYPE ORBITALS:
atom: Selected multiple-zeta basis: split     

SPLIT: Orbitals with angular momentum L= 0

SPLIT: Basis orbitals for state 2s

SPLIT: PAO cut-off radius determined from an
SPLIT: energy shift=  0.000735 Ry

   izeta = 1
                 lambda =    1.000000
                     rc =    5.948690
                 energy =   -1.010099
                kinetic =    0.827121
    potential(screened) =   -1.837220
       potential(ionic) =   -5.392783

   izeta = 2
                 rmatch =    3.518811
              splitnorm =    0.150000
                 energy =   -0.877891
                kinetic =    1.289227
    potential(screened) =   -2.167118
       potential(ionic) =   -5.982073

SPLIT: Orbitals with angular momentum L= 1

SPLIT: Basis orbitals for state 2p

SPLIT: PAO cut-off radius determined from an
SPLIT: energy shift=  0.000735 Ry

   izeta = 1
                 lambda =    1.000000
                     rc =    7.638387
                 energy =   -0.387843
                kinetic =    2.314739
    potential(screened) =   -2.702582
       potential(ionic) =   -6.092371

   izeta = 2
                 rmatch =    3.840617
              splitnorm =    0.150000
                 energy =   -0.270479
                kinetic =    3.438347
    potential(screened) =   -3.708826
       potential(ionic) =   -7.497707

POLgen: Perturbative polarization orbital with L=  2

POLgen: Polarization orbital for state 2p

   izeta = 1
                     rc =    7.638387
                 energy =    0.921402
                kinetic =    1.955040
    potential(screened) =   -1.033637
       potential(ionic) =   -3.679558
atom: Total number of Sankey-type orbitals: 13

atm_pop: Valence configuration (for local Pseudopot. screening):
 2s( 2.00)                                                            
 2p( 2.00)                                                            
Vna: chval, zval:    4.00000   4.00000

Vna:  Cut-off radius for the neutral-atom potential:   7.638387

atom: _________________________________________________________________________

prinput: Basis input ----------------------------------------------------------

PAO.BasisType split     

%block ChemicalSpeciesLabel
    1    3 Li-gga                  # Species index, atomic number, species label
    2    6 C-gga                   # Species index, atomic number, species label
%endblock ChemicalSpeciesLabel

%block PAO.Basis                 # Define Basis set
Li-gga                1                    # Species label, number of l-shells
 n=2   0   2 P   1                   # n, l, Nzeta, Polarization, NzetaPol
  11.897      8.489   
   1.000      1.000   
C-gga                 2                    # Species label, number of l-shells
 n=2   0   2                         # n, l, Nzeta 
   5.949      3.519   
   1.000      1.000   
 n=2   1   2 P   1                   # n, l, Nzeta, Polarization, NzetaPol
   7.638      3.841   
   1.000      1.000   
%endblock PAO.Basis

prinput: ----------------------------------------------------------------------

coor:   Atomic-coordinates input format  =     Cartesian coordinates
coor:                                          (in Angstroms)

siesta: Atomic coordinates (Bohr) and species
siesta:      0.00000   0.00000   0.00000  2        1
siesta:      2.68614   0.00000   4.04777  1        2
siesta:      5.38035   0.00000  12.14330  1        3
siesta:     -1.34307   2.32627   4.04777  1        4
siesta:     -2.69017   4.65952  12.14330  1        5
siesta:      2.69017   4.65952   4.04777  1        6
siesta:      1.34307   2.32627  12.14330  1        7
siesta:      5.38035   0.00000   4.04777  1        8
siesta:      2.68614   0.00000  12.14330  1        9
siesta:     -2.69017   4.65952   4.04777  1       10
siesta:     -1.34307   2.32627  12.14330  1       11
siesta:      1.34307   2.32627   4.04777  1       12
siesta:      2.69017   4.65952  12.14330  1       13

siesta: System type = bulk      

initatomlists: Number of atoms, orbitals, and projectors:     13    73   117

siesta: ******************** Simulation parameters ****************************
siesta:
siesta: The following are some of the parameters of the simulation.
siesta: A complete list of the parameters used, including default values,
siesta: can be found in file out.fdf
siesta:
redata: Spin configuration                          = none
redata: Number of spin components                   = 1
redata: Time-Reversal Symmetry                      = T
redata: Spin spiral                                 = F
redata: Long output                                 =   F
redata: Number of Atomic Species                    =        2
redata: Charge density info will appear in .RHO file
redata: Write Mulliken Pop.                         = NO
redata: Matel table size (NRTAB)                    =     1024
redata: Mesh Cutoff                                 =   300.0000 Ry
redata: Net charge of the system                    =     0.0000 |e|
redata: Min. number of SCF Iter                     =        0
redata: Max. number of SCF Iter                     =     1000
redata: SCF convergence failure will abort job
redata: SCF mix quantity                            = Hamiltonian
redata: Mix DM or H after convergence               =   F
redata: Recompute H after scf cycle                 =   F
redata: Mix DM in first SCF step                    =   T
redata: Write Pulay info on disk                    =   F
redata: New DM Occupancy tolerance                  = 0.000000000001
redata: No kicks to SCF
redata: DM Mixing Weight for Kicks                  =     0.5000
redata: Require Harris convergence for SCF          =   F
redata: Harris energy tolerance for SCF             =     0.000100 eV
redata: Require DM convergence for SCF              =   T
redata: DM tolerance for SCF                        =     0.001000
redata: Require EDM convergence for SCF             =   F
redata: EDM tolerance for SCF                       =     0.005000 eV
redata: Require H convergence for SCF               =   T
redata: Hamiltonian tolerance for SCF               =     0.001000 eV
redata: Require (free) Energy convergence for SCF   =   T
redata: (free) Energy tolerance for SCF             =     0.001000 eV
redata: Using Saved Data (generic)                  =   F
redata: Use continuation files for DM               =   F
redata: Neglect nonoverlap interactions             =   F
redata: Method of Calculation                       = Diagonalization
redata: Electronic Temperature                      =   299.9869 K
redata: Fix the spin of the system                  =   F
redata: Dynamics option                             = Single-point calculation
mix.SCF: Pulay mixing                            = Pulay
mix.SCF:    Variant                              = stable
mix.SCF:    History steps                        = 4
mix.SCF:    Linear mixing weight                 =     0.250000
mix.SCF:    Mixing weight                        =     0.250000
mix.SCF:    SVD condition                        = 0.1000E-07
redata: ***********************************************************************

%block SCF.Mixers
  Pulay
%endblock SCF.Mixers

%block SCF.Mixer.Pulay
  # Mixing method
  method pulay
  variant stable

  # Mixing options
  weight 0.2500
  weight.linear 0.2500
  history 4
%endblock SCF.Mixer.Pulay

DM_history_depth set to one: no extrapolation allowed by default for geometry relaxation
Size of DM history Fstack: 1
Total number of electrons:    16.000000
Total ionic charge:    16.000000

* ProcessorY, Blocksize:    3   1


* Orbital distribution balance (max,min):     7     6

k-point displ. along   1 input, could be:     0.00    0.50
k-point displ. along   2 input, could be:     0.00    0.50
k-point displ. along   3 input, could be:     0.00    0.50
 Kpoints in:            8 . Kpoints trimmed:            8

siesta: k-grid: Number of k-points =     8
siesta: k-grid: Cutoff (effective) =     4.269 Ang
siesta: k-grid: Supercell and displacements
siesta: k-grid:    2   0   0      0.000
siesta: k-grid:    0   2   0      0.000
siesta: k-grid:    0   0   2      0.000

diag: Algorithm                                     = Expert
diag: Parallel over k                               =   T
diag: Use parallel 2D distribution                  =   T
diag: Parallel block-size                           = 1
diag: Parallel distribution                         =     3 x     4
diag: Used triangular part                          = Lower
diag: Absolute tolerance                            =  0.100E-15
diag: Orthogonalization factor                      =  0.100E-05
diag: Memory factor                                 =  1.0000

superc: Internal auxiliary supercell:     9 x     9 x     3  =     243
superc: Number of atoms, orbitals, and projectors:   3159  17739  28431


ts: **************************************************************
ts: Save H and S matrices                           =    F
ts: Save DM and EDM matrices                        =    F
ts: Only save the overlap matrix S                  =    F
ts: **************************************************************

************************ Begin: TS CHECKS AND WARNINGS ************************
************************ End: TS CHECKS AND WARNINGS **************************


                     ====================================
                        Single-point calculation
                     ====================================

outcoor: Atomic coordinates (Ang):                          
    0.00000000    0.00000000    0.00000000   2       1  C-gga
    1.42144380    0.00000000    2.14198450   1       2  Li-gga
    2.84715620    0.00000000    6.42595350   1       3  Li-gga
   -0.71072190    1.23100644    2.14198450   1       4  Li-gga
   -1.42357810    2.46570960    6.42595350   1       5  Li-gga
    1.42357810    2.46570960    2.14198450   1       6  Li-gga
    0.71072190    1.23100644    6.42595350   1       7  Li-gga
    2.84715620    0.00000000    2.14198450   1       8  Li-gga
    1.42144380    0.00000000    6.42595350   1       9  Li-gga
   -1.42357810    2.46570960    2.14198450   1      10  Li-gga
   -0.71072190    1.23100644    6.42595350   1      11  Li-gga
    0.71072190    1.23100644    2.14198450   1      12  Li-gga
    1.42357810    2.46570960    6.42595350   1      13  Li-gga

superc: Internal auxiliary supercell:     9 x     9 x     3  =     243
superc: Number of atoms, orbitals, and projectors:   3159  17739  28431

outcell: Unit cell vectors (Ang):
        4.268600    0.000000    0.000000
       -2.134300    3.696716    0.000000
        0.000000    0.000000    8.567938

outcell: Cell vector modules (Ang)   :    4.268600    4.268600    8.567938
outcell: Cell angles (23,13,12) (deg):     90.0000     90.0000    120.0000
outcell: Cell volume (Ang**3)        :    135.2004
<dSpData1D:S at geom step 0
  <sparsity:sparsity for geom step 0
    nrows_g=73 nrows=7 sparsity=5.8578 nnzs=31216, refcount: 7>
  <dData1D:(new from dSpData1D) n=31216, refcount: 1>
refcount: 1>
new_DM -- step:     1
Initializing Density Matrix...
DM filled with atomic data:
<dSpData2D:DM initialized from atoms
  <sparsity:sparsity for geom step 0
    nrows_g=73 nrows=7 sparsity=5.8578 nnzs=31216, refcount: 8>
  <dData2D:DM n=31216 m=1, refcount: 1>
refcount: 1>
No. of atoms with KB's overlaping orbs in proc 0. Max # of overlaps:     305     778
New grid distribution:   1
           1       1:   20    1:    7    1:   12
           2       1:   20    1:    7   13:   23
           3       1:   20    1:    7   24:   34
           4       1:   20    1:    7   35:   45
           5       1:   20    8:   14    1:   12
           6       1:   20    8:   14   13:   23
           7       1:   20    8:   14   24:   34
           8       1:   20    8:   14   35:   45
           9       1:   20   15:   20    1:   12
          10       1:   20   15:   20   13:   23
          11       1:   20   15:   20   24:   34
          12       1:   20   15:   20   35:   45

InitMesh: MESH =    40 x    40 x    90 =      144000
InitMesh: (bp) =    20 x    20 x    45 =       18000
InitMesh: Mesh cutoff (required, used) =   300.000   304.954 Ry
ExtMesh (bp) on 0 =   160 x   147 x   148 =     3480960
New grid distribution:   2
           1       1:   10    8:   20    1:   11
           2      11:   20    8:   20    1:   11
           3       1:   20    1:    7   23:   34
           4       1:   20    1:    7   35:   45
           5       1:   20    1:    7    1:   11
           6      11:   20    8:   20   12:   22
           7       1:   10    8:   20   23:   34
           8      11:   20    8:   20   35:   45
           9       1:   20    1:    7   12:   22
          10       1:   10    8:   20   12:   22
          11      11:   20    8:   20   23:   34
          12       1:   10    8:   20   35:   45
New grid distribution:   3
           1       1:   20    1:    7    1:   12
           2       1:   10    8:   20   35:   45
           3       1:   20    1:    7   24:   34
           4       1:   10    8:   20   13:   23
           5      11:   20    8:   20    1:   12
           6       1:   20    1:    7   35:   45
           7      11:   20    8:   20   24:   34
           8      11:   20    8:   20   13:   23
           9       1:   10    8:   20    1:   12
          10       1:   20    1:    7   13:   23
          11       1:   10    8:   20   24:   34
          12      11:   20    8:   20   35:   45
Setting up quadratic distribution...
ExtMesh (bp) on 0 =   150 x   153 x   147 =     3373650
PhiOnMesh: Number of (b)points on node 0 =                 1430
PhiOnMesh: nlist on node 0 =               641057

stepf: Fermi-Dirac step function

siesta: Program's energy decomposition (eV):
siesta: Ebs     =      -239.074368
siesta: Eions   =       380.620085
siesta: Ena     =       120.140805
siesta: Ekin    =       147.371632
siesta: Enl     =        36.221598
siesta: Eso     =         0.000000
siesta: Edftu   =         0.000000
siesta: DEna    =         8.172155
siesta: DUscf   =        15.211775
siesta: DUext   =         0.000000
siesta: Exc     =      -149.398067
siesta: eta*DQ  =         0.000000
siesta: Emadel  =         0.000000
siesta: Emeta   =         0.000000
siesta: Emolmec =        -5.346873
siesta: Ekinion =         0.000000
siesta: Eharris =      -182.622732
siesta: Etot    =      -208.247061
siesta: FreeEng =      -208.267864

        iscf     Eharris(eV)        E_KS(eV)     FreeEng(eV)     dDmax    Ef(eV) dHmax(eV)
   scf:    1     -182.622732     -208.247061     -208.267864 31.960557-11.164495 14.110266
timer: Routine,Calls,Time,% = IterSCF        1       8.891  52.47
   scf:    2      -89.803947     -184.027753     -184.044027  7.909274-11.543867 28.285963
   scf:    3     -224.180946     -207.257730     -207.288159  2.966183-11.593637 15.351123
   scf:    4     -162.142689     -205.389473     -205.401519  3.645014-11.136009 16.376364
   scf:    5     -167.228004     -207.294248     -207.323690  5.139290-11.381958 15.355332
   scf:    6     -220.501328     -215.602782     -215.630916  1.886245-11.336374  6.240292
   scf:    7     -217.966285     -217.297612     -217.302900  0.887478-11.286533  1.202230
   scf:    8     -214.616349     -216.568675     -216.599710  0.421639-11.213204  4.173207
   scf:    9     -215.840166     -217.107199     -217.113977  0.928795-11.280443  2.530836
   scf:   10     -217.355049     -217.240820     -217.244033  0.209181-11.274380  1.792864
   scf:   11     -208.789398     -214.016584     -214.054268  1.215113-11.359166  8.734730
   scf:   12     -218.481054     -216.815892     -216.831518  1.146021-11.301069  3.594855
   scf:   13     -206.409528     -214.403921     -214.449172  1.694710-11.144099  8.065804
   scf:   14     -218.053041     -217.306987     -217.328159  0.890743-11.249255  1.077795
   scf:   15     -217.197724     -217.256547     -217.280294  0.026365-11.242650  1.522854
   scf:   16     -217.021970     -217.296043     -217.300106  0.539696-11.280791  1.318674
   scf:   17     -217.360843     -217.331169     -217.338107  0.170774-11.287791  0.927957
   scf:   18     -216.988007     -217.270316     -217.295365  0.380254-11.274717  1.363875
   scf:   19     -217.319825     -217.358207     -217.372140  0.203017-11.290487  0.362879
   scf:   20     -217.363279     -217.361459     -217.376468  0.034779-11.288874  0.185353
   scf:   21     -217.359363     -217.361263     -217.378162  0.042623-11.288676  0.016662
   scf:   22     -217.360734     -217.361011     -217.378123  0.009621-11.288847  0.036937
   scf:   23     -217.361656     -217.361376     -217.378165  0.004812-11.289653  0.012328
   scf:   24     -217.361146     -217.361265     -217.378172  0.003188-11.289597  0.003020
   scf:   25     -217.361271     -217.361268     -217.378172  0.000414-11.289608  0.002131
   scf:   26     -217.361270     -217.361269     -217.378172  0.000207-11.289600  0.001833
   scf:   27     -217.361279     -217.361274     -217.378172  0.000795-11.289613  0.000049

SCF Convergence by FreeE+DM+H criterion
|FreeE_i-FreeE_(i-1)| (eV) <     0.00100000
max |DM_out - DM_in|         :     0.0007947272
max |H_out - H_in|      (eV) :     0.0000490342
SCF cycle converged after 27 iterations

Using DM_out to compute the final energy and forces
No. of atoms with KB's overlaping orbs in proc 0. Max # of overlaps:     305     778

MM-Stress (kbar):       11.38       11.38       35.29       -0.00       -0.00       -0.00

siesta: E_KS(eV) =             -217.3613

siesta: E_KS - E_eggbox =      -217.3613

siesta: Atomic forces (eV/Ang):
     1   -0.000000   -0.000000   -0.000006
     2   -0.701983   -0.000009   -0.647795
     3    0.701975    0.000009    0.647796
     4    0.350984   -0.607939   -0.647795
     5   -0.350980    0.607932    0.647796
     6    0.350958    0.607878   -0.647834
     7   -0.350954   -0.607871    0.647835
     8    0.701983    0.000009   -0.647795
     9   -0.701975   -0.000009    0.647796
    10   -0.350984    0.607939   -0.647795
    11    0.350980   -0.607932    0.647796
    12   -0.350958   -0.607878   -0.647834
    13    0.350954    0.607871    0.647835
----------------------------------------
   Tot    0.000000   -0.000000    0.000000
----------------------------------------
   Max    0.701983
   Res    0.529848    sqrt( Sum f_i^2 / 3N )
----------------------------------------
   Max    0.701983    constrained

Stress tensor Voigt[x,y,z,yz,xz,xy] (kbar):     -983.24     -983.25      246.53       -0.00        0.00       -0.01
(Free)E + p*V (eV/cell)     -168.9989
Target enthalpy (eV/cell)     -217.3782

siesta: Eigenvalues (eV):
  ik is       eps
   1  1  -20.1724  -14.7821  -13.7078  -12.4240  -11.7962  -11.4743  -11.4558  -11.0923  -10.9665  -10.9663
          -9.4988   -6.3065   -4.5768   -4.5768   -3.7560   -3.7560   -3.6899   -3.6899   -3.6891   -3.3424
   -3.3424   -2.9215   -2.9215    0.6458    0.6458    0.6701    0.6703    1.3171    1.3171    8.7000
   10.2775   11.8308   11.8309   12.8733   12.8735   19.2924   19.6778   20.2394   20.2395   20.5415
   20.5416   21.5757   21.5757   23.1900   23.6126   23.6127   25.2521   28.6899   28.6900   29.1434
   29.1440   32.9025   32.9026   38.1783   38.7956   38.7957   45.8302   45.8358   45.8359   48.3335
   48.4845   48.9821   49.3869   49.5608   81.9841   81.9841   88.8801   88.8801   92.8039   92.8040
   93.7285   93.7286   97.7471
   2  1  -19.9305  -14.4283  -13.9405  -12.6479  -12.2885  -11.9397  -11.8852  -11.6323  -11.3574  -10.2174
          -8.6888   -8.3280   -7.6573   -5.8779   -5.0474   -4.8882   -4.4757   -3.2223   -2.4731   -1.4647
   -1.2661   -0.8988   -0.7272    0.6749    1.1956    1.3374    1.7568    1.8299    1.9783    3.0183
    3.8607    5.3493    7.1768    9.2603    9.6966   13.2851   14.3181   14.8701   15.7420   16.3114
   19.2701   20.1003   20.3105   20.4072   21.1900   23.3649   24.6450   25.4388   25.4754   26.0516
   26.7899   26.9720   27.3128   28.0626   28.1726   30.4877   39.2854   42.2155   42.6388   50.8925
   52.1006   53.4798   53.4825   53.9626   57.8951   58.8555   60.2999   63.4029   65.0502   66.5715
   66.8781  197.5537  199.5795
   3  1  -19.9305  -14.4283  -13.9405  -12.6479  -12.2885  -11.9397  -11.8852  -11.6323  -11.3574  -10.2174
          -8.6888   -8.3280   -7.6573   -5.8779   -5.0474   -4.8882   -4.4757   -3.2223   -2.4731   -1.4647
   -1.2661   -0.8988   -0.7272    0.6749    1.1956    1.3374    1.7568    1.8299    1.9783    3.0183
    3.8607    5.3493    7.1768    9.2603    9.6966   13.2851   14.3181   14.8701   15.7420   16.3114
   19.2701   20.1003   20.3105   20.4072   21.1899   23.3649   24.6450   25.4388   25.4754   26.0516
   26.7899   26.9720   27.3128   28.0627   28.1726   30.4878   39.2854   42.2155   42.6388   50.8925
   52.1007   53.4798   53.4825   53.9626   57.8951   58.8555   60.2999   63.4029   65.0502   66.5714
   66.8781  197.5537  199.5795
   4  1  -19.9305  -14.4283  -13.9405  -12.6479  -12.2885  -11.9396  -11.8851  -11.6323  -11.3576  -10.2174
          -8.6889   -8.3280   -7.6572   -5.8779   -5.0474   -4.8882   -4.4757   -3.2222   -2.4732   -1.4647
   -1.2660   -0.8988   -0.7272    0.6749    1.1956    1.3374    1.7568    1.8299    1.9783    3.0183
    3.8607    5.3493    7.1767    9.2602    9.6967   13.2851   14.3181   14.8701   15.7420   16.3114
   19.2701   20.1002   20.3105   20.4074   21.1900   23.3648   24.6452   25.4387   25.4753   26.0515
   26.7899   26.9720   27.3128   28.0626   28.1727   30.4874   39.2853   42.2156   42.6387   50.8925
   52.1007   53.4798   53.4826   53.9626   57.8952   58.8554   60.2999   63.4028   65.0502   66.5714
   66.8780  197.5537  199.5796
   5  1  -20.2766  -14.5856  -14.0758  -12.5521  -11.4659  -11.4594  -11.2573  -11.2481  -10.9660  -10.9658
          -9.8047   -6.3116   -4.2951   -4.2951   -4.1857   -4.1857   -4.0126   -4.0126   -2.6714   -2.6714
   -1.9665   -1.9665   -1.5365   -1.5365   -1.3607   -1.3607    0.2390    0.2766    2.0748    2.0750
   11.3691   12.5331   16.1886   16.1887   16.5767   16.5769   16.6497   16.6498   19.8741   19.8742
   21.1422   21.1423   21.8258   21.8258   24.4879   24.4964   28.3345   29.0408   29.0414   29.3114
   29.3114   32.0064   32.0064   38.4702   38.9871   39.6202   39.6203   43.4618   43.4619   48.8713
   48.9005   49.0534   49.0572   59.2780   59.2780   59.5496   59.5496   60.3451   60.3452   65.6571
   65.7782   65.7782   66.2905
   6  1  -19.9491  -14.4507  -13.8094  -12.7371  -12.0486  -11.9395  -11.3812  -11.3763  -11.0908  -11.0870
          -9.7472   -7.5053   -6.6697   -6.1057   -5.9670   -4.4458   -4.2193   -2.7418   -2.4308   -2.2075
   -0.8084   -0.4213    0.0561    0.9781    1.3616    1.6943    1.7692    2.3601    2.9872    3.0521
    5.5832    6.6747    6.7734    9.7774   11.0229   11.1284   12.1399   14.4687   14.7844   15.4791
   16.6145   17.8442   18.8527   21.1123   23.3057   23.5413   24.4567   24.8915   25.3420   25.9184
   26.0153   26.1522   26.3477   29.0193   29.5368   29.9590   32.9837   34.7995   35.4503   43.7946
   45.6173   52.7011   53.0688   53.1911   53.6264   55.0058   55.0951   62.2484   62.2941   63.0311
   67.5970   69.4780   72.2674
   7  1  -19.9491  -14.4507  -13.8094  -12.7371  -12.0486  -11.9395  -11.3812  -11.3763  -11.0908  -11.0870
          -9.7472   -7.5053   -6.6697   -6.1057   -5.9670   -4.4458   -4.2193   -2.7418   -2.4308   -2.2075
   -0.8084   -0.4213    0.0561    0.9781    1.3616    1.6943    1.7692    2.3601    2.9872    3.0521
    5.5832    6.6747    6.7734    9.7774   11.0229   11.1284   12.1399   14.4687   14.7844   15.4791
   16.6145   17.8442   18.8527   21.1123   23.3057   23.5413   24.4567   24.8915   25.3420   25.9184
   26.0153   26.1522   26.3477   29.0193   29.5368   29.9590   32.9837   34.7995   35.4503   43.7946
   45.6173   52.7011   53.0688   53.1911   53.6264   55.0058   55.0951   62.2484   62.2941   63.0311
   67.5969   69.4779   72.2674
   8  1  -19.9491  -14.4507  -13.8094  -12.7372  -12.0486  -11.9395  -11.3813  -11.3763  -11.0907  -11.0870
          -9.7472   -7.5052   -6.6695   -6.1057   -5.9670   -4.4458   -4.2193   -2.7418   -2.4308   -2.2076
   -0.8084   -0.4213    0.0561    0.9781    1.3615    1.6942    1.7692    2.3601    2.9872    3.0521
    5.5833    6.6747    6.7734    9.7775   11.0229   11.1283   12.1398   14.4687   14.7845   15.4791
   16.6145   17.8442   18.8527   21.1126   23.3057   23.5413   24.4567   24.8915   25.3419   25.9184
   26.0154   26.1522   26.3477   29.0193   29.5368   29.9587   32.9837   34.7997   35.4503   43.7946
   45.6172   52.7011   53.0688   53.1911   53.6264   55.0060   55.0953   62.2484   62.2941   63.0311
   67.5969   69.4779   72.2673
siesta: Fermi energy =     -11.289613 eV

siesta: Program's energy decomposition (eV):
siesta: Ebs     =      -215.852070
siesta: Eions   =       380.620085
siesta: Ena     =       120.140805
siesta: Ekin    =       168.967001
siesta: Enl     =        26.870172
siesta: Eso     =         0.000000
siesta: Edftu   =         0.000000
siesta: DEna    =         2.320200
siesta: DUscf   =         2.625396
siesta: DUext   =         0.000000
siesta: Exc     =      -152.317891
siesta: eta*DQ  =         0.000000
siesta: Emadel  =         0.000000
siesta: Emeta   =         0.000000
siesta: Emolmec =        -5.346873
siesta: Ekinion =         0.000000
siesta: Eharris =      -217.361279
siesta: Etot    =      -217.361274
siesta: FreeEng =      -217.378172

siesta: Final energy (eV):
siesta:  Band Struct. =    -215.852070
siesta:       Kinetic =     168.967001
siesta:       Hartree =      74.157109
siesta:       Edftu   =       0.000000
siesta:       Eso     =       0.000000
siesta:    Ext. field =       0.000000
siesta:   Exch.-corr. =    -152.317891
siesta:  Ion-electron =    -375.062014
siesta:       Ion-ion =      72.241393
siesta:       Ekinion =       0.000000
siesta:         Total =    -217.361274
siesta:         Fermi =     -11.289613

siesta: Atomic forces (eV/Ang):
siesta:      1   -0.000000   -0.000000   -0.000006
siesta:      2   -0.701983   -0.000009   -0.647795
siesta:      3    0.701975    0.000009    0.647796
siesta:      4    0.350984   -0.607939   -0.647795
siesta:      5   -0.350980    0.607932    0.647796
siesta:      6    0.350958    0.607878   -0.647834
siesta:      7   -0.350954   -0.607871    0.647835
siesta:      8    0.701983    0.000009   -0.647795
siesta:      9   -0.701975   -0.000009    0.647796
siesta:     10   -0.350984    0.607939   -0.647795
siesta:     11    0.350980   -0.607932    0.647796
siesta:     12   -0.350958   -0.607878   -0.647834
siesta:     13    0.350954    0.607871    0.647835
siesta: ----------------------------------------
siesta:    Tot    0.000000   -0.000000    0.000000

siesta: Stress tensor (static) (eV/Ang**3):
siesta:    -0.613683   -0.000005   -0.000000
siesta:    -0.000005   -0.613688   -0.000000
siesta:     0.000000   -0.000000    0.153870

siesta: Cell volume =        135.200366 Ang**3

siesta: Pressure (static):
siesta:                Solid            Molecule  Units
siesta:           0.00389727          0.00328891  Ry/Bohr**3
siesta:           0.35783379          0.30197615  eV/Ang**3
siesta:         573.31912995        483.82436693  kBar
(Free)E+ p_basis*V_orbitals  =        -179.442101
(Free)Eharris+ p_basis*V_orbitals  =        -179.442106

cite: Please see "LiC12_scf.bib" for an exhaustive BiBTeX file.
cite: Please clearly indicate Siesta version in published work: 4.1.5
cite: This calculation has made use of the following articles
cite: which are encouraged to be cited in a published work.
        Primary SIESTA paper
          DOI: www.doi.org/10.1088/0953-8984/14/11/302

>> End of run:   9-NOV-2022   2:47:28
Job completed
