Siesta Version  : 4.1.5
Architecture    : x86_64-unknown-linux-gnu--unknown
Compiler version: GNU Fortran (GCC) 11.3.0
Compiler flags  : mpif90 -g -O2 -fallow-argument-mismatch
PP flags        : -DMPI -DFC_HAVE_FLUSH -DFC_HAVE_ABORT
Libraries       :  -I/global/software/sl-7.x86_64/modules/intel/2020.4.304/mkl/include  /globall/software/sl-7.x86_64/modules/intel/2020.4.304/mkl/lib/intel64/libmkl_scalapack_lp64.a -Wl,--start-group /global/software/sl-7.x86_64/modules/intel/2020.4.304/mkl/lib/intel64/libmkl_intel_lp64.a /global/software/sl-7.x86_64/modules/intel/2020.4.304/mkl/lib/intel64/libmkl_sequential.a /global/software/sl-7.x86_64/modules/intel/2020.4.304/mkl/lib/intel64/libmkl_core.a /global/software/sl-7.x86_64/modules/intel/2020.4.304/mkl/lib/intel64/libmkl_blacs_openmpi_lp64.a -Wl,--end-group -lpthread -lm -ldl
PARALLEL version

* Running on 12 nodes in parallel
>> Start of run:   9-NOV-2022   1:20:47

                           ***********************       
                           *  WELCOME TO SIESTA  *       
                           ***********************       

reinit: Reading from standard input
reinit: Dumped input in INPUT_TMP.14244
************************** Dump of input data file ****************************
SystemName LiC12_scf
SystemLabel LiC12_scf
NumberOfAtoms   13
NumberOfSpecies 2
%block ChemicalSpeciesLabel
1  3   Li-gga
2  6   C-gga
%endblock ChemicalSpeciesLabel
PAO.BasisSize  DZP
PAO.EnergyShift  10 meV
%block PS.Lmax
C-gga   2
Li-gga  2
%endblock PS.Lmax
LatticeConstant 1.000000 Ang
%block LatticeVectors
	4.2686000000	0.0000000000	0.0000000000
	-2.1343000000	3.6967160386	0.0000000000
	0.0000000000	0.0000000000	5.6183200000
%endblock LatticeVectors
AtomicCoordinatesFormat Ang
%block AtomicCoordinatesAndAtomicSpecies
	0.00000000	0.00000000	0.00000000	2
	1.42144380	0.00000000	1.40458000	1
	2.84715620	0.00000000	4.21374000	1
	-0.71072190	1.23100644	1.40458000	1
	-1.42357810	2.46570960	4.21374000	1
	1.42357810	2.46570960	1.40458000	1
	0.71072190	1.23100644	4.21374000	1
	2.84715620	0.00000000	1.40458000	1
	1.42144380	0.00000000	4.21374000	1
	-1.42357810	2.46570960	1.40458000	1
	-0.71072190	1.23100644	4.21374000	1
	0.71072190	1.23100644	1.40458000	1
	1.42357810	2.46570960	4.21374000	1
%endblock AtomicCoordinatesAndAtomicSpecies
Kgrid_NoTRS  T
%block kgrid_MonkhorstPack
2       0       0       0.0
0       2       0       0.0
0       0       2       0.0
%endblock kgrid_MonkhorstPack
AtomCoorFormatOut Ang
BlockSize 1
#ProcessorY 12
Diag.ParallelOverK   T
Diag.DivideAndConquer F
MeshCutoff   300 Ry
SCF.FreeE.Tolerance 1E-3 eV
SCF.EDM.Tolerance   5E-3 eV
DM.Tolerance  1E-3
DM.Require.Energy.Convergence T
DM.NumberPulay 4
XC.Functional GGA
XC.Authors    PBE
UseSaveData        F
MD.TypeOfRun       CG
MD.VariableCell    F
MD.NumCGsteps      00
MD.MaxCGDispl      0.200000 Bohr
MD.MaxStressTol    1.000000 GPa
MD.MaxForceTol     0.010000 eV/Ang
WriteMDHistory T
WriteCoorStep T
WriteForces T
WriteCoorStep    T
WriteEigenValues T
WriteDM    F
MM.UnitsDistance Ang  # what this program prints out DO NOT CHANGE
MM.UnitsEnergy    eV  # what this program prints out DO NOT CHANGE
MM.Grimme.S6     0.75 # Grimme-paper for PBE (correct for your functional)
MM.Grimme.D     20.   # Grimme-paper (correct for your functional)
%block MM.Potentials
  1   1 Grimme     16.69      1.650 # Li, 10.1002/jcc.20495
  1   2 Grimme     17.40      2.277 # Li / C
  2   2 Grimme     18.14      2.904 # C, 10.1002/jcc.20495
%endblock MM.Potentials
#%block ProjectedDensityOfStates
# -200.0  120.0  0.4  12800  eV
#%endblock ProjectedDensityOfStates
************************** End of input data file *****************************

reinit: -----------------------------------------------------------------------
reinit: System Name: LiC12_scf
reinit: -----------------------------------------------------------------------
reinit: System Label: LiC12_scf
reinit: -----------------------------------------------------------------------
Reading two-body potentials
Grimme - two-body potential between 1 and 1
Grimme - two-body potential between 1 and 2
Grimme - two-body potential between 2 and 2

initatom: Reading input for the pseudopotentials and atomic orbitals ----------
Species number:   1 Atomic number:    3 Label: Li-gga
Species number:   2 Atomic number:    6 Label: C-gga

Ground state valence configuration:   2s01
Reading pseudopotential information in formatted form from Li-gga.psf

Valence configuration for pseudopotential generation:
2s( 1.00) rc: 2.28
2p( 0.00) rc: 2.28
3d( 0.00) rc: 2.59
4f( 0.00) rc: 2.59
Ground state valence configuration:   2s02  2p02
Reading pseudopotential information in formatted form from C-gga.psf

Valence configuration for pseudopotential generation:
2s( 2.00) rc: 1.56
2p( 2.00) rc: 1.56
3d( 0.00) rc: 1.56
4f( 0.00) rc: 1.56
relmxkb: Read Max KB Ang. Momentum=    2 for species C-gga
relmxkb: Read Max KB Ang. Momentum=    2 for species Li-gga

<basis_specs>
===============================================================================
Li-gga               Z=   3    Mass=  6.9400        Charge= 0.17977+309
Lmxo=0 Lmxkb= 2    BasisType=split      Semic=F
L=0  Nsemic=0  Cnfigmx=2
          i=1  nzeta=2  polorb=1  (2s)
            splnorm:   0.15000    
               vcte:    0.0000    
               rinn:    0.0000    
               qcoe:    0.0000    
               qyuk:    0.0000    
               qwid:   0.10000E-01
                rcs:    0.0000      0.0000    
            lambdas:    1.0000      1.0000    
-------------------------------------------------------------------------------
L=0  Nkbl=1  erefs: 0.17977+309
L=1  Nkbl=1  erefs: 0.17977+309
L=2  Nkbl=1  erefs: 0.17977+309
===============================================================================
</basis_specs>

atom: Called for Li-gga                (Z =   3)

read_vps: Pseudopotential generation method:
read_vps: ATM 3.2.2 Troullier-Martins                       
Valence charge for ps generation:    1.00000

read_vps: Pseudopotential includes a core correction:
read_vps: Pseudo-core for xc-correction

xc_check: Exchange-correlation functional:
xc_check: GGA Perdew, Burke & Ernzerhof 1996
V l=0 = -2*Zval/r beyond r=  2.2278
V l=1 = -2*Zval/r beyond r=  2.2278
V l=2 = -2*Zval/r beyond r=  2.5245
All V_l potentials equal beyond r=  2.4622
This should be close to max(r_c) in ps generation
All pots = -2*Zval/r beyond r=  2.5245

VLOCAL1: 99.0% of the norm of Vloc inside      7.160 Ry
VLOCAL1: 99.9% of the norm of Vloc inside     16.318 Ry
atom: Maximum radius for 4*pi*r*r*local-pseudopot. charge    2.86079
atom: Maximum radius for r*vlocal+2*Zval:    2.43160
GHOST: No ghost state for L =  0
GHOST: No ghost state for L =  1
GHOST: No ghost state for L =  2

KBgen: Kleinman-Bylander projectors: 
   l= 0   rc=  2.654023   el= -0.211234   Ekb=  1.742119   kbcos=  0.228463
   l= 1   rc=  2.721230   el= -0.080095   Ekb= -1.122375   kbcos= -0.147941
   l= 2   rc=  2.825246   el=  0.002001   Ekb= -0.207076   kbcos= -0.031965

KBgen: Total number of Kleinman-Bylander projectors:    9
atom: -------------------------------------------------------------------------

atom: SANKEY-TYPE ORBITALS:
atom: Selected multiple-zeta basis: split     

SPLIT: Orbitals with angular momentum L= 0

SPLIT: Basis orbitals for state 2s

SPLIT: PAO cut-off radius determined from an
SPLIT: energy shift=  0.000735 Ry

   izeta = 1
                 lambda =    1.000000
                     rc =   11.897381
                 energy =   -0.210580
                kinetic =    0.143382
    potential(screened) =   -0.353962
       potential(ionic) =   -0.533453

   izeta = 2
                 rmatch =    8.489163
              splitnorm =    0.150000
                 energy =   -0.186081
                kinetic =    0.225882
    potential(screened) =   -0.411964
       potential(ionic) =   -0.593024

POLgen: Perturbative polarization orbital with L=  1

POLgen: Polarization orbital for state 2s

   izeta = 1
                     rc =   11.897381
                 energy =   -0.027011
                kinetic =    0.282985
    potential(screened) =   -0.309997
       potential(ionic) =   -0.490997
atom: Total number of Sankey-type orbitals:  5

atm_pop: Valence configuration (for local Pseudopot. screening):
 2s( 1.00)                                                            
Vna: chval, zval:    1.00000   1.00000

Vna:  Cut-off radius for the neutral-atom potential:  11.897381
comcore: Pseudo-core radius Rcore=  3.450946

atom: _________________________________________________________________________

<basis_specs>
===============================================================================
C-gga                Z=   6    Mass=  12.010        Charge= 0.17977+309
Lmxo=1 Lmxkb= 2    BasisType=split      Semic=F
L=0  Nsemic=0  Cnfigmx=2
          i=1  nzeta=2  polorb=0  (2s)
            splnorm:   0.15000    
               vcte:    0.0000    
               rinn:    0.0000    
               qcoe:    0.0000    
               qyuk:    0.0000    
               qwid:   0.10000E-01
                rcs:    0.0000      0.0000    
            lambdas:    1.0000      1.0000    
L=1  Nsemic=0  Cnfigmx=2
          i=1  nzeta=2  polorb=1  (2p)
            splnorm:   0.15000    
               vcte:    0.0000    
               rinn:    0.0000    
               qcoe:    0.0000    
               qyuk:    0.0000    
               qwid:   0.10000E-01
                rcs:    0.0000      0.0000    
            lambdas:    1.0000      1.0000    
-------------------------------------------------------------------------------
L=0  Nkbl=1  erefs: 0.17977+309
L=1  Nkbl=1  erefs: 0.17977+309
L=2  Nkbl=1  erefs: 0.17977+309
===============================================================================
</basis_specs>

atom: Called for C-gga                 (Z =   6)

read_vps: Pseudopotential generation method:
read_vps: ATM 3.2.2 Troullier-Martins                       
Valence charge for ps generation:    4.00000

xc_check: Exchange-correlation functional:
xc_check: GGA Perdew, Burke & Ernzerhof 1996
V l=0 = -2*Zval/r beyond r=  1.5227
V l=1 = -2*Zval/r beyond r=  1.5227
V l=2 = -2*Zval/r beyond r=  1.5227
All V_l potentials equal beyond r=  1.4851
This should be close to max(r_c) in ps generation
All pots = -2*Zval/r beyond r=  1.5227

VLOCAL1: 99.0% of the norm of Vloc inside     19.682 Ry
VLOCAL1: 99.9% of the norm of Vloc inside     44.856 Ry
atom: Maximum radius for 4*pi*r*r*local-pseudopot. charge    1.79142
atom: Maximum radius for r*vlocal+2*Zval:    1.54183
GHOST: No ghost state for L =  0
GHOST: No ghost state for L =  1
GHOST: No ghost state for L =  2

KBgen: Kleinman-Bylander projectors: 
   l= 0   rc=  1.661951   el= -1.010689   Ekb=  5.289847   kbcos=  0.316429
   l= 1   rc=  1.661951   el= -0.388490   Ekb= -4.102504   kbcos= -0.351025
   l= 2   rc=  1.747182   el=  0.001971   Ekb= -1.006005   kbcos= -0.008530

KBgen: Total number of Kleinman-Bylander projectors:    9
atom: -------------------------------------------------------------------------

atom: SANKEY-TYPE ORBITALS:
atom: Selected multiple-zeta basis: split     

SPLIT: Orbitals with angular momentum L= 0

SPLIT: Basis orbitals for state 2s

SPLIT: PAO cut-off radius determined from an
SPLIT: energy shift=  0.000735 Ry

   izeta = 1
                 lambda =    1.000000
                     rc =    5.948690
                 energy =   -1.010099
                kinetic =    0.827121
    potential(screened) =   -1.837220
       potential(ionic) =   -5.392783

   izeta = 2
                 rmatch =    3.518811
              splitnorm =    0.150000
                 energy =   -0.877891
                kinetic =    1.289227
    potential(screened) =   -2.167118
       potential(ionic) =   -5.982073

SPLIT: Orbitals with angular momentum L= 1

SPLIT: Basis orbitals for state 2p

SPLIT: PAO cut-off radius determined from an
SPLIT: energy shift=  0.000735 Ry

   izeta = 1
                 lambda =    1.000000
                     rc =    7.638387
                 energy =   -0.387843
                kinetic =    2.314739
    potential(screened) =   -2.702582
       potential(ionic) =   -6.092371

   izeta = 2
                 rmatch =    3.840617
              splitnorm =    0.150000
                 energy =   -0.270479
                kinetic =    3.438347
    potential(screened) =   -3.708826
       potential(ionic) =   -7.497707

POLgen: Perturbative polarization orbital with L=  2

POLgen: Polarization orbital for state 2p

   izeta = 1
                     rc =    7.638387
                 energy =    0.921402
                kinetic =    1.955040
    potential(screened) =   -1.033637
       potential(ionic) =   -3.679558
atom: Total number of Sankey-type orbitals: 13

atm_pop: Valence configuration (for local Pseudopot. screening):
 2s( 2.00)                                                            
 2p( 2.00)                                                            
Vna: chval, zval:    4.00000   4.00000

Vna:  Cut-off radius for the neutral-atom potential:   7.638387

atom: _________________________________________________________________________

prinput: Basis input ----------------------------------------------------------

PAO.BasisType split     

%block ChemicalSpeciesLabel
    1    3 Li-gga                  # Species index, atomic number, species label
    2    6 C-gga                   # Species index, atomic number, species label
%endblock ChemicalSpeciesLabel

%block PAO.Basis                 # Define Basis set
Li-gga                1                    # Species label, number of l-shells
 n=2   0   2 P   1                   # n, l, Nzeta, Polarization, NzetaPol
  11.897      8.489   
   1.000      1.000   
C-gga                 2                    # Species label, number of l-shells
 n=2   0   2                         # n, l, Nzeta 
   5.949      3.519   
   1.000      1.000   
 n=2   1   2 P   1                   # n, l, Nzeta, Polarization, NzetaPol
   7.638      3.841   
   1.000      1.000   
%endblock PAO.Basis

prinput: ----------------------------------------------------------------------

coor:   Atomic-coordinates input format  =     Cartesian coordinates
coor:                                          (in Angstroms)

siesta: Atomic coordinates (Bohr) and species
siesta:      0.00000   0.00000   0.00000  2        1
siesta:      2.68614   0.00000   2.65427  1        2
siesta:      5.38035   0.00000   7.96282  1        3
siesta:     -1.34307   2.32627   2.65427  1        4
siesta:     -2.69017   4.65952   7.96282  1        5
siesta:      2.69017   4.65952   2.65427  1        6
siesta:      1.34307   2.32627   7.96282  1        7
siesta:      5.38035   0.00000   2.65427  1        8
siesta:      2.68614   0.00000   7.96282  1        9
siesta:     -2.69017   4.65952   2.65427  1       10
siesta:     -1.34307   2.32627   7.96282  1       11
siesta:      1.34307   2.32627   2.65427  1       12
siesta:      2.69017   4.65952   7.96282  1       13

siesta: System type = bulk      

initatomlists: Number of atoms, orbitals, and projectors:     13    73   117

siesta: ******************** Simulation parameters ****************************
siesta:
siesta: The following are some of the parameters of the simulation.
siesta: A complete list of the parameters used, including default values,
siesta: can be found in file out.fdf
siesta:
redata: Spin configuration                          = none
redata: Number of spin components                   = 1
redata: Time-Reversal Symmetry                      = T
redata: Spin spiral                                 = F
redata: Long output                                 =   F
redata: Number of Atomic Species                    =        2
redata: Charge density info will appear in .RHO file
redata: Write Mulliken Pop.                         = NO
redata: Matel table size (NRTAB)                    =     1024
redata: Mesh Cutoff                                 =   300.0000 Ry
redata: Net charge of the system                    =     0.0000 |e|
redata: Min. number of SCF Iter                     =        0
redata: Max. number of SCF Iter                     =     1000
redata: SCF convergence failure will abort job
redata: SCF mix quantity                            = Hamiltonian
redata: Mix DM or H after convergence               =   F
redata: Recompute H after scf cycle                 =   F
redata: Mix DM in first SCF step                    =   T
redata: Write Pulay info on disk                    =   F
redata: New DM Occupancy tolerance                  = 0.000000000001
redata: No kicks to SCF
redata: DM Mixing Weight for Kicks                  =     0.5000
redata: Require Harris convergence for SCF          =   F
redata: Harris energy tolerance for SCF             =     0.000100 eV
redata: Require DM convergence for SCF              =   T
redata: DM tolerance for SCF                        =     0.001000
redata: Require EDM convergence for SCF             =   F
redata: EDM tolerance for SCF                       =     0.005000 eV
redata: Require H convergence for SCF               =   T
redata: Hamiltonian tolerance for SCF               =     0.001000 eV
redata: Require (free) Energy convergence for SCF   =   T
redata: (free) Energy tolerance for SCF             =     0.001000 eV
redata: Using Saved Data (generic)                  =   F
redata: Use continuation files for DM               =   F
redata: Neglect nonoverlap interactions             =   F
redata: Method of Calculation                       = Diagonalization
redata: Electronic Temperature                      =   299.9869 K
redata: Fix the spin of the system                  =   F
redata: Dynamics option                             = Single-point calculation
mix.SCF: Pulay mixing                            = Pulay
mix.SCF:    Variant                              = stable
mix.SCF:    History steps                        = 4
mix.SCF:    Linear mixing weight                 =     0.250000
mix.SCF:    Mixing weight                        =     0.250000
mix.SCF:    SVD condition                        = 0.1000E-07
redata: ***********************************************************************

%block SCF.Mixers
  Pulay
%endblock SCF.Mixers

%block SCF.Mixer.Pulay
  # Mixing method
  method pulay
  variant stable

  # Mixing options
  weight 0.2500
  weight.linear 0.2500
  history 4
%endblock SCF.Mixer.Pulay

DM_history_depth set to one: no extrapolation allowed by default for geometry relaxation
Size of DM history Fstack: 1
Total number of electrons:    16.000000
Total ionic charge:    16.000000

* ProcessorY, Blocksize:    3   1


* Orbital distribution balance (max,min):     7     6

k-point displ. along   1 input, could be:     0.00    0.50
k-point displ. along   2 input, could be:     0.00    0.50
k-point displ. along   3 input, could be:     0.00    0.50
 Kpoints in:            8 . Kpoints trimmed:            8

siesta: k-grid: Number of k-points =     8
siesta: k-grid: Cutoff (effective) =     4.269 Ang
siesta: k-grid: Supercell and displacements
siesta: k-grid:    2   0   0      0.000
siesta: k-grid:    0   2   0      0.000
siesta: k-grid:    0   0   2      0.000

diag: Algorithm                                     = Expert
diag: Parallel over k                               =   T
diag: Use parallel 2D distribution                  =   T
diag: Parallel block-size                           = 1
diag: Parallel distribution                         =     3 x     4
diag: Used triangular part                          = Lower
diag: Absolute tolerance                            =  0.100E-15
diag: Orthogonalization factor                      =  0.100E-05
diag: Memory factor                                 =  1.0000

superc: Internal auxiliary supercell:     9 x     9 x     7  =     567
superc: Number of atoms, orbitals, and projectors:   7371  41391  66339


ts: **************************************************************
ts: Save H and S matrices                           =    F
ts: Save DM and EDM matrices                        =    F
ts: Only save the overlap matrix S                  =    F
ts: **************************************************************

************************ Begin: TS CHECKS AND WARNINGS ************************
************************ End: TS CHECKS AND WARNINGS **************************


                     ====================================
                        Single-point calculation
                     ====================================

outcoor: Atomic coordinates (Ang):                          
    0.00000000    0.00000000    0.00000000   2       1  C-gga
    1.42144380    0.00000000    1.40458000   1       2  Li-gga
    2.84715620    0.00000000    4.21374000   1       3  Li-gga
   -0.71072190    1.23100644    1.40458000   1       4  Li-gga
   -1.42357810    2.46570960    4.21374000   1       5  Li-gga
    1.42357810    2.46570960    1.40458000   1       6  Li-gga
    0.71072190    1.23100644    4.21374000   1       7  Li-gga
    2.84715620    0.00000000    1.40458000   1       8  Li-gga
    1.42144380    0.00000000    4.21374000   1       9  Li-gga
   -1.42357810    2.46570960    1.40458000   1      10  Li-gga
   -0.71072190    1.23100644    4.21374000   1      11  Li-gga
    0.71072190    1.23100644    1.40458000   1      12  Li-gga
    1.42357810    2.46570960    4.21374000   1      13  Li-gga

superc: Internal auxiliary supercell:     9 x     9 x     7  =     567
superc: Number of atoms, orbitals, and projectors:   7371  41391  66339

outcell: Unit cell vectors (Ang):
        4.268600    0.000000    0.000000
       -2.134300    3.696716    0.000000
        0.000000    0.000000    5.618320

outcell: Cell vector modules (Ang)   :    4.268600    4.268600    5.618320
outcell: Cell angles (23,13,12) (deg):     90.0000     90.0000    120.0000
outcell: Cell volume (Ang**3)        :     88.6560
<dSpData1D:S at geom step 0
  <sparsity:sparsity for geom step 0
    nrows_g=73 nrows=7 sparsity=10.2558 nnzs=54653, refcount: 7>
  <dData1D:(new from dSpData1D) n=54653, refcount: 1>
refcount: 1>
new_DM -- step:     1
Initializing Density Matrix...
DM filled with atomic data:
<dSpData2D:DM initialized from atoms
  <sparsity:sparsity for geom step 0
    nrows_g=73 nrows=7 sparsity=10.2558 nnzs=54653, refcount: 8>
  <dData2D:DM n=54653 m=1, refcount: 1>
refcount: 1>
No. of atoms with KB's overlaping orbs in proc 0. Max # of overlaps:     444    1275
New grid distribution:   1
           1       1:   20    1:    7    1:    8
           2       1:   20    1:    7    9:   16
           3       1:   20    1:    7   17:   23
           4       1:   20    1:    7   24:   30
           5       1:   20    8:   14    1:    8
           6       1:   20    8:   14    9:   16
           7       1:   20    8:   14   17:   23
           8       1:   20    8:   14   24:   30
           9       1:   20   15:   20    1:    8
          10       1:   20   15:   20    9:   16
          11       1:   20   15:   20   17:   23
          12       1:   20   15:   20   24:   30

InitMesh: MESH =    40 x    40 x    60 =       96000
InitMesh: (bp) =    20 x    20 x    30 =       12000
InitMesh: Mesh cutoff (required, used) =   300.000   315.204 Ry
ExtMesh (bp) on 0 =   160 x   147 x   144 =     3386880
New grid distribution:   2
           1       1:    7    1:   10    1:   15
           2       8:   20    1:   10    8:   15
           3       1:    7    1:   10   16:   30
           4       8:   20    1:   10    1:    7
           5       8:   20   11:   20    1:    7
           6       8:   20    1:   10   16:   23
           7       1:    7   11:   20   16:   30
           8       8:   20    1:   10   24:   30
           9       1:    7   11:   20    1:   15
          10       8:   20   11:   20    8:   15
          11       8:   20   11:   20   16:   23
          12       8:   20   11:   20   24:   30
New grid distribution:   3
           1       1:    7    1:   10    1:   15
           2       8:   20   11:   20    1:    8
           3       1:    7    1:   10   16:   30
           4       8:   20    1:   10    9:   15
           5       8:   20    1:   10    1:    8
           6       8:   20   11:   20    9:   15
           7       1:    7   11:   20   16:   30
           8       8:   20   11:   20   24:   30
           9       1:    7   11:   20    1:   15
          10       8:   20    1:   10   16:   23
          11       8:   20   11:   20   16:   23
          12       8:   20    1:   10   24:   30
Setting up quadratic distribution...
ExtMesh (bp) on 0 =   147 x   150 x   151 =     3329550
PhiOnMesh: Number of (b)points on node 0 =                 1050
PhiOnMesh: nlist on node 0 =               701590

stepf: Fermi-Dirac step function

siesta: Program's energy decomposition (eV):
siesta: Ebs     =      -234.247657
siesta: Eions   =       380.620085
siesta: Ena     =        95.917444
siesta: Ekin    =       246.927388
siesta: Enl     =        -5.260669
siesta: Eso     =         0.000000
siesta: Edftu   =         0.000000
siesta: DEna    =       -15.465026
siesta: DUscf   =        16.119498
siesta: DUext   =         0.000000
siesta: Exc     =      -174.858451
siesta: eta*DQ  =         0.000000
siesta: Emadel  =         0.000000
siesta: Emeta   =         0.000000
siesta: Emolmec =        -6.473056
siesta: Ekinion =         0.000000
siesta: Eharris =      -193.148446
siesta: Etot    =      -223.712957
siesta: FreeEng =      -223.716464

        iscf     Eharris(eV)        E_KS(eV)     FreeEng(eV)     dDmax    Ef(eV) dHmax(eV)
   scf:    1     -193.148446     -223.712957     -223.716464 15.111690-13.797294 15.437073
timer: Routine,Calls,Time,% = IterSCF        1      15.389  56.95
   scf:    2     -235.784164     -232.515954     -232.521533  7.592895-13.861795  1.379211
   scf:    3     -232.638324     -232.594373     -232.595475  0.646515-13.840994  0.232195
   scf:    4     -232.606505     -232.602171     -232.602750  0.620528-13.841467  0.186236
   scf:    5     -232.605006     -232.603894     -232.604520  0.133822-13.847544  0.025820
   scf:    6     -232.604068     -232.604002     -232.604610  0.065024-13.851937  0.019176
   scf:    7     -232.604059     -232.604035     -232.604623  0.014299-13.852218  0.001122
   scf:    8     -232.604039     -232.604037     -232.604623  0.004707-13.852318  0.000354
   scf:    9     -232.604038     -232.604037     -232.604624  0.001675-13.852267  0.000238
   scf:   10     -232.604036     -232.604037     -232.604624  0.001167-13.852137  0.000051
   scf:   11     -232.604036     -232.604037     -232.604624  0.000223-13.852100  0.000023

SCF Convergence by FreeE+DM+H criterion
|FreeE_i-FreeE_(i-1)| (eV) <     0.00100000
max |DM_out - DM_in|         :     0.0002234851
max |H_out - H_in|      (eV) :     0.0000231900
SCF cycle converged after 11 iterations

Using DM_out to compute the final energy and forces
No. of atoms with KB's overlaping orbs in proc 0. Max # of overlaps:     444    1275

MM-Stress (kbar):       31.31       31.31      105.35       -0.00        0.00        0.00

siesta: E_KS(eV) =             -232.6040

siesta: E_KS - E_eggbox =      -232.6040

siesta: Atomic forces (eV/Ang):
     1   -0.000000    0.000000   -0.000000
     2    0.612129   -0.000015    0.040354
     3   -0.612129    0.000015   -0.040354
     4   -0.306077    0.530112    0.040354
     5    0.306077   -0.530112   -0.040354
     6   -0.306072   -0.530132    0.040317
     7    0.306072    0.530132   -0.040317
     8   -0.612129    0.000015    0.040354
     9    0.612129   -0.000015   -0.040354
    10    0.306077   -0.530112    0.040354
    11   -0.306077    0.530112   -0.040354
    12    0.306072    0.530132    0.040317
    13   -0.306072   -0.530132   -0.040317
----------------------------------------
   Tot    0.000000    0.000000   -0.000000
----------------------------------------
   Max    0.612129
   Res    0.340287    sqrt( Sum f_i^2 / 3N )
----------------------------------------
   Max    0.612129    constrained

Stress tensor Voigt[x,y,z,yz,xz,xy] (kbar):    -1276.61    -1276.62      551.46        0.00        0.00       -0.01
(Free)E + p*V (eV/cell)     -195.6825
Target enthalpy (eV/cell)     -232.6046

siesta: Eigenvalues (eV):
  ik is       eps
   1  1  -25.5289  -20.1543  -19.0518  -17.4825  -16.3153  -16.3151  -15.9809  -14.1254  -13.6525  -10.5234
         -10.0348  -10.0347  -10.0286   -9.8970   -9.8970   -8.7708   -8.7708   -4.2641   -4.2641   -3.4811
   -3.4811   -1.3473    1.7433    1.7438    5.1380    5.3931    5.3931    7.6073    7.6073   10.0209
   12.3625   12.3626   17.9243   17.9243   17.9865   18.7359   18.7930   18.7931   22.2412   26.1750
   28.1907   28.1908   28.2600   28.2601   28.9975   28.9986   30.5402   30.5402   32.0221   33.4807
   33.4807   39.1572   39.1573   40.0088   40.3266   42.4261   44.3858   44.3866   45.4971   45.9431
   46.5067   46.7068   68.7780   68.7782  109.5456  109.5457  109.9274  109.9275  194.9926  194.9928
  199.5997  199.5998  407.2424
   2  1  -25.1953  -19.0515  -18.9498  -18.0805  -18.0394  -16.7608  -16.6366  -14.0123  -13.4989  -12.1301
         -11.6477  -11.6428   -8.4060   -6.7281   -6.3450   -5.1263   -4.8809   -4.3611   -3.0399   -1.0149
   -0.7255   -0.6852   -0.4928    0.1709    0.3122    0.3359    0.5397    2.3287    2.9163    3.1205
    7.7926    8.2505    8.7678   11.9226   13.8645   14.9966   16.7389   17.4553   18.4083   20.5525
   21.8577   22.8124   24.3539   25.0945   26.1788   29.8822   30.1736   30.3127   33.3380   33.9418
   35.3727   41.2238   44.7970   44.8121   46.3311   47.0867   48.1748   49.1719   53.2815   53.6242
   54.0768   57.5452   59.2130   63.1414   63.3557   65.5455   68.6302  100.5986  104.8605  123.9895
  125.8006  131.7691  141.7847
   3  1  -25.1953  -19.0515  -18.9498  -18.0805  -18.0394  -16.7608  -16.6366  -14.0123  -13.4989  -12.1301
         -11.6477  -11.6428   -8.4060   -6.7281   -6.3450   -5.1263   -4.8809   -4.3611   -3.0399   -1.0149
   -0.7255   -0.6852   -0.4928    0.1709    0.3122    0.3359    0.5397    2.3287    2.9163    3.1205
    7.7926    8.2505    8.7678   11.9226   13.8645   14.9967   16.7389   17.4553   18.4083   20.5525
   21.8577   22.8124   24.3539   25.0945   26.1788   29.8822   30.1736   30.3127   33.3380   33.9418
   35.3727   41.2239   44.7970   44.8121   46.3311   47.0867   48.1748   49.1720   53.2814   53.6242
   54.0768   57.5452   59.2130   63.1414   63.3557   65.5455   68.6302  100.5986  104.8605  123.9894
  125.8006  131.7691  141.7847
   4  1  -25.1953  -19.0515  -18.9498  -18.0804  -18.0394  -16.7609  -16.6366  -14.0123  -13.4990  -12.1301
         -11.6476  -11.6428   -8.4060   -6.7281   -6.3451   -5.1263   -4.8810   -4.3611   -3.0398   -1.0149
   -0.7257   -0.6852   -0.4928    0.1709    0.3122    0.3360    0.5397    2.3290    2.9163    3.1205
    7.7924    8.2504    8.7678   11.9226   13.8649   14.9966   16.7389   17.4554   18.4083   20.5527
   21.8577   22.8123   24.3538   25.0945   26.1788   29.8823   30.1736   30.3117   33.3382   33.9418
   35.3726   41.2236   44.7970   44.8121   46.3312   47.0867   48.1747   49.1716   53.2813   53.6243
   54.0769   57.5454   59.2129   63.1414   63.3555   65.5455   68.6302  100.5987  104.8605  123.9893
  125.8006  131.7688  141.7847
   5  1  -25.5272  -20.2165  -19.4850  -17.1646  -16.2887  -16.2885  -15.2447  -14.9188  -13.6819  -12.0383
          -9.7392   -9.7392   -9.5921   -9.5921   -9.2120   -9.2120   -6.6659   -4.7085   -1.2215   -1.2213
   -0.7231   -0.7231    0.9174    0.9174    1.4226    1.4226    3.5233    3.5236    6.4151   11.9512
   11.9513   13.2802   13.9286   13.9286   17.7260   21.8026   22.1024   22.2216   22.7510   22.8401
   22.8402   25.8865   25.8866   26.8844   26.8845   27.2708   27.2709   30.7522   30.7523   37.9606
   37.9608   40.9131   40.9147   41.0097   41.1683   44.0724   44.0725   44.6486   44.7661   44.9059
   45.0520   50.8618   50.8629   70.8709   70.8710   70.9835   70.9836   71.9377   71.9378   72.8078
   72.8080  110.6013  110.6441
   6  1  -25.1915  -19.4655  -19.0038  -18.0359  -17.5262  -16.7534  -16.1228  -14.7968  -13.6828  -12.0714
         -11.6434  -10.9603   -8.3020   -7.6304   -6.9158   -6.1454   -3.7067   -3.5768   -3.5686   -3.4179
   -2.8151   -2.7782   -2.3426   -2.2819   -1.7266   -1.5633    1.5680    3.1434    3.3128    3.7855
   13.4449   13.5754   14.1929   16.6049   17.5175   17.7703   19.3688   19.8823   20.3640   20.3822
   22.1333   22.4774   22.4851   22.8964   24.8887   25.0485   25.4511   26.1154   26.9348   29.2515
   36.0709   37.0119   37.9515   40.3390   45.5143   49.1588   49.5924   49.6817   49.7636   52.0745
   52.5004   55.9828   59.9633   60.4660   60.7731   65.3936   69.3044   70.9305   71.6240   76.1430
   79.6356   92.9735   94.1440
   7  1  -25.1915  -19.4655  -19.0038  -18.0359  -17.5262  -16.7534  -16.1228  -14.7968  -13.6828  -12.0714
         -11.6434  -10.9603   -8.3020   -7.6304   -6.9158   -6.1454   -3.7067   -3.5768   -3.5686   -3.4179
   -2.8151   -2.7782   -2.3426   -2.2819   -1.7266   -1.5633    1.5680    3.1434    3.3128    3.7854
   13.4449   13.5754   14.1929   16.6049   17.5175   17.7703   19.3688   19.8823   20.3640   20.3822
   22.1333   22.4774   22.4851   22.8964   24.8887   25.0485   25.4511   26.1154   26.9349   29.2514
   36.0709   37.0119   37.9515   40.3392   45.5143   49.1588   49.5924   49.6817   49.7635   52.0745
   52.5004   55.9828   59.9633   60.4660   60.7731   65.3936   69.3044   70.9305   71.6238   76.1430
   79.6356   92.9735   94.1442
   8  1  -25.1915  -19.4655  -19.0037  -18.0359  -17.5262  -16.7536  -16.1228  -14.7968  -13.6827  -12.0715
         -11.6435  -10.9603   -8.3018   -7.6304   -6.9158   -6.1455   -3.7067   -3.5768   -3.5686   -3.4178
   -2.8151   -2.7782   -2.3426   -2.2819   -1.7266   -1.5633    1.5680    3.1434    3.3125    3.7858
   13.4447   13.5755   14.1929   16.6050   17.5175   17.7706   19.3688   19.8824   20.3641   20.3826
   22.1333   22.4773   22.4852   22.8963   24.8887   25.0485   25.4511   26.1154   26.9347   29.2515
   36.0705   37.0119   37.9514   40.3387   45.5142   49.1587   49.5925   49.6817   49.7636   52.0747
   52.5006   55.9825   59.9633   60.4653   60.7731   65.3937   69.3044   70.9306   71.6241   76.1428
   79.6357   92.9734   94.1439
siesta: Fermi energy =     -13.852100 eV

siesta: Program's energy decomposition (eV):
siesta: Ebs     =      -292.738196
siesta: Eions   =       380.620085
siesta: Ena     =        95.917444
siesta: Ekin    =       207.106771
siesta: Enl     =         6.970950
siesta: Eso     =         0.000000
siesta: Edftu   =         0.000000
siesta: DEna    =         7.880200
siesta: DUscf   =         3.198270
siesta: DUext   =         0.000000
siesta: Exc     =      -166.584530
siesta: eta*DQ  =         0.000000
siesta: Emadel  =         0.000000
siesta: Emeta   =         0.000000
siesta: Emolmec =        -6.473056
siesta: Ekinion =         0.000000
siesta: Eharris =      -232.604036
siesta: Etot    =      -232.604037
siesta: FreeEng =      -232.604624

siesta: Final energy (eV):
siesta:  Band Struct. =    -292.738196
siesta:       Kinetic =     207.106771
siesta:       Hartree =      73.829336
siesta:       Edftu   =       0.000000
siesta:       Eso     =       0.000000
siesta:    Ext. field =       0.000000
siesta:   Exch.-corr. =    -166.584530
siesta:  Ion-electron =    -470.561692
siesta:       Ion-ion =     130.079135
siesta:       Ekinion =       0.000000
siesta:         Total =    -232.604037
siesta:         Fermi =     -13.852100

siesta: Atomic forces (eV/Ang):
siesta:      1   -0.000000    0.000000   -0.000000
siesta:      2    0.612129   -0.000015    0.040354
siesta:      3   -0.612129    0.000015   -0.040354
siesta:      4   -0.306077    0.530112    0.040354
siesta:      5    0.306077   -0.530112   -0.040354
siesta:      6   -0.306072   -0.530132    0.040317
siesta:      7    0.306072    0.530132   -0.040317
siesta:      8   -0.612129    0.000015    0.040354
siesta:      9    0.612129   -0.000015   -0.040354
siesta:     10    0.306077   -0.530112    0.040354
siesta:     11   -0.306077    0.530112   -0.040354
siesta:     12    0.306072    0.530132    0.040317
siesta:     13   -0.306072   -0.530132   -0.040317
siesta: ----------------------------------------
siesta:    Tot    0.000000    0.000000   -0.000000

siesta: Stress tensor (static) (eV/Ang**3):
siesta:    -0.796789   -0.000006    0.000000
siesta:    -0.000006   -0.796796    0.000000
siesta:     0.000000    0.000000    0.344190

siesta: Cell volume =         88.655978 Ang**3

siesta: Pressure (static):
siesta:                Solid            Molecule  Units
siesta:           0.00453583          0.00477810  Ry/Bohr**3
siesta:           0.41646486          0.43870934  eV/Ang**3
siesta:         667.25748718        702.89744845  kBar
(Free)E+ p_basis*V_orbitals  =        -194.668552
(Free)Eharris+ p_basis*V_orbitals  =        -194.668552

cite: Please see "LiC12_scf.bib" for an exhaustive BiBTeX file.
cite: Please clearly indicate Siesta version in published work: 4.1.5
cite: This calculation has made use of the following articles
cite: which are encouraged to be cited in a published work.
        Primary SIESTA paper
          DOI: www.doi.org/10.1088/0953-8984/14/11/302

>> End of run:   9-NOV-2022   1:23:32
Job completed
