Siesta Version  : 4.1.5
Architecture    : x86_64-unknown-linux-gnu--unknown
Compiler version: GNU Fortran (GCC) 11.3.0
Compiler flags  : mpif90 -g -O2 -fallow-argument-mismatch
PP flags        : -DMPI -DFC_HAVE_FLUSH -DFC_HAVE_ABORT
Libraries       :  -I/global/software/sl-7.x86_64/modules/intel/2020.4.304/mkl/include  /globall/software/sl-7.x86_64/modules/intel/2020.4.304/mkl/lib/intel64/libmkl_scalapack_lp64.a -Wl,--start-group /global/software/sl-7.x86_64/modules/intel/2020.4.304/mkl/lib/intel64/libmkl_intel_lp64.a /global/software/sl-7.x86_64/modules/intel/2020.4.304/mkl/lib/intel64/libmkl_sequential.a /global/software/sl-7.x86_64/modules/intel/2020.4.304/mkl/lib/intel64/libmkl_core.a /global/software/sl-7.x86_64/modules/intel/2020.4.304/mkl/lib/intel64/libmkl_blacs_openmpi_lp64.a -Wl,--end-group -lpthread -lm -ldl
PARALLEL version

* Running on 12 nodes in parallel
>> Start of run:   9-NOV-2022   0:59:28

                           ***********************       
                           *  WELCOME TO SIESTA  *       
                           ***********************       

reinit: Reading from standard input
reinit: Dumped input in INPUT_TMP.35441
************************** Dump of input data file ****************************
SystemName LiC12_scf
SystemLabel LiC12_scf
NumberOfAtoms   13
NumberOfSpecies 2
%block ChemicalSpeciesLabel
1  3   Li-gga
2  6   C-gga
%endblock ChemicalSpeciesLabel
PAO.BasisSize  DZP
PAO.EnergyShift  10 meV
%block PS.Lmax
C-gga   2
Li-gga  2
%endblock PS.Lmax
LatticeConstant 1.000000 Ang
%block LatticeVectors
	4.2686000000	0.0000000000	0.0000000000
	-2.1343000000	3.6967160386	0.0000000000
	0.0000000000	0.0000000000	6.0396940000
%endblock LatticeVectors
AtomicCoordinatesFormat Ang
%block AtomicCoordinatesAndAtomicSpecies
	0.00000000	0.00000000	0.00000000	2
	1.42144380	0.00000000	1.50992350	1
	2.84715620	0.00000000	4.52977050	1
	-0.71072190	1.23100644	1.50992350	1
	-1.42357810	2.46570960	4.52977050	1
	1.42357810	2.46570960	1.50992350	1
	0.71072190	1.23100644	4.52977050	1
	2.84715620	0.00000000	1.50992350	1
	1.42144380	0.00000000	4.52977050	1
	-1.42357810	2.46570960	1.50992350	1
	-0.71072190	1.23100644	4.52977050	1
	0.71072190	1.23100644	1.50992350	1
	1.42357810	2.46570960	4.52977050	1
%endblock AtomicCoordinatesAndAtomicSpecies
Kgrid_NoTRS  T
%block kgrid_MonkhorstPack
2       0       0       0.0
0       2       0       0.0
0       0       2       0.0
%endblock kgrid_MonkhorstPack
AtomCoorFormatOut Ang
BlockSize 1
#ProcessorY 12
Diag.ParallelOverK   T
Diag.DivideAndConquer F
MeshCutoff   300 Ry
SCF.FreeE.Tolerance 1E-3 eV
SCF.EDM.Tolerance   5E-3 eV
DM.Tolerance  1E-3
DM.Require.Energy.Convergence T
DM.NumberPulay 4
XC.Functional GGA
XC.Authors    PBE
UseSaveData        F
MD.TypeOfRun       CG
MD.VariableCell    F
MD.NumCGsteps      00
MD.MaxCGDispl      0.200000 Bohr
MD.MaxStressTol    1.000000 GPa
MD.MaxForceTol     0.010000 eV/Ang
WriteMDHistory T
WriteCoorStep T
WriteForces T
WriteCoorStep    T
WriteEigenValues T
WriteDM    F
MM.UnitsDistance Ang  # what this program prints out DO NOT CHANGE
MM.UnitsEnergy    eV  # what this program prints out DO NOT CHANGE
MM.Grimme.S6     0.75 # Grimme-paper for PBE (correct for your functional)
MM.Grimme.D     20.   # Grimme-paper (correct for your functional)
%block MM.Potentials
  1   1 Grimme     16.69      1.650 # Li, 10.1002/jcc.20495
  1   2 Grimme     17.40      2.277 # Li / C
  2   2 Grimme     18.14      2.904 # C, 10.1002/jcc.20495
%endblock MM.Potentials
#%block ProjectedDensityOfStates
# -200.0  120.0  0.4  12800  eV
#%endblock ProjectedDensityOfStates
************************** End of input data file *****************************

reinit: -----------------------------------------------------------------------
reinit: System Name: LiC12_scf
reinit: -----------------------------------------------------------------------
reinit: System Label: LiC12_scf
reinit: -----------------------------------------------------------------------
Reading two-body potentials
Grimme - two-body potential between 1 and 1
Grimme - two-body potential between 1 and 2
Grimme - two-body potential between 2 and 2

initatom: Reading input for the pseudopotentials and atomic orbitals ----------
Species number:   1 Atomic number:    3 Label: Li-gga
Species number:   2 Atomic number:    6 Label: C-gga

Ground state valence configuration:   2s01
Reading pseudopotential information in formatted form from Li-gga.psf

Valence configuration for pseudopotential generation:
2s( 1.00) rc: 2.28
2p( 0.00) rc: 2.28
3d( 0.00) rc: 2.59
4f( 0.00) rc: 2.59
Ground state valence configuration:   2s02  2p02
Reading pseudopotential information in formatted form from C-gga.psf

Valence configuration for pseudopotential generation:
2s( 2.00) rc: 1.56
2p( 2.00) rc: 1.56
3d( 0.00) rc: 1.56
4f( 0.00) rc: 1.56
relmxkb: Read Max KB Ang. Momentum=    2 for species C-gga
relmxkb: Read Max KB Ang. Momentum=    2 for species Li-gga

<basis_specs>
===============================================================================
Li-gga               Z=   3    Mass=  6.9400        Charge= 0.17977+309
Lmxo=0 Lmxkb= 2    BasisType=split      Semic=F
L=0  Nsemic=0  Cnfigmx=2
          i=1  nzeta=2  polorb=1  (2s)
            splnorm:   0.15000    
               vcte:    0.0000    
               rinn:    0.0000    
               qcoe:    0.0000    
               qyuk:    0.0000    
               qwid:   0.10000E-01
                rcs:    0.0000      0.0000    
            lambdas:    1.0000      1.0000    
-------------------------------------------------------------------------------
L=0  Nkbl=1  erefs: 0.17977+309
L=1  Nkbl=1  erefs: 0.17977+309
L=2  Nkbl=1  erefs: 0.17977+309
===============================================================================
</basis_specs>

atom: Called for Li-gga                (Z =   3)

read_vps: Pseudopotential generation method:
read_vps: ATM 3.2.2 Troullier-Martins                       
Valence charge for ps generation:    1.00000

read_vps: Pseudopotential includes a core correction:
read_vps: Pseudo-core for xc-correction

xc_check: Exchange-correlation functional:
xc_check: GGA Perdew, Burke & Ernzerhof 1996
V l=0 = -2*Zval/r beyond r=  2.2278
V l=1 = -2*Zval/r beyond r=  2.2278
V l=2 = -2*Zval/r beyond r=  2.5245
All V_l potentials equal beyond r=  2.4622
This should be close to max(r_c) in ps generation
All pots = -2*Zval/r beyond r=  2.5245

VLOCAL1: 99.0% of the norm of Vloc inside      7.160 Ry
VLOCAL1: 99.9% of the norm of Vloc inside     16.318 Ry
atom: Maximum radius for 4*pi*r*r*local-pseudopot. charge    2.86079
atom: Maximum radius for r*vlocal+2*Zval:    2.43160
GHOST: No ghost state for L =  0
GHOST: No ghost state for L =  1
GHOST: No ghost state for L =  2

KBgen: Kleinman-Bylander projectors: 
   l= 0   rc=  2.654023   el= -0.211234   Ekb=  1.742119   kbcos=  0.228463
   l= 1   rc=  2.721230   el= -0.080095   Ekb= -1.122375   kbcos= -0.147941
   l= 2   rc=  2.825246   el=  0.002001   Ekb= -0.207076   kbcos= -0.031965

KBgen: Total number of Kleinman-Bylander projectors:    9
atom: -------------------------------------------------------------------------

atom: SANKEY-TYPE ORBITALS:
atom: Selected multiple-zeta basis: split     

SPLIT: Orbitals with angular momentum L= 0

SPLIT: Basis orbitals for state 2s

SPLIT: PAO cut-off radius determined from an
SPLIT: energy shift=  0.000735 Ry

   izeta = 1
                 lambda =    1.000000
                     rc =   11.897381
                 energy =   -0.210580
                kinetic =    0.143382
    potential(screened) =   -0.353962
       potential(ionic) =   -0.533453

   izeta = 2
                 rmatch =    8.489163
              splitnorm =    0.150000
                 energy =   -0.186081
                kinetic =    0.225882
    potential(screened) =   -0.411964
       potential(ionic) =   -0.593024

POLgen: Perturbative polarization orbital with L=  1

POLgen: Polarization orbital for state 2s

   izeta = 1
                     rc =   11.897381
                 energy =   -0.027011
                kinetic =    0.282985
    potential(screened) =   -0.309997
       potential(ionic) =   -0.490997
atom: Total number of Sankey-type orbitals:  5

atm_pop: Valence configuration (for local Pseudopot. screening):
 2s( 1.00)                                                            
Vna: chval, zval:    1.00000   1.00000

Vna:  Cut-off radius for the neutral-atom potential:  11.897381
comcore: Pseudo-core radius Rcore=  3.450946

atom: _________________________________________________________________________

<basis_specs>
===============================================================================
C-gga                Z=   6    Mass=  12.010        Charge= 0.17977+309
Lmxo=1 Lmxkb= 2    BasisType=split      Semic=F
L=0  Nsemic=0  Cnfigmx=2
          i=1  nzeta=2  polorb=0  (2s)
            splnorm:   0.15000    
               vcte:    0.0000    
               rinn:    0.0000    
               qcoe:    0.0000    
               qyuk:    0.0000    
               qwid:   0.10000E-01
                rcs:    0.0000      0.0000    
            lambdas:    1.0000      1.0000    
L=1  Nsemic=0  Cnfigmx=2
          i=1  nzeta=2  polorb=1  (2p)
            splnorm:   0.15000    
               vcte:    0.0000    
               rinn:    0.0000    
               qcoe:    0.0000    
               qyuk:    0.0000    
               qwid:   0.10000E-01
                rcs:    0.0000      0.0000    
            lambdas:    1.0000      1.0000    
-------------------------------------------------------------------------------
L=0  Nkbl=1  erefs: 0.17977+309
L=1  Nkbl=1  erefs: 0.17977+309
L=2  Nkbl=1  erefs: 0.17977+309
===============================================================================
</basis_specs>

atom: Called for C-gga                 (Z =   6)

read_vps: Pseudopotential generation method:
read_vps: ATM 3.2.2 Troullier-Martins                       
Valence charge for ps generation:    4.00000

xc_check: Exchange-correlation functional:
xc_check: GGA Perdew, Burke & Ernzerhof 1996
V l=0 = -2*Zval/r beyond r=  1.5227
V l=1 = -2*Zval/r beyond r=  1.5227
V l=2 = -2*Zval/r beyond r=  1.5227
All V_l potentials equal beyond r=  1.4851
This should be close to max(r_c) in ps generation
All pots = -2*Zval/r beyond r=  1.5227

VLOCAL1: 99.0% of the norm of Vloc inside     19.682 Ry
VLOCAL1: 99.9% of the norm of Vloc inside     44.856 Ry
atom: Maximum radius for 4*pi*r*r*local-pseudopot. charge    1.79142
atom: Maximum radius for r*vlocal+2*Zval:    1.54183
GHOST: No ghost state for L =  0
GHOST: No ghost state for L =  1
GHOST: No ghost state for L =  2

KBgen: Kleinman-Bylander projectors: 
   l= 0   rc=  1.661951   el= -1.010689   Ekb=  5.289847   kbcos=  0.316429
   l= 1   rc=  1.661951   el= -0.388490   Ekb= -4.102504   kbcos= -0.351025
   l= 2   rc=  1.747182   el=  0.001971   Ekb= -1.006005   kbcos= -0.008530

KBgen: Total number of Kleinman-Bylander projectors:    9
atom: -------------------------------------------------------------------------

atom: SANKEY-TYPE ORBITALS:
atom: Selected multiple-zeta basis: split     

SPLIT: Orbitals with angular momentum L= 0

SPLIT: Basis orbitals for state 2s

SPLIT: PAO cut-off radius determined from an
SPLIT: energy shift=  0.000735 Ry

   izeta = 1
                 lambda =    1.000000
                     rc =    5.948690
                 energy =   -1.010099
                kinetic =    0.827121
    potential(screened) =   -1.837220
       potential(ionic) =   -5.392783

   izeta = 2
                 rmatch =    3.518811
              splitnorm =    0.150000
                 energy =   -0.877891
                kinetic =    1.289227
    potential(screened) =   -2.167118
       potential(ionic) =   -5.982073

SPLIT: Orbitals with angular momentum L= 1

SPLIT: Basis orbitals for state 2p

SPLIT: PAO cut-off radius determined from an
SPLIT: energy shift=  0.000735 Ry

   izeta = 1
                 lambda =    1.000000
                     rc =    7.638387
                 energy =   -0.387843
                kinetic =    2.314739
    potential(screened) =   -2.702582
       potential(ionic) =   -6.092371

   izeta = 2
                 rmatch =    3.840617
              splitnorm =    0.150000
                 energy =   -0.270479
                kinetic =    3.438347
    potential(screened) =   -3.708826
       potential(ionic) =   -7.497707

POLgen: Perturbative polarization orbital with L=  2

POLgen: Polarization orbital for state 2p

   izeta = 1
                     rc =    7.638387
                 energy =    0.921402
                kinetic =    1.955040
    potential(screened) =   -1.033637
       potential(ionic) =   -3.679558
atom: Total number of Sankey-type orbitals: 13

atm_pop: Valence configuration (for local Pseudopot. screening):
 2s( 2.00)                                                            
 2p( 2.00)                                                            
Vna: chval, zval:    4.00000   4.00000

Vna:  Cut-off radius for the neutral-atom potential:   7.638387

atom: _________________________________________________________________________

prinput: Basis input ----------------------------------------------------------

PAO.BasisType split     

%block ChemicalSpeciesLabel
    1    3 Li-gga                  # Species index, atomic number, species label
    2    6 C-gga                   # Species index, atomic number, species label
%endblock ChemicalSpeciesLabel

%block PAO.Basis                 # Define Basis set
Li-gga                1                    # Species label, number of l-shells
 n=2   0   2 P   1                   # n, l, Nzeta, Polarization, NzetaPol
  11.897      8.489   
   1.000      1.000   
C-gga                 2                    # Species label, number of l-shells
 n=2   0   2                         # n, l, Nzeta 
   5.949      3.519   
   1.000      1.000   
 n=2   1   2 P   1                   # n, l, Nzeta, Polarization, NzetaPol
   7.638      3.841   
   1.000      1.000   
%endblock PAO.Basis

prinput: ----------------------------------------------------------------------

coor:   Atomic-coordinates input format  =     Cartesian coordinates
coor:                                          (in Angstroms)

siesta: Atomic coordinates (Bohr) and species
siesta:      0.00000   0.00000   0.00000  2        1
siesta:      2.68614   0.00000   2.85334  1        2
siesta:      5.38035   0.00000   8.56003  1        3
siesta:     -1.34307   2.32627   2.85334  1        4
siesta:     -2.69017   4.65952   8.56003  1        5
siesta:      2.69017   4.65952   2.85334  1        6
siesta:      1.34307   2.32627   8.56003  1        7
siesta:      5.38035   0.00000   2.85334  1        8
siesta:      2.68614   0.00000   8.56003  1        9
siesta:     -2.69017   4.65952   2.85334  1       10
siesta:     -1.34307   2.32627   8.56003  1       11
siesta:      1.34307   2.32627   2.85334  1       12
siesta:      2.69017   4.65952   8.56003  1       13

siesta: System type = bulk      

initatomlists: Number of atoms, orbitals, and projectors:     13    73   117

siesta: ******************** Simulation parameters ****************************
siesta:
siesta: The following are some of the parameters of the simulation.
siesta: A complete list of the parameters used, including default values,
siesta: can be found in file out.fdf
siesta:
redata: Spin configuration                          = none
redata: Number of spin components                   = 1
redata: Time-Reversal Symmetry                      = T
redata: Spin spiral                                 = F
redata: Long output                                 =   F
redata: Number of Atomic Species                    =        2
redata: Charge density info will appear in .RHO file
redata: Write Mulliken Pop.                         = NO
redata: Matel table size (NRTAB)                    =     1024
redata: Mesh Cutoff                                 =   300.0000 Ry
redata: Net charge of the system                    =     0.0000 |e|
redata: Min. number of SCF Iter                     =        0
redata: Max. number of SCF Iter                     =     1000
redata: SCF convergence failure will abort job
redata: SCF mix quantity                            = Hamiltonian
redata: Mix DM or H after convergence               =   F
redata: Recompute H after scf cycle                 =   F
redata: Mix DM in first SCF step                    =   T
redata: Write Pulay info on disk                    =   F
redata: New DM Occupancy tolerance                  = 0.000000000001
redata: No kicks to SCF
redata: DM Mixing Weight for Kicks                  =     0.5000
redata: Require Harris convergence for SCF          =   F
redata: Harris energy tolerance for SCF             =     0.000100 eV
redata: Require DM convergence for SCF              =   T
redata: DM tolerance for SCF                        =     0.001000
redata: Require EDM convergence for SCF             =   F
redata: EDM tolerance for SCF                       =     0.005000 eV
redata: Require H convergence for SCF               =   T
redata: Hamiltonian tolerance for SCF               =     0.001000 eV
redata: Require (free) Energy convergence for SCF   =   T
redata: (free) Energy tolerance for SCF             =     0.001000 eV
redata: Using Saved Data (generic)                  =   F
redata: Use continuation files for DM               =   F
redata: Neglect nonoverlap interactions             =   F
redata: Method of Calculation                       = Diagonalization
redata: Electronic Temperature                      =   299.9869 K
redata: Fix the spin of the system                  =   F
redata: Dynamics option                             = Single-point calculation
mix.SCF: Pulay mixing                            = Pulay
mix.SCF:    Variant                              = stable
mix.SCF:    History steps                        = 4
mix.SCF:    Linear mixing weight                 =     0.250000
mix.SCF:    Mixing weight                        =     0.250000
mix.SCF:    SVD condition                        = 0.1000E-07
redata: ***********************************************************************

%block SCF.Mixers
  Pulay
%endblock SCF.Mixers

%block SCF.Mixer.Pulay
  # Mixing method
  method pulay
  variant stable

  # Mixing options
  weight 0.2500
  weight.linear 0.2500
  history 4
%endblock SCF.Mixer.Pulay

DM_history_depth set to one: no extrapolation allowed by default for geometry relaxation
Size of DM history Fstack: 1
Total number of electrons:    16.000000
Total ionic charge:    16.000000

* ProcessorY, Blocksize:    3   1


* Orbital distribution balance (max,min):     7     6

k-point displ. along   1 input, could be:     0.00    0.50
k-point displ. along   2 input, could be:     0.00    0.50
k-point displ. along   3 input, could be:     0.00    0.50
 Kpoints in:            8 . Kpoints trimmed:            8

siesta: k-grid: Number of k-points =     8
siesta: k-grid: Cutoff (effective) =     4.269 Ang
siesta: k-grid: Supercell and displacements
siesta: k-grid:    2   0   0      0.000
siesta: k-grid:    0   2   0      0.000
siesta: k-grid:    0   0   2      0.000

diag: Algorithm                                     = Expert
diag: Parallel over k                               =   T
diag: Use parallel 2D distribution                  =   T
diag: Parallel block-size                           = 1
diag: Parallel distribution                         =     3 x     4
diag: Used triangular part                          = Lower
diag: Absolute tolerance                            =  0.100E-15
diag: Orthogonalization factor                      =  0.100E-05
diag: Memory factor                                 =  1.0000

superc: Internal auxiliary supercell:     9 x     9 x     5  =     405
superc: Number of atoms, orbitals, and projectors:   5265  29565  47385


ts: **************************************************************
ts: Save H and S matrices                           =    F
ts: Save DM and EDM matrices                        =    F
ts: Only save the overlap matrix S                  =    F
ts: **************************************************************

************************ Begin: TS CHECKS AND WARNINGS ************************
************************ End: TS CHECKS AND WARNINGS **************************


                     ====================================
                        Single-point calculation
                     ====================================

outcoor: Atomic coordinates (Ang):                          
    0.00000000    0.00000000    0.00000000   2       1  C-gga
    1.42144380    0.00000000    1.50992350   1       2  Li-gga
    2.84715620    0.00000000    4.52977050   1       3  Li-gga
   -0.71072190    1.23100644    1.50992350   1       4  Li-gga
   -1.42357810    2.46570960    4.52977050   1       5  Li-gga
    1.42357810    2.46570960    1.50992350   1       6  Li-gga
    0.71072190    1.23100644    4.52977050   1       7  Li-gga
    2.84715620    0.00000000    1.50992350   1       8  Li-gga
    1.42144380    0.00000000    4.52977050   1       9  Li-gga
   -1.42357810    2.46570960    1.50992350   1      10  Li-gga
   -0.71072190    1.23100644    4.52977050   1      11  Li-gga
    0.71072190    1.23100644    1.50992350   1      12  Li-gga
    1.42357810    2.46570960    4.52977050   1      13  Li-gga

superc: Internal auxiliary supercell:     9 x     9 x     5  =     405
superc: Number of atoms, orbitals, and projectors:   5265  29565  47385

outcell: Unit cell vectors (Ang):
        4.268600    0.000000    0.000000
       -2.134300    3.696716    0.000000
        0.000000    0.000000    6.039694

outcell: Cell vector modules (Ang)   :    4.268600    4.268600    6.039694
outcell: Cell angles (23,13,12) (deg):     90.0000     90.0000    120.0000
outcell: Cell volume (Ang**3)        :     95.3052
<dSpData1D:S at geom step 0
  <sparsity:sparsity for geom step 0
    nrows_g=73 nrows=7 sparsity=9.3669 nnzs=49916, refcount: 7>
  <dData1D:(new from dSpData1D) n=49916, refcount: 1>
refcount: 1>
new_DM -- step:     1
Initializing Density Matrix...
DM filled with atomic data:
<dSpData2D:DM initialized from atoms
  <sparsity:sparsity for geom step 0
    nrows_g=73 nrows=7 sparsity=9.3669 nnzs=49916, refcount: 8>
  <dData2D:DM n=49916 m=1, refcount: 1>
refcount: 1>
No. of atoms with KB's overlaping orbs in proc 0. Max # of overlaps:     418    1170
New grid distribution:   1
           1       1:   20    1:    7    1:    8
           2       1:   20    1:    7    9:   16
           3       1:   20    1:    7   17:   24
           4       1:   20    1:    7   25:   32
           5       1:   20    8:   14    1:    8
           6       1:   20    8:   14    9:   16
           7       1:   20    8:   14   17:   24
           8       1:   20    8:   14   25:   32
           9       1:   20   15:   20    1:    8
          10       1:   20   15:   20    9:   16
          11       1:   20   15:   20   17:   24
          12       1:   20   15:   20   25:   32

InitMesh: MESH =    40 x    40 x    64 =      102400
InitMesh: (bp) =    20 x    20 x    32 =       12800
InitMesh: Mesh cutoff (required, used) =   300.000   310.336 Ry
ExtMesh (bp) on 0 =   160 x   147 x   144 =     3386880
New grid distribution:   2
           1       1:    7    1:   10    1:   16
           2       8:   20   11:   20   17:   24
           3       1:    7    1:   10   17:   32
           4       8:   20    1:   10    1:    8
           5       8:   20   11:   20    1:    8
           6       8:   20    1:   10    9:   16
           7       1:    7   11:   20   17:   32
           8       8:   20    1:   10   25:   32
           9       1:    7   11:   20    1:   16
          10       8:   20    1:   10   17:   24
          11       8:   20   11:   20    9:   16
          12       8:   20   11:   20   25:   32
New grid distribution:   3
           1       1:    7    1:   10    1:   16
           2       8:   20   11:   20   17:   24
           3       1:    7    1:   10   17:   32
           4       8:   20    1:   10    1:    8
           5       8:   20   11:   20    1:    8
           6       8:   20    1:   10    9:   16
           7       1:    7   11:   20   17:   32
           8       8:   20    1:   10   25:   32
           9       1:    7   11:   20    1:   16
          10       8:   20    1:   10   17:   24
          11       8:   20   11:   20    9:   16
          12       8:   20   11:   20   25:   32
Setting up quadratic distribution...
ExtMesh (bp) on 0 =   147 x   150 x   152 =     3351600
PhiOnMesh: Number of (b)points on node 0 =                 1120
PhiOnMesh: nlist on node 0 =               696476

stepf: Fermi-Dirac step function

siesta: Program's energy decomposition (eV):
siesta: Ebs     =      -221.208624
siesta: Eions   =       380.620085
siesta: Ena     =       100.736881
siesta: Ekin    =       233.696663
siesta: Enl     =        -2.086200
siesta: Eso     =         0.000000
siesta: Edftu   =         0.000000
siesta: DEna    =       -10.415591
siesta: DUscf   =        13.506406
siesta: DUext   =         0.000000
siesta: Exc     =      -170.807429
siesta: eta*DQ  =         0.000000
siesta: Emadel  =         0.000000
siesta: Emeta   =         0.000000
siesta: Emolmec =        -6.130385
siesta: Ekinion =         0.000000
siesta: Eharris =      -193.934979
siesta: Etot    =      -222.119742
siesta: FreeEng =      -222.133526

        iscf     Eharris(eV)        E_KS(eV)     FreeEng(eV)     dDmax    Ef(eV) dHmax(eV)
   scf:    1     -193.934979     -222.119742     -222.133526 16.097258-13.308707 14.315249
timer: Routine,Calls,Time,% = IterSCF        1      13.845  55.87
   scf:    2     -232.655678     -229.866792     -229.878838  5.592245-13.470369  0.917044
   scf:    3     -229.922909     -229.901555     -229.913790  0.483717-13.500356  0.191226
   scf:    4     -229.912583     -229.908598     -229.921805  0.743761-13.540684  0.185929
   scf:    5     -229.909453     -229.909640     -229.923187  0.108135-13.546317  0.053213
   scf:    6     -229.909599     -229.909650     -229.923286  0.060044-13.552417  0.004789
   scf:    7     -229.909640     -229.909646     -229.923288  0.001349-13.552072  0.000821
   scf:    8     -229.909632     -229.909639     -229.923288  0.001205-13.551869  0.000183
   scf:    9     -229.909633     -229.909636     -229.923288  0.001529-13.551811  0.000131
   scf:   10     -229.909634     -229.909635     -229.923288  0.001187-13.551767  0.000100
   scf:   11     -229.909623     -229.909629     -229.923288  0.001314-13.551619  0.000022
   scf:   12     -229.909628     -229.909628     -229.923288  0.000102-13.551613  0.000017

SCF Convergence by FreeE+DM+H criterion
|FreeE_i-FreeE_(i-1)| (eV) <     0.00100000
max |DM_out - DM_in|         :     0.0001022792
max |H_out - H_in|      (eV) :     0.0000170830
SCF cycle converged after 12 iterations

Using DM_out to compute the final energy and forces
No. of atoms with KB's overlaping orbs in proc 0. Max # of overlaps:     418    1170

MM-Stress (kbar):       19.30       19.30       62.11        0.00        0.00        0.00

siesta: E_KS(eV) =             -229.9096

siesta: E_KS - E_eggbox =      -229.9096

siesta: Atomic forces (eV/Ang):
     1   -0.000000    0.000000   -0.000000
     2    0.303622   -0.000018   -0.227171
     3   -0.303622    0.000018    0.227171
     4   -0.151827    0.262936   -0.227171
     5    0.151827   -0.262936    0.227171
     6   -0.151824   -0.262967   -0.227208
     7    0.151824    0.262967    0.227208
     8   -0.303622    0.000018   -0.227171
     9    0.303622   -0.000018    0.227171
    10    0.151827   -0.262936   -0.227171
    11   -0.151827    0.262936    0.227171
    12    0.151824    0.262967   -0.227208
    13   -0.151824   -0.262967    0.227208
----------------------------------------
   Tot   -0.000000    0.000000    0.000000
----------------------------------------
   Max    0.303622
   Res    0.210351    sqrt( Sum f_i^2 / 3N )
----------------------------------------
   Max    0.303622    constrained

Stress tensor Voigt[x,y,z,yz,xz,xy] (kbar):    -1253.02    -1253.03      697.83        0.00        0.00       -0.01
(Free)E + p*V (eV/cell)     -194.0699
Target enthalpy (eV/cell)     -229.9233

siesta: Eigenvalues (eV):
  ik is       eps
   1  1  -24.1947  -18.9930  -18.0349  -16.1391  -14.8415  -14.8413  -14.7063  -13.5986  -13.5402  -11.0903
          -9.9897   -8.8392   -8.8392   -8.5784   -8.5784   -6.9762   -6.9762   -4.1736   -4.1736   -3.4738
   -3.4738   -2.0269    2.5645    2.5650    5.0603    5.7794    5.7794    8.1924    8.1925   10.0937
   14.5750   14.5751   17.1281   17.1282   17.5191   17.5192   19.1041   19.8200   19.9123   21.7911
   24.6544   24.6544   26.5863   27.2698   27.2699   29.2952   29.2953   29.9606   29.9607   30.5541
   30.5552   36.9523   36.9524   38.7206   41.2126   42.2231   42.2238   45.1244   45.5603   47.5647
   47.7431   64.5585   64.5587   68.9251  108.0608  183.9713  183.9715  188.3080  188.3081  219.8524
  219.8525  220.0627  220.0627
   2  1  -23.8417  -18.0998  -17.7742  -16.8848  -16.7584  -15.3854  -15.2975  -13.6111  -13.4235  -10.8513
         -10.5282  -10.4470   -9.5142   -6.9427   -5.8212   -5.0291   -4.8872   -3.2071   -2.2765   -1.3449
   -1.1372   -1.1211   -0.1685   -0.0516    0.1923    0.5320    1.4339    2.2457    2.3819    4.8644
    7.4489    7.7792    8.3203    9.0581   13.2098   14.9335   17.2044   17.6626   19.2035   21.0216
   22.1971   22.2302   23.8119   24.3174   24.8806   26.6846   27.1259   30.2749   30.3575   31.0057
   31.1899   33.1167   43.2335   44.2448   45.5836   46.6306   47.5233   48.8807   49.2355   49.4236
   54.9382   59.5524   60.7398   61.3304   64.1673   74.0786   92.5379   92.7822   99.9264  101.8136
  102.1337  118.4326  127.3957
   3  1  -23.8417  -18.0998  -17.7742  -16.8848  -16.7584  -15.3854  -15.2975  -13.6111  -13.4235  -10.8513
         -10.5282  -10.4470   -9.5142   -6.9427   -5.8212   -5.0291   -4.8872   -3.2071   -2.2765   -1.3449
   -1.1372   -1.1211   -0.1685   -0.0516    0.1923    0.5320    1.4339    2.2457    2.3819    4.8644
    7.4489    7.7792    8.3203    9.0581   13.2098   14.9335   17.2044   17.6626   19.2034   21.0216
   22.1971   22.2302   23.8119   24.3174   24.8806   26.6846   27.1259   30.2749   30.3575   31.0057
   31.1899   33.1167   43.2335   44.2450   45.5836   46.6306   47.5233   48.8807   49.2355   49.4236
   54.9383   59.5524   60.7397   61.3304   64.1673   74.0786   92.5379   92.7822   99.9264  101.8136
  102.1337  118.4326  127.3957
   4  1  -23.8417  -18.0998  -17.7742  -16.8848  -16.7584  -15.3854  -15.2977  -13.6111  -13.4235  -10.8513
         -10.5282  -10.4469   -9.5142   -6.9427   -5.8212   -5.0292   -4.8872   -3.2071   -2.2764   -1.3449
   -1.1372   -1.1211   -0.1685   -0.0516    0.1921    0.5319    1.4339    2.2457    2.3822    4.8643
    7.4489    7.7792    8.3203    9.0579   13.2098   14.9338   17.2045   17.6627   19.2035   21.0218
   22.1971   22.2301   23.8119   24.3173   24.8806   26.6847   27.1258   30.2750   30.3574   31.0059
   31.1890   33.1167   43.2336   44.2445   45.5837   46.6305   47.5231   48.8808   49.2357   49.4236
   54.9381   59.5527   60.7398   61.3304   64.1672   74.0786   92.5377   92.7821   99.9265  101.8137
  102.1336  118.4325  127.3958
   5  1  -24.2062  -19.0875  -18.3924  -16.0639  -14.8744  -14.8742  -14.4356  -14.1209  -13.2906  -12.1858
          -8.7785   -8.7785   -8.6373   -8.6373   -8.1576   -8.1576   -7.5819   -4.7965   -2.1495   -2.1495
   -2.1408   -2.1407   -1.0690   -1.0690   -0.5358   -0.5358    3.2881    3.2886    5.8818   12.2493
   13.9998   13.9999   16.3655   16.3655   17.0228   21.3514   21.3515   22.2484   22.3155   24.0429
   24.1589   24.1590   24.2360   24.2360   24.3657   24.9208   24.9209   31.7067   31.7067   36.8152
   36.8154   38.7262   38.7275   44.4280   44.4282   45.3693   45.4730   45.6534   45.7379   49.1104
   49.1959   50.8112   50.8123   59.4787   59.4787   59.4969   59.4970   60.3489   60.3489   62.0066
   62.0068   91.5506   91.6786
   6  1  -23.8492  -18.4240  -17.6762  -16.8748  -16.4642  -15.3192  -15.0798  -14.0370  -13.0051  -11.7334
         -10.9544  -10.8226   -7.7244   -7.5647   -6.6849   -5.0019   -3.9390   -3.4140   -2.8568   -2.7953
   -2.7454   -1.6151   -1.3813   -1.3008   -0.2994    0.3474    1.0105    3.0939    3.4200    3.8821
   12.1248   12.9808   13.5238   15.4168   17.1463   17.5619   17.6473   18.7949   19.0007   20.0437
   20.7778   21.1418   22.2995   24.0949   24.3649   24.4343   24.7137   25.6798   26.3497   27.3217
   34.5891   37.1609   41.4824   44.4382   49.3883   50.0740   50.2246   50.4352   53.2449   53.4393
   54.5556   57.3680   57.4761   63.7263   65.9695   66.7924   67.4011   68.0126   70.7102   75.7871
   77.0879   97.5358   98.8116
   7  1  -23.8492  -18.4240  -17.6762  -16.8748  -16.4642  -15.3192  -15.0798  -14.0370  -13.0051  -11.7334
         -10.9544  -10.8226   -7.7244   -7.5647   -6.6849   -5.0019   -3.9390   -3.4140   -2.8568   -2.7953
   -2.7454   -1.6151   -1.3813   -1.3008   -0.2994    0.3474    1.0105    3.0939    3.4200    3.8821
   12.1248   12.9808   13.5238   15.4168   17.1463   17.5619   17.6473   18.7949   19.0006   20.0437
   20.7778   21.1418   22.2995   24.0949   24.3649   24.4343   24.7137   25.6798   26.3497   27.3217
   34.5891   37.1609   41.4826   44.4382   49.3883   50.0740   50.2246   50.4352   53.2449   53.4393
   54.5556   57.3680   57.4761   63.7263   65.9695   66.7924   67.4011   68.0126   70.7102   75.7871
   77.0879   97.5358   98.8117
   8  1  -23.8492  -18.4240  -17.6762  -16.8748  -16.4642  -15.3194  -15.0798  -14.0370  -13.0051  -11.7334
         -10.9544  -10.8226   -7.7243   -7.5647   -6.6849   -5.0020   -3.9390   -3.4140   -2.8568   -2.7953
   -2.7454   -1.6152   -1.3813   -1.3008   -0.2994    0.3474    1.0105    3.0939    3.4197    3.8824
   12.1247   12.9808   13.5238   15.4167   17.1464   17.5618   17.6475   18.7949   19.0007   20.0438
   20.7783   21.1417   22.2994   24.0950   24.3648   24.4342   24.7137   25.6798   26.3496   27.3218
   34.5891   37.1603   41.4820   44.4381   49.3883   50.0740   50.2246   50.4352   53.2450   53.4394
   54.5557   57.3680   57.4762   63.7265   65.9694   66.7923   67.4011   68.0126   70.7102   75.7865
   77.0878   97.5358   98.8116
siesta: Fermi energy =     -13.551613 eV

siesta: Program's energy decomposition (eV):
siesta: Ebs     =      -274.376818
siesta: Eions   =       380.620085
siesta: Ena     =       100.736881
siesta: Ekin    =       198.263691
siesta: Enl     =         8.854035
siesta: Eso     =         0.000000
siesta: Edftu   =         0.000000
siesta: DEna    =         9.598181
siesta: DUscf   =         2.809390
siesta: DUext   =         0.000000
siesta: Exc     =      -163.421336
siesta: eta*DQ  =         0.000000
siesta: Emadel  =         0.000000
siesta: Emeta   =         0.000000
siesta: Emolmec =        -6.130385
siesta: Ekinion =         0.000000
siesta: Eharris =      -229.909628
siesta: Etot    =      -229.909628
siesta: FreeEng =      -229.923288

siesta: Final energy (eV):
siesta:  Band Struct. =    -274.376818
siesta:       Kinetic =     198.263691
siesta:       Hartree =      74.232853
siesta:       Edftu   =       0.000000
siesta:       Eso     =       0.000000
siesta:    Ext. field =       0.000000
siesta:   Exch.-corr. =    -163.421336
siesta:  Ion-electron =    -448.165800
siesta:       Ion-ion =     115.311350
siesta:       Ekinion =       0.000000
siesta:         Total =    -229.909628
siesta:         Fermi =     -13.551613

siesta: Atomic forces (eV/Ang):
siesta:      1   -0.000000    0.000000   -0.000000
siesta:      2    0.303622   -0.000018   -0.227171
siesta:      3   -0.303622    0.000018    0.227171
siesta:      4   -0.151827    0.262936   -0.227171
siesta:      5    0.151827   -0.262936    0.227171
siesta:      6   -0.151824   -0.262967   -0.227208
siesta:      7    0.151824    0.262967    0.227208
siesta:      8   -0.303622    0.000018   -0.227171
siesta:      9    0.303622   -0.000018    0.227171
siesta:     10    0.151827   -0.262936   -0.227171
siesta:     11   -0.151827    0.262936    0.227171
siesta:     12    0.151824    0.262967   -0.227208
siesta:     13   -0.151824   -0.262967    0.227208
siesta: ----------------------------------------
siesta:    Tot   -0.000000    0.000000    0.000000

siesta: Stress tensor (static) (eV/Ang**3):
siesta:    -0.782064   -0.000006    0.000000
siesta:    -0.000006   -0.782071    0.000000
siesta:     0.000000    0.000000    0.435550

siesta: Cell volume =         95.305176 Ang**3

siesta: Pressure (static):
siesta:                Solid            Molecule  Units
siesta:           0.00409725          0.00403938  Ry/Bohr**3
siesta:           0.37619522          0.37088242  eV/Ang**3
siesta:         602.73770218        594.22556657  kBar
(Free)E+ p_basis*V_orbitals  =        -191.987216
(Free)Eharris+ p_basis*V_orbitals  =        -191.987216

cite: Please see "LiC12_scf.bib" for an exhaustive BiBTeX file.
cite: Please clearly indicate Siesta version in published work: 4.1.5
cite: This calculation has made use of the following articles
cite: which are encouraged to be cited in a published work.
        Primary SIESTA paper
          DOI: www.doi.org/10.1088/0953-8984/14/11/302

>> End of run:   9-NOV-2022   1:02:03
Job completed
