Siesta Version  : 4.1.5
Architecture    : x86_64-unknown-linux-gnu--unknown
Compiler version: GNU Fortran (GCC) 11.3.0
Compiler flags  : mpif90 -g -O2 -fallow-argument-mismatch
PP flags        : -DMPI -DFC_HAVE_FLUSH -DFC_HAVE_ABORT
Libraries       :  -I/global/software/sl-7.x86_64/modules/intel/2020.4.304/mkl/include  /globall/software/sl-7.x86_64/modules/intel/2020.4.304/mkl/lib/intel64/libmkl_scalapack_lp64.a -Wl,--start-group /global/software/sl-7.x86_64/modules/intel/2020.4.304/mkl/lib/intel64/libmkl_intel_lp64.a /global/software/sl-7.x86_64/modules/intel/2020.4.304/mkl/lib/intel64/libmkl_sequential.a /global/software/sl-7.x86_64/modules/intel/2020.4.304/mkl/lib/intel64/libmkl_core.a /global/software/sl-7.x86_64/modules/intel/2020.4.304/mkl/lib/intel64/libmkl_blacs_openmpi_lp64.a -Wl,--end-group -lpthread -lm -ldl
PARALLEL version

* Running on 12 nodes in parallel
>> Start of run:   9-NOV-2022   2:56:28

                           ***********************       
                           *  WELCOME TO SIESTA  *       
                           ***********************       

reinit: Reading from standard input
reinit: Dumped input in INPUT_TMP.55254
************************** Dump of input data file ****************************
SystemName LiC12_scf
SystemLabel LiC12_scf
NumberOfAtoms   13
NumberOfSpecies 2
%block ChemicalSpeciesLabel
1  3   Li-gga
2  6   C-gga
%endblock ChemicalSpeciesLabel
PAO.BasisSize  DZP
PAO.EnergyShift  10 meV
%block PS.Lmax
C-gga   2
Li-gga  2
%endblock PS.Lmax
LatticeConstant 1.000000 Ang
%block LatticeVectors
	4.2686000000	0.0000000000	0.0000000000
	-2.1343000000	3.6967160386	0.0000000000
	0.0000000000	0.0000000000	9.2702280000
%endblock LatticeVectors
AtomicCoordinatesFormat Ang
%block AtomicCoordinatesAndAtomicSpecies
	0.00000000	0.00000000	0.00000000	2
	1.42144380	0.00000000	2.31755700	1
	2.84715620	0.00000000	6.95267100	1
	-0.71072190	1.23100644	2.31755700	1
	-1.42357810	2.46570960	6.95267100	1
	1.42357810	2.46570960	2.31755700	1
	0.71072190	1.23100644	6.95267100	1
	2.84715620	0.00000000	2.31755700	1
	1.42144380	0.00000000	6.95267100	1
	-1.42357810	2.46570960	2.31755700	1
	-0.71072190	1.23100644	6.95267100	1
	0.71072190	1.23100644	2.31755700	1
	1.42357810	2.46570960	6.95267100	1
%endblock AtomicCoordinatesAndAtomicSpecies
Kgrid_NoTRS  T
%block kgrid_MonkhorstPack
2       0       0       0.0
0       2       0       0.0
0       0       2       0.0
%endblock kgrid_MonkhorstPack
AtomCoorFormatOut Ang
BlockSize 1
#ProcessorY 12
Diag.ParallelOverK   T
Diag.DivideAndConquer F
MeshCutoff   300 Ry
SCF.FreeE.Tolerance 1E-3 eV
SCF.EDM.Tolerance   5E-3 eV
DM.Tolerance  1E-3
DM.Require.Energy.Convergence T
DM.NumberPulay 4
XC.Functional GGA
XC.Authors    PBE
UseSaveData        F
MD.TypeOfRun       CG
MD.VariableCell    F
MD.NumCGsteps      00
MD.MaxCGDispl      0.200000 Bohr
MD.MaxStressTol    1.000000 GPa
MD.MaxForceTol     0.010000 eV/Ang
WriteMDHistory T
WriteCoorStep T
WriteForces T
WriteCoorStep    T
WriteEigenValues T
WriteDM    F
MM.UnitsDistance Ang  # what this program prints out DO NOT CHANGE
MM.UnitsEnergy    eV  # what this program prints out DO NOT CHANGE
MM.Grimme.S6     0.75 # Grimme-paper for PBE (correct for your functional)
MM.Grimme.D     20.   # Grimme-paper (correct for your functional)
%block MM.Potentials
  1   1 Grimme     16.69      1.650 # Li, 10.1002/jcc.20495
  1   2 Grimme     17.40      2.277 # Li / C
  2   2 Grimme     18.14      2.904 # C, 10.1002/jcc.20495
%endblock MM.Potentials
#%block ProjectedDensityOfStates
# -200.0  120.0  0.4  12800  eV
#%endblock ProjectedDensityOfStates
************************** End of input data file *****************************

reinit: -----------------------------------------------------------------------
reinit: System Name: LiC12_scf
reinit: -----------------------------------------------------------------------
reinit: System Label: LiC12_scf
reinit: -----------------------------------------------------------------------
Reading two-body potentials
Grimme - two-body potential between 1 and 1
Grimme - two-body potential between 1 and 2
Grimme - two-body potential between 2 and 2

initatom: Reading input for the pseudopotentials and atomic orbitals ----------
Species number:   1 Atomic number:    3 Label: Li-gga
Species number:   2 Atomic number:    6 Label: C-gga

Ground state valence configuration:   2s01
Reading pseudopotential information in formatted form from Li-gga.psf

Valence configuration for pseudopotential generation:
2s( 1.00) rc: 2.28
2p( 0.00) rc: 2.28
3d( 0.00) rc: 2.59
4f( 0.00) rc: 2.59
Ground state valence configuration:   2s02  2p02
Reading pseudopotential information in formatted form from C-gga.psf

Valence configuration for pseudopotential generation:
2s( 2.00) rc: 1.56
2p( 2.00) rc: 1.56
3d( 0.00) rc: 1.56
4f( 0.00) rc: 1.56
relmxkb: Read Max KB Ang. Momentum=    2 for species C-gga
relmxkb: Read Max KB Ang. Momentum=    2 for species Li-gga

<basis_specs>
===============================================================================
Li-gga               Z=   3    Mass=  6.9400        Charge= 0.17977+309
Lmxo=0 Lmxkb= 2    BasisType=split      Semic=F
L=0  Nsemic=0  Cnfigmx=2
          i=1  nzeta=2  polorb=1  (2s)
            splnorm:   0.15000    
               vcte:    0.0000    
               rinn:    0.0000    
               qcoe:    0.0000    
               qyuk:    0.0000    
               qwid:   0.10000E-01
                rcs:    0.0000      0.0000    
            lambdas:    1.0000      1.0000    
-------------------------------------------------------------------------------
L=0  Nkbl=1  erefs: 0.17977+309
L=1  Nkbl=1  erefs: 0.17977+309
L=2  Nkbl=1  erefs: 0.17977+309
===============================================================================
</basis_specs>

atom: Called for Li-gga                (Z =   3)

read_vps: Pseudopotential generation method:
read_vps: ATM 3.2.2 Troullier-Martins                       
Valence charge for ps generation:    1.00000

read_vps: Pseudopotential includes a core correction:
read_vps: Pseudo-core for xc-correction

xc_check: Exchange-correlation functional:
xc_check: GGA Perdew, Burke & Ernzerhof 1996
V l=0 = -2*Zval/r beyond r=  2.2278
V l=1 = -2*Zval/r beyond r=  2.2278
V l=2 = -2*Zval/r beyond r=  2.5245
All V_l potentials equal beyond r=  2.4622
This should be close to max(r_c) in ps generation
All pots = -2*Zval/r beyond r=  2.5245

VLOCAL1: 99.0% of the norm of Vloc inside      7.160 Ry
VLOCAL1: 99.9% of the norm of Vloc inside     16.318 Ry
atom: Maximum radius for 4*pi*r*r*local-pseudopot. charge    2.86079
atom: Maximum radius for r*vlocal+2*Zval:    2.43160
GHOST: No ghost state for L =  0
GHOST: No ghost state for L =  1
GHOST: No ghost state for L =  2

KBgen: Kleinman-Bylander projectors: 
   l= 0   rc=  2.654023   el= -0.211234   Ekb=  1.742119   kbcos=  0.228463
   l= 1   rc=  2.721230   el= -0.080095   Ekb= -1.122375   kbcos= -0.147941
   l= 2   rc=  2.825246   el=  0.002001   Ekb= -0.207076   kbcos= -0.031965

KBgen: Total number of Kleinman-Bylander projectors:    9
atom: -------------------------------------------------------------------------

atom: SANKEY-TYPE ORBITALS:
atom: Selected multiple-zeta basis: split     

SPLIT: Orbitals with angular momentum L= 0

SPLIT: Basis orbitals for state 2s

SPLIT: PAO cut-off radius determined from an
SPLIT: energy shift=  0.000735 Ry

   izeta = 1
                 lambda =    1.000000
                     rc =   11.897381
                 energy =   -0.210580
                kinetic =    0.143382
    potential(screened) =   -0.353962
       potential(ionic) =   -0.533453

   izeta = 2
                 rmatch =    8.489163
              splitnorm =    0.150000
                 energy =   -0.186081
                kinetic =    0.225882
    potential(screened) =   -0.411964
       potential(ionic) =   -0.593024

POLgen: Perturbative polarization orbital with L=  1

POLgen: Polarization orbital for state 2s

   izeta = 1
                     rc =   11.897381
                 energy =   -0.027011
                kinetic =    0.282985
    potential(screened) =   -0.309997
       potential(ionic) =   -0.490997
atom: Total number of Sankey-type orbitals:  5

atm_pop: Valence configuration (for local Pseudopot. screening):
 2s( 1.00)                                                            
Vna: chval, zval:    1.00000   1.00000

Vna:  Cut-off radius for the neutral-atom potential:  11.897381
comcore: Pseudo-core radius Rcore=  3.450946

atom: _________________________________________________________________________

<basis_specs>
===============================================================================
C-gga                Z=   6    Mass=  12.010        Charge= 0.17977+309
Lmxo=1 Lmxkb= 2    BasisType=split      Semic=F
L=0  Nsemic=0  Cnfigmx=2
          i=1  nzeta=2  polorb=0  (2s)
            splnorm:   0.15000    
               vcte:    0.0000    
               rinn:    0.0000    
               qcoe:    0.0000    
               qyuk:    0.0000    
               qwid:   0.10000E-01
                rcs:    0.0000      0.0000    
            lambdas:    1.0000      1.0000    
L=1  Nsemic=0  Cnfigmx=2
          i=1  nzeta=2  polorb=1  (2p)
            splnorm:   0.15000    
               vcte:    0.0000    
               rinn:    0.0000    
               qcoe:    0.0000    
               qyuk:    0.0000    
               qwid:   0.10000E-01
                rcs:    0.0000      0.0000    
            lambdas:    1.0000      1.0000    
-------------------------------------------------------------------------------
L=0  Nkbl=1  erefs: 0.17977+309
L=1  Nkbl=1  erefs: 0.17977+309
L=2  Nkbl=1  erefs: 0.17977+309
===============================================================================
</basis_specs>

atom: Called for C-gga                 (Z =   6)

read_vps: Pseudopotential generation method:
read_vps: ATM 3.2.2 Troullier-Martins                       
Valence charge for ps generation:    4.00000

xc_check: Exchange-correlation functional:
xc_check: GGA Perdew, Burke & Ernzerhof 1996
V l=0 = -2*Zval/r beyond r=  1.5227
V l=1 = -2*Zval/r beyond r=  1.5227
V l=2 = -2*Zval/r beyond r=  1.5227
All V_l potentials equal beyond r=  1.4851
This should be close to max(r_c) in ps generation
All pots = -2*Zval/r beyond r=  1.5227

VLOCAL1: 99.0% of the norm of Vloc inside     19.682 Ry
VLOCAL1: 99.9% of the norm of Vloc inside     44.856 Ry
atom: Maximum radius for 4*pi*r*r*local-pseudopot. charge    1.79142
atom: Maximum radius for r*vlocal+2*Zval:    1.54183
GHOST: No ghost state for L =  0
GHOST: No ghost state for L =  1
GHOST: No ghost state for L =  2

KBgen: Kleinman-Bylander projectors: 
   l= 0   rc=  1.661951   el= -1.010689   Ekb=  5.289847   kbcos=  0.316429
   l= 1   rc=  1.661951   el= -0.388490   Ekb= -4.102504   kbcos= -0.351025
   l= 2   rc=  1.747182   el=  0.001971   Ekb= -1.006005   kbcos= -0.008530

KBgen: Total number of Kleinman-Bylander projectors:    9
atom: -------------------------------------------------------------------------

atom: SANKEY-TYPE ORBITALS:
atom: Selected multiple-zeta basis: split     

SPLIT: Orbitals with angular momentum L= 0

SPLIT: Basis orbitals for state 2s

SPLIT: PAO cut-off radius determined from an
SPLIT: energy shift=  0.000735 Ry

   izeta = 1
                 lambda =    1.000000
                     rc =    5.948690
                 energy =   -1.010099
                kinetic =    0.827121
    potential(screened) =   -1.837220
       potential(ionic) =   -5.392783

   izeta = 2
                 rmatch =    3.518811
              splitnorm =    0.150000
                 energy =   -0.877891
                kinetic =    1.289227
    potential(screened) =   -2.167118
       potential(ionic) =   -5.982073

SPLIT: Orbitals with angular momentum L= 1

SPLIT: Basis orbitals for state 2p

SPLIT: PAO cut-off radius determined from an
SPLIT: energy shift=  0.000735 Ry

   izeta = 1
                 lambda =    1.000000
                     rc =    7.638387
                 energy =   -0.387843
                kinetic =    2.314739
    potential(screened) =   -2.702582
       potential(ionic) =   -6.092371

   izeta = 2
                 rmatch =    3.840617
              splitnorm =    0.150000
                 energy =   -0.270479
                kinetic =    3.438347
    potential(screened) =   -3.708826
       potential(ionic) =   -7.497707

POLgen: Perturbative polarization orbital with L=  2

POLgen: Polarization orbital for state 2p

   izeta = 1
                     rc =    7.638387
                 energy =    0.921402
                kinetic =    1.955040
    potential(screened) =   -1.033637
       potential(ionic) =   -3.679558
atom: Total number of Sankey-type orbitals: 13

atm_pop: Valence configuration (for local Pseudopot. screening):
 2s( 2.00)                                                            
 2p( 2.00)                                                            
Vna: chval, zval:    4.00000   4.00000

Vna:  Cut-off radius for the neutral-atom potential:   7.638387

atom: _________________________________________________________________________

prinput: Basis input ----------------------------------------------------------

PAO.BasisType split     

%block ChemicalSpeciesLabel
    1    3 Li-gga                  # Species index, atomic number, species label
    2    6 C-gga                   # Species index, atomic number, species label
%endblock ChemicalSpeciesLabel

%block PAO.Basis                 # Define Basis set
Li-gga                1                    # Species label, number of l-shells
 n=2   0   2 P   1                   # n, l, Nzeta, Polarization, NzetaPol
  11.897      8.489   
   1.000      1.000   
C-gga                 2                    # Species label, number of l-shells
 n=2   0   2                         # n, l, Nzeta 
   5.949      3.519   
   1.000      1.000   
 n=2   1   2 P   1                   # n, l, Nzeta, Polarization, NzetaPol
   7.638      3.841   
   1.000      1.000   
%endblock PAO.Basis

prinput: ----------------------------------------------------------------------

coor:   Atomic-coordinates input format  =     Cartesian coordinates
coor:                                          (in Angstroms)

siesta: Atomic coordinates (Bohr) and species
siesta:      0.00000   0.00000   0.00000  2        1
siesta:      2.68614   0.00000   4.37955  1        2
siesta:      5.38035   0.00000  13.13865  1        3
siesta:     -1.34307   2.32627   4.37955  1        4
siesta:     -2.69017   4.65952  13.13865  1        5
siesta:      2.69017   4.65952   4.37955  1        6
siesta:      1.34307   2.32627  13.13865  1        7
siesta:      5.38035   0.00000   4.37955  1        8
siesta:      2.68614   0.00000  13.13865  1        9
siesta:     -2.69017   4.65952   4.37955  1       10
siesta:     -1.34307   2.32627  13.13865  1       11
siesta:      1.34307   2.32627   4.37955  1       12
siesta:      2.69017   4.65952  13.13865  1       13

siesta: System type = bulk      

initatomlists: Number of atoms, orbitals, and projectors:     13    73   117

siesta: ******************** Simulation parameters ****************************
siesta:
siesta: The following are some of the parameters of the simulation.
siesta: A complete list of the parameters used, including default values,
siesta: can be found in file out.fdf
siesta:
redata: Spin configuration                          = none
redata: Number of spin components                   = 1
redata: Time-Reversal Symmetry                      = T
redata: Spin spiral                                 = F
redata: Long output                                 =   F
redata: Number of Atomic Species                    =        2
redata: Charge density info will appear in .RHO file
redata: Write Mulliken Pop.                         = NO
redata: Matel table size (NRTAB)                    =     1024
redata: Mesh Cutoff                                 =   300.0000 Ry
redata: Net charge of the system                    =     0.0000 |e|
redata: Min. number of SCF Iter                     =        0
redata: Max. number of SCF Iter                     =     1000
redata: SCF convergence failure will abort job
redata: SCF mix quantity                            = Hamiltonian
redata: Mix DM or H after convergence               =   F
redata: Recompute H after scf cycle                 =   F
redata: Mix DM in first SCF step                    =   T
redata: Write Pulay info on disk                    =   F
redata: New DM Occupancy tolerance                  = 0.000000000001
redata: No kicks to SCF
redata: DM Mixing Weight for Kicks                  =     0.5000
redata: Require Harris convergence for SCF          =   F
redata: Harris energy tolerance for SCF             =     0.000100 eV
redata: Require DM convergence for SCF              =   T
redata: DM tolerance for SCF                        =     0.001000
redata: Require EDM convergence for SCF             =   F
redata: EDM tolerance for SCF                       =     0.005000 eV
redata: Require H convergence for SCF               =   T
redata: Hamiltonian tolerance for SCF               =     0.001000 eV
redata: Require (free) Energy convergence for SCF   =   T
redata: (free) Energy tolerance for SCF             =     0.001000 eV
redata: Using Saved Data (generic)                  =   F
redata: Use continuation files for DM               =   F
redata: Neglect nonoverlap interactions             =   F
redata: Method of Calculation                       = Diagonalization
redata: Electronic Temperature                      =   299.9869 K
redata: Fix the spin of the system                  =   F
redata: Dynamics option                             = Single-point calculation
mix.SCF: Pulay mixing                            = Pulay
mix.SCF:    Variant                              = stable
mix.SCF:    History steps                        = 4
mix.SCF:    Linear mixing weight                 =     0.250000
mix.SCF:    Mixing weight                        =     0.250000
mix.SCF:    SVD condition                        = 0.1000E-07
redata: ***********************************************************************

%block SCF.Mixers
  Pulay
%endblock SCF.Mixers

%block SCF.Mixer.Pulay
  # Mixing method
  method pulay
  variant stable

  # Mixing options
  weight 0.2500
  weight.linear 0.2500
  history 4
%endblock SCF.Mixer.Pulay

DM_history_depth set to one: no extrapolation allowed by default for geometry relaxation
Size of DM history Fstack: 1
Total number of electrons:    16.000000
Total ionic charge:    16.000000

* ProcessorY, Blocksize:    3   1


* Orbital distribution balance (max,min):     7     6

k-point displ. along   1 input, could be:     0.00    0.50
k-point displ. along   2 input, could be:     0.00    0.50
k-point displ. along   3 input, could be:     0.00    0.50
 Kpoints in:            8 . Kpoints trimmed:            8

siesta: k-grid: Number of k-points =     8
siesta: k-grid: Cutoff (effective) =     4.269 Ang
siesta: k-grid: Supercell and displacements
siesta: k-grid:    2   0   0      0.000
siesta: k-grid:    0   2   0      0.000
siesta: k-grid:    0   0   2      0.000

diag: Algorithm                                     = Expert
diag: Parallel over k                               =   T
diag: Use parallel 2D distribution                  =   T
diag: Parallel block-size                           = 1
diag: Parallel distribution                         =     3 x     4
diag: Used triangular part                          = Lower
diag: Absolute tolerance                            =  0.100E-15
diag: Orthogonalization factor                      =  0.100E-05
diag: Memory factor                                 =  1.0000

superc: Internal auxiliary supercell:     9 x     9 x     3  =     243
superc: Number of atoms, orbitals, and projectors:   3159  17739  28431


ts: **************************************************************
ts: Save H and S matrices                           =    F
ts: Save DM and EDM matrices                        =    F
ts: Only save the overlap matrix S                  =    F
ts: **************************************************************

************************ Begin: TS CHECKS AND WARNINGS ************************
************************ End: TS CHECKS AND WARNINGS **************************


                     ====================================
                        Single-point calculation
                     ====================================

outcoor: Atomic coordinates (Ang):                          
    0.00000000    0.00000000    0.00000000   2       1  C-gga
    1.42144380    0.00000000    2.31755700   1       2  Li-gga
    2.84715620    0.00000000    6.95267100   1       3  Li-gga
   -0.71072190    1.23100644    2.31755700   1       4  Li-gga
   -1.42357810    2.46570960    6.95267100   1       5  Li-gga
    1.42357810    2.46570960    2.31755700   1       6  Li-gga
    0.71072190    1.23100644    6.95267100   1       7  Li-gga
    2.84715620    0.00000000    2.31755700   1       8  Li-gga
    1.42144380    0.00000000    6.95267100   1       9  Li-gga
   -1.42357810    2.46570960    2.31755700   1      10  Li-gga
   -0.71072190    1.23100644    6.95267100   1      11  Li-gga
    0.71072190    1.23100644    2.31755700   1      12  Li-gga
    1.42357810    2.46570960    6.95267100   1      13  Li-gga

superc: Internal auxiliary supercell:     9 x     9 x     3  =     243
superc: Number of atoms, orbitals, and projectors:   3159  17739  28431

outcell: Unit cell vectors (Ang):
        4.268600    0.000000    0.000000
       -2.134300    3.696716    0.000000
        0.000000    0.000000    9.270228

outcell: Cell vector modules (Ang)   :    4.268600    4.268600    9.270228
outcell: Cell angles (23,13,12) (deg):     90.0000     90.0000    120.0000
outcell: Cell volume (Ang**3)        :    146.2824
<dSpData1D:S at geom step 0
  <sparsity:sparsity for geom step 0
    nrows_g=73 nrows=7 sparsity=5.8097 nnzs=30960, refcount: 7>
  <dData1D:(new from dSpData1D) n=30960, refcount: 1>
refcount: 1>
new_DM -- step:     1
Initializing Density Matrix...
DM filled with atomic data:
<dSpData2D:DM initialized from atoms
  <sparsity:sparsity for geom step 0
    nrows_g=73 nrows=7 sparsity=5.8097 nnzs=30960, refcount: 8>
  <dData2D:DM n=30960 m=1, refcount: 1>
refcount: 1>
No. of atoms with KB's overlaping orbs in proc 0. Max # of overlaps:     305     778
New grid distribution:   1
           1       1:   20    1:    7    1:   13
           2       1:   20    1:    7   14:   26
           3       1:   20    1:    7   27:   38
           4       1:   20    1:    7   39:   50
           5       1:   20    8:   14    1:   13
           6       1:   20    8:   14   14:   26
           7       1:   20    8:   14   27:   38
           8       1:   20    8:   14   39:   50
           9       1:   20   15:   20    1:   13
          10       1:   20   15:   20   14:   26
          11       1:   20   15:   20   27:   38
          12       1:   20   15:   20   39:   50

InitMesh: MESH =    40 x    40 x   100 =      160000
InitMesh: (bp) =    20 x    20 x    50 =       20000
InitMesh: Mesh cutoff (required, used) =   300.000   321.604 Ry
ExtMesh (bp) on 0 =   160 x   147 x   149 =     3504480
New grid distribution:   2
           1       1:   10    8:   20   26:   38
           2       1:   20    1:    7   13:   25
           3       1:   10    8:   20    1:   12
           4       1:   20    1:    7   39:   50
           5       1:   20    1:    7   26:   38
           6      11:   20    8:   20   13:   25
           7       1:   20    1:    7    1:   12
           8      11:   20    8:   20   39:   50
           9      11:   20    8:   20    1:   12
          10       1:   10    8:   20   13:   25
          11      11:   20    8:   20   26:   38
          12       1:   10    8:   20   39:   50
New grid distribution:   3
           1      11:   20    8:   20    1:   13
           2       1:   20    1:    7   14:   25
           3       1:   20    1:    7   26:   38
           4      11:   20    8:   20   14:   25
           5       1:   20    1:    7    1:   13
           6       1:   20    1:    7   39:   50
           7      11:   20    8:   20   26:   38
           8       1:   10    8:   20   39:   50
           9       1:   10    8:   20    1:   13
          10       1:   10    8:   20   14:   25
          11       1:   10    8:   20   26:   38
          12      11:   20    8:   20   39:   50
Setting up quadratic distribution...
ExtMesh (bp) on 0 =   150 x   153 x   149 =     3419550
PhiOnMesh: Number of (b)points on node 0 =                 1690
PhiOnMesh: nlist on node 0 =               671344

stepf: Fermi-Dirac step function

siesta: Program's energy decomposition (eV):
siesta: Ebs     =      -228.668112
siesta: Eions   =       380.620085
siesta: Ena     =       122.921981
siesta: Ekin    =       141.651267
siesta: Enl     =        39.570112
siesta: Eso     =         0.000000
siesta: Edftu   =         0.000000
siesta: DEna    =         4.887944
siesta: DUscf   =        21.016796
siesta: DUext   =         0.000000
siesta: Exc     =      -148.020211
siesta: eta*DQ  =         0.000000
siesta: Emadel  =         0.000000
siesta: Emeta   =         0.000000
siesta: Emolmec =        -5.122782
siesta: Ekinion =         0.000000
siesta: Eharris =      -172.340926
siesta: Etot    =      -203.714977
siesta: FreeEng =      -203.721320

        iscf     Eharris(eV)        E_KS(eV)     FreeEng(eV)     dDmax    Ef(eV) dHmax(eV)
   scf:    1     -172.340926     -203.714977     -203.721320 39.412536-10.734043 17.410699
timer: Routine,Calls,Time,% = IterSCF        1       8.325  53.47
   scf:    2      -40.680538     -170.153317     -170.162325 15.069588-11.334546 33.776516
   scf:    3     -225.314938     -215.089513     -215.120843  4.692603-11.023793  3.397618
   scf:    4     -213.695694     -214.977458     -215.000422  2.960876-10.834895  3.973804
   scf:    5     -214.407434     -214.701206     -214.718601  0.313707-10.850623  4.620691
   scf:    6     -194.964600     -210.057751     -210.088319  3.534297-10.663809 11.674858
   scf:    7     -205.609221     -207.920896     -207.947702  1.428366-10.674121 13.919342
   scf:    8     -193.705805     -211.949651     -211.966749  5.721742-10.895724  9.903469
   scf:    9     -213.687360     -212.846019     -212.863266  0.338102-10.780942  8.598776
   scf:   10     -186.204374     -208.821074     -208.846945  3.608407-10.668425 12.857934
   scf:   11     -213.789929     -215.714596     -215.753124  2.540462-10.738129  1.620328
   scf:   12     -215.783747     -215.751142     -215.791374  0.020225-10.736726  1.313359
   scf:   13     -213.143100     -215.079751     -215.136919  0.520823-10.712258  4.117698
   scf:   14     -215.198729     -215.140009     -215.196447  0.046588-10.713089  3.946202
   scf:   15     -215.637151     -215.818585     -215.864922  0.346516-10.731501  0.550206
   scf:   16     -215.830185     -215.825260     -215.872766  0.024691-10.730386  0.350015
   scf:   17     -215.829818     -215.828370     -215.877007  0.027180-10.729326  0.160306
   scf:   18     -215.828544     -215.828731     -215.877926  0.013205-10.728812  0.045348
   scf:   19     -215.828894     -215.828813     -215.877940  0.006968-10.729086  0.036133
   scf:   20     -215.828412     -215.828661     -215.877981  0.003890-10.729080  0.014983
   scf:   21     -215.828845     -215.828760     -215.877989  0.002095-10.729225  0.004391
   scf:   22     -215.828823     -215.828793     -215.877984  0.001013-10.729319  0.011048
   scf:   23     -215.828721     -215.828760     -215.877990  0.001285-10.729423  0.001207
   scf:   24     -215.828760     -215.828760     -215.877990  0.000428-10.729481  0.001741
   scf:   25     -215.828762     -215.828761     -215.877990  0.000374-10.729503  0.000945

SCF Convergence by FreeE+DM+H criterion
|FreeE_i-FreeE_(i-1)| (eV) <     0.00100000
max |DM_out - DM_in|         :     0.0003744772
max |H_out - H_in|      (eV) :     0.0009445262
SCF cycle converged after 25 iterations

Using DM_out to compute the final energy and forces
No. of atoms with KB's overlaping orbs in proc 0. Max # of overlaps:     305     778

MM-Stress (kbar):        8.50        8.50       28.72       -0.00        0.00       -0.00

siesta: E_KS(eV) =             -215.8288

siesta: E_KS - E_eggbox =      -215.8288

siesta: Atomic forces (eV/Ang):
     1   -0.000000   -0.000000   -0.000012
     2   -0.602670   -0.000008   -0.568227
     3    0.602649    0.000008    0.568230
     4    0.301328   -0.521932   -0.568227
     5   -0.301317    0.521913    0.568229
     6    0.301293    0.521855   -0.568295
     7   -0.301282   -0.521836    0.568297
     8    0.602670    0.000008   -0.568227
     9   -0.602649   -0.000008    0.568229
    10   -0.301328    0.521932   -0.568227
    11    0.301317   -0.521913    0.568229
    12   -0.301293   -0.521855   -0.568295
    13    0.301282    0.521836    0.568297
----------------------------------------
   Tot    0.000000   -0.000000   -0.000000
----------------------------------------
   Max    0.602670
   Res    0.459456    sqrt( Sum f_i^2 / 3N )
----------------------------------------
   Max    0.602670    constrained

Stress tensor Voigt[x,y,z,yz,xz,xy] (kbar):     -904.83     -904.85      195.47       -0.00        0.00       -0.01
(Free)E + p*V (eV/cell)     -166.7514
Target enthalpy (eV/cell)     -215.8780

siesta: Eigenvalues (eV):
  ik is       eps
   1  1  -19.5749  -14.2395  -12.9098  -12.0156  -11.2461  -11.0107  -10.7624  -10.6887  -10.3895  -10.3894
          -9.7021   -6.8548   -3.9118   -3.9117   -3.7109   -3.3393   -3.3393   -3.1120   -3.1120   -3.0152
   -3.0151   -1.9524   -1.9523    0.0395    0.0395    0.3895    0.3896    0.5526    0.5526    8.7794
   10.4348   11.7428   11.7430   12.5866   12.5867   16.6850   18.7975   18.7975   19.0788   19.0788
   19.5205   22.1610   22.1611   24.5175   24.5175   24.9269   25.9777   26.6271   26.6276   26.7435
   26.7435   32.0161   32.0161   37.8502   38.9019   38.9020   43.2489   43.2490   45.1215   49.3219
   49.4594   49.6790   49.8955   62.3014   62.6141   62.6142   62.6288   62.6289   81.0331   81.0331
   89.1938   89.1939  299.5237
   2  1  -19.3413  -13.8414  -13.2296  -12.0828  -11.9624  -11.3081  -11.3033  -11.1500  -10.7560  -10.0048
          -8.5799   -8.2736   -7.4285   -5.7182   -5.1199   -4.6830   -3.9800   -3.3706   -2.5186   -1.6897
   -1.3266   -1.0592   -0.7754    0.1629    1.7251    1.7761    2.2889    2.3424    2.6815    2.7294
    2.9972    4.5362    6.7687    8.5446    9.6878   12.2623   12.5438   13.0373   13.8159   14.2252
   15.6897   19.6825   19.8899   20.0052   20.1623   21.1157   21.7999   22.2964   24.1922   24.8420
   25.4683   25.9170   26.0399   26.2142   26.5154   28.8963   32.0651   33.8169   35.6190   52.3779
   53.2097   53.2809   53.6873   54.1304   54.9438   56.7602   57.6024   57.6263   61.9679   65.1612
   71.5818   85.2461   86.0206
   3  1  -19.3413  -13.8414  -13.2296  -12.0828  -11.9624  -11.3081  -11.3033  -11.1500  -10.7560  -10.0048
          -8.5799   -8.2736   -7.4285   -5.7182   -5.1199   -4.6830   -3.9800   -3.3706   -2.5186   -1.6897
   -1.3266   -1.0592   -0.7754    0.1629    1.7251    1.7761    2.2889    2.3424    2.6815    2.7294
    2.9972    4.5362    6.7687    8.5446    9.6878   12.2623   12.5438   13.0373   13.8159   14.2252
   15.6897   19.6825   19.8899   20.0052   20.1623   21.1157   21.7999   22.2964   24.1922   24.8420
   25.4683   25.9170   26.0399   26.2142   26.5154   28.8963   32.0651   33.8169   35.6190   52.3779
   53.2097   53.2808   53.6873   54.1304   54.9438   56.7602   57.6024   57.6263   61.9679   65.1612
   71.5818   85.2461   86.0206
   4  1  -19.3413  -13.8414  -13.2296  -12.0828  -11.9624  -11.3081  -11.3033  -11.1500  -10.7561  -10.0048
          -8.5799   -8.2736   -7.4284   -5.7182   -5.1199   -4.6829   -3.9800   -3.3706   -2.5187   -1.6896
   -1.3266   -1.0591   -0.7755    0.1629    1.7251    1.7760    2.2889    2.3423    2.6815    2.7294
    2.9973    4.5362    6.7686    8.5446    9.6878   12.2623   12.5438   13.0373   13.8158   14.2253
   15.6897   19.6825   19.8901   20.0053   20.1623   21.1157   21.7999   22.2962   24.1922   24.8420
   25.4684   25.9169   26.0399   26.2142   26.5154   28.8961   32.0652   33.8169   35.6190   52.3779
   53.2097   53.2809   53.6873   54.1303   54.9439   56.7604   57.6024   57.6263   61.9679   65.1611
   71.5817   85.2461   86.0206
   5  1  -19.6491  -13.9065  -13.4019  -12.0513  -11.1987  -11.0630  -10.7230  -10.7055  -10.3922  -10.3920
         -10.1390   -6.6351   -3.6849   -3.6848   -3.6461   -3.6461   -3.4102   -3.4102   -2.5335   -2.5335
   -1.7808   -1.4553   -1.4552   -1.4476   -1.1648   -1.1647   -0.9619   -0.9619    1.4070    1.4071
   11.0664   12.3879   14.4873   14.4874   14.7050   14.7053   15.7317   15.7317   18.8798   18.8799
   21.5454   21.5454   22.0743   22.0743   25.6790   25.6881   27.0820   27.2639   27.2643   27.6252
   27.6252   30.5641   30.5642   39.2443   39.2444   41.6865   41.6866   41.9076   42.4823   49.3926
   49.4578   49.6134   49.6190   62.7150   62.7150   63.6393   64.2135   64.2213   64.2213   64.3668
   64.3669   69.4736   69.4736
   6  1  -19.3534  -13.8268  -13.1752  -12.2008  -11.5319  -11.5312  -11.1580  -10.7658  -10.6861  -10.6661
          -9.4372   -7.7355   -6.9390   -6.3476   -5.2595   -4.1815   -4.0510   -2.9239   -2.4428   -2.2528
   -0.9049   -0.0440   -0.0360    0.9432    2.0536    2.3066    2.3957    2.4801    2.7775    3.6561
    3.8428    4.1487    4.2150    7.2678    8.8916    9.6711   11.7279   12.4144   14.0998   14.9763
   15.0539   16.0496   17.0829   18.8282   19.5870   20.5515   20.7165   23.7456   24.2907   25.1127
   25.7393   26.3668   26.5184   26.9508   27.7628   28.4318   30.9400   31.6499   32.2520   36.9804
   39.2868   53.8119   54.0073   54.0487   54.1106   56.0113   56.0855   63.6201   63.8617   66.4682
   69.8276   70.5484   76.5697
   7  1  -19.3534  -13.8268  -13.1752  -12.2008  -11.5319  -11.5312  -11.1580  -10.7658  -10.6861  -10.6661
          -9.4372   -7.7355   -6.9390   -6.3476   -5.2595   -4.1815   -4.0510   -2.9239   -2.4428   -2.2528
   -0.9049   -0.0440   -0.0360    0.9432    2.0536    2.3066    2.3957    2.4801    2.7775    3.6561
    3.8428    4.1487    4.2150    7.2678    8.8916    9.6711   11.7279   12.4144   14.0998   14.9763
   15.0539   16.0496   17.0829   18.8282   19.5870   20.5515   20.7165   23.7456   24.2907   25.1127
   25.7393   26.3668   26.5184   26.9508   27.7628   28.4318   30.9400   31.6499   32.2521   36.9804
   39.2868   53.8119   54.0072   54.0487   54.1106   56.0113   56.0855   63.6201   63.8617   66.4682
   69.8276   70.5484   76.5696
   8  1  -19.3534  -13.8268  -13.1752  -12.2008  -11.5319  -11.5312  -11.1579  -10.7659  -10.6860  -10.6661
          -9.4372   -7.7355   -6.9390   -6.3476   -5.2595   -4.1815   -4.0511   -2.9239   -2.4428   -2.2528
   -0.9049   -0.0440   -0.0360    0.9433    2.0536    2.3065    2.3957    2.4801    2.7775    3.6561
    3.8429    4.1487    4.2151    7.2679    8.8916    9.6710   11.7278   12.4144   14.0998   14.9763
   15.0539   16.0496   17.0829   18.8282   19.5870   20.5515   20.7167   23.7456   24.2907   25.1125
   25.7393   26.3667   26.5183   26.9507   27.7628   28.4316   30.9403   31.6499   32.2520   36.9804
   39.2868   53.8119   54.0072   54.0487   54.1106   56.0115   56.0856   63.6201   63.8617   66.4682
   69.8276   70.5484   76.5696
siesta: Fermi energy =     -10.729503 eV

siesta: Program's energy decomposition (eV):
siesta: Ebs     =      -207.123079
siesta: Eions   =       380.620085
siesta: Ena     =       122.921981
siesta: Ekin    =       167.285887
siesta: Enl     =        28.532070
siesta: Eso     =         0.000000
siesta: Edftu   =         0.000000
siesta: DEna    =        -1.015854
siesta: DUscf   =         3.298391
siesta: DUext   =         0.000000
siesta: Exc     =      -151.108368
siesta: eta*DQ  =         0.000000
siesta: Emadel  =         0.000000
siesta: Emeta   =         0.000000
siesta: Emolmec =        -5.122782
siesta: Ekinion =         0.000000
siesta: Eharris =      -215.828762
siesta: Etot    =      -215.828761
siesta: FreeEng =      -215.877990

siesta: Final energy (eV):
siesta:  Band Struct. =    -207.123079
siesta:       Kinetic =     167.285887
siesta:       Hartree =      77.662001
siesta:       Edftu   =       0.000000
siesta:       Eso     =       0.000000
siesta:    Ext. field =       0.000000
siesta:   Exch.-corr. =    -151.108368
siesta:  Ion-electron =    -373.400681
siesta:       Ion-ion =      68.855183
siesta:       Ekinion =       0.000000
siesta:         Total =    -215.828761
siesta:         Fermi =     -10.729503

siesta: Atomic forces (eV/Ang):
siesta:      1   -0.000000   -0.000000   -0.000012
siesta:      2   -0.602670   -0.000008   -0.568227
siesta:      3    0.602649    0.000008    0.568230
siesta:      4    0.301328   -0.521932   -0.568227
siesta:      5   -0.301317    0.521913    0.568229
siesta:      6    0.301293    0.521855   -0.568295
siesta:      7   -0.301282   -0.521836    0.568297
siesta:      8    0.602670    0.000008   -0.568227
siesta:      9   -0.602649   -0.000008    0.568229
siesta:     10   -0.301328    0.521932   -0.568227
siesta:     11    0.301317   -0.521913    0.568229
siesta:     12   -0.301293   -0.521855   -0.568295
siesta:     13    0.301282    0.521836    0.568297
siesta: ----------------------------------------
siesta:    Tot    0.000000   -0.000000   -0.000000

siesta: Stress tensor (static) (eV/Ang**3):
siesta:    -0.564747   -0.000007   -0.000000
siesta:    -0.000007   -0.564754   -0.000000
siesta:     0.000000   -0.000000    0.122000

siesta: Cell volume =        146.282363 Ang**3

siesta: Pressure (static):
siesta:                Solid            Molecule  Units
siesta:           0.00365766          0.00313751  Ry/Bohr**3
siesta:           0.33583370          0.28807543  eV/Ang**3
siesta:         538.07073079        461.55271842  kBar
(Free)E+ p_basis*V_orbitals  =        -177.941918
(Free)Eharris+ p_basis*V_orbitals  =        -177.941919

cite: Please see "LiC12_scf.bib" for an exhaustive BiBTeX file.
cite: Please clearly indicate Siesta version in published work: 4.1.5
cite: This calculation has made use of the following articles
cite: which are encouraged to be cited in a published work.
        Primary SIESTA paper
          DOI: www.doi.org/10.1088/0953-8984/14/11/302

>> End of run:   9-NOV-2022   2:59:05
Job completed
