Siesta Version  : 4.1.5
Architecture    : x86_64-unknown-linux-gnu--unknown
Compiler version: GNU Fortran (GCC) 11.3.0
Compiler flags  : mpif90 -g -O2 -fallow-argument-mismatch
PP flags        : -DMPI -DFC_HAVE_FLUSH -DFC_HAVE_ABORT
Libraries       :  -I/global/software/sl-7.x86_64/modules/intel/2020.4.304/mkl/include  /globall/software/sl-7.x86_64/modules/intel/2020.4.304/mkl/lib/intel64/libmkl_scalapack_lp64.a -Wl,--start-group /global/software/sl-7.x86_64/modules/intel/2020.4.304/mkl/lib/intel64/libmkl_intel_lp64.a /global/software/sl-7.x86_64/modules/intel/2020.4.304/mkl/lib/intel64/libmkl_sequential.a /global/software/sl-7.x86_64/modules/intel/2020.4.304/mkl/lib/intel64/libmkl_core.a /global/software/sl-7.x86_64/modules/intel/2020.4.304/mkl/lib/intel64/libmkl_blacs_openmpi_lp64.a -Wl,--end-group -lpthread -lm -ldl
PARALLEL version

* Running on 12 nodes in parallel
>> Start of run:   9-NOV-2022   2:24:56

                           ***********************       
                           *  WELCOME TO SIESTA  *       
                           ***********************       

reinit: Reading from standard input
reinit: Dumped input in INPUT_TMP.63822
************************** Dump of input data file ****************************
SystemName LiC12_scf
SystemLabel LiC12_scf
NumberOfAtoms   13
NumberOfSpecies 2
%block ChemicalSpeciesLabel
1  3   Li-gga
2  6   C-gga
%endblock ChemicalSpeciesLabel
PAO.BasisSize  DZP
PAO.EnergyShift  10 meV
%block PS.Lmax
C-gga   2
Li-gga  2
%endblock PS.Lmax
LatticeConstant 1.000000 Ang
%block LatticeVectors
	4.2686000000	0.0000000000	0.0000000000
	-2.1343000000	3.6967160386	0.0000000000
	0.0000000000	0.0000000000	7.5847320000
%endblock LatticeVectors
AtomicCoordinatesFormat Ang
%block AtomicCoordinatesAndAtomicSpecies
	0.00000000	0.00000000	0.00000000	2
	1.42144380	0.00000000	1.89618300	1
	2.84715620	0.00000000	5.68854900	1
	-0.71072190	1.23100644	1.89618300	1
	-1.42357810	2.46570960	5.68854900	1
	1.42357810	2.46570960	1.89618300	1
	0.71072190	1.23100644	5.68854900	1
	2.84715620	0.00000000	1.89618300	1
	1.42144380	0.00000000	5.68854900	1
	-1.42357810	2.46570960	1.89618300	1
	-0.71072190	1.23100644	5.68854900	1
	0.71072190	1.23100644	1.89618300	1
	1.42357810	2.46570960	5.68854900	1
%endblock AtomicCoordinatesAndAtomicSpecies
Kgrid_NoTRS  T
%block kgrid_MonkhorstPack
2       0       0       0.0
0       2       0       0.0
0       0       2       0.0
%endblock kgrid_MonkhorstPack
AtomCoorFormatOut Ang
BlockSize 1
#ProcessorY 12
Diag.ParallelOverK   T
Diag.DivideAndConquer F
MeshCutoff   300 Ry
SCF.FreeE.Tolerance 1E-3 eV
SCF.EDM.Tolerance   5E-3 eV
DM.Tolerance  1E-3
DM.Require.Energy.Convergence T
DM.NumberPulay 4
XC.Functional GGA
XC.Authors    PBE
UseSaveData        F
MD.TypeOfRun       CG
MD.VariableCell    F
MD.NumCGsteps      00
MD.MaxCGDispl      0.200000 Bohr
MD.MaxStressTol    1.000000 GPa
MD.MaxForceTol     0.010000 eV/Ang
WriteMDHistory T
WriteCoorStep T
WriteForces T
WriteCoorStep    T
WriteEigenValues T
WriteDM    F
MM.UnitsDistance Ang  # what this program prints out DO NOT CHANGE
MM.UnitsEnergy    eV  # what this program prints out DO NOT CHANGE
MM.Grimme.S6     0.75 # Grimme-paper for PBE (correct for your functional)
MM.Grimme.D     20.   # Grimme-paper (correct for your functional)
%block MM.Potentials
  1   1 Grimme     16.69      1.650 # Li, 10.1002/jcc.20495
  1   2 Grimme     17.40      2.277 # Li / C
  2   2 Grimme     18.14      2.904 # C, 10.1002/jcc.20495
%endblock MM.Potentials
#%block ProjectedDensityOfStates
# -200.0  120.0  0.4  12800  eV
#%endblock ProjectedDensityOfStates
************************** End of input data file *****************************

reinit: -----------------------------------------------------------------------
reinit: System Name: LiC12_scf
reinit: -----------------------------------------------------------------------
reinit: System Label: LiC12_scf
reinit: -----------------------------------------------------------------------
Reading two-body potentials
Grimme - two-body potential between 1 and 1
Grimme - two-body potential between 1 and 2
Grimme - two-body potential between 2 and 2

initatom: Reading input for the pseudopotentials and atomic orbitals ----------
Species number:   1 Atomic number:    3 Label: Li-gga
Species number:   2 Atomic number:    6 Label: C-gga

Ground state valence configuration:   2s01
Reading pseudopotential information in formatted form from Li-gga.psf

Valence configuration for pseudopotential generation:
2s( 1.00) rc: 2.28
2p( 0.00) rc: 2.28
3d( 0.00) rc: 2.59
4f( 0.00) rc: 2.59
Ground state valence configuration:   2s02  2p02
Reading pseudopotential information in formatted form from C-gga.psf

Valence configuration for pseudopotential generation:
2s( 2.00) rc: 1.56
2p( 2.00) rc: 1.56
3d( 0.00) rc: 1.56
4f( 0.00) rc: 1.56
relmxkb: Read Max KB Ang. Momentum=    2 for species C-gga
relmxkb: Read Max KB Ang. Momentum=    2 for species Li-gga

<basis_specs>
===============================================================================
Li-gga               Z=   3    Mass=  6.9400        Charge= 0.17977+309
Lmxo=0 Lmxkb= 2    BasisType=split      Semic=F
L=0  Nsemic=0  Cnfigmx=2
          i=1  nzeta=2  polorb=1  (2s)
            splnorm:   0.15000    
               vcte:    0.0000    
               rinn:    0.0000    
               qcoe:    0.0000    
               qyuk:    0.0000    
               qwid:   0.10000E-01
                rcs:    0.0000      0.0000    
            lambdas:    1.0000      1.0000    
-------------------------------------------------------------------------------
L=0  Nkbl=1  erefs: 0.17977+309
L=1  Nkbl=1  erefs: 0.17977+309
L=2  Nkbl=1  erefs: 0.17977+309
===============================================================================
</basis_specs>

atom: Called for Li-gga                (Z =   3)

read_vps: Pseudopotential generation method:
read_vps: ATM 3.2.2 Troullier-Martins                       
Valence charge for ps generation:    1.00000

read_vps: Pseudopotential includes a core correction:
read_vps: Pseudo-core for xc-correction

xc_check: Exchange-correlation functional:
xc_check: GGA Perdew, Burke & Ernzerhof 1996
V l=0 = -2*Zval/r beyond r=  2.2278
V l=1 = -2*Zval/r beyond r=  2.2278
V l=2 = -2*Zval/r beyond r=  2.5245
All V_l potentials equal beyond r=  2.4622
This should be close to max(r_c) in ps generation
All pots = -2*Zval/r beyond r=  2.5245

VLOCAL1: 99.0% of the norm of Vloc inside      7.160 Ry
VLOCAL1: 99.9% of the norm of Vloc inside     16.318 Ry
atom: Maximum radius for 4*pi*r*r*local-pseudopot. charge    2.86079
atom: Maximum radius for r*vlocal+2*Zval:    2.43160
GHOST: No ghost state for L =  0
GHOST: No ghost state for L =  1
GHOST: No ghost state for L =  2

KBgen: Kleinman-Bylander projectors: 
   l= 0   rc=  2.654023   el= -0.211234   Ekb=  1.742119   kbcos=  0.228463
   l= 1   rc=  2.721230   el= -0.080095   Ekb= -1.122375   kbcos= -0.147941
   l= 2   rc=  2.825246   el=  0.002001   Ekb= -0.207076   kbcos= -0.031965

KBgen: Total number of Kleinman-Bylander projectors:    9
atom: -------------------------------------------------------------------------

atom: SANKEY-TYPE ORBITALS:
atom: Selected multiple-zeta basis: split     

SPLIT: Orbitals with angular momentum L= 0

SPLIT: Basis orbitals for state 2s

SPLIT: PAO cut-off radius determined from an
SPLIT: energy shift=  0.000735 Ry

   izeta = 1
                 lambda =    1.000000
                     rc =   11.897381
                 energy =   -0.210580
                kinetic =    0.143382
    potential(screened) =   -0.353962
       potential(ionic) =   -0.533453

   izeta = 2
                 rmatch =    8.489163
              splitnorm =    0.150000
                 energy =   -0.186081
                kinetic =    0.225882
    potential(screened) =   -0.411964
       potential(ionic) =   -0.593024

POLgen: Perturbative polarization orbital with L=  1

POLgen: Polarization orbital for state 2s

   izeta = 1
                     rc =   11.897381
                 energy =   -0.027011
                kinetic =    0.282985
    potential(screened) =   -0.309997
       potential(ionic) =   -0.490997
atom: Total number of Sankey-type orbitals:  5

atm_pop: Valence configuration (for local Pseudopot. screening):
 2s( 1.00)                                                            
Vna: chval, zval:    1.00000   1.00000

Vna:  Cut-off radius for the neutral-atom potential:  11.897381
comcore: Pseudo-core radius Rcore=  3.450946

atom: _________________________________________________________________________

<basis_specs>
===============================================================================
C-gga                Z=   6    Mass=  12.010        Charge= 0.17977+309
Lmxo=1 Lmxkb= 2    BasisType=split      Semic=F
L=0  Nsemic=0  Cnfigmx=2
          i=1  nzeta=2  polorb=0  (2s)
            splnorm:   0.15000    
               vcte:    0.0000    
               rinn:    0.0000    
               qcoe:    0.0000    
               qyuk:    0.0000    
               qwid:   0.10000E-01
                rcs:    0.0000      0.0000    
            lambdas:    1.0000      1.0000    
L=1  Nsemic=0  Cnfigmx=2
          i=1  nzeta=2  polorb=1  (2p)
            splnorm:   0.15000    
               vcte:    0.0000    
               rinn:    0.0000    
               qcoe:    0.0000    
               qyuk:    0.0000    
               qwid:   0.10000E-01
                rcs:    0.0000      0.0000    
            lambdas:    1.0000      1.0000    
-------------------------------------------------------------------------------
L=0  Nkbl=1  erefs: 0.17977+309
L=1  Nkbl=1  erefs: 0.17977+309
L=2  Nkbl=1  erefs: 0.17977+309
===============================================================================
</basis_specs>

atom: Called for C-gga                 (Z =   6)

read_vps: Pseudopotential generation method:
read_vps: ATM 3.2.2 Troullier-Martins                       
Valence charge for ps generation:    4.00000

xc_check: Exchange-correlation functional:
xc_check: GGA Perdew, Burke & Ernzerhof 1996
V l=0 = -2*Zval/r beyond r=  1.5227
V l=1 = -2*Zval/r beyond r=  1.5227
V l=2 = -2*Zval/r beyond r=  1.5227
All V_l potentials equal beyond r=  1.4851
This should be close to max(r_c) in ps generation
All pots = -2*Zval/r beyond r=  1.5227

VLOCAL1: 99.0% of the norm of Vloc inside     19.682 Ry
VLOCAL1: 99.9% of the norm of Vloc inside     44.856 Ry
atom: Maximum radius for 4*pi*r*r*local-pseudopot. charge    1.79142
atom: Maximum radius for r*vlocal+2*Zval:    1.54183
GHOST: No ghost state for L =  0
GHOST: No ghost state for L =  1
GHOST: No ghost state for L =  2

KBgen: Kleinman-Bylander projectors: 
   l= 0   rc=  1.661951   el= -1.010689   Ekb=  5.289847   kbcos=  0.316429
   l= 1   rc=  1.661951   el= -0.388490   Ekb= -4.102504   kbcos= -0.351025
   l= 2   rc=  1.747182   el=  0.001971   Ekb= -1.006005   kbcos= -0.008530

KBgen: Total number of Kleinman-Bylander projectors:    9
atom: -------------------------------------------------------------------------

atom: SANKEY-TYPE ORBITALS:
atom: Selected multiple-zeta basis: split     

SPLIT: Orbitals with angular momentum L= 0

SPLIT: Basis orbitals for state 2s

SPLIT: PAO cut-off radius determined from an
SPLIT: energy shift=  0.000735 Ry

   izeta = 1
                 lambda =    1.000000
                     rc =    5.948690
                 energy =   -1.010099
                kinetic =    0.827121
    potential(screened) =   -1.837220
       potential(ionic) =   -5.392783

   izeta = 2
                 rmatch =    3.518811
              splitnorm =    0.150000
                 energy =   -0.877891
                kinetic =    1.289227
    potential(screened) =   -2.167118
       potential(ionic) =   -5.982073

SPLIT: Orbitals with angular momentum L= 1

SPLIT: Basis orbitals for state 2p

SPLIT: PAO cut-off radius determined from an
SPLIT: energy shift=  0.000735 Ry

   izeta = 1
                 lambda =    1.000000
                     rc =    7.638387
                 energy =   -0.387843
                kinetic =    2.314739
    potential(screened) =   -2.702582
       potential(ionic) =   -6.092371

   izeta = 2
                 rmatch =    3.840617
              splitnorm =    0.150000
                 energy =   -0.270479
                kinetic =    3.438347
    potential(screened) =   -3.708826
       potential(ionic) =   -7.497707

POLgen: Perturbative polarization orbital with L=  2

POLgen: Polarization orbital for state 2p

   izeta = 1
                     rc =    7.638387
                 energy =    0.921402
                kinetic =    1.955040
    potential(screened) =   -1.033637
       potential(ionic) =   -3.679558
atom: Total number of Sankey-type orbitals: 13

atm_pop: Valence configuration (for local Pseudopot. screening):
 2s( 2.00)                                                            
 2p( 2.00)                                                            
Vna: chval, zval:    4.00000   4.00000

Vna:  Cut-off radius for the neutral-atom potential:   7.638387

atom: _________________________________________________________________________

prinput: Basis input ----------------------------------------------------------

PAO.BasisType split     

%block ChemicalSpeciesLabel
    1    3 Li-gga                  # Species index, atomic number, species label
    2    6 C-gga                   # Species index, atomic number, species label
%endblock ChemicalSpeciesLabel

%block PAO.Basis                 # Define Basis set
Li-gga                1                    # Species label, number of l-shells
 n=2   0   2 P   1                   # n, l, Nzeta, Polarization, NzetaPol
  11.897      8.489   
   1.000      1.000   
C-gga                 2                    # Species label, number of l-shells
 n=2   0   2                         # n, l, Nzeta 
   5.949      3.519   
   1.000      1.000   
 n=2   1   2 P   1                   # n, l, Nzeta, Polarization, NzetaPol
   7.638      3.841   
   1.000      1.000   
%endblock PAO.Basis

prinput: ----------------------------------------------------------------------

coor:   Atomic-coordinates input format  =     Cartesian coordinates
coor:                                          (in Angstroms)

siesta: Atomic coordinates (Bohr) and species
siesta:      0.00000   0.00000   0.00000  2        1
siesta:      2.68614   0.00000   3.58327  1        2
siesta:      5.38035   0.00000  10.74980  1        3
siesta:     -1.34307   2.32627   3.58327  1        4
siesta:     -2.69017   4.65952  10.74980  1        5
siesta:      2.69017   4.65952   3.58327  1        6
siesta:      1.34307   2.32627  10.74980  1        7
siesta:      5.38035   0.00000   3.58327  1        8
siesta:      2.68614   0.00000  10.74980  1        9
siesta:     -2.69017   4.65952   3.58327  1       10
siesta:     -1.34307   2.32627  10.74980  1       11
siesta:      1.34307   2.32627   3.58327  1       12
siesta:      2.69017   4.65952  10.74980  1       13

siesta: System type = bulk      

initatomlists: Number of atoms, orbitals, and projectors:     13    73   117

siesta: ******************** Simulation parameters ****************************
siesta:
siesta: The following are some of the parameters of the simulation.
siesta: A complete list of the parameters used, including default values,
siesta: can be found in file out.fdf
siesta:
redata: Spin configuration                          = none
redata: Number of spin components                   = 1
redata: Time-Reversal Symmetry                      = T
redata: Spin spiral                                 = F
redata: Long output                                 =   F
redata: Number of Atomic Species                    =        2
redata: Charge density info will appear in .RHO file
redata: Write Mulliken Pop.                         = NO
redata: Matel table size (NRTAB)                    =     1024
redata: Mesh Cutoff                                 =   300.0000 Ry
redata: Net charge of the system                    =     0.0000 |e|
redata: Min. number of SCF Iter                     =        0
redata: Max. number of SCF Iter                     =     1000
redata: SCF convergence failure will abort job
redata: SCF mix quantity                            = Hamiltonian
redata: Mix DM or H after convergence               =   F
redata: Recompute H after scf cycle                 =   F
redata: Mix DM in first SCF step                    =   T
redata: Write Pulay info on disk                    =   F
redata: New DM Occupancy tolerance                  = 0.000000000001
redata: No kicks to SCF
redata: DM Mixing Weight for Kicks                  =     0.5000
redata: Require Harris convergence for SCF          =   F
redata: Harris energy tolerance for SCF             =     0.000100 eV
redata: Require DM convergence for SCF              =   T
redata: DM tolerance for SCF                        =     0.001000
redata: Require EDM convergence for SCF             =   F
redata: EDM tolerance for SCF                       =     0.005000 eV
redata: Require H convergence for SCF               =   T
redata: Hamiltonian tolerance for SCF               =     0.001000 eV
redata: Require (free) Energy convergence for SCF   =   T
redata: (free) Energy tolerance for SCF             =     0.001000 eV
redata: Using Saved Data (generic)                  =   F
redata: Use continuation files for DM               =   F
redata: Neglect nonoverlap interactions             =   F
redata: Method of Calculation                       = Diagonalization
redata: Electronic Temperature                      =   299.9869 K
redata: Fix the spin of the system                  =   F
redata: Dynamics option                             = Single-point calculation
mix.SCF: Pulay mixing                            = Pulay
mix.SCF:    Variant                              = stable
mix.SCF:    History steps                        = 4
mix.SCF:    Linear mixing weight                 =     0.250000
mix.SCF:    Mixing weight                        =     0.250000
mix.SCF:    SVD condition                        = 0.1000E-07
redata: ***********************************************************************

%block SCF.Mixers
  Pulay
%endblock SCF.Mixers

%block SCF.Mixer.Pulay
  # Mixing method
  method pulay
  variant stable

  # Mixing options
  weight 0.2500
  weight.linear 0.2500
  history 4
%endblock SCF.Mixer.Pulay

DM_history_depth set to one: no extrapolation allowed by default for geometry relaxation
Size of DM history Fstack: 1
Total number of electrons:    16.000000
Total ionic charge:    16.000000

* ProcessorY, Blocksize:    3   1


* Orbital distribution balance (max,min):     7     6

k-point displ. along   1 input, could be:     0.00    0.50
k-point displ. along   2 input, could be:     0.00    0.50
k-point displ. along   3 input, could be:     0.00    0.50
 Kpoints in:            8 . Kpoints trimmed:            8

siesta: k-grid: Number of k-points =     8
siesta: k-grid: Cutoff (effective) =     4.269 Ang
siesta: k-grid: Supercell and displacements
siesta: k-grid:    2   0   0      0.000
siesta: k-grid:    0   2   0      0.000
siesta: k-grid:    0   0   2      0.000

diag: Algorithm                                     = Expert
diag: Parallel over k                               =   T
diag: Use parallel 2D distribution                  =   T
diag: Parallel block-size                           = 1
diag: Parallel distribution                         =     3 x     4
diag: Used triangular part                          = Lower
diag: Absolute tolerance                            =  0.100E-15
diag: Orthogonalization factor                      =  0.100E-05
diag: Memory factor                                 =  1.0000

superc: Internal auxiliary supercell:     9 x     9 x     5  =     405
superc: Number of atoms, orbitals, and projectors:   5265  29565  47385


ts: **************************************************************
ts: Save H and S matrices                           =    F
ts: Save DM and EDM matrices                        =    F
ts: Only save the overlap matrix S                  =    F
ts: **************************************************************

************************ Begin: TS CHECKS AND WARNINGS ************************
************************ End: TS CHECKS AND WARNINGS **************************


                     ====================================
                        Single-point calculation
                     ====================================

outcoor: Atomic coordinates (Ang):                          
    0.00000000    0.00000000    0.00000000   2       1  C-gga
    1.42144380    0.00000000    1.89618300   1       2  Li-gga
    2.84715620    0.00000000    5.68854900   1       3  Li-gga
   -0.71072190    1.23100644    1.89618300   1       4  Li-gga
   -1.42357810    2.46570960    5.68854900   1       5  Li-gga
    1.42357810    2.46570960    1.89618300   1       6  Li-gga
    0.71072190    1.23100644    5.68854900   1       7  Li-gga
    2.84715620    0.00000000    1.89618300   1       8  Li-gga
    1.42144380    0.00000000    5.68854900   1       9  Li-gga
   -1.42357810    2.46570960    1.89618300   1      10  Li-gga
   -0.71072190    1.23100644    5.68854900   1      11  Li-gga
    0.71072190    1.23100644    1.89618300   1      12  Li-gga
    1.42357810    2.46570960    5.68854900   1      13  Li-gga

superc: Internal auxiliary supercell:     9 x     9 x     5  =     405
superc: Number of atoms, orbitals, and projectors:   5265  29565  47385

outcell: Unit cell vectors (Ang):
        4.268600    0.000000    0.000000
       -2.134300    3.696716    0.000000
        0.000000    0.000000    7.584732

outcell: Cell vector modules (Ang)   :    4.268600    4.268600    7.584732
outcell: Cell angles (23,13,12) (deg):     90.0000     90.0000    120.0000
outcell: Cell volume (Ang**3)        :    119.6856
<dSpData1D:S at geom step 0
  <sparsity:sparsity for geom step 0
    nrows_g=73 nrows=7 sparsity=7.5307 nnzs=40131, refcount: 7>
  <dData1D:(new from dSpData1D) n=40131, refcount: 1>
refcount: 1>
new_DM -- step:     1
Initializing Density Matrix...
DM filled with atomic data:
<dSpData2D:DM initialized from atoms
  <sparsity:sparsity for geom step 0
    nrows_g=73 nrows=7 sparsity=7.5307 nnzs=40131, refcount: 8>
  <dData2D:DM n=40131 m=1, refcount: 1>
refcount: 1>
No. of atoms with KB's overlaping orbs in proc 0. Max # of overlaps:     355     937
New grid distribution:   1
           1       1:   20    1:    7    1:   10
           2       1:   20    1:    7   11:   20
           3       1:   20    1:    7   21:   30
           4       1:   20    1:    7   31:   40
           5       1:   20    8:   14    1:   10
           6       1:   20    8:   14   11:   20
           7       1:   20    8:   14   21:   30
           8       1:   20    8:   14   31:   40
           9       1:   20   15:   20    1:   10
          10       1:   20   15:   20   11:   20
          11       1:   20   15:   20   21:   30
          12       1:   20   15:   20   31:   40

InitMesh: MESH =    40 x    40 x    80 =      128000
InitMesh: (bp) =    20 x    20 x    40 =       16000
InitMesh: Mesh cutoff (required, used) =   300.000   307.469 Ry
ExtMesh (bp) on 0 =   160 x   147 x   146 =     3433920
New grid distribution:   2
           1       1:   20    1:    7    1:   10
           2       1:   10    8:   20   11:   20
           3       1:   20    1:    7   21:   30
           4      11:   20    8:   20    1:   10
           5       1:   20    1:    7   11:   20
           6       1:   10    8:   20    1:   10
           7      11:   20    8:   20   21:   30
           8      11:   20    8:   20   31:   40
           9       1:   20    1:    7   31:   40
          10      11:   20    8:   20   11:   20
          11       1:   10    8:   20   21:   30
          12       1:   10    8:   20   31:   40
New grid distribution:   3
           1       1:   20    1:    7    1:   10
           2       1:   10    8:   20   11:   20
           3       1:   20    1:    7   21:   30
           4      11:   20    8:   20    1:   10
           5       1:   20    1:    7   11:   20
           6       1:   10    8:   20    1:   10
           7      11:   20    8:   20   21:   30
           8      11:   20    8:   20   31:   40
           9       1:   20    1:    7   31:   40
          10      11:   20    8:   20   11:   20
          11       1:   10    8:   20   21:   30
          12       1:   10    8:   20   31:   40
Setting up quadratic distribution...
ExtMesh (bp) on 0 =   160 x   147 x   146 =     3433920
PhiOnMesh: Number of (b)points on node 0 =                 1400
PhiOnMesh: nlist on node 0 =               705510

stepf: Fermi-Dirac step function

siesta: Program's energy decomposition (eV):
siesta: Ebs     =      -189.360715
siesta: Eions   =       380.620085
siesta: Ena     =       114.558133
siesta: Ekin    =       194.431613
siesta: Enl     =        14.961133
siesta: Eso     =         0.000000
siesta: Edftu   =         0.000000
siesta: DEna    =        -1.952247
siesta: DUscf   =         8.200552
siesta: DUext   =         0.000000
siesta: Exc     =      -159.642280
siesta: eta*DQ  =         0.000000
siesta: Emadel  =         0.000000
siesta: Emeta   =         0.000000
siesta: Emolmec =        -5.674153
siesta: Ekinion =         0.000000
siesta: Eharris =      -196.131656
siesta: Etot    =      -215.737334
siesta: FreeEng =      -215.746102

        iscf     Eharris(eV)        E_KS(eV)     FreeEng(eV)     dDmax    Ef(eV) dHmax(eV)
   scf:    1     -196.131656     -215.737334     -215.746102 25.433209-12.154804 10.099265
timer: Routine,Calls,Time,% = IterSCF        1      10.831  53.42
   scf:    2     -132.713355     -197.303342     -197.303503  3.446332-11.784785 21.607926
   scf:    3     -210.745366     -219.718272     -219.751315  3.711097-12.060084  4.110250
   scf:    4     -215.656783     -219.537277     -219.573481  1.688384-12.020633  4.722395
   scf:    5     -220.635138     -220.153461     -220.194742  0.637696-12.006833  3.002553
   scf:    6     -219.878691     -220.488896     -220.535921  0.805907-12.028288  1.557639
   scf:    7     -216.974179     -219.127802     -219.154193  0.714721-12.052696  5.618024
   scf:    8     -219.134887     -219.131506     -219.157887  0.070656-12.049482  5.589675
   scf:    9     -220.814899     -220.579436     -220.626085  0.751954-12.010862  0.439282
   scf:   10     -220.579726     -220.588987     -220.638595  0.415244-12.015347  0.047508
   scf:   11     -220.592020     -220.591397     -220.639574  0.217231-12.014141  0.035167
   scf:   12     -220.588483     -220.590429     -220.639246  0.080558-12.020565  0.104466
   scf:   13     -220.591100     -220.591090     -220.639789  0.020206-12.020167  0.017259
   scf:   14     -220.591152     -220.591129     -220.639789  0.006172-12.020070  0.008080
   scf:   15     -220.591117     -220.591128     -220.639797  0.004565-12.020565  0.004062
   scf:   16     -220.591091     -220.591112     -220.639793  0.002284-12.020492  0.010877
   scf:   17     -220.591126     -220.591126     -220.639796  0.003663-12.020091  0.010003
   scf:   18     -220.591114     -220.591120     -220.639794  0.001471-12.020093  0.011463
   scf:   19     -220.591120     -220.591120     -220.639795  0.001484-12.020344  0.010018
   scf:   20     -220.591120     -220.591120     -220.639795  0.000125-12.020351  0.009718
   scf:   21     -220.591073     -220.591108     -220.639791  0.004226-12.020890  0.014114
   scf:   22     -220.591122     -220.591122     -220.639799  0.003289-12.020430  0.003775
   scf:   23     -220.591124     -220.591123     -220.639799  0.000527-12.020356  0.003264
   scf:   24     -220.591122     -220.591123     -220.639799  0.000491-12.020370  0.000834

SCF Convergence by FreeE+DM+H criterion
|FreeE_i-FreeE_(i-1)| (eV) <     0.00100000
max |DM_out - DM_in|         :     0.0004914373
max |H_out - H_in|      (eV) :     0.0008337675
SCF cycle converged after 24 iterations

Using DM_out to compute the final energy and forces
No. of atoms with KB's overlaping orbs in proc 0. Max # of overlaps:     355     937

MM-Stress (kbar):       11.42       11.42       27.39        0.00       -0.00       -0.00

siesta: E_KS(eV) =             -220.5911

siesta: E_KS - E_eggbox =      -220.5911

siesta: Atomic forces (eV/Ang):
     1    0.000000    0.000000    0.000048
     2   -0.573974   -0.000016   -0.668932
     3    0.573966    0.000016    0.668924
     4    0.286973   -0.497084   -0.668932
     5   -0.286969    0.497077    0.668924
     6    0.286905    0.496935   -0.669022
     7   -0.286901   -0.496928    0.669014
     8    0.573974    0.000016   -0.668932
     9   -0.573966   -0.000016    0.668924
    10   -0.286973    0.497084   -0.668932
    11    0.286969   -0.497077    0.668924
    12   -0.286905   -0.496935   -0.669022
    13    0.286901    0.496928    0.669014
----------------------------------------
   Tot    0.000000    0.000000   -0.000000
----------------------------------------
   Max    0.669022
   Res    0.488918    sqrt( Sum f_i^2 / 3N )
----------------------------------------
   Max    0.669022    constrained

Stress tensor Voigt[x,y,z,yz,xz,xy] (kbar):    -1091.39    -1091.41      478.73        0.00       -0.00       -0.02
(Free)E + p*V (eV/cell)     -178.2079
Target enthalpy (eV/cell)     -220.6398

siesta: Eigenvalues (eV):
  ik is       eps
   1  1  -21.3305  -15.9649  -15.2386  -13.0324  -12.8714  -12.1797  -12.0188  -12.0187  -11.9601  -11.8124
          -9.4300   -5.7626   -5.7626   -5.2087   -5.2087   -4.8617   -4.1249   -4.1249   -4.1224   -4.1224
   -3.4923   -3.4923   -1.4821    0.8098    0.8099    1.7905    1.7908    1.8498    1.8499    8.9359
    8.9659   11.7475   11.7476   13.1980   13.1981   16.9488   16.9488   20.0135   20.0137   20.1685
   22.4273   22.4273   23.0453   23.9819   24.8507   24.8508   24.9900   32.2705   32.2713   33.1272
   33.1273   34.1715   34.1716   35.0415   37.7037   37.7038   43.4907   45.6302   45.9117   50.0053
   50.1767   50.1768   50.4612   57.9686   57.9688   63.3774   63.3774   63.5696   63.5696   67.2238
   70.4234   70.4235  104.7856
   2  1  -21.0910  -15.7621  -14.9343  -13.6543  -13.0480  -13.0242  -12.6289  -12.4405  -12.3150  -10.6557
          -8.5765   -8.3190   -8.0625   -7.3393   -5.0945   -4.8098   -3.7507   -2.8152   -2.7581   -1.6569
   -0.6860   -0.5239   -0.3958   -0.0833    0.9686    1.4917    2.0640    2.3189    2.5585    4.0197
    5.8283    7.5535    8.4639    8.7619   10.6113   12.7492   16.6815   17.7342   17.9461   18.8403
   19.8868   20.4513   20.7971   22.5443   23.4293   24.3113   25.1875   25.1969   25.3087   25.6375
   28.9028   31.6216   32.2938   36.1379   37.4646   48.1431   50.1030   50.8555   51.3927   51.5805
   51.6167   56.3670   65.6258   68.1822   68.6612   70.4580   70.9615   76.9141   79.2403   79.8800
   80.2007   81.8208  141.6706
   3  1  -21.0910  -15.7621  -14.9343  -13.6543  -13.0480  -13.0242  -12.6289  -12.4405  -12.3150  -10.6557
          -8.5765   -8.3190   -8.0625   -7.3393   -5.0945   -4.8098   -3.7507   -2.8152   -2.7581   -1.6569
   -0.6860   -0.5239   -0.3958   -0.0833    0.9686    1.4917    2.0640    2.3189    2.5585    4.0197
    5.8283    7.5535    8.4639    8.7619   10.6113   12.7492   16.6815   17.7342   17.9461   18.8403
   19.8868   20.4513   20.7971   22.5443   23.4293   24.3113   25.1875   25.1969   25.3087   25.6375
   28.9028   31.6216   32.2938   36.1380   37.4646   48.1431   50.1030   50.8555   51.3927   51.5805
   51.6167   56.3670   65.6258   68.1822   68.6612   70.4580   70.9615   76.9141   79.2403   79.8800
   80.2007   81.8208  141.6706
   4  1  -21.0910  -15.7621  -14.9343  -13.6543  -13.0480  -13.0242  -12.6289  -12.4405  -12.3150  -10.6556
          -8.5765   -8.3190   -8.0624   -7.3393   -5.0945   -4.8098   -3.7507   -2.8152   -2.7583   -1.6569
   -0.6860   -0.5239   -0.3957   -0.0832    0.9685    1.4918    2.0640    2.3189    2.5585    4.0197
    5.8283    7.5536    8.4638    8.7619   10.6113   12.7491   16.6815   17.7341   17.9461   18.8403
   19.8868   20.4513   20.7975   22.5442   23.4292   24.3113   25.1875   25.1969   25.3087   25.6375
   28.9029   31.6216   32.2932   36.1379   37.4648   48.1430   50.1028   50.8555   51.3929   51.5806
   51.6168   56.3671   65.6259   68.1822   68.6611   70.4579   70.9616   76.9140   79.2402   79.8800
   80.2007   81.8207  141.6705
   5  1  -21.4534  -15.9402  -15.4863  -13.4609  -12.1036  -12.1002  -12.0270  -11.9994  -11.9994  -11.9961
          -9.2753   -5.9669   -5.4759   -5.4758   -5.3383   -5.3382   -5.1839   -5.1839   -2.6343   -2.6343
   -2.0018   -2.0018   -1.1258   -1.1258   -0.9426   -0.9426    3.7278    3.7282    4.0226    5.1429
   12.6536   13.3046   17.8726   17.8728   18.4231   18.4231   20.2678   20.2679   20.9335   20.9335
   21.3759   21.3760   21.6947   21.6947   23.6690   23.7908   29.4358   32.9078   32.9087   33.1043
   33.1043   34.2563   34.4707   34.6326   34.6327   41.3802   41.3804   47.7148   47.8911   48.1329
   48.1831   48.2146   48.2147   86.8415   86.8415   86.9810   86.9811   87.7407   87.7407   89.8070
   89.8071  104.7940  104.8064
   6  1  -21.1112  -15.8213  -14.8726  -13.7107  -13.3023  -12.7308  -12.4447  -12.0131  -11.9613  -11.5578
         -10.2559   -7.3868   -7.3418   -6.6884   -5.9918   -4.2417   -4.2037   -2.1617   -1.8552   -1.8120
   -1.5622   -0.6581   -0.1666    0.4473    0.7059    0.8187    0.8581    2.1184    2.9264    2.9471
    9.4522   10.2731   10.9536   11.2900   11.8259   13.1164   14.9154   15.3256   16.1559   16.4705
   18.0362   18.7107   19.0933   22.5140   24.0626   25.2015   25.3647   25.3997   25.6606   25.7758
   26.1206   32.9884   34.4704   39.6009   41.2403   42.0268   43.0480   43.9563   50.3818   50.6778
   50.7681   50.8385   51.8228   53.5320   54.5327   54.5517   55.0154   55.5359   61.9379   65.2120
   65.7024   84.3015   91.8598
   7  1  -21.1112  -15.8213  -14.8726  -13.7107  -13.3023  -12.7308  -12.4447  -12.0131  -11.9613  -11.5578
         -10.2559   -7.3868   -7.3418   -6.6884   -5.9918   -4.2417   -4.2037   -2.1617   -1.8552   -1.8120
   -1.5622   -0.6581   -0.1666    0.4473    0.7059    0.8187    0.8581    2.1184    2.9264    2.9471
    9.4522   10.2731   10.9536   11.2900   11.8259   13.1164   14.9155   15.3256   16.1559   16.4705
   18.0362   18.7107   19.0933   22.5140   24.0626   25.2015   25.3647   25.3997   25.6606   25.7758
   26.1206   32.9884   34.4704   39.6009   41.2403   42.0269   43.0480   43.9563   50.3818   50.6778
   50.7681   50.8385   51.8228   53.5320   54.5327   54.5517   55.0153   55.5359   61.9379   65.2120
   65.7024   84.3015   91.8597
   8  1  -21.1112  -15.8213  -14.8726  -13.7108  -13.3023  -12.7308  -12.4447  -12.0131  -11.9613  -11.5578
         -10.2559   -7.3867   -7.3418   -6.6883   -5.9918   -4.2417   -4.2037   -2.1618   -1.8551   -1.8120
   -1.5622   -0.6582   -0.1666    0.4473    0.7059    0.8188    0.8581    2.1184    2.9264    2.9469
    9.4523   10.2732   10.9536   11.2900   11.8258   13.1164   14.9154   15.3256   16.1559   16.4705
   18.0363   18.7108   19.0934   22.5144   24.0626   25.2015   25.3647   25.3997   25.6606   25.7759
   26.1205   32.9886   34.4698   39.6008   41.2403   42.0268   43.0480   43.9563   50.3818   50.6778
   50.7681   50.8385   51.8228   53.5319   54.5328   54.5519   55.0152   55.5359   61.9379   65.2118
   65.7023   84.3015   91.8597
siesta: Fermi energy =     -12.020370 eV

siesta: Program's energy decomposition (eV):
siesta: Ebs     =      -231.969012
siesta: Eions   =       380.620085
siesta: Ena     =       114.558133
siesta: Ekin    =       175.075667
siesta: Enl     =        21.674608
siesta: Eso     =         0.000000
siesta: Edftu   =         0.000000
siesta: DEna    =         7.461503
siesta: DUscf   =         1.955661
siesta: DUext   =         0.000000
siesta: Exc     =      -155.022458
siesta: eta*DQ  =         0.000000
siesta: Emadel  =         0.000000
siesta: Emeta   =         0.000000
siesta: Emolmec =        -5.674153
siesta: Ekinion =         0.000000
siesta: Eharris =      -220.591122
siesta: Etot    =      -220.591123
siesta: FreeEng =      -220.639799

siesta: Final energy (eV):
siesta:  Band Struct. =    -231.969012
siesta:       Kinetic =     175.075667
siesta:       Hartree =      71.773801
siesta:       Edftu   =       0.000000
siesta:       Eso     =       0.000000
siesta:    Ext. field =       0.000000
siesta:   Exch.-corr. =    -155.022458
siesta:  Ion-electron =    -388.776901
siesta:       Ion-ion =      82.032921
siesta:       Ekinion =       0.000000
siesta:         Total =    -220.591123
siesta:         Fermi =     -12.020370

siesta: Atomic forces (eV/Ang):
siesta:      1    0.000000    0.000000    0.000048
siesta:      2   -0.573974   -0.000016   -0.668932
siesta:      3    0.573966    0.000016    0.668924
siesta:      4    0.286973   -0.497084   -0.668932
siesta:      5   -0.286969    0.497077    0.668924
siesta:      6    0.286905    0.496935   -0.669022
siesta:      7   -0.286901   -0.496928    0.669014
siesta:      8    0.573974    0.000016   -0.668932
siesta:      9   -0.573966   -0.000016    0.668924
siesta:     10   -0.286973    0.497084   -0.668932
siesta:     11    0.286969   -0.497077    0.668924
siesta:     12   -0.286905   -0.496935   -0.669022
siesta:     13    0.286901    0.496928    0.669014
siesta: ----------------------------------------
siesta:    Tot    0.000000    0.000000   -0.000000

siesta: Stress tensor (static) (eV/Ang**3):
siesta:    -0.681184   -0.000009   -0.000000
siesta:    -0.000009   -0.681195    0.000000
siesta:    -0.000000    0.000000    0.298794

siesta: Cell volume =        119.685570 Ang**3

siesta: Pressure (static):
siesta:                Solid            Molecule  Units
siesta:           0.00386127          0.00325064  Ry/Bohr**3
siesta:           0.35452831          0.29846237  eV/Ang**3
siesta:         568.02312106        478.19461074  kBar
(Free)E+ p_basis*V_orbitals  =        -182.703728
(Free)Eharris+ p_basis*V_orbitals  =        -182.703727

cite: Please see "LiC12_scf.bib" for an exhaustive BiBTeX file.
cite: Please clearly indicate Siesta version in published work: 4.1.5
cite: This calculation has made use of the following articles
cite: which are encouraged to be cited in a published work.
        Primary SIESTA paper
          DOI: www.doi.org/10.1088/0953-8984/14/11/302

>> End of run:   9-NOV-2022   2:28:18
Job completed
