Siesta Version  : 4.1.5
Architecture    : x86_64-unknown-linux-gnu--unknown
Compiler version: GNU Fortran (GCC) 11.3.0
Compiler flags  : mpif90 -g -O2 -fallow-argument-mismatch
PP flags        : -DMPI -DFC_HAVE_FLUSH -DFC_HAVE_ABORT
Libraries       :  -I/global/software/sl-7.x86_64/modules/intel/2020.4.304/mkl/include  /globall/software/sl-7.x86_64/modules/intel/2020.4.304/mkl/lib/intel64/libmkl_scalapack_lp64.a -Wl,--start-group /global/software/sl-7.x86_64/modules/intel/2020.4.304/mkl/lib/intel64/libmkl_intel_lp64.a /global/software/sl-7.x86_64/modules/intel/2020.4.304/mkl/lib/intel64/libmkl_sequential.a /global/software/sl-7.x86_64/modules/intel/2020.4.304/mkl/lib/intel64/libmkl_core.a /global/software/sl-7.x86_64/modules/intel/2020.4.304/mkl/lib/intel64/libmkl_blacs_openmpi_lp64.a -Wl,--end-group -lpthread -lm -ldl
PARALLEL version

* Running on 12 nodes in parallel
>> Start of run:   9-NOV-2022   1:35:49

                           ***********************       
                           *  WELCOME TO SIESTA  *       
                           ***********************       

reinit: Reading from standard input
reinit: Dumped input in INPUT_TMP.16857
************************** Dump of input data file ****************************
SystemName LiC12_scf
SystemLabel LiC12_scf
NumberOfAtoms   13
NumberOfSpecies 2
%block ChemicalSpeciesLabel
1  3   Li-gga
2  6   C-gga
%endblock ChemicalSpeciesLabel
PAO.BasisSize  DZP
PAO.EnergyShift  10 meV
%block PS.Lmax
C-gga   2
Li-gga  2
%endblock PS.Lmax
LatticeConstant 1.000000 Ang
%block LatticeVectors
	4.2686000000	0.0000000000	0.0000000000
	-2.1343000000	3.6967160386	0.0000000000
	0.0000000000	0.0000000000	4.3541980000
%endblock LatticeVectors
AtomicCoordinatesFormat Ang
%block AtomicCoordinatesAndAtomicSpecies
	0.00000000	0.00000000	0.00000000	2
	1.42144380	0.00000000	1.08854950	1
	2.84715620	0.00000000	3.26564850	1
	-0.71072190	1.23100644	1.08854950	1
	-1.42357810	2.46570960	3.26564850	1
	1.42357810	2.46570960	1.08854950	1
	0.71072190	1.23100644	3.26564850	1
	2.84715620	0.00000000	1.08854950	1
	1.42144380	0.00000000	3.26564850	1
	-1.42357810	2.46570960	1.08854950	1
	-0.71072190	1.23100644	3.26564850	1
	0.71072190	1.23100644	1.08854950	1
	1.42357810	2.46570960	3.26564850	1
%endblock AtomicCoordinatesAndAtomicSpecies
Kgrid_NoTRS  T
%block kgrid_MonkhorstPack
2       0       0       0.0
0       2       0       0.0
0       0       2       0.0
%endblock kgrid_MonkhorstPack
AtomCoorFormatOut Ang
BlockSize 1
#ProcessorY 12
Diag.ParallelOverK   T
Diag.DivideAndConquer F
MeshCutoff   300 Ry
SCF.FreeE.Tolerance 1E-3 eV
SCF.EDM.Tolerance   5E-3 eV
DM.Tolerance  1E-3
DM.Require.Energy.Convergence T
DM.NumberPulay 4
XC.Functional GGA
XC.Authors    PBE
UseSaveData        F
MD.TypeOfRun       CG
MD.VariableCell    F
MD.NumCGsteps      00
MD.MaxCGDispl      0.200000 Bohr
MD.MaxStressTol    1.000000 GPa
MD.MaxForceTol     0.010000 eV/Ang
WriteMDHistory T
WriteCoorStep T
WriteForces T
WriteCoorStep    T
WriteEigenValues T
WriteDM    F
MM.UnitsDistance Ang  # what this program prints out DO NOT CHANGE
MM.UnitsEnergy    eV  # what this program prints out DO NOT CHANGE
MM.Grimme.S6     0.75 # Grimme-paper for PBE (correct for your functional)
MM.Grimme.D     20.   # Grimme-paper (correct for your functional)
%block MM.Potentials
  1   1 Grimme     16.69      1.650 # Li, 10.1002/jcc.20495
  1   2 Grimme     17.40      2.277 # Li / C
  2   2 Grimme     18.14      2.904 # C, 10.1002/jcc.20495
%endblock MM.Potentials
#%block ProjectedDensityOfStates
# -200.0  120.0  0.4  12800  eV
#%endblock ProjectedDensityOfStates
************************** End of input data file *****************************

reinit: -----------------------------------------------------------------------
reinit: System Name: LiC12_scf
reinit: -----------------------------------------------------------------------
reinit: System Label: LiC12_scf
reinit: -----------------------------------------------------------------------
Reading two-body potentials
Grimme - two-body potential between 1 and 1
Grimme - two-body potential between 1 and 2
Grimme - two-body potential between 2 and 2

initatom: Reading input for the pseudopotentials and atomic orbitals ----------
Species number:   1 Atomic number:    3 Label: Li-gga
Species number:   2 Atomic number:    6 Label: C-gga

Ground state valence configuration:   2s01
Reading pseudopotential information in formatted form from Li-gga.psf

Valence configuration for pseudopotential generation:
2s( 1.00) rc: 2.28
2p( 0.00) rc: 2.28
3d( 0.00) rc: 2.59
4f( 0.00) rc: 2.59
Ground state valence configuration:   2s02  2p02
Reading pseudopotential information in formatted form from C-gga.psf

Valence configuration for pseudopotential generation:
2s( 2.00) rc: 1.56
2p( 2.00) rc: 1.56
3d( 0.00) rc: 1.56
4f( 0.00) rc: 1.56
relmxkb: Read Max KB Ang. Momentum=    2 for species C-gga
relmxkb: Read Max KB Ang. Momentum=    2 for species Li-gga

<basis_specs>
===============================================================================
Li-gga               Z=   3    Mass=  6.9400        Charge= 0.17977+309
Lmxo=0 Lmxkb= 2    BasisType=split      Semic=F
L=0  Nsemic=0  Cnfigmx=2
          i=1  nzeta=2  polorb=1  (2s)
            splnorm:   0.15000    
               vcte:    0.0000    
               rinn:    0.0000    
               qcoe:    0.0000    
               qyuk:    0.0000    
               qwid:   0.10000E-01
                rcs:    0.0000      0.0000    
            lambdas:    1.0000      1.0000    
-------------------------------------------------------------------------------
L=0  Nkbl=1  erefs: 0.17977+309
L=1  Nkbl=1  erefs: 0.17977+309
L=2  Nkbl=1  erefs: 0.17977+309
===============================================================================
</basis_specs>

atom: Called for Li-gga                (Z =   3)

read_vps: Pseudopotential generation method:
read_vps: ATM 3.2.2 Troullier-Martins                       
Valence charge for ps generation:    1.00000

read_vps: Pseudopotential includes a core correction:
read_vps: Pseudo-core for xc-correction

xc_check: Exchange-correlation functional:
xc_check: GGA Perdew, Burke & Ernzerhof 1996
V l=0 = -2*Zval/r beyond r=  2.2278
V l=1 = -2*Zval/r beyond r=  2.2278
V l=2 = -2*Zval/r beyond r=  2.5245
All V_l potentials equal beyond r=  2.4622
This should be close to max(r_c) in ps generation
All pots = -2*Zval/r beyond r=  2.5245

VLOCAL1: 99.0% of the norm of Vloc inside      7.160 Ry
VLOCAL1: 99.9% of the norm of Vloc inside     16.318 Ry
atom: Maximum radius for 4*pi*r*r*local-pseudopot. charge    2.86079
atom: Maximum radius for r*vlocal+2*Zval:    2.43160
GHOST: No ghost state for L =  0
GHOST: No ghost state for L =  1
GHOST: No ghost state for L =  2

KBgen: Kleinman-Bylander projectors: 
   l= 0   rc=  2.654023   el= -0.211234   Ekb=  1.742119   kbcos=  0.228463
   l= 1   rc=  2.721230   el= -0.080095   Ekb= -1.122375   kbcos= -0.147941
   l= 2   rc=  2.825246   el=  0.002001   Ekb= -0.207076   kbcos= -0.031965

KBgen: Total number of Kleinman-Bylander projectors:    9
atom: -------------------------------------------------------------------------

atom: SANKEY-TYPE ORBITALS:
atom: Selected multiple-zeta basis: split     

SPLIT: Orbitals with angular momentum L= 0

SPLIT: Basis orbitals for state 2s

SPLIT: PAO cut-off radius determined from an
SPLIT: energy shift=  0.000735 Ry

   izeta = 1
                 lambda =    1.000000
                     rc =   11.897381
                 energy =   -0.210580
                kinetic =    0.143382
    potential(screened) =   -0.353962
       potential(ionic) =   -0.533453

   izeta = 2
                 rmatch =    8.489163
              splitnorm =    0.150000
                 energy =   -0.186081
                kinetic =    0.225882
    potential(screened) =   -0.411964
       potential(ionic) =   -0.593024

POLgen: Perturbative polarization orbital with L=  1

POLgen: Polarization orbital for state 2s

   izeta = 1
                     rc =   11.897381
                 energy =   -0.027011
                kinetic =    0.282985
    potential(screened) =   -0.309997
       potential(ionic) =   -0.490997
atom: Total number of Sankey-type orbitals:  5

atm_pop: Valence configuration (for local Pseudopot. screening):
 2s( 1.00)                                                            
Vna: chval, zval:    1.00000   1.00000

Vna:  Cut-off radius for the neutral-atom potential:  11.897381
comcore: Pseudo-core radius Rcore=  3.450946

atom: _________________________________________________________________________

<basis_specs>
===============================================================================
C-gga                Z=   6    Mass=  12.010        Charge= 0.17977+309
Lmxo=1 Lmxkb= 2    BasisType=split      Semic=F
L=0  Nsemic=0  Cnfigmx=2
          i=1  nzeta=2  polorb=0  (2s)
            splnorm:   0.15000    
               vcte:    0.0000    
               rinn:    0.0000    
               qcoe:    0.0000    
               qyuk:    0.0000    
               qwid:   0.10000E-01
                rcs:    0.0000      0.0000    
            lambdas:    1.0000      1.0000    
L=1  Nsemic=0  Cnfigmx=2
          i=1  nzeta=2  polorb=1  (2p)
            splnorm:   0.15000    
               vcte:    0.0000    
               rinn:    0.0000    
               qcoe:    0.0000    
               qyuk:    0.0000    
               qwid:   0.10000E-01
                rcs:    0.0000      0.0000    
            lambdas:    1.0000      1.0000    
-------------------------------------------------------------------------------
L=0  Nkbl=1  erefs: 0.17977+309
L=1  Nkbl=1  erefs: 0.17977+309
L=2  Nkbl=1  erefs: 0.17977+309
===============================================================================
</basis_specs>

atom: Called for C-gga                 (Z =   6)

read_vps: Pseudopotential generation method:
read_vps: ATM 3.2.2 Troullier-Martins                       
Valence charge for ps generation:    4.00000

xc_check: Exchange-correlation functional:
xc_check: GGA Perdew, Burke & Ernzerhof 1996
V l=0 = -2*Zval/r beyond r=  1.5227
V l=1 = -2*Zval/r beyond r=  1.5227
V l=2 = -2*Zval/r beyond r=  1.5227
All V_l potentials equal beyond r=  1.4851
This should be close to max(r_c) in ps generation
All pots = -2*Zval/r beyond r=  1.5227

VLOCAL1: 99.0% of the norm of Vloc inside     19.682 Ry
VLOCAL1: 99.9% of the norm of Vloc inside     44.856 Ry
atom: Maximum radius for 4*pi*r*r*local-pseudopot. charge    1.79142
atom: Maximum radius for r*vlocal+2*Zval:    1.54183
GHOST: No ghost state for L =  0
GHOST: No ghost state for L =  1
GHOST: No ghost state for L =  2

KBgen: Kleinman-Bylander projectors: 
   l= 0   rc=  1.661951   el= -1.010689   Ekb=  5.289847   kbcos=  0.316429
   l= 1   rc=  1.661951   el= -0.388490   Ekb= -4.102504   kbcos= -0.351025
   l= 2   rc=  1.747182   el=  0.001971   Ekb= -1.006005   kbcos= -0.008530

KBgen: Total number of Kleinman-Bylander projectors:    9
atom: -------------------------------------------------------------------------

atom: SANKEY-TYPE ORBITALS:
atom: Selected multiple-zeta basis: split     

SPLIT: Orbitals with angular momentum L= 0

SPLIT: Basis orbitals for state 2s

SPLIT: PAO cut-off radius determined from an
SPLIT: energy shift=  0.000735 Ry

   izeta = 1
                 lambda =    1.000000
                     rc =    5.948690
                 energy =   -1.010099
                kinetic =    0.827121
    potential(screened) =   -1.837220
       potential(ionic) =   -5.392783

   izeta = 2
                 rmatch =    3.518811
              splitnorm =    0.150000
                 energy =   -0.877891
                kinetic =    1.289227
    potential(screened) =   -2.167118
       potential(ionic) =   -5.982073

SPLIT: Orbitals with angular momentum L= 1

SPLIT: Basis orbitals for state 2p

SPLIT: PAO cut-off radius determined from an
SPLIT: energy shift=  0.000735 Ry

   izeta = 1
                 lambda =    1.000000
                     rc =    7.638387
                 energy =   -0.387843
                kinetic =    2.314739
    potential(screened) =   -2.702582
       potential(ionic) =   -6.092371

   izeta = 2
                 rmatch =    3.840617
              splitnorm =    0.150000
                 energy =   -0.270479
                kinetic =    3.438347
    potential(screened) =   -3.708826
       potential(ionic) =   -7.497707

POLgen: Perturbative polarization orbital with L=  2

POLgen: Polarization orbital for state 2p

   izeta = 1
                     rc =    7.638387
                 energy =    0.921402
                kinetic =    1.955040
    potential(screened) =   -1.033637
       potential(ionic) =   -3.679558
atom: Total number of Sankey-type orbitals: 13

atm_pop: Valence configuration (for local Pseudopot. screening):
 2s( 2.00)                                                            
 2p( 2.00)                                                            
Vna: chval, zval:    4.00000   4.00000

Vna:  Cut-off radius for the neutral-atom potential:   7.638387

atom: _________________________________________________________________________

prinput: Basis input ----------------------------------------------------------

PAO.BasisType split     

%block ChemicalSpeciesLabel
    1    3 Li-gga                  # Species index, atomic number, species label
    2    6 C-gga                   # Species index, atomic number, species label
%endblock ChemicalSpeciesLabel

%block PAO.Basis                 # Define Basis set
Li-gga                1                    # Species label, number of l-shells
 n=2   0   2 P   1                   # n, l, Nzeta, Polarization, NzetaPol
  11.897      8.489   
   1.000      1.000   
C-gga                 2                    # Species label, number of l-shells
 n=2   0   2                         # n, l, Nzeta 
   5.949      3.519   
   1.000      1.000   
 n=2   1   2 P   1                   # n, l, Nzeta, Polarization, NzetaPol
   7.638      3.841   
   1.000      1.000   
%endblock PAO.Basis

prinput: ----------------------------------------------------------------------

coor:   Atomic-coordinates input format  =     Cartesian coordinates
coor:                                          (in Angstroms)

siesta: Atomic coordinates (Bohr) and species
siesta:      0.00000   0.00000   0.00000  2        1
siesta:      2.68614   0.00000   2.05706  1        2
siesta:      5.38035   0.00000   6.17118  1        3
siesta:     -1.34307   2.32627   2.05706  1        4
siesta:     -2.69017   4.65952   6.17118  1        5
siesta:      2.69017   4.65952   2.05706  1        6
siesta:      1.34307   2.32627   6.17118  1        7
siesta:      5.38035   0.00000   2.05706  1        8
siesta:      2.68614   0.00000   6.17118  1        9
siesta:     -2.69017   4.65952   2.05706  1       10
siesta:     -1.34307   2.32627   6.17118  1       11
siesta:      1.34307   2.32627   2.05706  1       12
siesta:      2.69017   4.65952   6.17118  1       13

siesta: System type = bulk      

initatomlists: Number of atoms, orbitals, and projectors:     13    73   117

siesta: ******************** Simulation parameters ****************************
siesta:
siesta: The following are some of the parameters of the simulation.
siesta: A complete list of the parameters used, including default values,
siesta: can be found in file out.fdf
siesta:
redata: Spin configuration                          = none
redata: Number of spin components                   = 1
redata: Time-Reversal Symmetry                      = T
redata: Spin spiral                                 = F
redata: Long output                                 =   F
redata: Number of Atomic Species                    =        2
redata: Charge density info will appear in .RHO file
redata: Write Mulliken Pop.                         = NO
redata: Matel table size (NRTAB)                    =     1024
redata: Mesh Cutoff                                 =   300.0000 Ry
redata: Net charge of the system                    =     0.0000 |e|
redata: Min. number of SCF Iter                     =        0
redata: Max. number of SCF Iter                     =     1000
redata: SCF convergence failure will abort job
redata: SCF mix quantity                            = Hamiltonian
redata: Mix DM or H after convergence               =   F
redata: Recompute H after scf cycle                 =   F
redata: Mix DM in first SCF step                    =   T
redata: Write Pulay info on disk                    =   F
redata: New DM Occupancy tolerance                  = 0.000000000001
redata: No kicks to SCF
redata: DM Mixing Weight for Kicks                  =     0.5000
redata: Require Harris convergence for SCF          =   F
redata: Harris energy tolerance for SCF             =     0.000100 eV
redata: Require DM convergence for SCF              =   T
redata: DM tolerance for SCF                        =     0.001000
redata: Require EDM convergence for SCF             =   F
redata: EDM tolerance for SCF                       =     0.005000 eV
redata: Require H convergence for SCF               =   T
redata: Hamiltonian tolerance for SCF               =     0.001000 eV
redata: Require (free) Energy convergence for SCF   =   T
redata: (free) Energy tolerance for SCF             =     0.001000 eV
redata: Using Saved Data (generic)                  =   F
redata: Use continuation files for DM               =   F
redata: Neglect nonoverlap interactions             =   F
redata: Method of Calculation                       = Diagonalization
redata: Electronic Temperature                      =   299.9869 K
redata: Fix the spin of the system                  =   F
redata: Dynamics option                             = Single-point calculation
mix.SCF: Pulay mixing                            = Pulay
mix.SCF:    Variant                              = stable
mix.SCF:    History steps                        = 4
mix.SCF:    Linear mixing weight                 =     0.250000
mix.SCF:    Mixing weight                        =     0.250000
mix.SCF:    SVD condition                        = 0.1000E-07
redata: ***********************************************************************

%block SCF.Mixers
  Pulay
%endblock SCF.Mixers

%block SCF.Mixer.Pulay
  # Mixing method
  method pulay
  variant stable

  # Mixing options
  weight 0.2500
  weight.linear 0.2500
  history 4
%endblock SCF.Mixer.Pulay

DM_history_depth set to one: no extrapolation allowed by default for geometry relaxation
Size of DM history Fstack: 1
Total number of electrons:    16.000000
Total ionic charge:    16.000000

* ProcessorY, Blocksize:    3   1


* Orbital distribution balance (max,min):     7     6

k-point displ. along   1 input, could be:     0.00    0.50
k-point displ. along   2 input, could be:     0.00    0.50
k-point displ. along   3 input, could be:     0.00    0.50
 Kpoints in:            8 . Kpoints trimmed:            8

siesta: k-grid: Number of k-points =     8
siesta: k-grid: Cutoff (effective) =     4.269 Ang
siesta: k-grid: Supercell and displacements
siesta: k-grid:    2   0   0      0.000
siesta: k-grid:    0   2   0      0.000
siesta: k-grid:    0   0   2      0.000

diag: Algorithm                                     = Expert
diag: Parallel over k                               =   T
diag: Use parallel 2D distribution                  =   T
diag: Parallel block-size                           = 1
diag: Parallel distribution                         =     3 x     4
diag: Used triangular part                          = Lower
diag: Absolute tolerance                            =  0.100E-15
diag: Orthogonalization factor                      =  0.100E-05
diag: Memory factor                                 =  1.0000

superc: Internal auxiliary supercell:     9 x     9 x     7  =     567
superc: Number of atoms, orbitals, and projectors:   7371  41391  66339


ts: **************************************************************
ts: Save H and S matrices                           =    F
ts: Save DM and EDM matrices                        =    F
ts: Only save the overlap matrix S                  =    F
ts: **************************************************************

************************ Begin: TS CHECKS AND WARNINGS ************************
************************ End: TS CHECKS AND WARNINGS **************************


                     ====================================
                        Single-point calculation
                     ====================================

outcoor: Atomic coordinates (Ang):                          
    0.00000000    0.00000000    0.00000000   2       1  C-gga
    1.42144380    0.00000000    1.08854950   1       2  Li-gga
    2.84715620    0.00000000    3.26564850   1       3  Li-gga
   -0.71072190    1.23100644    1.08854950   1       4  Li-gga
   -1.42357810    2.46570960    3.26564850   1       5  Li-gga
    1.42357810    2.46570960    1.08854950   1       6  Li-gga
    0.71072190    1.23100644    3.26564850   1       7  Li-gga
    2.84715620    0.00000000    1.08854950   1       8  Li-gga
    1.42144380    0.00000000    3.26564850   1       9  Li-gga
   -1.42357810    2.46570960    1.08854950   1      10  Li-gga
   -0.71072190    1.23100644    3.26564850   1      11  Li-gga
    0.71072190    1.23100644    1.08854950   1      12  Li-gga
    1.42357810    2.46570960    3.26564850   1      13  Li-gga

superc: Internal auxiliary supercell:     9 x     9 x     7  =     567
superc: Number of atoms, orbitals, and projectors:   7371  41391  66339

outcell: Unit cell vectors (Ang):
        4.268600    0.000000    0.000000
       -2.134300    3.696716    0.000000
        0.000000    0.000000    4.354198

outcell: Cell vector modules (Ang)   :    4.268600    4.268600    4.354198
outcell: Cell angles (23,13,12) (deg):     90.0000     90.0000    120.0000
outcell: Cell volume (Ang**3)        :     68.7084
<dSpData1D:S at geom step 0
  <sparsity:sparsity for geom step 0
    nrows_g=73 nrows=7 sparsity=13.3524 nnzs=71155, refcount: 7>
  <dData1D:(new from dSpData1D) n=71155, refcount: 1>
refcount: 1>
new_DM -- step:     1
Initializing Density Matrix...
DM filled with atomic data:
<dSpData2D:DM initialized from atoms
  <sparsity:sparsity for geom step 0
    nrows_g=73 nrows=7 sparsity=13.3524 nnzs=71155, refcount: 8>
  <dData2D:DM n=71155 m=1, refcount: 1>
refcount: 1>
No. of atoms with KB's overlaping orbs in proc 0. Max # of overlaps:     545    1594
New grid distribution:   1
           1       1:   20    1:    7    1:    6
           2       1:   20    1:    7    7:   12
           3       1:   20    1:    7   13:   18
           4       1:   20    1:    7   19:   24
           5       1:   20    8:   14    1:    6
           6       1:   20    8:   14    7:   12
           7       1:   20    8:   14   13:   18
           8       1:   20    8:   14   19:   24
           9       1:   20   15:   20    1:    6
          10       1:   20   15:   20    7:   12
          11       1:   20   15:   20   13:   18
          12       1:   20   15:   20   19:   24

InitMesh: MESH =    40 x    40 x    48 =       76800
InitMesh: (bp) =    20 x    20 x    24 =        9600
InitMesh: Mesh cutoff (required, used) =   300.000   323.586 Ry
ExtMesh (bp) on 0 =   160 x   147 x   146 =     3433920
New grid distribution:   2
           1       1:    7    1:   10    1:   12
           2       8:   20   11:   20   13:   18
           3       1:    7    1:   10   13:   24
           4       8:   20    1:   10    1:    6
           5       8:   20   11:   20    1:    6
           6       8:   20    1:   10    7:   12
           7       1:    7   11:   20   13:   24
           8       8:   20    1:   10   19:   24
           9       1:    7   11:   20    1:   12
          10       8:   20    1:   10   13:   18
          11       8:   20   11:   20    7:   12
          12       8:   20   11:   20   19:   24
New grid distribution:   3
           1       1:    7    1:   10    1:   12
           2       8:   20   11:   20   13:   18
           3       1:    7    1:   10   13:   24
           4       8:   20    1:   10    1:    6
           5       8:   20   11:   20    1:    6
           6       8:   20    1:   10    7:   12
           7       1:    7   11:   20   13:   24
           8       8:   20    1:   10   19:   24
           9       1:    7   11:   20    1:   12
          10       8:   20    1:   10   13:   18
          11       8:   20   11:   20    7:   12
          12       8:   20   11:   20   19:   24
Setting up quadratic distribution...
ExtMesh (bp) on 0 =   147 x   150 x   152 =     3351600
PhiOnMesh: Number of (b)points on node 0 =                  840
PhiOnMesh: nlist on node 0 =               723951

stepf: Fermi-Dirac step function

siesta: Program's energy decomposition (eV):
siesta: Ebs     =      -288.557812
siesta: Eions   =       380.620085
siesta: Ena     =        80.574845
siesta: Ekin    =       295.447580
siesta: Enl     =       -11.913782
siesta: Eso     =         0.000000
siesta: Edftu   =         0.000000
siesta: DEna    =       -33.867352
siesta: DUscf   =        27.086556
siesta: DUext   =         0.000000
siesta: Exc     =      -189.719850
siesta: eta*DQ  =         0.000000
siesta: Emadel  =         0.000000
siesta: Emeta   =         0.000000
siesta: Emolmec =        -9.393970
siesta: Ekinion =         0.000000
siesta: Eharris =      -184.970605
siesta: Etot    =      -222.406057
siesta: FreeEng =      -222.418398

        iscf     Eharris(eV)        E_KS(eV)     FreeEng(eV)     dDmax    Ef(eV) dHmax(eV)
   scf:    1     -184.970605     -222.406057     -222.418398 21.977526-18.304622 18.921954
timer: Routine,Calls,Time,% = IterSCF        1      22.939  59.15
   scf:    2     -241.981900     -234.191440     -234.205823  2.528978-17.686162  6.182654
   scf:    3     -235.444162     -235.552588     -235.565305  1.762695-17.037190  1.066769
   scf:    4     -234.961658     -235.449105     -235.461623  1.016745-17.174023  2.075786
   scf:    5     -235.696066     -235.613828     -235.630092  0.450917-16.982190  0.385210
   scf:    6     -235.232898     -235.507515     -235.523033  0.884359-17.123608  1.395822
   scf:    7     -235.658663     -235.592100     -235.606040  0.194598-16.997934  0.679816
   scf:    8     -235.397401     -235.574039     -235.586786  0.633173-17.003058  0.879662
   scf:    9     -235.585798     -235.620583     -235.637612  0.449542-16.975146  0.241065
   scf:   10     -235.626129     -235.624800     -235.642286  0.087340-16.972112  0.043700
   scf:   11     -235.622574     -235.623895     -235.641278  0.042320-16.972874  0.118134
   scf:   12     -235.625247     -235.624897     -235.642393  0.040871-16.971982  0.024668
   scf:   13     -235.624940     -235.624941     -235.642444  0.012222-16.971914  0.000378
   scf:   14     -235.624941     -235.624941     -235.642444  0.001463-16.971978  0.000113
   scf:   15     -235.624941     -235.624941     -235.642444  0.000682-16.972015  0.000092

SCF Convergence by FreeE+DM+H criterion
|FreeE_i-FreeE_(i-1)| (eV) <     0.00100000
max |DM_out - DM_in|         :     0.0006818916
max |H_out - H_in|      (eV) :     0.0000920365
SCF cycle converged after 15 iterations

Using DM_out to compute the final energy and forces
No. of atoms with KB's overlaping orbs in proc 0. Max # of overlaps:     545    1594

MM-Stress (kbar):      113.61      113.61      446.76        0.00        0.00       -0.00

siesta: E_KS(eV) =             -235.6249

siesta: E_KS - E_eggbox =      -235.6249

siesta: Atomic forces (eV/Ang):
     1    0.000000    0.000000    0.000000
     2    0.773703    0.000013    0.492097
     3   -0.773703   -0.000013   -0.492097
     4   -0.386840    0.670053    0.492097
     5    0.386840   -0.670053   -0.492097
     6   -0.386934   -0.670189    0.491957
     7    0.386934    0.670189   -0.491957
     8   -0.773703   -0.000013    0.492097
     9    0.773703    0.000013   -0.492097
    10    0.386840   -0.670053    0.492097
    11   -0.386840    0.670053   -0.492097
    12    0.386934    0.670189    0.491957
    13   -0.386934   -0.670189   -0.491957
----------------------------------------
   Tot   -0.000000    0.000000    0.000000
----------------------------------------
   Max    0.773703
   Res    0.508638    sqrt( Sum f_i^2 / 3N )
----------------------------------------
   Max    0.773703    constrained

Stress tensor Voigt[x,y,z,yz,xz,xy] (kbar):    -1702.71    -1702.75     -353.11        0.00       -0.00       -0.03
(Free)E + p*V (eV/cell)     -181.9149
Target enthalpy (eV/cell)     -235.6424

siesta: Eigenvalues (eV):
  ik is       eps
   1  1  -29.6804  -24.7779  -22.8381  -21.5853  -21.4657  -20.8427  -20.8426  -15.5730  -14.7907  -14.7907
         -14.5293  -14.5293  -14.0604  -13.8640  -13.8640  -12.4818   -3.9455   -3.9455   -3.5222   -2.9489
   -2.9489   -1.7853   -1.7848    0.8889    0.8889    4.0961    7.9004   11.5873   13.6664   13.6665
   14.7870   14.7871   14.7892   16.1055   19.9395   19.9399   20.6458   23.6003   23.6005   25.6618
   25.6629   26.8344   27.0827   27.0827   29.4980   29.4981   31.2490   31.3755   31.3756   38.5780
   38.5781   40.0677   40.2637   42.7247   42.9474   50.0581   50.0593   51.5637   62.8702   70.4943
   70.4948   72.2189   72.2190   79.1434  168.2624  168.2626  171.7304  171.7305  193.8770  193.8773
  194.5242  194.5243  200.5090
   2  1  -29.3394  -23.6098  -23.1320  -22.8648  -22.1095  -21.3469  -21.3420  -16.9307  -16.9302  -16.0765
         -15.2988  -14.1971  -12.2733  -11.9085  -10.1475   -9.7241   -4.5338   -4.4364   -3.0753   -2.5425
   -2.0895   -1.4486   -1.3009    1.2439    1.8888    3.0767    4.1538    5.5218    7.6759   10.0478
   12.0926   12.9646   15.4105   15.4748   17.2229   17.3541   17.9540   18.5560   21.9282   22.4546
   22.5616   22.7664   23.6268   23.9732   25.6527   27.1072   29.4774   35.7619   37.1147   37.5100
   39.8416   42.4884   42.6909   44.5175   47.4032   48.0530   48.1119   48.7127   51.2492   51.4936
   54.3413   55.8573   56.5449   59.9439   63.6653   71.7718   74.6798   78.7246   87.7496  132.6978
  139.4925  141.7187  142.2483
   3  1  -29.3394  -23.6098  -23.1320  -22.8648  -22.1095  -21.3469  -21.3420  -16.9307  -16.9302  -16.0765
         -15.2988  -14.1971  -12.2733  -11.9085  -10.1475   -9.7241   -4.5338   -4.4364   -3.0753   -2.5425
   -2.0895   -1.4486   -1.3009    1.2439    1.8888    3.0767    4.1538    5.5218    7.6759   10.0478
   12.0926   12.9646   15.4105   15.4748   17.2229   17.3541   17.9540   18.5560   21.9282   22.4546
   22.5616   22.7664   23.6268   23.9732   25.6527   27.1072   29.4774   35.7619   37.1147   37.5100
   39.8416   42.4884   42.6909   44.5175   47.4032   48.0530   48.1119   48.7126   51.2492   51.4936
   54.3413   55.8573   56.5449   59.9439   63.6654   71.7718   74.6798   78.7246   87.7496  132.6978
  139.4925  141.7187  142.2483
   4  1  -29.3394  -23.6098  -23.1320  -22.8648  -22.1095  -21.3469  -21.3421  -16.9307  -16.9301  -16.0765
         -15.2988  -14.1971  -12.2733  -11.9086  -10.1475   -9.7241   -4.5339   -4.4364   -3.0753   -2.5425
   -2.0890   -1.4486   -1.3010    1.2438    1.8888    3.0767    4.1538    5.5216    7.6760   10.0478
   12.0929   12.9646   15.4102   15.4748   17.2229   17.3544   17.9540   18.5560   21.9283   22.4546
   22.5615   22.7664   23.6268   23.9732   25.6524   27.1072   29.4774   35.7619   37.1146   37.5096
   39.8411   42.4883   42.6910   44.5176   47.4031   48.0531   48.1120   48.7126   51.2492   51.4935
   54.3414   55.8573   56.5447   59.9435   63.6649   71.7717   74.6800   78.7246   87.7496  132.6978
  139.4926  141.7184  142.2483
   5  1  -29.4136  -24.5564  -22.9915  -22.0309  -20.8647  -20.8645  -20.0275  -19.6205  -14.8306  -14.8305
         -14.7641  -14.7641  -14.5945  -14.3040  -14.3040  -10.6259   -3.3877   -2.0656   -1.7757   -1.7752
    2.6769    2.6769    5.7300    5.7302    7.0541    7.0541    7.1092    7.1092    8.0530    8.0530
    9.8714    9.8714   13.0491   13.4391   15.9121   18.7647   22.3180   22.6776   23.2376   23.2377
   23.4278   26.4488   26.4494   28.5633   28.5634   30.4369   30.4370   33.0193   33.0194   39.2569
   41.6745   42.0355   42.1350   42.3689   45.2563   45.2569   48.2270   48.2281   50.6751   50.6764
   52.2437   52.5170   52.5171   53.6263   53.6527  101.3223  101.3224  102.4093  102.4095  130.4327
  130.4333  138.5098  138.5100
   6  1  -29.2237  -23.6753  -23.5645  -22.8954  -21.7814  -21.2053  -20.9302  -17.8394  -17.2127  -16.7226
         -12.6490  -12.4315  -11.5111   -8.5222   -8.5119   -8.3809   -8.2160   -8.1803   -5.8995   -5.2225
   -4.0505   -3.9658   -2.5959   -2.1336    1.7733    1.8528    2.2932    3.8818    5.9524    7.3843
   11.5010   12.6725   15.2309   16.2667   16.8281   17.3516   18.0951   19.1765   19.9744   22.0298
   22.1677   24.1698   24.5267   27.1429   31.2556   32.3712   33.2615   34.2068   39.6079   40.0607
   40.8670   43.2560   44.6319   44.8394   45.0467   45.5425   46.1448   46.5198   47.4221   47.8638
   50.1505   53.4585   55.4338   64.3660   65.6750   66.9844   67.8678   74.8202   88.7769  157.4398
  157.6089  159.4020  165.2240
   7  1  -29.2237  -23.6753  -23.5645  -22.8954  -21.7814  -21.2053  -20.9302  -17.8394  -17.2127  -16.7226
         -12.6490  -12.4315  -11.5111   -8.5222   -8.5119   -8.3809   -8.2160   -8.1803   -5.8995   -5.2225
   -4.0505   -3.9658   -2.5959   -2.1336    1.7733    1.8528    2.2932    3.8818    5.9524    7.3843
   11.5010   12.6725   15.2309   16.2667   16.8281   17.3516   18.0951   19.1765   19.9744   22.0297
   22.1677   24.1698   24.5267   27.1429   31.2556   32.3712   33.2616   34.2068   39.6079   40.0604
   40.8669   43.2562   44.6319   44.8394   45.0467   45.5425   46.1448   46.5198   47.4221   47.8638
   50.1504   53.4585   55.4343   64.3660   65.6750   66.9844   67.8678   74.8205   88.7769  157.4398
  157.6089  159.4020  165.2240
   8  1  -29.2237  -23.6753  -23.5645  -22.8954  -21.7814  -21.2054  -20.9302  -17.8393  -17.2127  -16.7226
         -12.6490  -12.4316  -11.5112   -8.5222   -8.5119   -8.3808   -8.2160   -8.1803   -5.8995   -5.2225
   -4.0505   -3.9658   -2.5959   -2.1336    1.7730    1.8528    2.2932    3.8817    5.9528    7.3843
   11.5014   12.6725   15.2310   16.2663   16.8282   17.3515   18.0950   19.1765   19.9741   22.0298
   22.1676   24.1698   24.5268   27.1432   31.2556   32.3712   33.2615   34.2067   39.6078   40.0612
   40.8668   43.2560   44.6319   44.8395   45.0467   45.5426   46.1450   46.5198   47.4220   47.8638
   50.1504   53.4585   55.4330   64.3659   65.6744   66.9845   67.8683   74.8199   88.7769  157.4398
  157.6089  159.4020  165.2240
siesta: Fermi energy =     -16.972015 eV

siesta: Program's energy decomposition (eV):
siesta: Ebs     =      -361.387286
siesta: Eions   =       380.620085
siesta: Ena     =        80.574845
siesta: Ekin    =       242.153408
siesta: Enl     =         4.769124
siesta: Eso     =         0.000000
siesta: Edftu   =         0.000000
siesta: DEna    =         0.121177
siesta: DUscf   =         5.924382
siesta: DUext   =         0.000000
siesta: Exc     =      -179.153823
siesta: eta*DQ  =         0.000000
siesta: Emadel  =         0.000000
siesta: Emeta   =         0.000000
siesta: Emolmec =        -9.393970
siesta: Ekinion =         0.000000
siesta: Eharris =      -235.624941
siesta: Etot    =      -235.624941
siesta: FreeEng =      -235.642444

siesta: Final energy (eV):
siesta:  Band Struct. =    -361.387286
siesta:       Kinetic =     242.153408
siesta:       Hartree =      77.906812
siesta:       Edftu   =       0.000000
siesta:       Eso     =       0.000000
siesta:    Ext. field =       0.000000
siesta:   Exch.-corr. =    -179.153823
siesta:  Ion-electron =    -566.842153
siesta:       Ion-ion =     199.704784
siesta:       Ekinion =       0.000000
siesta:         Total =    -235.624941
siesta:         Fermi =     -16.972015

siesta: Atomic forces (eV/Ang):
siesta:      1    0.000000    0.000000    0.000000
siesta:      2    0.773703    0.000013    0.492097
siesta:      3   -0.773703   -0.000013   -0.492097
siesta:      4   -0.386840    0.670053    0.492097
siesta:      5    0.386840   -0.670053   -0.492097
siesta:      6   -0.386934   -0.670189    0.491957
siesta:      7    0.386934    0.670189   -0.491957
siesta:      8   -0.773703   -0.000013    0.492097
siesta:      9    0.773703    0.000013   -0.492097
siesta:     10    0.386840   -0.670053    0.492097
siesta:     11   -0.386840    0.670053   -0.492097
siesta:     12    0.386934    0.670189    0.491957
siesta:     13   -0.386934   -0.670189   -0.491957
siesta: ----------------------------------------
siesta:    Tot   -0.000000    0.000000    0.000000

siesta: Stress tensor (static) (eV/Ang**3):
siesta:    -1.062739   -0.000021    0.000000
siesta:    -0.000021   -1.062764   -0.000000
siesta:    -0.000000    0.000000   -0.220393

siesta: Cell volume =         68.708383 Ang**3

siesta: Pressure (static):
siesta:                Solid            Molecule  Units
siesta:           0.00851660          0.00920595  Ry/Bohr**3
siesta:           0.78196535          0.84525891  eV/Ang**3
siesta:        1252.86015097       1354.26871228  kBar
(Free)E+ p_basis*V_orbitals  =        -197.706372
(Free)Eharris+ p_basis*V_orbitals  =        -197.706372

cite: Please see "LiC12_scf.bib" for an exhaustive BiBTeX file.
cite: Please clearly indicate Siesta version in published work: 4.1.5
cite: This calculation has made use of the following articles
cite: which are encouraged to be cited in a published work.
        Primary SIESTA paper
          DOI: www.doi.org/10.1088/0953-8984/14/11/302

>> End of run:   9-NOV-2022   1:40:54
Job completed
