Siesta Version  : 4.1.5
Architecture    : x86_64-unknown-linux-gnu--unknown
Compiler version: GNU Fortran (GCC) 11.3.0
Compiler flags  : mpif90 -g -O2 -fallow-argument-mismatch
PP flags        : -DMPI -DFC_HAVE_FLUSH -DFC_HAVE_ABORT
Libraries       :  -I/global/software/sl-7.x86_64/modules/intel/2020.4.304/mkl/include  /globall/software/sl-7.x86_64/modules/intel/2020.4.304/mkl/lib/intel64/libmkl_scalapack_lp64.a -Wl,--start-group /global/software/sl-7.x86_64/modules/intel/2020.4.304/mkl/lib/intel64/libmkl_intel_lp64.a /global/software/sl-7.x86_64/modules/intel/2020.4.304/mkl/lib/intel64/libmkl_sequential.a /global/software/sl-7.x86_64/modules/intel/2020.4.304/mkl/lib/intel64/libmkl_core.a /global/software/sl-7.x86_64/modules/intel/2020.4.304/mkl/lib/intel64/libmkl_blacs_openmpi_lp64.a -Wl,--end-group -lpthread -lm -ldl
PARALLEL version

* Running on 12 nodes in parallel
>> Start of run:   9-NOV-2022   2:41:50

                           ***********************       
                           *  WELCOME TO SIESTA  *       
                           ***********************       

reinit: Reading from standard input
reinit: Dumped input in INPUT_TMP.77520
************************** Dump of input data file ****************************
SystemName LiC12_scf
SystemLabel LiC12_scf
NumberOfAtoms   13
NumberOfSpecies 2
%block ChemicalSpeciesLabel
1  3   Li-gga
2  6   C-gga
%endblock ChemicalSpeciesLabel
PAO.BasisSize  DZP
PAO.EnergyShift  10 meV
%block PS.Lmax
C-gga   2
Li-gga  2
%endblock PS.Lmax
LatticeConstant 1.000000 Ang
%block LatticeVectors
	4.2686000000	0.0000000000	0.0000000000
	-2.1343000000	3.6967160386	0.0000000000
	0.0000000000	0.0000000000	7.7251900000
%endblock LatticeVectors
AtomicCoordinatesFormat Ang
%block AtomicCoordinatesAndAtomicSpecies
	0.00000000	0.00000000	0.00000000	2
	1.42144380	0.00000000	1.93129750	1
	2.84715620	0.00000000	5.79389250	1
	-0.71072190	1.23100644	1.93129750	1
	-1.42357810	2.46570960	5.79389250	1
	1.42357810	2.46570960	1.93129750	1
	0.71072190	1.23100644	5.79389250	1
	2.84715620	0.00000000	1.93129750	1
	1.42144380	0.00000000	5.79389250	1
	-1.42357810	2.46570960	1.93129750	1
	-0.71072190	1.23100644	5.79389250	1
	0.71072190	1.23100644	1.93129750	1
	1.42357810	2.46570960	5.79389250	1
%endblock AtomicCoordinatesAndAtomicSpecies
Kgrid_NoTRS  T
%block kgrid_MonkhorstPack
2       0       0       0.0
0       2       0       0.0
0       0       2       0.0
%endblock kgrid_MonkhorstPack
AtomCoorFormatOut Ang
BlockSize 1
#ProcessorY 12
Diag.ParallelOverK   T
Diag.DivideAndConquer F
MeshCutoff   300 Ry
SCF.FreeE.Tolerance 1E-3 eV
SCF.EDM.Tolerance   5E-3 eV
DM.Tolerance  1E-3
DM.Require.Energy.Convergence T
DM.NumberPulay 4
XC.Functional GGA
XC.Authors    PBE
UseSaveData        F
MD.TypeOfRun       CG
MD.VariableCell    F
MD.NumCGsteps      00
MD.MaxCGDispl      0.200000 Bohr
MD.MaxStressTol    1.000000 GPa
MD.MaxForceTol     0.010000 eV/Ang
WriteMDHistory T
WriteCoorStep T
WriteForces T
WriteCoorStep    T
WriteEigenValues T
WriteDM    F
MM.UnitsDistance Ang  # what this program prints out DO NOT CHANGE
MM.UnitsEnergy    eV  # what this program prints out DO NOT CHANGE
MM.Grimme.S6     0.75 # Grimme-paper for PBE (correct for your functional)
MM.Grimme.D     20.   # Grimme-paper (correct for your functional)
%block MM.Potentials
  1   1 Grimme     16.69      1.650 # Li, 10.1002/jcc.20495
  1   2 Grimme     17.40      2.277 # Li / C
  2   2 Grimme     18.14      2.904 # C, 10.1002/jcc.20495
%endblock MM.Potentials
#%block ProjectedDensityOfStates
# -200.0  120.0  0.4  12800  eV
#%endblock ProjectedDensityOfStates
************************** End of input data file *****************************

reinit: -----------------------------------------------------------------------
reinit: System Name: LiC12_scf
reinit: -----------------------------------------------------------------------
reinit: System Label: LiC12_scf
reinit: -----------------------------------------------------------------------
Reading two-body potentials
Grimme - two-body potential between 1 and 1
Grimme - two-body potential between 1 and 2
Grimme - two-body potential between 2 and 2

initatom: Reading input for the pseudopotentials and atomic orbitals ----------
Species number:   1 Atomic number:    3 Label: Li-gga
Species number:   2 Atomic number:    6 Label: C-gga

Ground state valence configuration:   2s01
Reading pseudopotential information in formatted form from Li-gga.psf

Valence configuration for pseudopotential generation:
2s( 1.00) rc: 2.28
2p( 0.00) rc: 2.28
3d( 0.00) rc: 2.59
4f( 0.00) rc: 2.59
Ground state valence configuration:   2s02  2p02
Reading pseudopotential information in formatted form from C-gga.psf

Valence configuration for pseudopotential generation:
2s( 2.00) rc: 1.56
2p( 2.00) rc: 1.56
3d( 0.00) rc: 1.56
4f( 0.00) rc: 1.56
relmxkb: Read Max KB Ang. Momentum=    2 for species C-gga
relmxkb: Read Max KB Ang. Momentum=    2 for species Li-gga

<basis_specs>
===============================================================================
Li-gga               Z=   3    Mass=  6.9400        Charge= 0.17977+309
Lmxo=0 Lmxkb= 2    BasisType=split      Semic=F
L=0  Nsemic=0  Cnfigmx=2
          i=1  nzeta=2  polorb=1  (2s)
            splnorm:   0.15000    
               vcte:    0.0000    
               rinn:    0.0000    
               qcoe:    0.0000    
               qyuk:    0.0000    
               qwid:   0.10000E-01
                rcs:    0.0000      0.0000    
            lambdas:    1.0000      1.0000    
-------------------------------------------------------------------------------
L=0  Nkbl=1  erefs: 0.17977+309
L=1  Nkbl=1  erefs: 0.17977+309
L=2  Nkbl=1  erefs: 0.17977+309
===============================================================================
</basis_specs>

atom: Called for Li-gga                (Z =   3)

read_vps: Pseudopotential generation method:
read_vps: ATM 3.2.2 Troullier-Martins                       
Valence charge for ps generation:    1.00000

read_vps: Pseudopotential includes a core correction:
read_vps: Pseudo-core for xc-correction

xc_check: Exchange-correlation functional:
xc_check: GGA Perdew, Burke & Ernzerhof 1996
V l=0 = -2*Zval/r beyond r=  2.2278
V l=1 = -2*Zval/r beyond r=  2.2278
V l=2 = -2*Zval/r beyond r=  2.5245
All V_l potentials equal beyond r=  2.4622
This should be close to max(r_c) in ps generation
All pots = -2*Zval/r beyond r=  2.5245

VLOCAL1: 99.0% of the norm of Vloc inside      7.160 Ry
VLOCAL1: 99.9% of the norm of Vloc inside     16.318 Ry
atom: Maximum radius for 4*pi*r*r*local-pseudopot. charge    2.86079
atom: Maximum radius for r*vlocal+2*Zval:    2.43160
GHOST: No ghost state for L =  0
GHOST: No ghost state for L =  1
GHOST: No ghost state for L =  2

KBgen: Kleinman-Bylander projectors: 
   l= 0   rc=  2.654023   el= -0.211234   Ekb=  1.742119   kbcos=  0.228463
   l= 1   rc=  2.721230   el= -0.080095   Ekb= -1.122375   kbcos= -0.147941
   l= 2   rc=  2.825246   el=  0.002001   Ekb= -0.207076   kbcos= -0.031965

KBgen: Total number of Kleinman-Bylander projectors:    9
atom: -------------------------------------------------------------------------

atom: SANKEY-TYPE ORBITALS:
atom: Selected multiple-zeta basis: split     

SPLIT: Orbitals with angular momentum L= 0

SPLIT: Basis orbitals for state 2s

SPLIT: PAO cut-off radius determined from an
SPLIT: energy shift=  0.000735 Ry

   izeta = 1
                 lambda =    1.000000
                     rc =   11.897381
                 energy =   -0.210580
                kinetic =    0.143382
    potential(screened) =   -0.353962
       potential(ionic) =   -0.533453

   izeta = 2
                 rmatch =    8.489163
              splitnorm =    0.150000
                 energy =   -0.186081
                kinetic =    0.225882
    potential(screened) =   -0.411964
       potential(ionic) =   -0.593024

POLgen: Perturbative polarization orbital with L=  1

POLgen: Polarization orbital for state 2s

   izeta = 1
                     rc =   11.897381
                 energy =   -0.027011
                kinetic =    0.282985
    potential(screened) =   -0.309997
       potential(ionic) =   -0.490997
atom: Total number of Sankey-type orbitals:  5

atm_pop: Valence configuration (for local Pseudopot. screening):
 2s( 1.00)                                                            
Vna: chval, zval:    1.00000   1.00000

Vna:  Cut-off radius for the neutral-atom potential:  11.897381
comcore: Pseudo-core radius Rcore=  3.450946

atom: _________________________________________________________________________

<basis_specs>
===============================================================================
C-gga                Z=   6    Mass=  12.010        Charge= 0.17977+309
Lmxo=1 Lmxkb= 2    BasisType=split      Semic=F
L=0  Nsemic=0  Cnfigmx=2
          i=1  nzeta=2  polorb=0  (2s)
            splnorm:   0.15000    
               vcte:    0.0000    
               rinn:    0.0000    
               qcoe:    0.0000    
               qyuk:    0.0000    
               qwid:   0.10000E-01
                rcs:    0.0000      0.0000    
            lambdas:    1.0000      1.0000    
L=1  Nsemic=0  Cnfigmx=2
          i=1  nzeta=2  polorb=1  (2p)
            splnorm:   0.15000    
               vcte:    0.0000    
               rinn:    0.0000    
               qcoe:    0.0000    
               qyuk:    0.0000    
               qwid:   0.10000E-01
                rcs:    0.0000      0.0000    
            lambdas:    1.0000      1.0000    
-------------------------------------------------------------------------------
L=0  Nkbl=1  erefs: 0.17977+309
L=1  Nkbl=1  erefs: 0.17977+309
L=2  Nkbl=1  erefs: 0.17977+309
===============================================================================
</basis_specs>

atom: Called for C-gga                 (Z =   6)

read_vps: Pseudopotential generation method:
read_vps: ATM 3.2.2 Troullier-Martins                       
Valence charge for ps generation:    4.00000

xc_check: Exchange-correlation functional:
xc_check: GGA Perdew, Burke & Ernzerhof 1996
V l=0 = -2*Zval/r beyond r=  1.5227
V l=1 = -2*Zval/r beyond r=  1.5227
V l=2 = -2*Zval/r beyond r=  1.5227
All V_l potentials equal beyond r=  1.4851
This should be close to max(r_c) in ps generation
All pots = -2*Zval/r beyond r=  1.5227

VLOCAL1: 99.0% of the norm of Vloc inside     19.682 Ry
VLOCAL1: 99.9% of the norm of Vloc inside     44.856 Ry
atom: Maximum radius for 4*pi*r*r*local-pseudopot. charge    1.79142
atom: Maximum radius for r*vlocal+2*Zval:    1.54183
GHOST: No ghost state for L =  0
GHOST: No ghost state for L =  1
GHOST: No ghost state for L =  2

KBgen: Kleinman-Bylander projectors: 
   l= 0   rc=  1.661951   el= -1.010689   Ekb=  5.289847   kbcos=  0.316429
   l= 1   rc=  1.661951   el= -0.388490   Ekb= -4.102504   kbcos= -0.351025
   l= 2   rc=  1.747182   el=  0.001971   Ekb= -1.006005   kbcos= -0.008530

KBgen: Total number of Kleinman-Bylander projectors:    9
atom: -------------------------------------------------------------------------

atom: SANKEY-TYPE ORBITALS:
atom: Selected multiple-zeta basis: split     

SPLIT: Orbitals with angular momentum L= 0

SPLIT: Basis orbitals for state 2s

SPLIT: PAO cut-off radius determined from an
SPLIT: energy shift=  0.000735 Ry

   izeta = 1
                 lambda =    1.000000
                     rc =    5.948690
                 energy =   -1.010099
                kinetic =    0.827121
    potential(screened) =   -1.837220
       potential(ionic) =   -5.392783

   izeta = 2
                 rmatch =    3.518811
              splitnorm =    0.150000
                 energy =   -0.877891
                kinetic =    1.289227
    potential(screened) =   -2.167118
       potential(ionic) =   -5.982073

SPLIT: Orbitals with angular momentum L= 1

SPLIT: Basis orbitals for state 2p

SPLIT: PAO cut-off radius determined from an
SPLIT: energy shift=  0.000735 Ry

   izeta = 1
                 lambda =    1.000000
                     rc =    7.638387
                 energy =   -0.387843
                kinetic =    2.314739
    potential(screened) =   -2.702582
       potential(ionic) =   -6.092371

   izeta = 2
                 rmatch =    3.840617
              splitnorm =    0.150000
                 energy =   -0.270479
                kinetic =    3.438347
    potential(screened) =   -3.708826
       potential(ionic) =   -7.497707

POLgen: Perturbative polarization orbital with L=  2

POLgen: Polarization orbital for state 2p

   izeta = 1
                     rc =    7.638387
                 energy =    0.921402
                kinetic =    1.955040
    potential(screened) =   -1.033637
       potential(ionic) =   -3.679558
atom: Total number of Sankey-type orbitals: 13

atm_pop: Valence configuration (for local Pseudopot. screening):
 2s( 2.00)                                                            
 2p( 2.00)                                                            
Vna: chval, zval:    4.00000   4.00000

Vna:  Cut-off radius for the neutral-atom potential:   7.638387

atom: _________________________________________________________________________

prinput: Basis input ----------------------------------------------------------

PAO.BasisType split     

%block ChemicalSpeciesLabel
    1    3 Li-gga                  # Species index, atomic number, species label
    2    6 C-gga                   # Species index, atomic number, species label
%endblock ChemicalSpeciesLabel

%block PAO.Basis                 # Define Basis set
Li-gga                1                    # Species label, number of l-shells
 n=2   0   2 P   1                   # n, l, Nzeta, Polarization, NzetaPol
  11.897      8.489   
   1.000      1.000   
C-gga                 2                    # Species label, number of l-shells
 n=2   0   2                         # n, l, Nzeta 
   5.949      3.519   
   1.000      1.000   
 n=2   1   2 P   1                   # n, l, Nzeta, Polarization, NzetaPol
   7.638      3.841   
   1.000      1.000   
%endblock PAO.Basis

prinput: ----------------------------------------------------------------------

coor:   Atomic-coordinates input format  =     Cartesian coordinates
coor:                                          (in Angstroms)

siesta: Atomic coordinates (Bohr) and species
siesta:      0.00000   0.00000   0.00000  2        1
siesta:      2.68614   0.00000   3.64962  1        2
siesta:      5.38035   0.00000  10.94887  1        3
siesta:     -1.34307   2.32627   3.64962  1        4
siesta:     -2.69017   4.65952  10.94887  1        5
siesta:      2.69017   4.65952   3.64962  1        6
siesta:      1.34307   2.32627  10.94887  1        7
siesta:      5.38035   0.00000   3.64962  1        8
siesta:      2.68614   0.00000  10.94887  1        9
siesta:     -2.69017   4.65952   3.64962  1       10
siesta:     -1.34307   2.32627  10.94887  1       11
siesta:      1.34307   2.32627   3.64962  1       12
siesta:      2.69017   4.65952  10.94887  1       13

siesta: System type = bulk      

initatomlists: Number of atoms, orbitals, and projectors:     13    73   117

siesta: ******************** Simulation parameters ****************************
siesta:
siesta: The following are some of the parameters of the simulation.
siesta: A complete list of the parameters used, including default values,
siesta: can be found in file out.fdf
siesta:
redata: Spin configuration                          = none
redata: Number of spin components                   = 1
redata: Time-Reversal Symmetry                      = T
redata: Spin spiral                                 = F
redata: Long output                                 =   F
redata: Number of Atomic Species                    =        2
redata: Charge density info will appear in .RHO file
redata: Write Mulliken Pop.                         = NO
redata: Matel table size (NRTAB)                    =     1024
redata: Mesh Cutoff                                 =   300.0000 Ry
redata: Net charge of the system                    =     0.0000 |e|
redata: Min. number of SCF Iter                     =        0
redata: Max. number of SCF Iter                     =     1000
redata: SCF convergence failure will abort job
redata: SCF mix quantity                            = Hamiltonian
redata: Mix DM or H after convergence               =   F
redata: Recompute H after scf cycle                 =   F
redata: Mix DM in first SCF step                    =   T
redata: Write Pulay info on disk                    =   F
redata: New DM Occupancy tolerance                  = 0.000000000001
redata: No kicks to SCF
redata: DM Mixing Weight for Kicks                  =     0.5000
redata: Require Harris convergence for SCF          =   F
redata: Harris energy tolerance for SCF             =     0.000100 eV
redata: Require DM convergence for SCF              =   T
redata: DM tolerance for SCF                        =     0.001000
redata: Require EDM convergence for SCF             =   F
redata: EDM tolerance for SCF                       =     0.005000 eV
redata: Require H convergence for SCF               =   T
redata: Hamiltonian tolerance for SCF               =     0.001000 eV
redata: Require (free) Energy convergence for SCF   =   T
redata: (free) Energy tolerance for SCF             =     0.001000 eV
redata: Using Saved Data (generic)                  =   F
redata: Use continuation files for DM               =   F
redata: Neglect nonoverlap interactions             =   F
redata: Method of Calculation                       = Diagonalization
redata: Electronic Temperature                      =   299.9869 K
redata: Fix the spin of the system                  =   F
redata: Dynamics option                             = Single-point calculation
mix.SCF: Pulay mixing                            = Pulay
mix.SCF:    Variant                              = stable
mix.SCF:    History steps                        = 4
mix.SCF:    Linear mixing weight                 =     0.250000
mix.SCF:    Mixing weight                        =     0.250000
mix.SCF:    SVD condition                        = 0.1000E-07
redata: ***********************************************************************

%block SCF.Mixers
  Pulay
%endblock SCF.Mixers

%block SCF.Mixer.Pulay
  # Mixing method
  method pulay
  variant stable

  # Mixing options
  weight 0.2500
  weight.linear 0.2500
  history 4
%endblock SCF.Mixer.Pulay

DM_history_depth set to one: no extrapolation allowed by default for geometry relaxation
Size of DM history Fstack: 1
Total number of electrons:    16.000000
Total ionic charge:    16.000000

* ProcessorY, Blocksize:    3   1


* Orbital distribution balance (max,min):     7     6

k-point displ. along   1 input, could be:     0.00    0.50
k-point displ. along   2 input, could be:     0.00    0.50
k-point displ. along   3 input, could be:     0.00    0.50
 Kpoints in:            8 . Kpoints trimmed:            8

siesta: k-grid: Number of k-points =     8
siesta: k-grid: Cutoff (effective) =     4.269 Ang
siesta: k-grid: Supercell and displacements
siesta: k-grid:    2   0   0      0.000
siesta: k-grid:    0   2   0      0.000
siesta: k-grid:    0   0   2      0.000

diag: Algorithm                                     = Expert
diag: Parallel over k                               =   T
diag: Use parallel 2D distribution                  =   T
diag: Parallel block-size                           = 1
diag: Parallel distribution                         =     3 x     4
diag: Used triangular part                          = Lower
diag: Absolute tolerance                            =  0.100E-15
diag: Orthogonalization factor                      =  0.100E-05
diag: Memory factor                                 =  1.0000

superc: Internal auxiliary supercell:     9 x     9 x     5  =     405
superc: Number of atoms, orbitals, and projectors:   5265  29565  47385


ts: **************************************************************
ts: Save H and S matrices                           =    F
ts: Save DM and EDM matrices                        =    F
ts: Only save the overlap matrix S                  =    F
ts: **************************************************************

************************ Begin: TS CHECKS AND WARNINGS ************************
************************ End: TS CHECKS AND WARNINGS **************************


                     ====================================
                        Single-point calculation
                     ====================================

outcoor: Atomic coordinates (Ang):                          
    0.00000000    0.00000000    0.00000000   2       1  C-gga
    1.42144380    0.00000000    1.93129750   1       2  Li-gga
    2.84715620    0.00000000    5.79389250   1       3  Li-gga
   -0.71072190    1.23100644    1.93129750   1       4  Li-gga
   -1.42357810    2.46570960    5.79389250   1       5  Li-gga
    1.42357810    2.46570960    1.93129750   1       6  Li-gga
    0.71072190    1.23100644    5.79389250   1       7  Li-gga
    2.84715620    0.00000000    1.93129750   1       8  Li-gga
    1.42144380    0.00000000    5.79389250   1       9  Li-gga
   -1.42357810    2.46570960    1.93129750   1      10  Li-gga
   -0.71072190    1.23100644    5.79389250   1      11  Li-gga
    0.71072190    1.23100644    1.93129750   1      12  Li-gga
    1.42357810    2.46570960    5.79389250   1      13  Li-gga

superc: Internal auxiliary supercell:     9 x     9 x     5  =     405
superc: Number of atoms, orbitals, and projectors:   5265  29565  47385

outcell: Unit cell vectors (Ang):
        4.268600    0.000000    0.000000
       -2.134300    3.696716    0.000000
        0.000000    0.000000    7.725190

outcell: Cell vector modules (Ang)   :    4.268600    4.268600    7.725190
outcell: Cell angles (23,13,12) (deg):     90.0000     90.0000    120.0000
outcell: Cell volume (Ang**3)        :    121.9020
<dSpData1D:S at geom step 0
  <sparsity:sparsity for geom step 0
    nrows_g=73 nrows=7 sparsity=7.2537 nnzs=38655, refcount: 7>
  <dData1D:(new from dSpData1D) n=38655, refcount: 1>
refcount: 1>
new_DM -- step:     1
Initializing Density Matrix...
DM filled with atomic data:
<dSpData2D:DM initialized from atoms
  <sparsity:sparsity for geom step 0
    nrows_g=73 nrows=7 sparsity=7.2537 nnzs=38655, refcount: 8>
  <dData2D:DM n=38655 m=1, refcount: 1>
refcount: 1>
No. of atoms with KB's overlaping orbs in proc 0. Max # of overlaps:     345     913
New grid distribution:   1
           1       1:   20    1:    7    1:   12
           2       1:   20    1:    7   13:   23
           3       1:   20    1:    7   24:   34
           4       1:   20    1:    7   35:   45
           5       1:   20    8:   14    1:   12
           6       1:   20    8:   14   13:   23
           7       1:   20    8:   14   24:   34
           8       1:   20    8:   14   35:   45
           9       1:   20   15:   20    1:   12
          10       1:   20   15:   20   13:   23
          11       1:   20   15:   20   24:   34
          12       1:   20   15:   20   35:   45

InitMesh: MESH =    40 x    40 x    90 =      144000
InitMesh: (bp) =    20 x    20 x    45 =       18000
InitMesh: Mesh cutoff (required, used) =   300.000   323.586 Ry
ExtMesh (bp) on 0 =   160 x   147 x   160 =     3763200
New grid distribution:   2
           1       1:   10    8:   20    1:   11
           2      11:   20    8:   20    1:   11
           3       1:   20    1:    7   23:   34
           4       1:   20    1:    7   35:   45
           5       1:   20    1:    7    1:   11
           6      11:   20    8:   20   12:   22
           7       1:   10    8:   20   23:   34
           8      11:   20    8:   20   35:   45
           9       1:   20    1:    7   12:   22
          10       1:   10    8:   20   12:   22
          11      11:   20    8:   20   23:   34
          12       1:   10    8:   20   35:   45
New grid distribution:   3
           1       1:   20    1:    7    1:   12
           2       1:   10    8:   20   35:   45
           3       1:   20    1:    7   24:   34
           4       1:   10    8:   20   13:   23
           5      11:   20    8:   20    1:   12
           6       1:   20    1:    7   35:   45
           7      11:   20    8:   20   24:   34
           8      11:   20    8:   20   13:   23
           9       1:   10    8:   20    1:   12
          10       1:   20    1:    7   13:   23
          11       1:   10    8:   20   24:   34
          12      11:   20    8:   20   35:   45
Setting up quadratic distribution...
ExtMesh (bp) on 0 =   150 x   153 x   159 =     3649050
PhiOnMesh: Number of (b)points on node 0 =                 1430
PhiOnMesh: nlist on node 0 =               707859

stepf: Fermi-Dirac step function

siesta: Program's energy decomposition (eV):
siesta: Ebs     =      -186.635285
siesta: Eions   =       380.620085
siesta: Ena     =       115.495910
siesta: Ekin    =       192.389613
siesta: Enl     =        16.054987
siesta: Eso     =         0.000000
siesta: Edftu   =         0.000000
siesta: DEna    =        -1.824974
siesta: DUscf   =         8.085805
siesta: DUext   =         0.000000
siesta: Exc     =      -158.967136
siesta: eta*DQ  =         0.000000
siesta: Emadel  =         0.000000
siesta: Emeta   =         0.000000
siesta: Emolmec =        -5.634176
siesta: Ekinion =         0.000000
siesta: Eharris =      -195.791583
siesta: Etot    =      -215.020055
siesta: FreeEng =      -215.030605

        iscf     Eharris(eV)        E_KS(eV)     FreeEng(eV)     dDmax    Ef(eV) dHmax(eV)
   scf:    1     -195.791583     -215.020055     -215.030605 26.124968-12.075713  9.870224
timer: Routine,Calls,Time,% = IterSCF        1      11.122  52.75
   scf:    2     -128.864751     -195.783355     -195.783600  3.342464-11.688723 22.313883
   scf:    3     -225.719047     -219.585985     -219.619456  2.453297-11.916967  2.811349
   scf:    4     -210.216478     -217.336729     -217.356134  1.466660-11.968787  7.746615
   scf:    5     -220.640052     -219.327689     -219.371513  0.645896-11.939342  3.822888
   scf:    6     -220.095301     -219.944684     -219.994260  0.325043-11.911178  0.637859
   scf:    7     -219.901551     -219.951522     -220.001374  0.271791-11.900998  0.520159
   scf:    8     -219.690742     -219.892494     -219.942289  0.325599-11.908298  1.236696
   scf:    9     -219.979564     -219.963023     -220.013273  0.149957-11.903232  0.168647
   scf:   10     -219.964284     -219.963712     -220.013902  0.019757-11.903416  0.116049
   scf:   11     -219.964635     -219.964455     -220.014469  0.015426-11.903118  0.003093
   scf:   12     -219.964486     -219.964473     -220.014463  0.004343-11.903169  0.012032
   scf:   13     -219.964435     -219.964459     -220.014470  0.003176-11.903199  0.002448
   scf:   14     -219.964450     -219.964457     -220.014464  0.004056-11.903342  0.012129
   scf:   15     -219.964468     -219.964463     -220.014467  0.000394-11.903333  0.009643
   scf:   16     -219.964502     -219.964485     -220.014471  0.002129-11.903313  0.000900
   scf:   17     -219.964481     -219.964483     -220.014471  0.000157-11.903313  0.000319

SCF Convergence by FreeE+DM+H criterion
|FreeE_i-FreeE_(i-1)| (eV) <     0.00100000
max |DM_out - DM_in|         :     0.0001574188
max |H_out - H_in|      (eV) :     0.0003190512
SCF cycle converged after 17 iterations

Using DM_out to compute the final energy and forces
No. of atoms with KB's overlaping orbs in proc 0. Max # of overlaps:     345     913

MM-Stress (kbar):       11.97       11.97       30.14        0.00        0.00       -0.00

siesta: E_KS(eV) =             -219.9645

siesta: E_KS - E_eggbox =      -219.9645

siesta: Atomic forces (eV/Ang):
     1    0.000000    0.000000    0.000005
     2   -0.624204   -0.000012   -0.688738
     3    0.624204    0.000012    0.688737
     4    0.312092   -0.540583   -0.688738
     5   -0.312092    0.540583    0.688737
     6    0.312031    0.540453   -0.688813
     7   -0.312031   -0.540453    0.688813
     8    0.624204    0.000012   -0.688738
     9   -0.624204   -0.000012    0.688737
    10   -0.312092    0.540583   -0.688738
    11    0.312092   -0.540583    0.688737
    12   -0.312031   -0.540453   -0.688813
    13    0.312031    0.540453    0.688813
----------------------------------------
   Tot    0.000000   -0.000000   -0.000000
----------------------------------------
   Max    0.688813
   Res    0.515592    sqrt( Sum f_i^2 / 3N )
----------------------------------------
   Max    0.688813    constrained

Stress tensor Voigt[x,y,z,yz,xz,xy] (kbar):    -1073.91    -1073.93      421.16        0.00       -0.00       -0.01
(Free)E + p*V (eV/cell)     -176.2235
Target enthalpy (eV/cell)     -220.0145

siesta: Eigenvalues (eV):
  ik is       eps
   1  1  -21.1796  -15.7911  -14.9523  -12.8285  -12.8234  -12.0974  -11.9172  -11.8915  -11.8915  -11.6907
          -9.4242   -5.5730   -5.5730   -5.1545   -4.9418   -4.9418   -4.0839   -4.0839   -3.9418   -3.9417
   -3.5013   -3.5013   -2.2975    0.8511    0.8511    1.6068    1.6071    1.8262    1.8262    8.6851
    9.1787   11.6676   11.6677   13.1442   13.1443   17.2651   17.2651   20.0860   20.1802   20.1804
   22.1139   22.1139   22.8205   23.1618   24.6473   24.6474   25.0394   31.9350   31.9359   33.2038
   33.2038   33.2247   33.2248   36.0382   38.0383   38.0384   42.6013   46.1832   46.4372   49.5204
   49.5205   50.1143   50.5151   57.6102   57.6104   58.9600   64.8716   64.8716   65.1603   65.1603
   70.3252   70.3254  106.2562
   2  1  -20.9424  -15.5586  -14.7919  -13.4256  -12.9266  -12.7946  -12.5903  -12.3070  -12.2243  -10.5916
          -8.5212   -8.4026   -7.9708   -7.0754   -5.0848   -4.7649   -3.9379   -2.8495   -2.6969   -1.5730
   -0.6781   -0.3402   -0.2269   -0.1155    1.0902    1.3981    1.8532    2.2986    2.5142    4.3612
    5.5498    6.8201    8.3954    8.6438   10.4697   12.9408   16.5326   17.4092   17.6145   18.5174
   19.5327   20.2378   20.6847   22.1150   23.4890   24.5906   25.2201   25.2747   25.2777   25.6481
   28.6947   30.7598   32.2667   34.9719   36.2148   46.5396   50.7614   51.4023   52.2541   52.3866
   52.5114   55.7969   63.3726   66.1936   71.7031   74.6688   75.1410   79.1972   79.3917   80.0424
   83.2256   84.0435  129.8654
   3  1  -20.9424  -15.5586  -14.7919  -13.4256  -12.9266  -12.7946  -12.5903  -12.3070  -12.2243  -10.5916
          -8.5212   -8.4026   -7.9708   -7.0754   -5.0848   -4.7649   -3.9379   -2.8495   -2.6969   -1.5730
   -0.6781   -0.3402   -0.2269   -0.1155    1.0902    1.3981    1.8532    2.2986    2.5142    4.3612
    5.5498    6.8201    8.3954    8.6438   10.4697   12.9408   16.5326   17.4092   17.6145   18.5174
   19.5327   20.2378   20.6847   22.1150   23.4890   24.5906   25.2201   25.2747   25.2777   25.6481
   28.6947   30.7598   32.2667   34.9720   36.2148   46.5395   50.7614   51.4023   52.2541   52.3866
   52.5114   55.7969   63.3725   66.1936   71.7031   74.6688   75.1410   79.1972   79.3917   80.0424
   83.2257   84.0435  129.8654
   4  1  -20.9424  -15.5586  -14.7919  -13.4256  -12.9266  -12.7946  -12.5903  -12.3070  -12.2243  -10.5916
          -8.5211   -8.4026   -7.9707   -7.0754   -5.0848   -4.7649   -3.9379   -2.8494   -2.6970   -1.5730
   -0.6781   -0.3401   -0.2269   -0.1155    1.0901    1.3982    1.8532    2.2986    2.5142    4.3612
    5.5499    6.8202    8.3953    8.6437   10.4697   12.9408   16.5326   17.4092   17.6145   18.5175
   19.5327   20.2378   20.6850   22.1149   23.4889   24.5906   25.2202   25.2746   25.2776   25.6480
   28.6947   30.7598   32.2661   34.9719   36.2149   46.5395   50.7613   51.4023   52.2542   52.3868
   52.5114   55.7971   63.3726   66.1935   71.7032   74.6688   75.1408   79.1971   79.3917   80.0424
   83.2256   84.0434  129.8653
   5  1  -21.3028  -15.7172  -15.2459  -13.3069  -12.0079  -12.0076  -11.9042  -11.8887  -11.8695  -11.8694
          -9.3619   -6.0478   -5.2314   -5.2314   -5.1846   -5.1845   -4.9658   -4.9658   -2.6331   -2.6331
   -1.9731   -1.9730   -1.1460   -1.1459   -0.9819   -0.9819    3.6020    3.6025    3.6029    4.3835
   12.6321   12.7483   17.9040   17.9041   18.1707   18.1707   19.6461   19.6461   21.1472   21.1472
   21.2534   21.2534   21.4767   21.4768   23.7474   23.8427   29.3437   32.3908   32.3916   32.8831
   32.8832   34.0644   34.0645   34.5982   34.8462   40.6511   40.6513   47.6868   47.8413   47.9044
   47.9045   48.0656   48.1016   89.7087   89.7087   89.7566   89.7566   90.2436   90.2436   91.6975
   91.6976   97.6562   97.6849
   6  1  -20.9641  -15.6139  -14.7317  -13.5345  -13.0734  -12.6001  -12.3173  -11.8711  -11.8708  -11.5038
         -10.2061   -7.4235   -7.0883   -6.6869   -5.9974   -4.2790   -4.2460   -2.1506   -1.9688   -1.9118
   -1.4264   -0.7564   -0.1696    0.5667    0.8374    0.8648    1.0023    2.2282    2.8241    2.9240
    8.7338    9.5487   10.2760   11.1446   11.8996   12.9367   14.3191   15.2960   15.8427   16.4930
   17.5669   18.6879   19.1491   22.3733   24.1873   24.7745   25.3718   25.4525   25.4568   25.7144
   26.1585   32.1408   33.4027   37.4955   37.8302   38.9435   39.2065   43.8194   46.5343   49.6296
   49.8791   50.2932   51.3567   53.3960   54.5563   54.5892   54.7995   54.8170   56.4376   61.0002
   63.3458   77.0909   89.5275
   7  1  -20.9641  -15.6139  -14.7317  -13.5345  -13.0734  -12.6001  -12.3173  -11.8711  -11.8708  -11.5038
         -10.2061   -7.4235   -7.0883   -6.6869   -5.9974   -4.2790   -4.2460   -2.1506   -1.9688   -1.9118
   -1.4264   -0.7564   -0.1696    0.5667    0.8374    0.8648    1.0023    2.2282    2.8241    2.9240
    8.7338    9.5487   10.2760   11.1446   11.8996   12.9367   14.3191   15.2960   15.8427   16.4930
   17.5669   18.6879   19.1491   22.3733   24.1873   24.7745   25.3718   25.4525   25.4568   25.7144
   26.1585   32.1408   33.4027   37.4955   37.8302   38.9435   39.2065   43.8194   46.5343   49.6296
   49.8791   50.2931   51.3567   53.3960   54.5563   54.5892   54.7995   54.8170   56.4376   61.0002
   63.3458   77.0909   89.5274
   8  1  -20.9641  -15.6139  -14.7317  -13.5345  -13.0734  -12.6001  -12.3173  -11.8710  -11.8708  -11.5038
         -10.2061   -7.4235   -7.0883   -6.6868   -5.9973   -4.2790   -4.2461   -2.1508   -1.9688   -1.9118
   -1.4264   -0.7564   -0.1696    0.5667    0.8375    0.8648    1.0023    2.2282    2.8240    2.9240
    8.7338    9.5488   10.2760   11.1446   11.8994   12.9367   14.3191   15.2960   15.8427   16.4930
   17.5670   18.6880   19.1491   22.3737   24.1873   24.7746   25.3719   25.4524   25.4567   25.7144
   26.1584   32.1410   33.4021   37.4954   37.8302   38.9435   39.2065   43.8194   46.5343   49.6296
   49.8792   50.2932   51.3567   53.3959   54.5563   54.5894   54.7995   54.8169   56.4376   61.0002
   63.3457   77.0910   89.5274
siesta: Fermi energy =     -11.903313 eV

siesta: Program's energy decomposition (eV):
siesta: Ebs     =      -229.498229
siesta: Eions   =       380.620085
siesta: Ena     =       115.495910
siesta: Ekin    =       174.011512
siesta: Enl     =        22.433731
siesta: Eso     =         0.000000
siesta: Edftu   =         0.000000
siesta: DEna    =         6.867379
siesta: DUscf   =         1.959957
siesta: DUext   =         0.000000
siesta: Exc     =      -154.478710
siesta: eta*DQ  =         0.000000
siesta: Emadel  =         0.000000
siesta: Emeta   =         0.000000
siesta: Emolmec =        -5.634176
siesta: Ekinion =         0.000000
siesta: Eharris =      -219.964481
siesta: Etot    =      -219.964483
siesta: FreeEng =      -220.014471

siesta: Final energy (eV):
siesta:  Band Struct. =    -229.498229
siesta:       Kinetic =     174.011512
siesta:       Hartree =      71.648083
siesta:       Edftu   =       0.000000
siesta:       Eso     =       0.000000
siesta:    Ext. field =       0.000000
siesta:   Exch.-corr. =    -154.478710
siesta:  Ion-electron =    -385.716112
siesta:       Ion-ion =      80.204921
siesta:       Ekinion =       0.000000
siesta:         Total =    -219.964483
siesta:         Fermi =     -11.903313

siesta: Atomic forces (eV/Ang):
siesta:      1    0.000000    0.000000    0.000005
siesta:      2   -0.624204   -0.000012   -0.688738
siesta:      3    0.624204    0.000012    0.688737
siesta:      4    0.312092   -0.540583   -0.688738
siesta:      5   -0.312092    0.540583    0.688737
siesta:      6    0.312031    0.540453   -0.688813
siesta:      7   -0.312031   -0.540453    0.688813
siesta:      8    0.624204    0.000012   -0.688738
siesta:      9   -0.624204   -0.000012    0.688737
siesta:     10   -0.312092    0.540583   -0.688738
siesta:     11    0.312092   -0.540583    0.688737
siesta:     12   -0.312031   -0.540453   -0.688813
siesta:     13    0.312031    0.540453    0.688813
siesta: ----------------------------------------
siesta:    Tot    0.000000   -0.000000   -0.000000

siesta: Stress tensor (static) (eV/Ang**3):
siesta:    -0.670275   -0.000008   -0.000000
siesta:    -0.000008   -0.670285    0.000000
siesta:    -0.000000    0.000000    0.262868

siesta: Cell volume =        121.901969 Ang**3

siesta: Pressure (static):
siesta:                Solid            Molecule  Units
siesta:           0.00391248          0.00327809  Ry/Bohr**3
siesta:           0.35923101          0.30098297  eV/Ang**3
siesta:         575.55775505        482.23308967  kBar
(Free)E+ p_basis*V_orbitals  =        -182.078399
(Free)Eharris+ p_basis*V_orbitals  =        -182.078397

cite: Please see "LiC12_scf.bib" for an exhaustive BiBTeX file.
cite: Please clearly indicate Siesta version in published work: 4.1.5
cite: This calculation has made use of the following articles
cite: which are encouraged to be cited in a published work.
        Primary SIESTA paper
          DOI: www.doi.org/10.1088/0953-8984/14/11/302

>> End of run:   9-NOV-2022   2:44:33
Job completed
