Siesta Version  : 4.1.5
Architecture    : x86_64-unknown-linux-gnu--unknown
Compiler version: GNU Fortran (GCC) 11.3.0
Compiler flags  : mpif90 -g -O2 -fallow-argument-mismatch
PP flags        : -DMPI -DFC_HAVE_FLUSH -DFC_HAVE_ABORT
Libraries       :  -I/global/software/sl-7.x86_64/modules/intel/2020.4.304/mkl/include  /globall/software/sl-7.x86_64/modules/intel/2020.4.304/mkl/lib/intel64/libmkl_scalapack_lp64.a -Wl,--start-group /global/software/sl-7.x86_64/modules/intel/2020.4.304/mkl/lib/intel64/libmkl_intel_lp64.a /global/software/sl-7.x86_64/modules/intel/2020.4.304/mkl/lib/intel64/libmkl_sequential.a /global/software/sl-7.x86_64/modules/intel/2020.4.304/mkl/lib/intel64/libmkl_core.a /global/software/sl-7.x86_64/modules/intel/2020.4.304/mkl/lib/intel64/libmkl_blacs_openmpi_lp64.a -Wl,--end-group -lpthread -lm -ldl
PARALLEL version

* Running on 4 nodes in parallel
>> Start of run:   9-NOV-2022  14:18:04

                           ***********************       
                           *  WELCOME TO SIESTA  *       
                           ***********************       

reinit: Reading from standard input
reinit: Dumped input in INPUT_TMP.51430
************************** Dump of input data file ****************************
SystemName LiC6_scf
SystemLabel LiC6_scf
NumberOfAtoms   7
NumberOfSpecies 2
%block ChemicalSpeciesLabel
1  3   Li-gga
2  6   C-gga
%endblock ChemicalSpeciesLabel
PAO.BasisSize  SZP
PAO.EnergyShift  10 meV
%block PS.Lmax
C-gga   2
Li-gga  2
%endblock PS.Lmax
LatticeConstant 1.000000 Ang
%block LatticeVectors
	4.3161300000	0.0000000000	0.0000000000
	-2.1580650000	3.7378782260	0.0000000000
	0.0000000000	0.0000000000	5.0318096000
%endblock LatticeVectors
AtomicCoordinatesFormat Ang
%block AtomicCoordinatesAndAtomicSpecies
	0.00000000	0.00000000	0.00000000	2
	-0.70288177	1.21742694	2.51590480	1
	-1.45518323	2.52045129	2.51590480	1
	1.45518323	2.52045129	2.51590480	1
	0.70288177	1.21742694	2.51590480	1
	1.40576354	0.00000000	2.51590480	1
	2.91036646	0.00000000	2.51590480	1
%endblock AtomicCoordinatesAndAtomicSpecies
Kgrid_NoTRS  T
%block kgrid_MonkhorstPack
3       0       0       0.0
0       3       0       0.0
0       0       3       0.0
%endblock kgrid_MonkhorstPack
AtomCoorFormatOut Ang
BlockSize 1
#ProcessorY 12
Diag.ParallelOverK   T
Diag.DivideAndConquer F
MeshCutoff   300 Ry
SCF.FreeE.Tolerance 1E-3 eV
SCF.EDM.Tolerance   5E-3 eV
DM.Tolerance  1E-3
DM.Require.Energy.Convergence T
DM.NumberPulay 4
XC.Functional GGA
XC.Authors    PBE
UseSaveData        F
MD.TypeOfRun       CG
MD.VariableCell    F
MD.NumCGsteps      00
MD.MaxCGDispl      0.200000 Bohr
MD.MaxStressTol    1.000000 GPa
MD.MaxForceTol     0.010000 eV/Ang
WriteMDHistory T
WriteCoorStep T
WriteForces T
WriteCoorStep    T
WriteEigenValues T
WriteDM    F
MM.UnitsDistance Ang  # what this program prints out DO NOT CHANGE
MM.UnitsEnergy    eV  # what this program prints out DO NOT CHANGE
MM.Grimme.S6     0.75 # Grimme-paper for PBE (correct for your functional)
MM.Grimme.D     20.   # Grimme-paper (correct for your functional)
%block MM.Potentials
  1   1 Grimme     16.69      1.650 # Li, 10.1002/jcc.20495
  1   2 Grimme     17.40      2.277 # Li / C
  2   2 Grimme     18.14      2.904 # C, 10.1002/jcc.20495
%endblock MM.Potentials
#%block ProjectedDensityOfStates
# -200.0  120.0  0.4  12800  eV
#%endblock ProjectedDensityOfStates
************************** End of input data file *****************************

reinit: -----------------------------------------------------------------------
reinit: System Name: LiC6_scf
reinit: -----------------------------------------------------------------------
reinit: System Label: LiC6_scf
reinit: -----------------------------------------------------------------------
Reading two-body potentials
Grimme - two-body potential between 1 and 1
Grimme - two-body potential between 1 and 2
Grimme - two-body potential between 2 and 2

initatom: Reading input for the pseudopotentials and atomic orbitals ----------
Species number:   1 Atomic number:    3 Label: Li-gga
Species number:   2 Atomic number:    6 Label: C-gga

Ground state valence configuration:   2s01
Reading pseudopotential information in formatted form from Li-gga.psf

Valence configuration for pseudopotential generation:
2s( 1.00) rc: 2.28
2p( 0.00) rc: 2.28
3d( 0.00) rc: 2.59
4f( 0.00) rc: 2.59
Ground state valence configuration:   2s02  2p02
Reading pseudopotential information in formatted form from C-gga.psf

Valence configuration for pseudopotential generation:
2s( 2.00) rc: 1.56
2p( 2.00) rc: 1.56
3d( 0.00) rc: 1.56
4f( 0.00) rc: 1.56
relmxkb: Read Max KB Ang. Momentum=    2 for species C-gga
relmxkb: Read Max KB Ang. Momentum=    2 for species Li-gga

<basis_specs>
===============================================================================
Li-gga               Z=   3    Mass=  6.9400        Charge= 0.17977+309
Lmxo=0 Lmxkb= 2    BasisType=split      Semic=F
L=0  Nsemic=0  Cnfigmx=2
          i=1  nzeta=1  polorb=1  (2s)
            splnorm:   0.15000    
               vcte:    0.0000    
               rinn:    0.0000    
               qcoe:    0.0000    
               qyuk:    0.0000    
               qwid:   0.10000E-01
                rcs:    0.0000    
            lambdas:    1.0000    
-------------------------------------------------------------------------------
L=0  Nkbl=1  erefs: 0.17977+309
L=1  Nkbl=1  erefs: 0.17977+309
L=2  Nkbl=1  erefs: 0.17977+309
===============================================================================
</basis_specs>

atom: Called for Li-gga                (Z =   3)

read_vps: Pseudopotential generation method:
read_vps: ATM 3.2.2 Troullier-Martins                       
Valence charge for ps generation:    1.00000

read_vps: Pseudopotential includes a core correction:
read_vps: Pseudo-core for xc-correction

xc_check: Exchange-correlation functional:
xc_check: GGA Perdew, Burke & Ernzerhof 1996
V l=0 = -2*Zval/r beyond r=  2.2278
V l=1 = -2*Zval/r beyond r=  2.2278
V l=2 = -2*Zval/r beyond r=  2.5245
All V_l potentials equal beyond r=  2.4622
This should be close to max(r_c) in ps generation
All pots = -2*Zval/r beyond r=  2.5245

VLOCAL1: 99.0% of the norm of Vloc inside      7.160 Ry
VLOCAL1: 99.9% of the norm of Vloc inside     16.318 Ry
atom: Maximum radius for 4*pi*r*r*local-pseudopot. charge    2.86079
atom: Maximum radius for r*vlocal+2*Zval:    2.43160
GHOST: No ghost state for L =  0
GHOST: No ghost state for L =  1
GHOST: No ghost state for L =  2

KBgen: Kleinman-Bylander projectors: 
   l= 0   rc=  2.654023   el= -0.211234   Ekb=  1.742119   kbcos=  0.228463
   l= 1   rc=  2.721230   el= -0.080095   Ekb= -1.122375   kbcos= -0.147941
   l= 2   rc=  2.825246   el=  0.002001   Ekb= -0.207076   kbcos= -0.031965

KBgen: Total number of Kleinman-Bylander projectors:    9
atom: -------------------------------------------------------------------------

atom: SANKEY-TYPE ORBITALS:

SPLIT: Orbitals with angular momentum L= 0

SPLIT: Basis orbitals for state 2s

SPLIT: PAO cut-off radius determined from an
SPLIT: energy shift=  0.000735 Ry

   izeta = 1
                 lambda =    1.000000
                     rc =   11.897381
                 energy =   -0.210580
                kinetic =    0.143382
    potential(screened) =   -0.353962
       potential(ionic) =   -0.533453

POLgen: Perturbative polarization orbital with L=  1

POLgen: Polarization orbital for state 2s

   izeta = 1
                     rc =   11.897381
                 energy =   -0.027011
                kinetic =    0.282985
    potential(screened) =   -0.309997
       potential(ionic) =   -0.490997
atom: Total number of Sankey-type orbitals:  4

atm_pop: Valence configuration (for local Pseudopot. screening):
 2s( 1.00)                                                            
Vna: chval, zval:    1.00000   1.00000

Vna:  Cut-off radius for the neutral-atom potential:  11.897381
comcore: Pseudo-core radius Rcore=  3.450946

atom: _________________________________________________________________________

<basis_specs>
===============================================================================
C-gga                Z=   6    Mass=  12.010        Charge= 0.17977+309
Lmxo=1 Lmxkb= 2    BasisType=split      Semic=F
L=0  Nsemic=0  Cnfigmx=2
          i=1  nzeta=1  polorb=0  (2s)
            splnorm:   0.15000    
               vcte:    0.0000    
               rinn:    0.0000    
               qcoe:    0.0000    
               qyuk:    0.0000    
               qwid:   0.10000E-01
                rcs:    0.0000    
            lambdas:    1.0000    
L=1  Nsemic=0  Cnfigmx=2
          i=1  nzeta=1  polorb=1  (2p)
            splnorm:   0.15000    
               vcte:    0.0000    
               rinn:    0.0000    
               qcoe:    0.0000    
               qyuk:    0.0000    
               qwid:   0.10000E-01
                rcs:    0.0000    
            lambdas:    1.0000    
-------------------------------------------------------------------------------
L=0  Nkbl=1  erefs: 0.17977+309
L=1  Nkbl=1  erefs: 0.17977+309
L=2  Nkbl=1  erefs: 0.17977+309
===============================================================================
</basis_specs>

atom: Called for C-gga                 (Z =   6)

read_vps: Pseudopotential generation method:
read_vps: ATM 3.2.2 Troullier-Martins                       
Valence charge for ps generation:    4.00000

xc_check: Exchange-correlation functional:
xc_check: GGA Perdew, Burke & Ernzerhof 1996
V l=0 = -2*Zval/r beyond r=  1.5227
V l=1 = -2*Zval/r beyond r=  1.5227
V l=2 = -2*Zval/r beyond r=  1.5227
All V_l potentials equal beyond r=  1.4851
This should be close to max(r_c) in ps generation
All pots = -2*Zval/r beyond r=  1.5227

VLOCAL1: 99.0% of the norm of Vloc inside     19.682 Ry
VLOCAL1: 99.9% of the norm of Vloc inside     44.856 Ry
atom: Maximum radius for 4*pi*r*r*local-pseudopot. charge    1.79142
atom: Maximum radius for r*vlocal+2*Zval:    1.54183
GHOST: No ghost state for L =  0
GHOST: No ghost state for L =  1
GHOST: No ghost state for L =  2

KBgen: Kleinman-Bylander projectors: 
   l= 0   rc=  1.661951   el= -1.010689   Ekb=  5.289847   kbcos=  0.316429
   l= 1   rc=  1.661951   el= -0.388490   Ekb= -4.102504   kbcos= -0.351025
   l= 2   rc=  1.747182   el=  0.001971   Ekb= -1.006005   kbcos= -0.008530

KBgen: Total number of Kleinman-Bylander projectors:    9
atom: -------------------------------------------------------------------------

atom: SANKEY-TYPE ORBITALS:

SPLIT: Orbitals with angular momentum L= 0

SPLIT: Basis orbitals for state 2s

SPLIT: PAO cut-off radius determined from an
SPLIT: energy shift=  0.000735 Ry

   izeta = 1
                 lambda =    1.000000
                     rc =    5.948690
                 energy =   -1.010099
                kinetic =    0.827121
    potential(screened) =   -1.837220
       potential(ionic) =   -5.392783

SPLIT: Orbitals with angular momentum L= 1

SPLIT: Basis orbitals for state 2p

SPLIT: PAO cut-off radius determined from an
SPLIT: energy shift=  0.000735 Ry

   izeta = 1
                 lambda =    1.000000
                     rc =    7.638387
                 energy =   -0.387843
                kinetic =    2.314739
    potential(screened) =   -2.702582
       potential(ionic) =   -6.092371

POLgen: Perturbative polarization orbital with L=  2

POLgen: Polarization orbital for state 2p

   izeta = 1
                     rc =    7.638387
                 energy =    0.921402
                kinetic =    1.955040
    potential(screened) =   -1.033637
       potential(ionic) =   -3.679558
atom: Total number of Sankey-type orbitals:  9

atm_pop: Valence configuration (for local Pseudopot. screening):
 2s( 2.00)                                                            
 2p( 2.00)                                                            
Vna: chval, zval:    4.00000   4.00000

Vna:  Cut-off radius for the neutral-atom potential:   7.638387

atom: _________________________________________________________________________

prinput: Basis input ----------------------------------------------------------

PAO.BasisType split     

%block ChemicalSpeciesLabel
    1    3 Li-gga                  # Species index, atomic number, species label
    2    6 C-gga                   # Species index, atomic number, species label
%endblock ChemicalSpeciesLabel

%block PAO.Basis                 # Define Basis set
Li-gga                1                    # Species label, number of l-shells
 n=2   0   1 P   1                   # n, l, Nzeta, Polarization, NzetaPol
  11.897   
   1.000   
C-gga                 2                    # Species label, number of l-shells
 n=2   0   1                         # n, l, Nzeta 
   5.949   
   1.000   
 n=2   1   1 P   1                   # n, l, Nzeta, Polarization, NzetaPol
   7.638   
   1.000   
%endblock PAO.Basis

prinput: ----------------------------------------------------------------------

coor:   Atomic-coordinates input format  =     Cartesian coordinates
coor:                                          (in Angstroms)

siesta: Atomic coordinates (Bohr) and species
siesta:      0.00000   0.00000   0.00000  2        1
siesta:     -1.32825   2.30060   4.75437  1        2
siesta:     -2.74990   4.76296   4.75437  1        3
siesta:      2.74990   4.76296   4.75437  1        4
siesta:      1.32825   2.30060   4.75437  1        5
siesta:      2.65651   0.00000   4.75437  1        6
siesta:      5.49980   0.00000   4.75437  1        7

siesta: System type = bulk      

initatomlists: Number of atoms, orbitals, and projectors:      7    33    63

siesta: ******************** Simulation parameters ****************************
siesta:
siesta: The following are some of the parameters of the simulation.
siesta: A complete list of the parameters used, including default values,
siesta: can be found in file out.fdf
siesta:
redata: Spin configuration                          = none
redata: Number of spin components                   = 1
redata: Time-Reversal Symmetry                      = T
redata: Spin spiral                                 = F
redata: Long output                                 =   F
redata: Number of Atomic Species                    =        2
redata: Charge density info will appear in .RHO file
redata: Write Mulliken Pop.                         = NO
redata: Matel table size (NRTAB)                    =     1024
redata: Mesh Cutoff                                 =   300.0000 Ry
redata: Net charge of the system                    =     0.0000 |e|
redata: Min. number of SCF Iter                     =        0
redata: Max. number of SCF Iter                     =     1000
redata: SCF convergence failure will abort job
redata: SCF mix quantity                            = Hamiltonian
redata: Mix DM or H after convergence               =   F
redata: Recompute H after scf cycle                 =   F
redata: Mix DM in first SCF step                    =   T
redata: Write Pulay info on disk                    =   F
redata: New DM Occupancy tolerance                  = 0.000000000001
redata: No kicks to SCF
redata: DM Mixing Weight for Kicks                  =     0.5000
redata: Require Harris convergence for SCF          =   F
redata: Harris energy tolerance for SCF             =     0.000100 eV
redata: Require DM convergence for SCF              =   T
redata: DM tolerance for SCF                        =     0.001000
redata: Require EDM convergence for SCF             =   F
redata: EDM tolerance for SCF                       =     0.005000 eV
redata: Require H convergence for SCF               =   T
redata: Hamiltonian tolerance for SCF               =     0.001000 eV
redata: Require (free) Energy convergence for SCF   =   T
redata: (free) Energy tolerance for SCF             =     0.001000 eV
redata: Using Saved Data (generic)                  =   F
redata: Use continuation files for DM               =   F
redata: Neglect nonoverlap interactions             =   F
redata: Method of Calculation                       = Diagonalization
redata: Electronic Temperature                      =   299.9869 K
redata: Fix the spin of the system                  =   F
redata: Dynamics option                             = Single-point calculation
mix.SCF: Pulay mixing                            = Pulay
mix.SCF:    Variant                              = stable
mix.SCF:    History steps                        = 4
mix.SCF:    Linear mixing weight                 =     0.250000
mix.SCF:    Mixing weight                        =     0.250000
mix.SCF:    SVD condition                        = 0.1000E-07
redata: ***********************************************************************

%block SCF.Mixers
  Pulay
%endblock SCF.Mixers

%block SCF.Mixer.Pulay
  # Mixing method
  method pulay
  variant stable

  # Mixing options
  weight 0.2500
  weight.linear 0.2500
  history 4
%endblock SCF.Mixer.Pulay

DM_history_depth set to one: no extrapolation allowed by default for geometry relaxation
Size of DM history Fstack: 1
Total number of electrons:    10.000000
Total ionic charge:    10.000000

* ProcessorY, Blocksize:    2   1


* Orbital distribution balance (max,min):     9     8

 Kpoints in:           18 . Kpoints trimmed:           14

siesta: k-grid: Number of k-points =    14
siesta: k-grid: Cutoff (effective) =     6.474 Ang
siesta: k-grid: Supercell and displacements
siesta: k-grid:    3   0   0      0.000
siesta: k-grid:    0   3   0      0.000
siesta: k-grid:    0   0   3      0.000

diag: Algorithm                                     = Expert
diag: Parallel over k                               =   T
diag: Use parallel 2D distribution                  =   T
diag: Parallel block-size                           = 1
diag: Parallel distribution                         =     2 x     2
diag: Used triangular part                          = Lower
diag: Absolute tolerance                            =  0.100E-15
diag: Orthogonalization factor                      =  0.100E-05
diag: Memory factor                                 =  1.0000

superc: Internal auxiliary supercell:     9 x     9 x     5  =     405
superc: Number of atoms, orbitals, and projectors:   2835  13365  25515


ts: **************************************************************
ts: Save H and S matrices                           =    F
ts: Save DM and EDM matrices                        =    F
ts: Only save the overlap matrix S                  =    F
ts: **************************************************************

************************ Begin: TS CHECKS AND WARNINGS ************************
************************ End: TS CHECKS AND WARNINGS **************************


                     ====================================
                        Single-point calculation
                     ====================================

outcoor: Atomic coordinates (Ang):                          
    0.00000000    0.00000000    0.00000000   2       1  C-gga
   -0.70288177    1.21742694    2.51590480   1       2  Li-gga
   -1.45518323    2.52045129    2.51590480   1       3  Li-gga
    1.45518323    2.52045129    2.51590480   1       4  Li-gga
    0.70288177    1.21742694    2.51590480   1       5  Li-gga
    1.40576354    0.00000000    2.51590480   1       6  Li-gga
    2.91036646    0.00000000    2.51590480   1       7  Li-gga

superc: Internal auxiliary supercell:     9 x     9 x     5  =     405
superc: Number of atoms, orbitals, and projectors:   2835  13365  25515

outcell: Unit cell vectors (Ang):
        4.316130    0.000000    0.000000
       -2.158065    3.737878    0.000000
        0.000000    0.000000    5.031810

outcell: Cell vector modules (Ang)   :    4.316130    4.316130    5.031810
outcell: Cell angles (23,13,12) (deg):     90.0000     90.0000    120.0000
outcell: Cell volume (Ang**3)        :     81.1790
<dSpData1D:S at geom step 0
  <sparsity:sparsity for geom step 0
    nrows_g=33 nrows=9 sparsity=32.1405 nnzs=35001, refcount: 7>
  <dData1D:(new from dSpData1D) n=35001, refcount: 1>
refcount: 1>
new_DM -- step:     1
Initializing Density Matrix...
DM filled with atomic data:
<dSpData2D:DM initialized from atoms
  <sparsity:sparsity for geom step 0
    nrows_g=33 nrows=9 sparsity=32.1405 nnzs=35001, refcount: 8>
  <dData2D:DM n=35001 m=1, refcount: 1>
refcount: 1>
No. of atoms with KB's overlaping orbs in proc 0. Max # of overlaps:     268     684
New grid distribution:   1
           1       1:   20    1:   10    1:   14
           2       1:   20    1:   10   15:   27
           3       1:   20   11:   20    1:   14
           4       1:   20   11:   20   15:   27

InitMesh: MESH =    40 x    40 x    54 =       86400
InitMesh: (bp) =    20 x    20 x    27 =       10800
InitMesh: Mesh cutoff (required, used) =   300.000   316.498 Ry
ExtMesh (bp) on 0 =   156 x   146 x   150 =     3416400
New grid distribution:   2
           1       1:   20    1:   10    1:   14
           2       1:   20    1:   10   15:   27
           3       1:   20   11:   20    1:   14
           4       1:   20   11:   20   15:   27
New grid distribution:   3
           1       1:   20    1:   10    1:   14
           2       1:   20    1:   10   15:   27
           3       1:   20   11:   20    1:   14
           4       1:   20   11:   20   15:   27
Setting up quadratic distribution...
ExtMesh (bp) on 0 =   156 x   146 x   150 =     3416400
PhiOnMesh: Number of (b)points on node 0 =                 2800
PhiOnMesh: nlist on node 0 =               983216

stepf: Fermi-Dirac step function

siesta: Program's energy decomposition (eV):
siesta: Ebs     =      -141.259145
siesta: Eions   =       321.344870
siesta: Ena     =        94.697672
siesta: Ekin    =        93.138219
siesta: Enl     =        23.994925
siesta: Eso     =         0.000000
siesta: Edftu   =         0.000000
siesta: DEna    =        15.895101
siesta: DUscf   =         8.093011
siesta: DUext   =         0.000000
siesta: Exc     =       -89.754898
siesta: eta*DQ  =         0.000000
siesta: Emadel  =         0.000000
siesta: Emeta   =         0.000000
siesta: Emolmec =        -2.714180
siesta: Ekinion =         0.000000
siesta: Eharris =      -164.380165
siesta: Etot    =      -177.995021
siesta: FreeEng =      -178.003640

        iscf     Eharris(eV)        E_KS(eV)     FreeEng(eV)     dDmax    Ef(eV) dHmax(eV)
   scf:    1     -164.380165     -177.995021     -178.003640  1.438197 -9.568416  8.355281
timer: Routine,Calls,Time,% = IterSCF        1       8.000  57.80
   scf:    2     -183.498099     -182.216548     -182.218039  0.310356-10.288745  0.389865
   scf:    3     -182.211550     -182.224381     -182.231105  0.032776-10.303800  0.368054
   scf:    4     -182.170237     -182.213029     -182.216188  0.040971-10.228186  0.527545
   scf:    5     -182.187812     -182.221183     -182.232283  0.047937-10.266125  0.238879
   scf:    6     -182.220065     -182.220629     -182.231855  0.001848-10.264514  0.241644
   scf:    7     -182.231475     -182.229624     -182.237544  0.021529-10.258818  0.046834
   scf:    8     -182.227945     -182.228964     -182.237693  0.004742-10.262228  0.022571
   scf:    9     -182.229457     -182.229225     -182.237734  0.001202-10.261429  0.003188
   scf:   10     -182.229273     -182.229249     -182.237735  0.000320-10.261339  0.000892

SCF Convergence by FreeE+DM+H criterion
|FreeE_i-FreeE_(i-1)| (eV) <     0.00100000
max |DM_out - DM_in|         :     0.0003201034
max |H_out - H_in|      (eV) :     0.0008920883
SCF cycle converged after 10 iterations

Using DM_out to compute the final energy and forces
No. of atoms with KB's overlaping orbs in proc 0. Max # of overlaps:     268     684

MM-Stress (kbar):       -6.28       -6.28       34.38        0.00       -0.00        0.00

siesta: E_KS(eV) =             -182.2292

siesta: E_KS - E_eggbox =      -182.2292

siesta: Atomic forces (eV/Ang):
     1   -0.000000   -0.000000   -0.000000
     2   -0.134153    0.232329    0.000000
     3    0.134153   -0.232329    0.000000
     4   -0.134174   -0.232396    0.000000
     5    0.134174    0.232396    0.000000
     6    0.268279   -0.000015    0.000000
     7   -0.268279    0.000015    0.000000
----------------------------------------
   Tot   -0.000000   -0.000000    0.000000
----------------------------------------
   Max    0.268279
   Res    0.143413    sqrt( Sum f_i^2 / 3N )
----------------------------------------
   Max    0.268279    constrained

Stress tensor Voigt[x,y,z,yz,xz,xy] (kbar):     -804.85     -804.86      307.69       -0.00       -0.00       -0.01
(Free)E + p*V (eV/cell)     -160.2478
Target enthalpy (eV/cell)     -182.2377

siesta: Eigenvalues (eV):
  ik is       eps
   1  1  -18.9406  -11.9878  -11.9496  -11.9496  -10.2841   -9.2599   -9.2598   -7.3879   -7.3879   -3.2249
          -2.9554   -1.1869   -1.1868    5.7655    5.7655    6.4797    7.3344    7.3344   10.1114   11.6748
   11.6750   14.2786   18.2049   18.5440   18.5440   22.2320   22.2321   23.8354   23.8354   24.0877
   41.1198   41.1199   44.6714
   2  1  -19.0285  -12.3705  -12.2539  -10.8611  -10.5302  -10.1963   -9.2863   -7.8090   -4.6265   -3.8902
          -3.4941   -2.1541   -0.2414    0.0967    0.9352    5.5175    7.4041    7.4173    7.6070   11.3447
   13.2039   16.8343   18.6102   19.1167   19.8213   23.4750   23.9558   26.2971   27.3721   32.6005
   48.6263   52.9332   54.7587
   3  1  -19.0285  -12.3705  -12.2538  -10.8611  -10.5302  -10.1964   -9.2862   -7.8090   -4.6265   -3.8903
          -3.4941   -2.1540   -0.2414    0.0967    0.9352    5.5175    7.4042    7.4173    7.6069   11.3447
   13.2038   16.8343   18.6100   19.1167   19.8213   23.4751   23.9558   26.2970   27.3720   32.6005
   48.6262   52.9332   54.7587
   4  1  -19.0285  -12.3705  -12.2539  -10.8611  -10.5302  -10.1963   -9.2863   -7.8090   -4.6265   -3.8902
          -3.4941   -2.1541   -0.2414    0.0967    0.9352    5.5175    7.4041    7.4173    7.6070   11.3447
   13.2039   16.8343   18.6102   19.1167   19.8213   23.4750   23.9558   26.2971   27.3721   32.6005
   48.6263   52.9332   54.7587
   5  1  -19.1595  -12.9106  -11.9018  -10.7094  -10.3129   -9.9917   -9.9915   -6.6936   -3.9490   -3.9490
          -2.0250   -2.0249   -1.4518   -1.4518   -0.2144   -0.2144    6.7677    9.4426    9.4427   17.2512
   17.2512   19.5205   19.5206   25.3013   25.4822   25.4822   27.0488   27.0491   35.6944   35.6945
   45.4966   47.6553   54.6018
   6  1  -18.8682  -13.2487  -11.6034  -11.6034  -10.5106  -10.5106   -7.9459   -5.9552   -5.9551   -4.2541
          -2.6874   -2.1611   -2.1611    4.1728    4.1728    4.9326    4.9326    5.2310    5.2803   12.1793
   12.1794   16.7576   17.6245   19.2222   19.2225   21.6178   21.6179   23.3159   29.9829   29.9829
   42.3609   42.3610   46.0530
   7  1  -18.9563  -13.4783  -11.9402  -10.8221  -10.6236  -10.1622   -8.2392   -6.7492   -5.0270   -4.5503
          -2.6456   -2.0257   -0.9915   -0.4619    0.5078    5.2048    6.4281    7.3285   10.6366   12.5791
   13.9775   14.1312   17.0009   18.1016   21.9959   24.4316   26.1226   27.3694   29.4646   33.0871
   47.7834   51.4502   54.5494
   8  1  -18.9563  -13.4783  -11.9402  -10.8221  -10.6235  -10.1623   -8.2392   -6.7491   -5.0270   -4.5503
          -2.6456   -2.0258   -0.9915   -0.4619    0.5078    5.2048    6.4281    7.3285   10.6366   12.5792
   13.9776   14.1311   17.0010   18.1015   21.9960   24.4316   26.1226   27.3695   29.4645   33.0871
   47.7833   51.4502   54.5494
   9  1  -18.9563  -13.4783  -11.9402  -10.8221  -10.6236  -10.1622   -8.2392   -6.7492   -5.0270   -4.5503
          -2.6456   -2.0257   -0.9915   -0.4619    0.5078    5.2048    6.4281    7.3285   10.6366   12.5791
   13.9775   14.1312   17.0009   18.1016   21.9959   24.4316   26.1226   27.3694   29.4646   33.0871
   47.7834   51.4502   54.5494
  10  1  -19.1148  -13.5598  -11.5848  -10.0888   -9.9510   -9.9509   -9.0597   -7.0557   -3.5027   -3.5027
          -3.1483   -3.1483   -0.9169   -0.9169    1.3249    1.3250    6.2243   15.1552   15.1554   15.7363
   15.7363   20.9792   20.9792   24.1994   24.1996   25.5210   28.8426   28.8426   38.5904   39.3255
   39.3256   47.0554   49.3009
  11  1  -18.9563  -13.4783  -11.9402  -10.8221  -10.6236  -10.1622   -8.2392   -6.7492   -5.0270   -4.5503
          -2.6456   -2.0257   -0.9915   -0.4619    0.5078    5.2048    6.4281    7.3285   10.6366   12.5791
   13.9775   14.1312   17.0009   18.1016   21.9959   24.4316   26.1226   27.3694   29.4646   33.0871
   47.7834   51.4502   54.5494
  12  1  -18.9563  -13.4783  -11.9402  -10.8221  -10.6235  -10.1623   -8.2392   -6.7491   -5.0270   -4.5503
          -2.6456   -2.0258   -0.9915   -0.4619    0.5078    5.2048    6.4281    7.3285   10.6366   12.5792
   13.9776   14.1311   17.0010   18.1015   21.9960   24.4316   26.1226   27.3695   29.4645   33.0871
   47.7833   51.4502   54.5494
  13  1  -18.9563  -13.4783  -11.9402  -10.8221  -10.6236  -10.1622   -8.2392   -6.7492   -5.0270   -4.5503
          -2.6456   -2.0257   -0.9915   -0.4619    0.5078    5.2048    6.4281    7.3285   10.6366   12.5791
   13.9775   14.1312   17.0009   18.1016   21.9959   24.4316   26.1226   27.3694   29.4646   33.0871
   47.7834   51.4502   54.5494
  14  1  -18.8682  -13.2487  -11.6034  -11.6034  -10.5106  -10.5106   -7.9459   -5.9552   -5.9551   -4.2541
          -2.6874   -2.1611   -2.1611    4.1728    4.1728    4.9326    4.9326    5.2310    5.2803   12.1793
   12.1794   16.7576   17.6245   19.2222   19.2225   21.6178   21.6179   23.3159   29.9829   29.9829
   42.3609   42.3610   46.0530
siesta: Fermi energy =     -10.261339 eV

siesta: Program's energy decomposition (eV):
siesta: Ebs     =      -131.046964
siesta: Eions   =       321.344870
siesta: Ena     =        94.697672
siesta: Ekin    =       115.432013
siesta: Enl     =        16.670163
siesta: Eso     =         0.000000
siesta: Edftu   =         0.000000
siesta: DEna    =         7.058712
siesta: DUscf   =         1.394177
siesta: DUext   =         0.000000
siesta: Exc     =       -93.422936
siesta: eta*DQ  =         0.000000
siesta: Emadel  =         0.000000
siesta: Emeta   =         0.000000
siesta: Emolmec =        -2.714180
siesta: Ekinion =         0.000000
siesta: Eharris =      -182.229273
siesta: Etot    =      -182.229249
siesta: FreeEng =      -182.237735

siesta: Final energy (eV):
siesta:  Band Struct. =    -131.046964
siesta:       Kinetic =     115.432013
siesta:       Hartree =      34.695477
siesta:       Edftu   =       0.000000
siesta:       Eso     =       0.000000
siesta:    Ext. field =       0.000000
siesta:   Exch.-corr. =     -93.422936
siesta:  Ion-electron =    -214.404430
siesta:       Ion-ion =     -21.815192
siesta:       Ekinion =       0.000000
siesta:         Total =    -182.229249
siesta:         Fermi =     -10.261339

siesta: Atomic forces (eV/Ang):
siesta:      1   -0.000000   -0.000000   -0.000000
siesta:      2   -0.134153    0.232329    0.000000
siesta:      3    0.134153   -0.232329    0.000000
siesta:      4   -0.134174   -0.232396    0.000000
siesta:      5    0.134174    0.232396    0.000000
siesta:      6    0.268279   -0.000015    0.000000
siesta:      7   -0.268279    0.000015    0.000000
siesta: ----------------------------------------
siesta:    Tot   -0.000000   -0.000000    0.000000

siesta: Stress tensor (static) (eV/Ang**3):
siesta:    -0.502343   -0.000003    0.000000
siesta:    -0.000003   -0.502347   -0.000000
siesta:    -0.000000   -0.000000    0.192045

siesta: Cell volume =         81.179031 Ang**3

siesta: Pressure (static):
siesta:                Solid            Molecule  Units
siesta:           0.00295024          0.00300441  Ry/Bohr**3
siesta:           0.27088144          0.27585425  eV/Ang**3
siesta:         434.00460304        441.97201334  kBar
(Free)E+ p_basis*V_orbitals  =        -165.725810
(Free)Eharris+ p_basis*V_orbitals  =        -165.725834

cite: Please see "LiC6_scf.bib" for an exhaustive BiBTeX file.
cite: Please clearly indicate Siesta version in published work: 4.1.5
cite: This calculation has made use of the following articles
cite: which are encouraged to be cited in a published work.
        Primary SIESTA paper
          DOI: www.doi.org/10.1088/0953-8984/14/11/302

>> End of run:   9-NOV-2022  14:19:16
Job completed
