Siesta Version  : 4.1.5
Architecture    : x86_64-unknown-linux-gnu--unknown
Compiler version: GNU Fortran (GCC) 11.3.0
Compiler flags  : mpif90 -g -O2 -fallow-argument-mismatch
PP flags        : -DMPI -DFC_HAVE_FLUSH -DFC_HAVE_ABORT
Libraries       :  -I/global/software/sl-7.x86_64/modules/intel/2020.4.304/mkl/include  /globall/software/sl-7.x86_64/modules/intel/2020.4.304/mkl/lib/intel64/libmkl_scalapack_lp64.a -Wl,--start-group /global/software/sl-7.x86_64/modules/intel/2020.4.304/mkl/lib/intel64/libmkl_intel_lp64.a /global/software/sl-7.x86_64/modules/intel/2020.4.304/mkl/lib/intel64/libmkl_sequential.a /global/software/sl-7.x86_64/modules/intel/2020.4.304/mkl/lib/intel64/libmkl_core.a /global/software/sl-7.x86_64/modules/intel/2020.4.304/mkl/lib/intel64/libmkl_blacs_openmpi_lp64.a -Wl,--end-group -lpthread -lm -ldl
PARALLEL version

* Running on 4 nodes in parallel
>> Start of run:   9-NOV-2022  13:36:32

                           ***********************       
                           *  WELCOME TO SIESTA  *       
                           ***********************       

reinit: Reading from standard input
reinit: Dumped input in INPUT_TMP.59646
************************** Dump of input data file ****************************
SystemName LiC6_scf
SystemLabel LiC6_scf
NumberOfAtoms   7
NumberOfSpecies 2
%block ChemicalSpeciesLabel
1  3   Li-gga
2  6   C-gga
%endblock ChemicalSpeciesLabel
PAO.BasisSize  SZP
PAO.EnergyShift  10 meV
%block PS.Lmax
C-gga   2
Li-gga  2
%endblock PS.Lmax
LatticeConstant 1.000000 Ang
%block LatticeVectors
	4.3161300000	0.0000000000	0.0000000000
	-2.1580650000	3.7378782260	0.0000000000
	0.0000000000	0.0000000000	1.9979244000
%endblock LatticeVectors
AtomicCoordinatesFormat Ang
%block AtomicCoordinatesAndAtomicSpecies
	0.00000000	0.00000000	0.00000000	2
	-0.70288177	1.21742694	0.99896220	1
	-1.45518323	2.52045129	0.99896220	1
	1.45518323	2.52045129	0.99896220	1
	0.70288177	1.21742694	0.99896220	1
	1.40576354	0.00000000	0.99896220	1
	2.91036646	0.00000000	0.99896220	1
%endblock AtomicCoordinatesAndAtomicSpecies
Kgrid_NoTRS  T
%block kgrid_MonkhorstPack
3       0       0       0.0
0       3       0       0.0
0       0       3       0.0
%endblock kgrid_MonkhorstPack
AtomCoorFormatOut Ang
BlockSize 1
#ProcessorY 12
Diag.ParallelOverK   T
Diag.DivideAndConquer F
MeshCutoff   300 Ry
SCF.FreeE.Tolerance 1E-3 eV
SCF.EDM.Tolerance   5E-3 eV
DM.Tolerance  1E-3
DM.Require.Energy.Convergence T
DM.NumberPulay 4
XC.Functional GGA
XC.Authors    PBE
UseSaveData        F
MD.TypeOfRun       CG
MD.VariableCell    F
MD.NumCGsteps      00
MD.MaxCGDispl      0.200000 Bohr
MD.MaxStressTol    1.000000 GPa
MD.MaxForceTol     0.010000 eV/Ang
WriteMDHistory T
WriteCoorStep T
WriteForces T
WriteCoorStep    T
WriteEigenValues T
WriteDM    F
MM.UnitsDistance Ang  # what this program prints out DO NOT CHANGE
MM.UnitsEnergy    eV  # what this program prints out DO NOT CHANGE
MM.Grimme.S6     0.75 # Grimme-paper for PBE (correct for your functional)
MM.Grimme.D     20.   # Grimme-paper (correct for your functional)
%block MM.Potentials
  1   1 Grimme     16.69      1.650 # Li, 10.1002/jcc.20495
  1   2 Grimme     17.40      2.277 # Li / C
  2   2 Grimme     18.14      2.904 # C, 10.1002/jcc.20495
%endblock MM.Potentials
#%block ProjectedDensityOfStates
# -200.0  120.0  0.4  12800  eV
#%endblock ProjectedDensityOfStates
************************** End of input data file *****************************

reinit: -----------------------------------------------------------------------
reinit: System Name: LiC6_scf
reinit: -----------------------------------------------------------------------
reinit: System Label: LiC6_scf
reinit: -----------------------------------------------------------------------
Reading two-body potentials
Grimme - two-body potential between 1 and 1
Grimme - two-body potential between 1 and 2
Grimme - two-body potential between 2 and 2

initatom: Reading input for the pseudopotentials and atomic orbitals ----------
Species number:   1 Atomic number:    3 Label: Li-gga
Species number:   2 Atomic number:    6 Label: C-gga

Ground state valence configuration:   2s01
Reading pseudopotential information in formatted form from Li-gga.psf

Valence configuration for pseudopotential generation:
2s( 1.00) rc: 2.28
2p( 0.00) rc: 2.28
3d( 0.00) rc: 2.59
4f( 0.00) rc: 2.59
Ground state valence configuration:   2s02  2p02
Reading pseudopotential information in formatted form from C-gga.psf

Valence configuration for pseudopotential generation:
2s( 2.00) rc: 1.56
2p( 2.00) rc: 1.56
3d( 0.00) rc: 1.56
4f( 0.00) rc: 1.56
relmxkb: Read Max KB Ang. Momentum=    2 for species C-gga
relmxkb: Read Max KB Ang. Momentum=    2 for species Li-gga

<basis_specs>
===============================================================================
Li-gga               Z=   3    Mass=  6.9400        Charge= 0.17977+309
Lmxo=0 Lmxkb= 2    BasisType=split      Semic=F
L=0  Nsemic=0  Cnfigmx=2
          i=1  nzeta=1  polorb=1  (2s)
            splnorm:   0.15000    
               vcte:    0.0000    
               rinn:    0.0000    
               qcoe:    0.0000    
               qyuk:    0.0000    
               qwid:   0.10000E-01
                rcs:    0.0000    
            lambdas:    1.0000    
-------------------------------------------------------------------------------
L=0  Nkbl=1  erefs: 0.17977+309
L=1  Nkbl=1  erefs: 0.17977+309
L=2  Nkbl=1  erefs: 0.17977+309
===============================================================================
</basis_specs>

atom: Called for Li-gga                (Z =   3)

read_vps: Pseudopotential generation method:
read_vps: ATM 3.2.2 Troullier-Martins                       
Valence charge for ps generation:    1.00000

read_vps: Pseudopotential includes a core correction:
read_vps: Pseudo-core for xc-correction

xc_check: Exchange-correlation functional:
xc_check: GGA Perdew, Burke & Ernzerhof 1996
V l=0 = -2*Zval/r beyond r=  2.2278
V l=1 = -2*Zval/r beyond r=  2.2278
V l=2 = -2*Zval/r beyond r=  2.5245
All V_l potentials equal beyond r=  2.4622
This should be close to max(r_c) in ps generation
All pots = -2*Zval/r beyond r=  2.5245

VLOCAL1: 99.0% of the norm of Vloc inside      7.160 Ry
VLOCAL1: 99.9% of the norm of Vloc inside     16.318 Ry
atom: Maximum radius for 4*pi*r*r*local-pseudopot. charge    2.86079
atom: Maximum radius for r*vlocal+2*Zval:    2.43160
GHOST: No ghost state for L =  0
GHOST: No ghost state for L =  1
GHOST: No ghost state for L =  2

KBgen: Kleinman-Bylander projectors: 
   l= 0   rc=  2.654023   el= -0.211234   Ekb=  1.742119   kbcos=  0.228463
   l= 1   rc=  2.721230   el= -0.080095   Ekb= -1.122375   kbcos= -0.147941
   l= 2   rc=  2.825246   el=  0.002001   Ekb= -0.207076   kbcos= -0.031965

KBgen: Total number of Kleinman-Bylander projectors:    9
atom: -------------------------------------------------------------------------

atom: SANKEY-TYPE ORBITALS:

SPLIT: Orbitals with angular momentum L= 0

SPLIT: Basis orbitals for state 2s

SPLIT: PAO cut-off radius determined from an
SPLIT: energy shift=  0.000735 Ry

   izeta = 1
                 lambda =    1.000000
                     rc =   11.897381
                 energy =   -0.210580
                kinetic =    0.143382
    potential(screened) =   -0.353962
       potential(ionic) =   -0.533453

POLgen: Perturbative polarization orbital with L=  1

POLgen: Polarization orbital for state 2s

   izeta = 1
                     rc =   11.897381
                 energy =   -0.027011
                kinetic =    0.282985
    potential(screened) =   -0.309997
       potential(ionic) =   -0.490997
atom: Total number of Sankey-type orbitals:  4

atm_pop: Valence configuration (for local Pseudopot. screening):
 2s( 1.00)                                                            
Vna: chval, zval:    1.00000   1.00000

Vna:  Cut-off radius for the neutral-atom potential:  11.897381
comcore: Pseudo-core radius Rcore=  3.450946

atom: _________________________________________________________________________

<basis_specs>
===============================================================================
C-gga                Z=   6    Mass=  12.010        Charge= 0.17977+309
Lmxo=1 Lmxkb= 2    BasisType=split      Semic=F
L=0  Nsemic=0  Cnfigmx=2
          i=1  nzeta=1  polorb=0  (2s)
            splnorm:   0.15000    
               vcte:    0.0000    
               rinn:    0.0000    
               qcoe:    0.0000    
               qyuk:    0.0000    
               qwid:   0.10000E-01
                rcs:    0.0000    
            lambdas:    1.0000    
L=1  Nsemic=0  Cnfigmx=2
          i=1  nzeta=1  polorb=1  (2p)
            splnorm:   0.15000    
               vcte:    0.0000    
               rinn:    0.0000    
               qcoe:    0.0000    
               qyuk:    0.0000    
               qwid:   0.10000E-01
                rcs:    0.0000    
            lambdas:    1.0000    
-------------------------------------------------------------------------------
L=0  Nkbl=1  erefs: 0.17977+309
L=1  Nkbl=1  erefs: 0.17977+309
L=2  Nkbl=1  erefs: 0.17977+309
===============================================================================
</basis_specs>

atom: Called for C-gga                 (Z =   6)

read_vps: Pseudopotential generation method:
read_vps: ATM 3.2.2 Troullier-Martins                       
Valence charge for ps generation:    4.00000

xc_check: Exchange-correlation functional:
xc_check: GGA Perdew, Burke & Ernzerhof 1996
V l=0 = -2*Zval/r beyond r=  1.5227
V l=1 = -2*Zval/r beyond r=  1.5227
V l=2 = -2*Zval/r beyond r=  1.5227
All V_l potentials equal beyond r=  1.4851
This should be close to max(r_c) in ps generation
All pots = -2*Zval/r beyond r=  1.5227

VLOCAL1: 99.0% of the norm of Vloc inside     19.682 Ry
VLOCAL1: 99.9% of the norm of Vloc inside     44.856 Ry
atom: Maximum radius for 4*pi*r*r*local-pseudopot. charge    1.79142
atom: Maximum radius for r*vlocal+2*Zval:    1.54183
GHOST: No ghost state for L =  0
GHOST: No ghost state for L =  1
GHOST: No ghost state for L =  2

KBgen: Kleinman-Bylander projectors: 
   l= 0   rc=  1.661951   el= -1.010689   Ekb=  5.289847   kbcos=  0.316429
   l= 1   rc=  1.661951   el= -0.388490   Ekb= -4.102504   kbcos= -0.351025
   l= 2   rc=  1.747182   el=  0.001971   Ekb= -1.006005   kbcos= -0.008530

KBgen: Total number of Kleinman-Bylander projectors:    9
atom: -------------------------------------------------------------------------

atom: SANKEY-TYPE ORBITALS:

SPLIT: Orbitals with angular momentum L= 0

SPLIT: Basis orbitals for state 2s

SPLIT: PAO cut-off radius determined from an
SPLIT: energy shift=  0.000735 Ry

   izeta = 1
                 lambda =    1.000000
                     rc =    5.948690
                 energy =   -1.010099
                kinetic =    0.827121
    potential(screened) =   -1.837220
       potential(ionic) =   -5.392783

SPLIT: Orbitals with angular momentum L= 1

SPLIT: Basis orbitals for state 2p

SPLIT: PAO cut-off radius determined from an
SPLIT: energy shift=  0.000735 Ry

   izeta = 1
                 lambda =    1.000000
                     rc =    7.638387
                 energy =   -0.387843
                kinetic =    2.314739
    potential(screened) =   -2.702582
       potential(ionic) =   -6.092371

POLgen: Perturbative polarization orbital with L=  2

POLgen: Polarization orbital for state 2p

   izeta = 1
                     rc =    7.638387
                 energy =    0.921402
                kinetic =    1.955040
    potential(screened) =   -1.033637
       potential(ionic) =   -3.679558
atom: Total number of Sankey-type orbitals:  9

atm_pop: Valence configuration (for local Pseudopot. screening):
 2s( 2.00)                                                            
 2p( 2.00)                                                            
Vna: chval, zval:    4.00000   4.00000

Vna:  Cut-off radius for the neutral-atom potential:   7.638387

atom: _________________________________________________________________________

prinput: Basis input ----------------------------------------------------------

PAO.BasisType split     

%block ChemicalSpeciesLabel
    1    3 Li-gga                  # Species index, atomic number, species label
    2    6 C-gga                   # Species index, atomic number, species label
%endblock ChemicalSpeciesLabel

%block PAO.Basis                 # Define Basis set
Li-gga                1                    # Species label, number of l-shells
 n=2   0   1 P   1                   # n, l, Nzeta, Polarization, NzetaPol
  11.897   
   1.000   
C-gga                 2                    # Species label, number of l-shells
 n=2   0   1                         # n, l, Nzeta 
   5.949   
   1.000   
 n=2   1   1 P   1                   # n, l, Nzeta, Polarization, NzetaPol
   7.638   
   1.000   
%endblock PAO.Basis

prinput: ----------------------------------------------------------------------

coor:   Atomic-coordinates input format  =     Cartesian coordinates
coor:                                          (in Angstroms)

siesta: Atomic coordinates (Bohr) and species
siesta:      0.00000   0.00000   0.00000  2        1
siesta:     -1.32825   2.30060   1.88777  1        2
siesta:     -2.74990   4.76296   1.88777  1        3
siesta:      2.74990   4.76296   1.88777  1        4
siesta:      1.32825   2.30060   1.88777  1        5
siesta:      2.65651   0.00000   1.88777  1        6
siesta:      5.49980   0.00000   1.88777  1        7

siesta: System type = bulk      

initatomlists: Number of atoms, orbitals, and projectors:      7    33    63

siesta: ******************** Simulation parameters ****************************
siesta:
siesta: The following are some of the parameters of the simulation.
siesta: A complete list of the parameters used, including default values,
siesta: can be found in file out.fdf
siesta:
redata: Spin configuration                          = none
redata: Number of spin components                   = 1
redata: Time-Reversal Symmetry                      = T
redata: Spin spiral                                 = F
redata: Long output                                 =   F
redata: Number of Atomic Species                    =        2
redata: Charge density info will appear in .RHO file
redata: Write Mulliken Pop.                         = NO
redata: Matel table size (NRTAB)                    =     1024
redata: Mesh Cutoff                                 =   300.0000 Ry
redata: Net charge of the system                    =     0.0000 |e|
redata: Min. number of SCF Iter                     =        0
redata: Max. number of SCF Iter                     =     1000
redata: SCF convergence failure will abort job
redata: SCF mix quantity                            = Hamiltonian
redata: Mix DM or H after convergence               =   F
redata: Recompute H after scf cycle                 =   F
redata: Mix DM in first SCF step                    =   T
redata: Write Pulay info on disk                    =   F
redata: New DM Occupancy tolerance                  = 0.000000000001
redata: No kicks to SCF
redata: DM Mixing Weight for Kicks                  =     0.5000
redata: Require Harris convergence for SCF          =   F
redata: Harris energy tolerance for SCF             =     0.000100 eV
redata: Require DM convergence for SCF              =   T
redata: DM tolerance for SCF                        =     0.001000
redata: Require EDM convergence for SCF             =   F
redata: EDM tolerance for SCF                       =     0.005000 eV
redata: Require H convergence for SCF               =   T
redata: Hamiltonian tolerance for SCF               =     0.001000 eV
redata: Require (free) Energy convergence for SCF   =   T
redata: (free) Energy tolerance for SCF             =     0.001000 eV
redata: Using Saved Data (generic)                  =   F
redata: Use continuation files for DM               =   F
redata: Neglect nonoverlap interactions             =   F
redata: Method of Calculation                       = Diagonalization
redata: Electronic Temperature                      =   299.9869 K
redata: Fix the spin of the system                  =   F
redata: Dynamics option                             = Single-point calculation
mix.SCF: Pulay mixing                            = Pulay
mix.SCF:    Variant                              = stable
mix.SCF:    History steps                        = 4
mix.SCF:    Linear mixing weight                 =     0.250000
mix.SCF:    Mixing weight                        =     0.250000
mix.SCF:    SVD condition                        = 0.1000E-07
redata: ***********************************************************************

%block SCF.Mixers
  Pulay
%endblock SCF.Mixers

%block SCF.Mixer.Pulay
  # Mixing method
  method pulay
  variant stable

  # Mixing options
  weight 0.2500
  weight.linear 0.2500
  history 4
%endblock SCF.Mixer.Pulay

DM_history_depth set to one: no extrapolation allowed by default for geometry relaxation
Size of DM history Fstack: 1
Total number of electrons:    10.000000
Total ionic charge:    10.000000

* ProcessorY, Blocksize:    2   1


* Orbital distribution balance (max,min):     9     8

 Kpoints in:           18 . Kpoints trimmed:           14

siesta: k-grid: Number of k-points =    14
siesta: k-grid: Cutoff (effective) =     2.997 Ang
siesta: k-grid: Supercell and displacements
siesta: k-grid:    3   0   0      0.000
siesta: k-grid:    0   3   0      0.000
siesta: k-grid:    0   0   3      0.000

diag: Algorithm                                     = Expert
diag: Parallel over k                               =   T
diag: Use parallel 2D distribution                  =   T
diag: Parallel block-size                           = 1
diag: Parallel distribution                         =     2 x     2
diag: Used triangular part                          = Lower
diag: Absolute tolerance                            =  0.100E-15
diag: Orthogonalization factor                      =  0.100E-05
diag: Memory factor                                 =  1.0000

superc: Internal auxiliary supercell:     9 x     9 x    15  =    1215
superc: Number of atoms, orbitals, and projectors:   8505  40095  76545


ts: **************************************************************
ts: Save H and S matrices                           =    F
ts: Save DM and EDM matrices                        =    F
ts: Only save the overlap matrix S                  =    F
ts: **************************************************************

************************ Begin: TS CHECKS AND WARNINGS ************************
************************ End: TS CHECKS AND WARNINGS **************************


                     ====================================
                        Single-point calculation
                     ====================================

outcoor: Atomic coordinates (Ang):                          
    0.00000000    0.00000000    0.00000000   2       1  C-gga
   -0.70288177    1.21742694    0.99896220   1       2  Li-gga
   -1.45518323    2.52045129    0.99896220   1       3  Li-gga
    1.45518323    2.52045129    0.99896220   1       4  Li-gga
    0.70288177    1.21742694    0.99896220   1       5  Li-gga
    1.40576354    0.00000000    0.99896220   1       6  Li-gga
    2.91036646    0.00000000    0.99896220   1       7  Li-gga

superc: Internal auxiliary supercell:     9 x     9 x    15  =    1215
superc: Number of atoms, orbitals, and projectors:   8505  40095  76545

outcell: Unit cell vectors (Ang):
        4.316130    0.000000    0.000000
       -2.158065    3.737878    0.000000
        0.000000    0.000000    1.997924

outcell: Cell vector modules (Ang)   :    4.316130    4.316130    1.997924
outcell: Cell angles (23,13,12) (deg):     90.0000     90.0000    120.0000
outcell: Cell volume (Ang**3)        :     32.2329
<dSpData1D:S at geom step 0
  <sparsity:sparsity for geom step 0
    nrows_g=33 nrows=9 sparsity=92.4619 nnzs=100691, refcount: 7>
  <dData1D:(new from dSpData1D) n=100691, refcount: 1>
refcount: 1>
new_DM -- step:     1
Initializing Density Matrix...
DM filled with atomic data:
<dSpData2D:DM initialized from atoms
  <sparsity:sparsity for geom step 0
    nrows_g=33 nrows=9 sparsity=92.4619 nnzs=100691, refcount: 8>
  <dData2D:DM n=100691 m=1, refcount: 1>
refcount: 1>
No. of atoms with KB's overlaping orbs in proc 0. Max # of overlaps:     688    1712
New grid distribution:   1
           1       1:   20    1:   10    1:    6
           2       1:   20    1:   10    7:   12
           3       1:   20   11:   20    1:    6
           4       1:   20   11:   20    7:   12

InitMesh: MESH =    40 x    40 x    24 =       38400
InitMesh: (bp) =    20 x    20 x    12 =        4800
InitMesh: Mesh cutoff (required, used) =   300.000   316.498 Ry
ExtMesh (bp) on 0 =   156 x   146 x   158 =     3598608
New grid distribution:   2
           1       1:   10    1:   10    1:   12
           2      11:   20    1:   10    1:   12
           3       1:   10   11:   20    1:   12
           4      11:   20   11:   20    1:   12
New grid distribution:   3
           1       1:   10    1:   10    1:   12
           2      11:   20    1:   10    1:   12
           3       1:   10   11:   20    1:   12
           4      11:   20   11:   20    1:   12
Setting up quadratic distribution...
ExtMesh (bp) on 0 =   146 x   146 x   164 =     3495824
PhiOnMesh: Number of (b)points on node 0 =                 1200
PhiOnMesh: nlist on node 0 =              1053325

stepf: Fermi-Dirac step function

siesta: Program's energy decomposition (eV):
siesta: Ebs     =      -193.730354
siesta: Eions   =       321.344870
siesta: Ena     =        65.774840
siesta: Ekin    =       236.677103
siesta: Enl     =       -12.702474
siesta: Eso     =         0.000000
siesta: Edftu   =         0.000000
siesta: DEna    =       -38.406412
siesta: DUscf   =        21.505445
siesta: DUext   =         0.000000
siesta: Exc     =      -127.898457
siesta: eta*DQ  =         0.000000
siesta: Emadel  =         0.000000
siesta: Emeta   =         0.000000
siesta: Emolmec =        -5.965294
siesta: Ekinion =         0.000000
siesta: Eharris =      -151.300285
siesta: Etot    =      -182.360118
siesta: FreeEng =      -182.368734

        iscf     Eharris(eV)        E_KS(eV)     FreeEng(eV)     dDmax    Ef(eV) dHmax(eV)
   scf:    1     -151.300285     -182.360118     -182.368734  4.336634-20.354035 14.891673
timer: Routine,Calls,Time,% = IterSCF        1      24.384  58.00
   scf:    2     -198.668964     -192.267820     -192.276435  1.413840-20.355128  4.349136
   scf:    3     -193.527595     -193.288215     -193.296830  0.519117-20.123549  0.434628
   scf:    4     -193.298768     -193.295657     -193.304272  0.044817-20.109620  0.101501
   scf:    5     -193.301442     -193.298787     -193.307402  0.063586-20.009086  0.088773
   scf:    6     -193.299238     -193.299109     -193.307724  0.004831-20.008576  0.006422
   scf:    7     -193.299117     -193.299113     -193.307728  0.004963-20.010036  0.000547
   scf:    8     -193.299113     -193.299113     -193.307728  0.000154-20.010033  0.000252

SCF Convergence by FreeE+DM+H criterion
|FreeE_i-FreeE_(i-1)| (eV) <     0.00100000
max |DM_out - DM_in|         :     0.0001536175
max |H_out - H_in|      (eV) :     0.0002521196
SCF cycle converged after 8 iterations

Using DM_out to compute the final energy and forces
No. of atoms with KB's overlaping orbs in proc 0. Max # of overlaps:     688    1712

MM-Stress (kbar):      141.73      141.73      687.36        0.00        0.00       -0.00

siesta: E_KS(eV) =             -193.2991

siesta: E_KS - E_eggbox =      -193.2991

siesta: Atomic forces (eV/Ang):
     1   -0.000000    0.000000    0.000000
     2   -1.704833    2.953294   -0.000000
     3    1.704841   -2.953290   -0.000000
     4   -1.704850   -2.952879   -0.000000
     5    1.704843    2.952883   -0.000000
     6    3.410044    0.000209   -0.000000
     7   -3.410044   -0.000218   -0.000000
----------------------------------------
   Tot   -0.000000    0.000000    0.000000
----------------------------------------
   Max    3.410044
   Res    1.822683    sqrt( Sum f_i^2 / 3N )
----------------------------------------
   Max    3.410044    constrained

Stress tensor Voigt[x,y,z,yz,xz,xy] (kbar):    -1982.25    -1982.35     -820.45       -0.00        0.00       -0.09
(Free)E + p*V (eV/cell)     -161.2193
Target enthalpy (eV/cell)     -193.3077

siesta: Eigenvalues (eV):
  ik is       eps
   1  1  -34.3784  -25.5258  -25.5258  -23.3991  -23.3990  -16.7807  -13.8396  -13.8396  -12.6790  -10.7735
          -2.4390    1.9985    1.9990    6.9837    6.9849    7.5933   13.4566   13.4567   19.9512   19.9514
   21.1776   25.4156   26.0796   26.0800   29.6713   29.6714   30.6897   31.6675   36.7480   42.8356
   42.8363   50.8066   50.8067
   2  1  -34.3741  -25.7910  -24.5203  -24.4268  -23.5073  -16.5975  -15.4172  -12.6108  -12.1213  -11.3232
           1.1122    1.8061    4.9673    6.7653    6.8700    8.2888   10.5811   13.6848   17.5482   19.3510
   22.3009   23.1314   23.7504   26.6005   29.4142   30.4107   31.6361   40.2020   41.0174   46.2775
   48.4407   51.6404   56.3060
   3  1  -34.3741  -25.7910  -24.5202  -24.4269  -23.5072  -16.5975  -15.4172  -12.6108  -12.1213  -11.3233
           1.1124    1.8055    4.9678    6.7653    6.8705    8.2892   10.5805   13.6848   17.5481   19.3511
   22.3009   23.1315   23.7501   26.6006   29.4136   30.4111   31.6361   40.2022   41.0173   46.2772
   48.4403   51.6402   56.3060
   4  1  -34.3741  -25.7910  -24.5203  -24.4268  -23.5073  -16.5975  -15.4172  -12.6108  -12.1213  -11.3232
           1.1122    1.8061    4.9673    6.7653    6.8700    8.2888   10.5811   13.6848   17.5482   19.3510
   22.3009   23.1314   23.7504   26.6005   29.4142   30.4107   31.6361   40.2020   41.0174   46.2775
   48.4407   51.6405   56.3060
   5  1  -34.0613  -25.2818  -24.4103  -24.4101  -23.8164  -17.3141  -17.3140  -12.4782   -5.8494   -5.8491
          -2.7953   -2.7952    2.6796    8.7016    9.1407    9.1407   14.4197   16.7627   16.7632   17.3877
   17.3881   18.3941   18.3942   26.8488   36.2197   36.3561   36.3577   36.9469   38.4206   39.3375
   39.3398   42.0186   42.0188
   6  1  -32.1488  -25.4759  -25.4758  -24.2983  -20.0385  -20.0384  -14.1807  -11.0822  -11.0820   -7.8758
          -7.8758   -3.7560   -1.8441   -0.5960   -0.5958    4.5061    6.4839    6.4839   16.1208   16.1211
   16.6585   18.0965   18.0966   22.9773   26.5519   26.5521   38.1241   40.9835   40.9838   42.8246
   48.3826   48.3828   55.7862
   7  1  -32.2468  -26.1233  -24.4398  -24.0871  -20.8242  -19.3906  -14.5807  -12.8854  -11.0361   -7.3517
          -6.4307   -3.6522   -2.1307   -1.1153    3.2834    4.9675    7.9683    8.6344   11.7388   14.7778
   17.5962   19.9552   20.2086   24.9086   29.7215   33.5922   34.3584   37.7876   39.1819   44.8582
   51.5936   53.9541   77.9551
   8  1  -32.2468  -26.1233  -24.4397  -24.0872  -20.8242  -19.3905  -14.5808  -12.8854  -11.0361   -7.3518
          -6.4306   -3.6521   -2.1308   -1.1152    3.2830    4.9676    7.9685    8.6341   11.7391   14.7773
   17.5961   19.9549   20.2090   24.9086   29.7214   33.5918   34.3595   37.7874   39.1819   44.8583
   51.5931   53.9542   77.9551
   9  1  -32.2468  -26.1233  -24.4398  -24.0871  -20.8242  -19.3906  -14.5807  -12.8854  -11.0361   -7.3517
          -6.4307   -3.6522   -2.1307   -1.1153    3.2834    4.9675    7.9683    8.6344   11.7388   14.7778
   17.5962   19.9552   20.2086   24.9086   29.7215   33.5922   34.3584   37.7876   39.1819   44.8582
   51.5936   53.9541   77.9552
  10  1  -31.4863  -25.9890  -23.7748  -23.7746  -19.6275  -19.2553  -16.4279  -16.4278   -4.6687   -3.8534
          -3.8527   -0.8969   -0.8968    3.3921    3.3923    7.1039    7.1041   16.1215   17.0222   20.3070
   20.3071   27.2394   28.1891   28.1898   35.6081   40.1621   42.2108   42.2120   44.3974   44.9390
   44.9391   50.9216   50.9222
  11  1  -32.2468  -26.1233  -24.4398  -24.0871  -20.8242  -19.3906  -14.5807  -12.8854  -11.0361   -7.3517
          -6.4307   -3.6522   -2.1307   -1.1153    3.2834    4.9675    7.9683    8.6344   11.7388   14.7778
   17.5962   19.9552   20.2086   24.9086   29.7215   33.5922   34.3584   37.7876   39.1819   44.8582
   51.5936   53.9541   77.9552
  12  1  -32.2468  -26.1233  -24.4397  -24.0872  -20.8242  -19.3905  -14.5808  -12.8854  -11.0361   -7.3518
          -6.4306   -3.6521   -2.1308   -1.1152    3.2830    4.9676    7.9685    8.6341   11.7391   14.7773
   17.5961   19.9549   20.2090   24.9086   29.7214   33.5918   34.3595   37.7874   39.1819   44.8583
   51.5931   53.9542   77.9551
  13  1  -32.2468  -26.1233  -24.4398  -24.0871  -20.8242  -19.3906  -14.5807  -12.8854  -11.0361   -7.3517
          -6.4307   -3.6522   -2.1307   -1.1153    3.2834    4.9675    7.9683    8.6344   11.7388   14.7778
   17.5962   19.9552   20.2086   24.9086   29.7215   33.5922   34.3584   37.7876   39.1819   44.8582
   51.5936   53.9541   77.9551
  14  1  -32.1488  -25.4759  -25.4758  -24.2983  -20.0385  -20.0384  -14.1807  -11.0822  -11.0820   -7.8758
          -7.8758   -3.7560   -1.8441   -0.5960   -0.5958    4.5061    6.4839    6.4839   16.1208   16.1211
   16.6585   18.0965   18.0966   22.9773   26.5519   26.5521   38.1241   40.9835   40.9838   42.8246
   48.3826   48.3828   55.7862
siesta: Fermi energy =     -20.010033 eV

siesta: Program's energy decomposition (eV):
siesta: Ebs     =      -258.125730
siesta: Eions   =       321.344870
siesta: Ena     =        65.774840
siesta: Ekin    =       189.911071
siesta: Enl     =         0.201854
siesta: Eso     =         0.000000
siesta: Edftu   =         0.000000
siesta: DEna    =        -7.096872
siesta: DUscf   =         4.223353
siesta: DUext   =         0.000000
siesta: Exc     =      -119.003196
siesta: eta*DQ  =         0.000000
siesta: Emadel  =         0.000000
siesta: Emeta   =         0.000000
siesta: Emolmec =        -5.965294
siesta: Ekinion =         0.000000
siesta: Eharris =      -193.299113
siesta: Etot    =      -193.299113
siesta: FreeEng =      -193.307728

siesta: Final energy (eV):
siesta:  Band Struct. =    -258.125730
siesta:       Kinetic =     189.911071
siesta:       Hartree =      74.557236
siesta:       Edftu   =       0.000000
siesta:       Eso     =       0.000000
siesta:    Ext. field =       0.000000
siesta:   Exch.-corr. =    -119.003196
siesta:  Ion-electron =    -462.951342
siesta:       Ion-ion =     130.152412
siesta:       Ekinion =       0.000000
siesta:         Total =    -193.299113
siesta:         Fermi =     -20.010033

siesta: Atomic forces (eV/Ang):
siesta:      1   -0.000000    0.000000    0.000000
siesta:      2   -1.704833    2.953294   -0.000000
siesta:      3    1.704841   -2.953290   -0.000000
siesta:      4   -1.704850   -2.952879   -0.000000
siesta:      5    1.704843    2.952883   -0.000000
siesta:      6    3.410044    0.000209   -0.000000
siesta:      7   -3.410044   -0.000218   -0.000000
siesta: ----------------------------------------
siesta:    Tot   -0.000000    0.000000    0.000000

siesta: Stress tensor (static) (eV/Ang**3):
siesta:    -1.237210   -0.000054    0.000000
siesta:    -0.000054   -1.237272   -0.000000
siesta:     0.000000   -0.000000   -0.512079

siesta: Cell volume =         32.232851 Ang**3

siesta: Pressure (static):
siesta:                Solid            Molecule  Units
siesta:           0.01084249          0.01257608  Ry/Bohr**3
siesta:           0.99552018          1.15469278  eV/Ang**3
siesta:        1595.01641764       1850.04179566  kBar
(Free)E+ p_basis*V_orbitals  =        -176.795803
(Free)Eharris+ p_basis*V_orbitals  =        -176.795803

cite: Please see "LiC6_scf.bib" for an exhaustive BiBTeX file.
cite: Please clearly indicate Siesta version in published work: 4.1.5
cite: This calculation has made use of the following articles
cite: which are encouraged to be cited in a published work.
        Primary SIESTA paper
          DOI: www.doi.org/10.1088/0953-8984/14/11/302

>> End of run:   9-NOV-2022  13:40:15
Job completed
