Siesta Version  : 4.1.5
Architecture    : x86_64-unknown-linux-gnu--unknown
Compiler version: GNU Fortran (GCC) 11.3.0
Compiler flags  : mpif90 -g -O2 -fallow-argument-mismatch
PP flags        : -DMPI -DFC_HAVE_FLUSH -DFC_HAVE_ABORT
Libraries       :  -I/global/software/sl-7.x86_64/modules/intel/2020.4.304/mkl/include  /globall/software/sl-7.x86_64/modules/intel/2020.4.304/mkl/lib/intel64/libmkl_scalapack_lp64.a -Wl,--start-group /global/software/sl-7.x86_64/modules/intel/2020.4.304/mkl/lib/intel64/libmkl_intel_lp64.a /global/software/sl-7.x86_64/modules/intel/2020.4.304/mkl/lib/intel64/libmkl_sequential.a /global/software/sl-7.x86_64/modules/intel/2020.4.304/mkl/lib/intel64/libmkl_core.a /global/software/sl-7.x86_64/modules/intel/2020.4.304/mkl/lib/intel64/libmkl_blacs_openmpi_lp64.a -Wl,--end-group -lpthread -lm -ldl
PARALLEL version

* Running on 4 nodes in parallel
>> Start of run:   9-NOV-2022  13:13:59

                           ***********************       
                           *  WELCOME TO SIESTA  *       
                           ***********************       

reinit: Reading from standard input
reinit: Dumped input in INPUT_TMP.06444
************************** Dump of input data file ****************************
SystemName LiC6_scf
SystemLabel LiC6_scf
NumberOfAtoms   7
NumberOfSpecies 2
%block ChemicalSpeciesLabel
1  3   Li-gga
2  6   C-gga
%endblock ChemicalSpeciesLabel
PAO.BasisSize  SZP
PAO.EnergyShift  10 meV
%block PS.Lmax
C-gga   2
Li-gga  2
%endblock PS.Lmax
LatticeConstant 1.000000 Ang
%block LatticeVectors
	4.3161300000	0.0000000000	0.0000000000
	-2.1580650000	3.7378782260	0.0000000000
	0.0000000000	0.0000000000	2.9598880000
%endblock LatticeVectors
AtomicCoordinatesFormat Ang
%block AtomicCoordinatesAndAtomicSpecies
	0.00000000	0.00000000	0.00000000	2
	-0.70288177	1.21742694	1.47994400	1
	-1.45518323	2.52045129	1.47994400	1
	1.45518323	2.52045129	1.47994400	1
	0.70288177	1.21742694	1.47994400	1
	1.40576354	0.00000000	1.47994400	1
	2.91036646	0.00000000	1.47994400	1
%endblock AtomicCoordinatesAndAtomicSpecies
Kgrid_NoTRS  T
%block kgrid_MonkhorstPack
3       0       0       0.0
0       3       0       0.0
0       0       3       0.0
%endblock kgrid_MonkhorstPack
AtomCoorFormatOut Ang
BlockSize 1
#ProcessorY 12
Diag.ParallelOverK   T
Diag.DivideAndConquer F
MeshCutoff   300 Ry
SCF.FreeE.Tolerance 1E-3 eV
SCF.EDM.Tolerance   5E-3 eV
DM.Tolerance  1E-3
DM.Require.Energy.Convergence T
DM.NumberPulay 4
XC.Functional GGA
XC.Authors    PBE
UseSaveData        F
MD.TypeOfRun       CG
MD.VariableCell    F
MD.NumCGsteps      00
MD.MaxCGDispl      0.200000 Bohr
MD.MaxStressTol    1.000000 GPa
MD.MaxForceTol     0.010000 eV/Ang
WriteMDHistory T
WriteCoorStep T
WriteForces T
WriteCoorStep    T
WriteEigenValues T
WriteDM    F
MM.UnitsDistance Ang  # what this program prints out DO NOT CHANGE
MM.UnitsEnergy    eV  # what this program prints out DO NOT CHANGE
MM.Grimme.S6     0.75 # Grimme-paper for PBE (correct for your functional)
MM.Grimme.D     20.   # Grimme-paper (correct for your functional)
%block MM.Potentials
  1   1 Grimme     16.69      1.650 # Li, 10.1002/jcc.20495
  1   2 Grimme     17.40      2.277 # Li / C
  2   2 Grimme     18.14      2.904 # C, 10.1002/jcc.20495
%endblock MM.Potentials
#%block ProjectedDensityOfStates
# -200.0  120.0  0.4  12800  eV
#%endblock ProjectedDensityOfStates
************************** End of input data file *****************************

reinit: -----------------------------------------------------------------------
reinit: System Name: LiC6_scf
reinit: -----------------------------------------------------------------------
reinit: System Label: LiC6_scf
reinit: -----------------------------------------------------------------------
Reading two-body potentials
Grimme - two-body potential between 1 and 1
Grimme - two-body potential between 1 and 2
Grimme - two-body potential between 2 and 2

initatom: Reading input for the pseudopotentials and atomic orbitals ----------
Species number:   1 Atomic number:    3 Label: Li-gga
Species number:   2 Atomic number:    6 Label: C-gga

Ground state valence configuration:   2s01
Reading pseudopotential information in formatted form from Li-gga.psf

Valence configuration for pseudopotential generation:
2s( 1.00) rc: 2.28
2p( 0.00) rc: 2.28
3d( 0.00) rc: 2.59
4f( 0.00) rc: 2.59
Ground state valence configuration:   2s02  2p02
Reading pseudopotential information in formatted form from C-gga.psf

Valence configuration for pseudopotential generation:
2s( 2.00) rc: 1.56
2p( 2.00) rc: 1.56
3d( 0.00) rc: 1.56
4f( 0.00) rc: 1.56
relmxkb: Read Max KB Ang. Momentum=    2 for species C-gga
relmxkb: Read Max KB Ang. Momentum=    2 for species Li-gga

<basis_specs>
===============================================================================
Li-gga               Z=   3    Mass=  6.9400        Charge= 0.17977+309
Lmxo=0 Lmxkb= 2    BasisType=split      Semic=F
L=0  Nsemic=0  Cnfigmx=2
          i=1  nzeta=1  polorb=1  (2s)
            splnorm:   0.15000    
               vcte:    0.0000    
               rinn:    0.0000    
               qcoe:    0.0000    
               qyuk:    0.0000    
               qwid:   0.10000E-01
                rcs:    0.0000    
            lambdas:    1.0000    
-------------------------------------------------------------------------------
L=0  Nkbl=1  erefs: 0.17977+309
L=1  Nkbl=1  erefs: 0.17977+309
L=2  Nkbl=1  erefs: 0.17977+309
===============================================================================
</basis_specs>

atom: Called for Li-gga                (Z =   3)

read_vps: Pseudopotential generation method:
read_vps: ATM 3.2.2 Troullier-Martins                       
Valence charge for ps generation:    1.00000

read_vps: Pseudopotential includes a core correction:
read_vps: Pseudo-core for xc-correction

xc_check: Exchange-correlation functional:
xc_check: GGA Perdew, Burke & Ernzerhof 1996
V l=0 = -2*Zval/r beyond r=  2.2278
V l=1 = -2*Zval/r beyond r=  2.2278
V l=2 = -2*Zval/r beyond r=  2.5245
All V_l potentials equal beyond r=  2.4622
This should be close to max(r_c) in ps generation
All pots = -2*Zval/r beyond r=  2.5245

VLOCAL1: 99.0% of the norm of Vloc inside      7.160 Ry
VLOCAL1: 99.9% of the norm of Vloc inside     16.318 Ry
atom: Maximum radius for 4*pi*r*r*local-pseudopot. charge    2.86079
atom: Maximum radius for r*vlocal+2*Zval:    2.43160
GHOST: No ghost state for L =  0
GHOST: No ghost state for L =  1
GHOST: No ghost state for L =  2

KBgen: Kleinman-Bylander projectors: 
   l= 0   rc=  2.654023   el= -0.211234   Ekb=  1.742119   kbcos=  0.228463
   l= 1   rc=  2.721230   el= -0.080095   Ekb= -1.122375   kbcos= -0.147941
   l= 2   rc=  2.825246   el=  0.002001   Ekb= -0.207076   kbcos= -0.031965

KBgen: Total number of Kleinman-Bylander projectors:    9
atom: -------------------------------------------------------------------------

atom: SANKEY-TYPE ORBITALS:

SPLIT: Orbitals with angular momentum L= 0

SPLIT: Basis orbitals for state 2s

SPLIT: PAO cut-off radius determined from an
SPLIT: energy shift=  0.000735 Ry

   izeta = 1
                 lambda =    1.000000
                     rc =   11.897381
                 energy =   -0.210580
                kinetic =    0.143382
    potential(screened) =   -0.353962
       potential(ionic) =   -0.533453

POLgen: Perturbative polarization orbital with L=  1

POLgen: Polarization orbital for state 2s

   izeta = 1
                     rc =   11.897381
                 energy =   -0.027011
                kinetic =    0.282985
    potential(screened) =   -0.309997
       potential(ionic) =   -0.490997
atom: Total number of Sankey-type orbitals:  4

atm_pop: Valence configuration (for local Pseudopot. screening):
 2s( 1.00)                                                            
Vna: chval, zval:    1.00000   1.00000

Vna:  Cut-off radius for the neutral-atom potential:  11.897381
comcore: Pseudo-core radius Rcore=  3.450946

atom: _________________________________________________________________________

<basis_specs>
===============================================================================
C-gga                Z=   6    Mass=  12.010        Charge= 0.17977+309
Lmxo=1 Lmxkb= 2    BasisType=split      Semic=F
L=0  Nsemic=0  Cnfigmx=2
          i=1  nzeta=1  polorb=0  (2s)
            splnorm:   0.15000    
               vcte:    0.0000    
               rinn:    0.0000    
               qcoe:    0.0000    
               qyuk:    0.0000    
               qwid:   0.10000E-01
                rcs:    0.0000    
            lambdas:    1.0000    
L=1  Nsemic=0  Cnfigmx=2
          i=1  nzeta=1  polorb=1  (2p)
            splnorm:   0.15000    
               vcte:    0.0000    
               rinn:    0.0000    
               qcoe:    0.0000    
               qyuk:    0.0000    
               qwid:   0.10000E-01
                rcs:    0.0000    
            lambdas:    1.0000    
-------------------------------------------------------------------------------
L=0  Nkbl=1  erefs: 0.17977+309
L=1  Nkbl=1  erefs: 0.17977+309
L=2  Nkbl=1  erefs: 0.17977+309
===============================================================================
</basis_specs>

atom: Called for C-gga                 (Z =   6)

read_vps: Pseudopotential generation method:
read_vps: ATM 3.2.2 Troullier-Martins                       
Valence charge for ps generation:    4.00000

xc_check: Exchange-correlation functional:
xc_check: GGA Perdew, Burke & Ernzerhof 1996
V l=0 = -2*Zval/r beyond r=  1.5227
V l=1 = -2*Zval/r beyond r=  1.5227
V l=2 = -2*Zval/r beyond r=  1.5227
All V_l potentials equal beyond r=  1.4851
This should be close to max(r_c) in ps generation
All pots = -2*Zval/r beyond r=  1.5227

VLOCAL1: 99.0% of the norm of Vloc inside     19.682 Ry
VLOCAL1: 99.9% of the norm of Vloc inside     44.856 Ry
atom: Maximum radius for 4*pi*r*r*local-pseudopot. charge    1.79142
atom: Maximum radius for r*vlocal+2*Zval:    1.54183
GHOST: No ghost state for L =  0
GHOST: No ghost state for L =  1
GHOST: No ghost state for L =  2

KBgen: Kleinman-Bylander projectors: 
   l= 0   rc=  1.661951   el= -1.010689   Ekb=  5.289847   kbcos=  0.316429
   l= 1   rc=  1.661951   el= -0.388490   Ekb= -4.102504   kbcos= -0.351025
   l= 2   rc=  1.747182   el=  0.001971   Ekb= -1.006005   kbcos= -0.008530

KBgen: Total number of Kleinman-Bylander projectors:    9
atom: -------------------------------------------------------------------------

atom: SANKEY-TYPE ORBITALS:

SPLIT: Orbitals with angular momentum L= 0

SPLIT: Basis orbitals for state 2s

SPLIT: PAO cut-off radius determined from an
SPLIT: energy shift=  0.000735 Ry

   izeta = 1
                 lambda =    1.000000
                     rc =    5.948690
                 energy =   -1.010099
                kinetic =    0.827121
    potential(screened) =   -1.837220
       potential(ionic) =   -5.392783

SPLIT: Orbitals with angular momentum L= 1

SPLIT: Basis orbitals for state 2p

SPLIT: PAO cut-off radius determined from an
SPLIT: energy shift=  0.000735 Ry

   izeta = 1
                 lambda =    1.000000
                     rc =    7.638387
                 energy =   -0.387843
                kinetic =    2.314739
    potential(screened) =   -2.702582
       potential(ionic) =   -6.092371

POLgen: Perturbative polarization orbital with L=  2

POLgen: Polarization orbital for state 2p

   izeta = 1
                     rc =    7.638387
                 energy =    0.921402
                kinetic =    1.955040
    potential(screened) =   -1.033637
       potential(ionic) =   -3.679558
atom: Total number of Sankey-type orbitals:  9

atm_pop: Valence configuration (for local Pseudopot. screening):
 2s( 2.00)                                                            
 2p( 2.00)                                                            
Vna: chval, zval:    4.00000   4.00000

Vna:  Cut-off radius for the neutral-atom potential:   7.638387

atom: _________________________________________________________________________

prinput: Basis input ----------------------------------------------------------

PAO.BasisType split     

%block ChemicalSpeciesLabel
    1    3 Li-gga                  # Species index, atomic number, species label
    2    6 C-gga                   # Species index, atomic number, species label
%endblock ChemicalSpeciesLabel

%block PAO.Basis                 # Define Basis set
Li-gga                1                    # Species label, number of l-shells
 n=2   0   1 P   1                   # n, l, Nzeta, Polarization, NzetaPol
  11.897   
   1.000   
C-gga                 2                    # Species label, number of l-shells
 n=2   0   1                         # n, l, Nzeta 
   5.949   
   1.000   
 n=2   1   1 P   1                   # n, l, Nzeta, Polarization, NzetaPol
   7.638   
   1.000   
%endblock PAO.Basis

prinput: ----------------------------------------------------------------------

coor:   Atomic-coordinates input format  =     Cartesian coordinates
coor:                                          (in Angstroms)

siesta: Atomic coordinates (Bohr) and species
siesta:      0.00000   0.00000   0.00000  2        1
siesta:     -1.32825   2.30060   2.79669  1        2
siesta:     -2.74990   4.76296   2.79669  1        3
siesta:      2.74990   4.76296   2.79669  1        4
siesta:      1.32825   2.30060   2.79669  1        5
siesta:      2.65651   0.00000   2.79669  1        6
siesta:      5.49980   0.00000   2.79669  1        7

siesta: System type = bulk      

initatomlists: Number of atoms, orbitals, and projectors:      7    33    63

siesta: ******************** Simulation parameters ****************************
siesta:
siesta: The following are some of the parameters of the simulation.
siesta: A complete list of the parameters used, including default values,
siesta: can be found in file out.fdf
siesta:
redata: Spin configuration                          = none
redata: Number of spin components                   = 1
redata: Time-Reversal Symmetry                      = T
redata: Spin spiral                                 = F
redata: Long output                                 =   F
redata: Number of Atomic Species                    =        2
redata: Charge density info will appear in .RHO file
redata: Write Mulliken Pop.                         = NO
redata: Matel table size (NRTAB)                    =     1024
redata: Mesh Cutoff                                 =   300.0000 Ry
redata: Net charge of the system                    =     0.0000 |e|
redata: Min. number of SCF Iter                     =        0
redata: Max. number of SCF Iter                     =     1000
redata: SCF convergence failure will abort job
redata: SCF mix quantity                            = Hamiltonian
redata: Mix DM or H after convergence               =   F
redata: Recompute H after scf cycle                 =   F
redata: Mix DM in first SCF step                    =   T
redata: Write Pulay info on disk                    =   F
redata: New DM Occupancy tolerance                  = 0.000000000001
redata: No kicks to SCF
redata: DM Mixing Weight for Kicks                  =     0.5000
redata: Require Harris convergence for SCF          =   F
redata: Harris energy tolerance for SCF             =     0.000100 eV
redata: Require DM convergence for SCF              =   T
redata: DM tolerance for SCF                        =     0.001000
redata: Require EDM convergence for SCF             =   F
redata: EDM tolerance for SCF                       =     0.005000 eV
redata: Require H convergence for SCF               =   T
redata: Hamiltonian tolerance for SCF               =     0.001000 eV
redata: Require (free) Energy convergence for SCF   =   T
redata: (free) Energy tolerance for SCF             =     0.001000 eV
redata: Using Saved Data (generic)                  =   F
redata: Use continuation files for DM               =   F
redata: Neglect nonoverlap interactions             =   F
redata: Method of Calculation                       = Diagonalization
redata: Electronic Temperature                      =   299.9869 K
redata: Fix the spin of the system                  =   F
redata: Dynamics option                             = Single-point calculation
mix.SCF: Pulay mixing                            = Pulay
mix.SCF:    Variant                              = stable
mix.SCF:    History steps                        = 4
mix.SCF:    Linear mixing weight                 =     0.250000
mix.SCF:    Mixing weight                        =     0.250000
mix.SCF:    SVD condition                        = 0.1000E-07
redata: ***********************************************************************

%block SCF.Mixers
  Pulay
%endblock SCF.Mixers

%block SCF.Mixer.Pulay
  # Mixing method
  method pulay
  variant stable

  # Mixing options
  weight 0.2500
  weight.linear 0.2500
  history 4
%endblock SCF.Mixer.Pulay

DM_history_depth set to one: no extrapolation allowed by default for geometry relaxation
Size of DM history Fstack: 1
Total number of electrons:    10.000000
Total ionic charge:    10.000000

* ProcessorY, Blocksize:    2   1


* Orbital distribution balance (max,min):     9     8

 Kpoints in:           18 . Kpoints trimmed:           14

siesta: k-grid: Number of k-points =    14
siesta: k-grid: Cutoff (effective) =     4.440 Ang
siesta: k-grid: Supercell and displacements
siesta: k-grid:    3   0   0      0.000
siesta: k-grid:    0   3   0      0.000
siesta: k-grid:    0   0   3      0.000

diag: Algorithm                                     = Expert
diag: Parallel over k                               =   T
diag: Use parallel 2D distribution                  =   T
diag: Parallel block-size                           = 1
diag: Parallel distribution                         =     2 x     2
diag: Used triangular part                          = Lower
diag: Absolute tolerance                            =  0.100E-15
diag: Orthogonalization factor                      =  0.100E-05
diag: Memory factor                                 =  1.0000

superc: Internal auxiliary supercell:     9 x     9 x     9  =     729
superc: Number of atoms, orbitals, and projectors:   5103  24057  45927


ts: **************************************************************
ts: Save H and S matrices                           =    F
ts: Save DM and EDM matrices                        =    F
ts: Only save the overlap matrix S                  =    F
ts: **************************************************************

************************ Begin: TS CHECKS AND WARNINGS ************************
************************ End: TS CHECKS AND WARNINGS **************************


                     ====================================
                        Single-point calculation
                     ====================================

outcoor: Atomic coordinates (Ang):                          
    0.00000000    0.00000000    0.00000000   2       1  C-gga
   -0.70288177    1.21742694    1.47994400   1       2  Li-gga
   -1.45518323    2.52045129    1.47994400   1       3  Li-gga
    1.45518323    2.52045129    1.47994400   1       4  Li-gga
    0.70288177    1.21742694    1.47994400   1       5  Li-gga
    1.40576354    0.00000000    1.47994400   1       6  Li-gga
    2.91036646    0.00000000    1.47994400   1       7  Li-gga

superc: Internal auxiliary supercell:     9 x     9 x     9  =     729
superc: Number of atoms, orbitals, and projectors:   5103  24057  45927

outcell: Unit cell vectors (Ang):
        4.316130    0.000000    0.000000
       -2.158065    3.737878    0.000000
        0.000000    0.000000    2.959888

outcell: Cell vector modules (Ang)   :    4.316130    4.316130    2.959888
outcell: Cell angles (23,13,12) (deg):     90.0000     90.0000    120.0000
outcell: Cell volume (Ang**3)        :     47.7524
<dSpData1D:S at geom step 0
  <sparsity:sparsity for geom step 0
    nrows_g=33 nrows=9 sparsity=60.1423 nnzs=65495, refcount: 7>
  <dData1D:(new from dSpData1D) n=65495, refcount: 1>
refcount: 1>
new_DM -- step:     1
Initializing Density Matrix...
DM filled with atomic data:
<dSpData2D:DM initialized from atoms
  <sparsity:sparsity for geom step 0
    nrows_g=33 nrows=9 sparsity=60.1423 nnzs=65495, refcount: 8>
  <dData2D:DM n=65495 m=1, refcount: 1>
refcount: 1>
No. of atoms with KB's overlaping orbs in proc 0. Max # of overlaps:     454    1148
New grid distribution:   1
           1       1:   20    1:   10    1:    8
           2       1:   20    1:   10    9:   16
           3       1:   20   11:   20    1:    8
           4       1:   20   11:   20    9:   16

InitMesh: MESH =    40 x    40 x    32 =       51200
InitMesh: (bp) =    20 x    20 x    16 =        6400
InitMesh: Mesh cutoff (required, used) =   300.000   316.498 Ry
ExtMesh (bp) on 0 =   156 x   146 x   148 =     3370848
New grid distribution:   2
           1       1:   10    1:   10    1:   16
           2      11:   20    1:   10    1:   16
           3       1:   10   11:   20    1:   16
           4      11:   20   11:   20    1:   16
New grid distribution:   3
           1       1:   10    1:   10    1:   16
           2      11:   20    1:   10    1:   16
           3       1:   10   11:   20    1:   16
           4      11:   20   11:   20    1:   16
Setting up quadratic distribution...
ExtMesh (bp) on 0 =   146 x   146 x   156 =     3325296
PhiOnMesh: Number of (b)points on node 0 =                 1600
PhiOnMesh: nlist on node 0 =               948494

stepf: Fermi-Dirac step function

siesta: Program's energy decomposition (eV):
siesta: Ebs     =      -126.949894
siesta: Eions   =       321.344870
siesta: Ena     =        78.749888
siesta: Ekin    =       197.552365
siesta: Enl     =       -11.214869
siesta: Eso     =         0.000000
siesta: Edftu   =         0.000000
siesta: DEna    =       -23.667347
siesta: DUscf   =        15.476679
siesta: DUext   =         0.000000
siesta: Exc     =      -116.036637
siesta: eta*DQ  =         0.000000
siesta: Emadel  =         0.000000
siesta: Emeta   =         0.000000
siesta: Emolmec =        -3.407235
siesta: Ekinion =         0.000000
siesta: Eharris =      -154.633023
siesta: Etot    =      -183.892025
siesta: FreeEng =      -183.908497

        iscf     Eharris(eV)        E_KS(eV)     FreeEng(eV)     dDmax    Ef(eV) dHmax(eV)
   scf:    1     -154.633023     -183.892025     -183.908497  1.456656-14.369336 11.786069
timer: Routine,Calls,Time,% = IterSCF        1      14.113  57.13
   scf:    2     -196.389195     -192.817815     -192.826926  0.622985-13.879098  1.240218
   scf:    3     -192.905979     -192.914666     -192.931947  0.139173-13.781876  0.234710
   scf:    4     -192.894831     -192.913495     -192.929743  0.076560-13.845062  0.371730
   scf:    5     -192.913573     -192.922472     -192.939498  0.087237-13.862963  0.154996
   scf:    6     -192.917483     -192.920181     -192.936915  0.008707-13.865166  0.239503
   scf:    7     -192.918666     -192.923199     -192.940638  0.047565-13.855340  0.105804
   scf:    8     -192.924003     -192.924117     -192.941522  0.019034-13.856251  0.020006
   scf:    9     -192.924108     -192.924126     -192.941555  0.002995-13.855963  0.000451
   scf:   10     -192.924126     -192.924126     -192.941555  0.000088-13.855923  0.000498

SCF Convergence by FreeE+DM+H criterion
|FreeE_i-FreeE_(i-1)| (eV) <     0.00100000
max |DM_out - DM_in|         :     0.0000878863
max |H_out - H_in|      (eV) :     0.0004975153
SCF cycle converged after 10 iterations

Using DM_out to compute the final energy and forces
No. of atoms with KB's overlaping orbs in proc 0. Max # of overlaps:     454    1148

MM-Stress (kbar):       -4.86       -4.86       54.65        0.00        0.00       -0.00

siesta: E_KS(eV) =             -192.9241

siesta: E_KS - E_eggbox =      -192.9241

siesta: Atomic forces (eV/Ang):
     1    0.000000   -0.000000    0.000000
     2   -0.258401    0.447675   -0.000000
     3    0.258401   -0.447675   -0.000000
     4   -0.258396   -0.447556   -0.000000
     5    0.258396    0.447556   -0.000000
     6    0.516899    0.000056   -0.000000
     7   -0.516899   -0.000056   -0.000000
----------------------------------------
   Tot    0.000000    0.000000   -0.000000
----------------------------------------
   Max    0.516899
   Res    0.276275    sqrt( Sum f_i^2 / 3N )
----------------------------------------
   Max    0.516899    constrained

Stress tensor Voigt[x,y,z,yz,xz,xy] (kbar):    -1213.93    -1213.96      233.65       -0.00       -0.00       -0.03
(Free)E + p*V (eV/cell)     -171.1423
Target enthalpy (eV/cell)     -192.9416

siesta: Eigenvalues (eV):
  ik is       eps
   1  1  -24.8895  -18.1972  -18.1971  -14.7913  -13.7306  -13.7305   -9.3963   -5.4007   -5.4006   -3.8983
          -3.8983   -3.2569    1.0551    3.3572    8.0690    8.0692    8.2510   12.6358   12.6359   13.1387
   13.1387   13.6478   13.6478   20.1514   23.7835   23.7835   25.1524   37.2220   37.2221   38.0688
   41.8973   41.8973   43.1684
   2  1  -24.9833  -18.5930  -16.2813  -15.9771  -14.9889  -13.8030   -8.3618   -6.7827   -6.1586   -3.6846
          -2.6271   -2.2322   -0.0614    1.4161    5.2615    7.2937    9.1926   11.7544   12.8771   15.9465
   16.3700   17.3804   19.3582   21.5011   23.1178   24.1941   26.6952   26.7351   38.8741   44.0171
   48.4618   50.9005   56.5477
   3  1  -24.9833  -18.5929  -16.2813  -15.9771  -14.9889  -13.8029   -8.3618   -6.7826   -6.1586   -3.6846
          -2.6271   -2.2323   -0.0614    1.4161    5.2613    7.2940    9.1928   11.7544   12.8772   15.9465
   16.3698   17.3809   19.3582   21.5011   23.1179   24.1935   26.6953   26.7349   38.8740   44.0170
   48.4617   50.9006   56.5476
   4  1  -24.9833  -18.5930  -16.2813  -15.9771  -14.9889  -13.8030   -8.3618   -6.7827   -6.1586   -3.6846
          -2.6271   -2.2322   -0.0614    1.4161    5.2615    7.2937    9.1926   11.7544   12.8771   15.9465
   16.3700   17.3804   19.3582   21.5011   23.1178   24.1941   26.6952   26.7351   38.8741   44.0171
   48.4618   50.9005   56.5477
   5  1  -24.7679  -17.7830  -15.7261  -15.7259  -15.2918  -15.1655   -9.9125   -9.9125   -4.4947   -3.5265
           0.6113    0.6117    3.5060    3.5060    8.2026    8.2026   11.2370   11.2371   11.6243   17.3969
   17.3970   19.0079   19.0080   22.0165   27.6178   35.3849   35.3862   41.7532   42.8145   42.8152
   43.6336   43.6337   45.0010
   6  1  -24.1664  -18.3732  -17.8240  -17.8240  -13.8174  -13.8174   -8.8238   -8.8237   -7.3992   -2.8204
          -2.8203   -2.0048    0.2284    0.2284    1.3085    1.7722    5.5506    5.5508    9.1679   17.4028
   17.4029   18.4580   24.5016   24.5017   24.8205   27.0234   27.0240   31.0545   40.0436   40.0437
   41.2625   52.3621   52.3621
   7  1  -24.3335  -18.7022  -17.7702  -16.0513  -14.9076  -13.7881  -10.1622   -8.5546   -6.7554   -4.7099
          -4.0493   -1.3654   -0.9677   -0.0932    1.5455    1.8585    5.4127    8.3580   16.3631   18.7474
   20.3396   22.4874   23.2706   23.8776   24.3929   26.2408   26.6453   40.3664   40.6028   44.0132
   50.3654   52.3336   55.1461
   8  1  -24.3335  -18.7022  -17.7702  -16.0514  -14.9076  -13.7881  -10.1622   -8.5545   -6.7555   -4.7099
          -4.0492   -1.3653   -0.9678   -0.0932    1.5456    1.8584    5.4128    8.3578   16.3630   18.7475
   20.3401   22.4874   23.2705   23.8776   24.3928   26.2408   26.6452   40.3657   40.6030   44.0132
   50.3654   52.3335   55.1460
   9  1  -24.3335  -18.7022  -17.7702  -16.0513  -14.9076  -13.7881  -10.1622   -8.5546   -6.7554   -4.7099
          -4.0493   -1.3654   -0.9677   -0.0932    1.5455    1.8585    5.4127    8.3580   16.3631   18.7474
   20.3396   22.4874   23.2706   23.8776   24.3929   26.2408   26.6453   40.3664   40.6028   44.0132
   50.3654   52.3336   55.1461
  10  1  -24.5004  -18.7000  -15.6089  -15.6087  -14.9094  -14.2104  -10.6800   -8.7807   -8.7807   -3.9165
          -3.9165   -3.1442   -3.1442    1.5373    3.3173    3.3178   12.6366   12.6367   20.9071   22.3496
   23.9911   23.9911   27.1859   27.1860   29.8192   29.8194   33.4210   33.4221   42.7428   44.6012
   45.6141   60.4249   60.4253
  11  1  -24.3335  -18.7022  -17.7702  -16.0513  -14.9076  -13.7881  -10.1622   -8.5546   -6.7554   -4.7099
          -4.0493   -1.3654   -0.9677   -0.0932    1.5455    1.8585    5.4127    8.3580   16.3631   18.7474
   20.3396   22.4874   23.2706   23.8776   24.3929   26.2408   26.6453   40.3664   40.6028   44.0132
   50.3654   52.3336   55.1461
  12  1  -24.3335  -18.7022  -17.7702  -16.0514  -14.9076  -13.7881  -10.1622   -8.5545   -6.7555   -4.7099
          -4.0492   -1.3653   -0.9678   -0.0932    1.5456    1.8584    5.4128    8.3578   16.3630   18.7475
   20.3401   22.4874   23.2705   23.8776   24.3928   26.2408   26.6452   40.3657   40.6030   44.0132
   50.3654   52.3335   55.1460
  13  1  -24.3335  -18.7022  -17.7702  -16.0513  -14.9076  -13.7881  -10.1622   -8.5546   -6.7554   -4.7099
          -4.0493   -1.3654   -0.9677   -0.0932    1.5455    1.8585    5.4127    8.3580   16.3631   18.7474
   20.3396   22.4874   23.2706   23.8776   24.3929   26.2408   26.6453   40.3664   40.6028   44.0132
   50.3654   52.3336   55.1461
  14  1  -24.1664  -18.3732  -17.8240  -17.8240  -13.8174  -13.8174   -8.8238   -8.8237   -7.3992   -2.8204
          -2.8203   -2.0048    0.2284    0.2284    1.3085    1.7722    5.5506    5.5508    9.1679   17.4028
   17.4029   18.4580   24.5016   24.5017   24.8205   27.0234   27.0240   31.0545   40.0436   40.0437
   41.2625   52.3621   52.3621
siesta: Fermi energy =     -13.855923 eV

siesta: Program's energy decomposition (eV):
siesta: Ebs     =      -182.514217
siesta: Eions   =       321.344870
siesta: Ena     =        78.749888
siesta: Ekin    =       154.869851
siesta: Enl     =         1.825383
siesta: Eso     =         0.000000
siesta: Edftu   =         0.000000
siesta: DEna    =         1.247636
siesta: DUscf   =         2.067750
siesta: DUext   =         0.000000
siesta: Exc     =      -106.932530
siesta: eta*DQ  =         0.000000
siesta: Emadel  =         0.000000
siesta: Emeta   =         0.000000
siesta: Emolmec =        -3.407235
siesta: Ekinion =         0.000000
siesta: Eharris =      -192.924126
siesta: Etot    =      -192.924126
siesta: FreeEng =      -192.941555

siesta: Final energy (eV):
siesta:  Band Struct. =    -182.514217
siesta:       Kinetic =     154.869851
siesta:       Hartree =      57.910108
siesta:       Edftu   =       0.000000
siesta:       Eso     =       0.000000
siesta:    Ext. field =       0.000000
siesta:   Exch.-corr. =    -106.932530
siesta:  Ion-electron =    -333.876451
siesta:       Ion-ion =      38.512131
siesta:       Ekinion =       0.000000
siesta:         Total =    -192.924126
siesta:         Fermi =     -13.855923

siesta: Atomic forces (eV/Ang):
siesta:      1    0.000000   -0.000000    0.000000
siesta:      2   -0.258401    0.447675   -0.000000
siesta:      3    0.258401   -0.447675   -0.000000
siesta:      4   -0.258396   -0.447556   -0.000000
siesta:      5    0.258396    0.447556   -0.000000
siesta:      6    0.516899    0.000056   -0.000000
siesta:      7   -0.516899   -0.000056   -0.000000
siesta: ----------------------------------------
siesta:    Tot    0.000000    0.000000   -0.000000

siesta: Stress tensor (static) (eV/Ang**3):
siesta:    -0.757666   -0.000016   -0.000000
siesta:    -0.000016   -0.757684   -0.000000
siesta:    -0.000000   -0.000000    0.145831

siesta: Cell volume =         47.752371 Ang**3

siesta: Pressure (static):
siesta:                Solid            Molecule  Units
siesta:           0.00497194          0.00514931  Ry/Bohr**3
siesta:           0.45650650          0.47279207  eV/Ang**3
siesta:         731.41195899        757.50459065  kBar
(Free)E+ p_basis*V_orbitals  =        -176.429629
(Free)Eharris+ p_basis*V_orbitals  =        -176.429629

cite: Please see "LiC6_scf.bib" for an exhaustive BiBTeX file.
cite: Please clearly indicate Siesta version in published work: 4.1.5
cite: This calculation has made use of the following articles
cite: which are encouraged to be cited in a published work.
        Primary SIESTA paper
          DOI: www.doi.org/10.1088/0953-8984/14/11/302

>> End of run:   9-NOV-2022  13:16:08
Job completed
