Siesta Version  : 4.1.5
Architecture    : x86_64-unknown-linux-gnu--unknown
Compiler version: GNU Fortran (GCC) 11.3.0
Compiler flags  : mpif90 -g -O2 -fallow-argument-mismatch
PP flags        : -DMPI -DFC_HAVE_FLUSH -DFC_HAVE_ABORT
Libraries       :  -I/global/software/sl-7.x86_64/modules/intel/2020.4.304/mkl/include  /globall/software/sl-7.x86_64/modules/intel/2020.4.304/mkl/lib/intel64/libmkl_scalapack_lp64.a -Wl,--start-group /global/software/sl-7.x86_64/modules/intel/2020.4.304/mkl/lib/intel64/libmkl_intel_lp64.a /global/software/sl-7.x86_64/modules/intel/2020.4.304/mkl/lib/intel64/libmkl_sequential.a /global/software/sl-7.x86_64/modules/intel/2020.4.304/mkl/lib/intel64/libmkl_core.a /global/software/sl-7.x86_64/modules/intel/2020.4.304/mkl/lib/intel64/libmkl_blacs_openmpi_lp64.a -Wl,--end-group -lpthread -lm -ldl
PARALLEL version

* Running on 4 nodes in parallel
>> Start of run:   9-NOV-2022  13:58:01

                           ***********************       
                           *  WELCOME TO SIESTA  *       
                           ***********************       

reinit: Reading from standard input
reinit: Dumped input in INPUT_TMP.48292
************************** Dump of input data file ****************************
SystemName LiC6_scf
SystemLabel LiC6_scf
NumberOfAtoms   7
NumberOfSpecies 2
%block ChemicalSpeciesLabel
1  3   Li-gga
2  6   C-gga
%endblock ChemicalSpeciesLabel
PAO.BasisSize  SZP
PAO.EnergyShift  10 meV
%block PS.Lmax
C-gga   2
Li-gga  2
%endblock PS.Lmax
LatticeConstant 1.000000 Ang
%block LatticeVectors
	4.3161300000	0.0000000000	0.0000000000
	-2.1580650000	3.7378782260	0.0000000000
	0.0000000000	0.0000000000	3.6998600000
%endblock LatticeVectors
AtomicCoordinatesFormat Ang
%block AtomicCoordinatesAndAtomicSpecies
	0.00000000	0.00000000	0.00000000	2
	-0.70288177	1.21742694	1.84993000	1
	-1.45518323	2.52045129	1.84993000	1
	1.45518323	2.52045129	1.84993000	1
	0.70288177	1.21742694	1.84993000	1
	1.40576354	0.00000000	1.84993000	1
	2.91036646	0.00000000	1.84993000	1
%endblock AtomicCoordinatesAndAtomicSpecies
Kgrid_NoTRS  T
%block kgrid_MonkhorstPack
3       0       0       0.0
0       3       0       0.0
0       0       3       0.0
%endblock kgrid_MonkhorstPack
AtomCoorFormatOut Ang
BlockSize 1
#ProcessorY 12
Diag.ParallelOverK   T
Diag.DivideAndConquer F
MeshCutoff   300 Ry
SCF.FreeE.Tolerance 1E-3 eV
SCF.EDM.Tolerance   5E-3 eV
DM.Tolerance  1E-3
DM.Require.Energy.Convergence T
DM.NumberPulay 4
XC.Functional GGA
XC.Authors    PBE
UseSaveData        F
MD.TypeOfRun       CG
MD.VariableCell    F
MD.NumCGsteps      00
MD.MaxCGDispl      0.200000 Bohr
MD.MaxStressTol    1.000000 GPa
MD.MaxForceTol     0.010000 eV/Ang
WriteMDHistory T
WriteCoorStep T
WriteForces T
WriteCoorStep    T
WriteEigenValues T
WriteDM    F
MM.UnitsDistance Ang  # what this program prints out DO NOT CHANGE
MM.UnitsEnergy    eV  # what this program prints out DO NOT CHANGE
MM.Grimme.S6     0.75 # Grimme-paper for PBE (correct for your functional)
MM.Grimme.D     20.   # Grimme-paper (correct for your functional)
%block MM.Potentials
  1   1 Grimme     16.69      1.650 # Li, 10.1002/jcc.20495
  1   2 Grimme     17.40      2.277 # Li / C
  2   2 Grimme     18.14      2.904 # C, 10.1002/jcc.20495
%endblock MM.Potentials
#%block ProjectedDensityOfStates
# -200.0  120.0  0.4  12800  eV
#%endblock ProjectedDensityOfStates
************************** End of input data file *****************************

reinit: -----------------------------------------------------------------------
reinit: System Name: LiC6_scf
reinit: -----------------------------------------------------------------------
reinit: System Label: LiC6_scf
reinit: -----------------------------------------------------------------------
Reading two-body potentials
Grimme - two-body potential between 1 and 1
Grimme - two-body potential between 1 and 2
Grimme - two-body potential between 2 and 2

initatom: Reading input for the pseudopotentials and atomic orbitals ----------
Species number:   1 Atomic number:    3 Label: Li-gga
Species number:   2 Atomic number:    6 Label: C-gga

Ground state valence configuration:   2s01
Reading pseudopotential information in formatted form from Li-gga.psf

Valence configuration for pseudopotential generation:
2s( 1.00) rc: 2.28
2p( 0.00) rc: 2.28
3d( 0.00) rc: 2.59
4f( 0.00) rc: 2.59
Ground state valence configuration:   2s02  2p02
Reading pseudopotential information in formatted form from C-gga.psf

Valence configuration for pseudopotential generation:
2s( 2.00) rc: 1.56
2p( 2.00) rc: 1.56
3d( 0.00) rc: 1.56
4f( 0.00) rc: 1.56
relmxkb: Read Max KB Ang. Momentum=    2 for species C-gga
relmxkb: Read Max KB Ang. Momentum=    2 for species Li-gga

<basis_specs>
===============================================================================
Li-gga               Z=   3    Mass=  6.9400        Charge= 0.17977+309
Lmxo=0 Lmxkb= 2    BasisType=split      Semic=F
L=0  Nsemic=0  Cnfigmx=2
          i=1  nzeta=1  polorb=1  (2s)
            splnorm:   0.15000    
               vcte:    0.0000    
               rinn:    0.0000    
               qcoe:    0.0000    
               qyuk:    0.0000    
               qwid:   0.10000E-01
                rcs:    0.0000    
            lambdas:    1.0000    
-------------------------------------------------------------------------------
L=0  Nkbl=1  erefs: 0.17977+309
L=1  Nkbl=1  erefs: 0.17977+309
L=2  Nkbl=1  erefs: 0.17977+309
===============================================================================
</basis_specs>

atom: Called for Li-gga                (Z =   3)

read_vps: Pseudopotential generation method:
read_vps: ATM 3.2.2 Troullier-Martins                       
Valence charge for ps generation:    1.00000

read_vps: Pseudopotential includes a core correction:
read_vps: Pseudo-core for xc-correction

xc_check: Exchange-correlation functional:
xc_check: GGA Perdew, Burke & Ernzerhof 1996
V l=0 = -2*Zval/r beyond r=  2.2278
V l=1 = -2*Zval/r beyond r=  2.2278
V l=2 = -2*Zval/r beyond r=  2.5245
All V_l potentials equal beyond r=  2.4622
This should be close to max(r_c) in ps generation
All pots = -2*Zval/r beyond r=  2.5245

VLOCAL1: 99.0% of the norm of Vloc inside      7.160 Ry
VLOCAL1: 99.9% of the norm of Vloc inside     16.318 Ry
atom: Maximum radius for 4*pi*r*r*local-pseudopot. charge    2.86079
atom: Maximum radius for r*vlocal+2*Zval:    2.43160
GHOST: No ghost state for L =  0
GHOST: No ghost state for L =  1
GHOST: No ghost state for L =  2

KBgen: Kleinman-Bylander projectors: 
   l= 0   rc=  2.654023   el= -0.211234   Ekb=  1.742119   kbcos=  0.228463
   l= 1   rc=  2.721230   el= -0.080095   Ekb= -1.122375   kbcos= -0.147941
   l= 2   rc=  2.825246   el=  0.002001   Ekb= -0.207076   kbcos= -0.031965

KBgen: Total number of Kleinman-Bylander projectors:    9
atom: -------------------------------------------------------------------------

atom: SANKEY-TYPE ORBITALS:

SPLIT: Orbitals with angular momentum L= 0

SPLIT: Basis orbitals for state 2s

SPLIT: PAO cut-off radius determined from an
SPLIT: energy shift=  0.000735 Ry

   izeta = 1
                 lambda =    1.000000
                     rc =   11.897381
                 energy =   -0.210580
                kinetic =    0.143382
    potential(screened) =   -0.353962
       potential(ionic) =   -0.533453

POLgen: Perturbative polarization orbital with L=  1

POLgen: Polarization orbital for state 2s

   izeta = 1
                     rc =   11.897381
                 energy =   -0.027011
                kinetic =    0.282985
    potential(screened) =   -0.309997
       potential(ionic) =   -0.490997
atom: Total number of Sankey-type orbitals:  4

atm_pop: Valence configuration (for local Pseudopot. screening):
 2s( 1.00)                                                            
Vna: chval, zval:    1.00000   1.00000

Vna:  Cut-off radius for the neutral-atom potential:  11.897381
comcore: Pseudo-core radius Rcore=  3.450946

atom: _________________________________________________________________________

<basis_specs>
===============================================================================
C-gga                Z=   6    Mass=  12.010        Charge= 0.17977+309
Lmxo=1 Lmxkb= 2    BasisType=split      Semic=F
L=0  Nsemic=0  Cnfigmx=2
          i=1  nzeta=1  polorb=0  (2s)
            splnorm:   0.15000    
               vcte:    0.0000    
               rinn:    0.0000    
               qcoe:    0.0000    
               qyuk:    0.0000    
               qwid:   0.10000E-01
                rcs:    0.0000    
            lambdas:    1.0000    
L=1  Nsemic=0  Cnfigmx=2
          i=1  nzeta=1  polorb=1  (2p)
            splnorm:   0.15000    
               vcte:    0.0000    
               rinn:    0.0000    
               qcoe:    0.0000    
               qyuk:    0.0000    
               qwid:   0.10000E-01
                rcs:    0.0000    
            lambdas:    1.0000    
-------------------------------------------------------------------------------
L=0  Nkbl=1  erefs: 0.17977+309
L=1  Nkbl=1  erefs: 0.17977+309
L=2  Nkbl=1  erefs: 0.17977+309
===============================================================================
</basis_specs>

atom: Called for C-gga                 (Z =   6)

read_vps: Pseudopotential generation method:
read_vps: ATM 3.2.2 Troullier-Martins                       
Valence charge for ps generation:    4.00000

xc_check: Exchange-correlation functional:
xc_check: GGA Perdew, Burke & Ernzerhof 1996
V l=0 = -2*Zval/r beyond r=  1.5227
V l=1 = -2*Zval/r beyond r=  1.5227
V l=2 = -2*Zval/r beyond r=  1.5227
All V_l potentials equal beyond r=  1.4851
This should be close to max(r_c) in ps generation
All pots = -2*Zval/r beyond r=  1.5227

VLOCAL1: 99.0% of the norm of Vloc inside     19.682 Ry
VLOCAL1: 99.9% of the norm of Vloc inside     44.856 Ry
atom: Maximum radius for 4*pi*r*r*local-pseudopot. charge    1.79142
atom: Maximum radius for r*vlocal+2*Zval:    1.54183
GHOST: No ghost state for L =  0
GHOST: No ghost state for L =  1
GHOST: No ghost state for L =  2

KBgen: Kleinman-Bylander projectors: 
   l= 0   rc=  1.661951   el= -1.010689   Ekb=  5.289847   kbcos=  0.316429
   l= 1   rc=  1.661951   el= -0.388490   Ekb= -4.102504   kbcos= -0.351025
   l= 2   rc=  1.747182   el=  0.001971   Ekb= -1.006005   kbcos= -0.008530

KBgen: Total number of Kleinman-Bylander projectors:    9
atom: -------------------------------------------------------------------------

atom: SANKEY-TYPE ORBITALS:

SPLIT: Orbitals with angular momentum L= 0

SPLIT: Basis orbitals for state 2s

SPLIT: PAO cut-off radius determined from an
SPLIT: energy shift=  0.000735 Ry

   izeta = 1
                 lambda =    1.000000
                     rc =    5.948690
                 energy =   -1.010099
                kinetic =    0.827121
    potential(screened) =   -1.837220
       potential(ionic) =   -5.392783

SPLIT: Orbitals with angular momentum L= 1

SPLIT: Basis orbitals for state 2p

SPLIT: PAO cut-off radius determined from an
SPLIT: energy shift=  0.000735 Ry

   izeta = 1
                 lambda =    1.000000
                     rc =    7.638387
                 energy =   -0.387843
                kinetic =    2.314739
    potential(screened) =   -2.702582
       potential(ionic) =   -6.092371

POLgen: Perturbative polarization orbital with L=  2

POLgen: Polarization orbital for state 2p

   izeta = 1
                     rc =    7.638387
                 energy =    0.921402
                kinetic =    1.955040
    potential(screened) =   -1.033637
       potential(ionic) =   -3.679558
atom: Total number of Sankey-type orbitals:  9

atm_pop: Valence configuration (for local Pseudopot. screening):
 2s( 2.00)                                                            
 2p( 2.00)                                                            
Vna: chval, zval:    4.00000   4.00000

Vna:  Cut-off radius for the neutral-atom potential:   7.638387

atom: _________________________________________________________________________

prinput: Basis input ----------------------------------------------------------

PAO.BasisType split     

%block ChemicalSpeciesLabel
    1    3 Li-gga                  # Species index, atomic number, species label
    2    6 C-gga                   # Species index, atomic number, species label
%endblock ChemicalSpeciesLabel

%block PAO.Basis                 # Define Basis set
Li-gga                1                    # Species label, number of l-shells
 n=2   0   1 P   1                   # n, l, Nzeta, Polarization, NzetaPol
  11.897   
   1.000   
C-gga                 2                    # Species label, number of l-shells
 n=2   0   1                         # n, l, Nzeta 
   5.949   
   1.000   
 n=2   1   1 P   1                   # n, l, Nzeta, Polarization, NzetaPol
   7.638   
   1.000   
%endblock PAO.Basis

prinput: ----------------------------------------------------------------------

coor:   Atomic-coordinates input format  =     Cartesian coordinates
coor:                                          (in Angstroms)

siesta: Atomic coordinates (Bohr) and species
siesta:      0.00000   0.00000   0.00000  2        1
siesta:     -1.32825   2.30060   3.49586  1        2
siesta:     -2.74990   4.76296   3.49586  1        3
siesta:      2.74990   4.76296   3.49586  1        4
siesta:      1.32825   2.30060   3.49586  1        5
siesta:      2.65651   0.00000   3.49586  1        6
siesta:      5.49980   0.00000   3.49586  1        7

siesta: System type = bulk      

initatomlists: Number of atoms, orbitals, and projectors:      7    33    63

siesta: ******************** Simulation parameters ****************************
siesta:
siesta: The following are some of the parameters of the simulation.
siesta: A complete list of the parameters used, including default values,
siesta: can be found in file out.fdf
siesta:
redata: Spin configuration                          = none
redata: Number of spin components                   = 1
redata: Time-Reversal Symmetry                      = T
redata: Spin spiral                                 = F
redata: Long output                                 =   F
redata: Number of Atomic Species                    =        2
redata: Charge density info will appear in .RHO file
redata: Write Mulliken Pop.                         = NO
redata: Matel table size (NRTAB)                    =     1024
redata: Mesh Cutoff                                 =   300.0000 Ry
redata: Net charge of the system                    =     0.0000 |e|
redata: Min. number of SCF Iter                     =        0
redata: Max. number of SCF Iter                     =     1000
redata: SCF convergence failure will abort job
redata: SCF mix quantity                            = Hamiltonian
redata: Mix DM or H after convergence               =   F
redata: Recompute H after scf cycle                 =   F
redata: Mix DM in first SCF step                    =   T
redata: Write Pulay info on disk                    =   F
redata: New DM Occupancy tolerance                  = 0.000000000001
redata: No kicks to SCF
redata: DM Mixing Weight for Kicks                  =     0.5000
redata: Require Harris convergence for SCF          =   F
redata: Harris energy tolerance for SCF             =     0.000100 eV
redata: Require DM convergence for SCF              =   T
redata: DM tolerance for SCF                        =     0.001000
redata: Require EDM convergence for SCF             =   F
redata: EDM tolerance for SCF                       =     0.005000 eV
redata: Require H convergence for SCF               =   T
redata: Hamiltonian tolerance for SCF               =     0.001000 eV
redata: Require (free) Energy convergence for SCF   =   T
redata: (free) Energy tolerance for SCF             =     0.001000 eV
redata: Using Saved Data (generic)                  =   F
redata: Use continuation files for DM               =   F
redata: Neglect nonoverlap interactions             =   F
redata: Method of Calculation                       = Diagonalization
redata: Electronic Temperature                      =   299.9869 K
redata: Fix the spin of the system                  =   F
redata: Dynamics option                             = Single-point calculation
mix.SCF: Pulay mixing                            = Pulay
mix.SCF:    Variant                              = stable
mix.SCF:    History steps                        = 4
mix.SCF:    Linear mixing weight                 =     0.250000
mix.SCF:    Mixing weight                        =     0.250000
mix.SCF:    SVD condition                        = 0.1000E-07
redata: ***********************************************************************

%block SCF.Mixers
  Pulay
%endblock SCF.Mixers

%block SCF.Mixer.Pulay
  # Mixing method
  method pulay
  variant stable

  # Mixing options
  weight 0.2500
  weight.linear 0.2500
  history 4
%endblock SCF.Mixer.Pulay

DM_history_depth set to one: no extrapolation allowed by default for geometry relaxation
Size of DM history Fstack: 1
Total number of electrons:    10.000000
Total ionic charge:    10.000000

* ProcessorY, Blocksize:    2   1


* Orbital distribution balance (max,min):     9     8

 Kpoints in:           18 . Kpoints trimmed:           14

siesta: k-grid: Number of k-points =    14
siesta: k-grid: Cutoff (effective) =     5.550 Ang
siesta: k-grid: Supercell and displacements
siesta: k-grid:    3   0   0      0.000
siesta: k-grid:    0   3   0      0.000
siesta: k-grid:    0   0   3      0.000

diag: Algorithm                                     = Expert
diag: Parallel over k                               =   T
diag: Use parallel 2D distribution                  =   T
diag: Parallel block-size                           = 1
diag: Parallel distribution                         =     2 x     2
diag: Used triangular part                          = Lower
diag: Absolute tolerance                            =  0.100E-15
diag: Orthogonalization factor                      =  0.100E-05
diag: Memory factor                                 =  1.0000

superc: Internal auxiliary supercell:     9 x     9 x     9  =     729
superc: Number of atoms, orbitals, and projectors:   5103  24057  45927


ts: **************************************************************
ts: Save H and S matrices                           =    F
ts: Save DM and EDM matrices                        =    F
ts: Only save the overlap matrix S                  =    F
ts: **************************************************************

************************ Begin: TS CHECKS AND WARNINGS ************************
************************ End: TS CHECKS AND WARNINGS **************************


                     ====================================
                        Single-point calculation
                     ====================================

outcoor: Atomic coordinates (Ang):                          
    0.00000000    0.00000000    0.00000000   2       1  C-gga
   -0.70288177    1.21742694    1.84993000   1       2  Li-gga
   -1.45518323    2.52045129    1.84993000   1       3  Li-gga
    1.45518323    2.52045129    1.84993000   1       4  Li-gga
    0.70288177    1.21742694    1.84993000   1       5  Li-gga
    1.40576354    0.00000000    1.84993000   1       6  Li-gga
    2.91036646    0.00000000    1.84993000   1       7  Li-gga

superc: Internal auxiliary supercell:     9 x     9 x     9  =     729
superc: Number of atoms, orbitals, and projectors:   5103  24057  45927

outcell: Unit cell vectors (Ang):
        4.316130    0.000000    0.000000
       -2.158065    3.737878    0.000000
        0.000000    0.000000    3.699860

outcell: Cell vector modules (Ang)   :    4.316130    4.316130    3.699860
outcell: Cell angles (23,13,12) (deg):     90.0000     90.0000    120.0000
outcell: Cell volume (Ang**3)        :     59.6905
<dSpData1D:S at geom step 0
  <sparsity:sparsity for geom step 0
    nrows_g=33 nrows=9 sparsity=47.4297 nnzs=51651, refcount: 7>
  <dData1D:(new from dSpData1D) n=51651, refcount: 1>
refcount: 1>
new_DM -- step:     1
Initializing Density Matrix...
DM filled with atomic data:
<dSpData2D:DM initialized from atoms
  <sparsity:sparsity for geom step 0
    nrows_g=33 nrows=9 sparsity=47.4297 nnzs=51651, refcount: 8>
  <dData2D:DM n=51651 m=1, refcount: 1>
refcount: 1>
No. of atoms with KB's overlaping orbs in proc 0. Max # of overlaps:     368     908
New grid distribution:   1
           1       1:   20    1:   10    1:   10
           2       1:   20    1:   10   11:   20
           3       1:   20   11:   20    1:   10
           4       1:   20   11:   20   11:   20

InitMesh: MESH =    40 x    40 x    40 =       64000
InitMesh: (bp) =    20 x    20 x    20 =        8000
InitMesh: Mesh cutoff (required, used) =   300.000   316.498 Ry
ExtMesh (bp) on 0 =   156 x   146 x   150 =     3416400
New grid distribution:   2
           1       1:   20    1:   10    1:   10
           2       1:   20    1:   10   11:   20
           3       1:   20   11:   20    1:   10
           4       1:   20   11:   20   11:   20
New grid distribution:   3
           1       1:   20    1:   10    1:   10
           2       1:   20    1:   10   11:   20
           3       1:   20   11:   20    1:   10
           4       1:   20   11:   20   11:   20
Setting up quadratic distribution...
ExtMesh (bp) on 0 =   156 x   146 x   150 =     3416400
PhiOnMesh: Number of (b)points on node 0 =                 2000
PhiOnMesh: nlist on node 0 =               953868

stepf: Fermi-Dirac step function

siesta: Program's energy decomposition (eV):
siesta: Ebs     =      -133.399365
siesta: Eions   =       321.344870
siesta: Ena     =        86.786586
siesta: Ekin    =       153.820015
siesta: Enl     =        -0.085418
siesta: Eso     =         0.000000
siesta: Edftu   =         0.000000
siesta: DEna    =        -2.666319
siesta: DUscf   =         3.877590
siesta: DUext   =         0.000000
siesta: Exc     =      -104.238226
siesta: eta*DQ  =         0.000000
siesta: Emadel  =         0.000000
siesta: Emeta   =         0.000000
siesta: Emolmec =        -3.307427
siesta: Ekinion =         0.000000
siesta: Eharris =      -176.164041
siesta: Etot    =      -187.158068
siesta: FreeEng =      -187.175099

        iscf     Eharris(eV)        E_KS(eV)     FreeEng(eV)     dDmax    Ef(eV) dHmax(eV)
   scf:    1     -176.164041     -187.158068     -187.175099  1.360884-12.225680  5.586274
timer: Routine,Calls,Time,% = IterSCF        1      11.217  58.32
   scf:    2     -187.877624     -189.079030     -189.085500  0.378945-12.282679  1.642242
   scf:    3     -189.165677     -189.270174     -189.288200  0.126790-12.333118  0.463156
   scf:    4     -189.261256     -189.284529     -189.297731  0.051222-12.335126  0.296575
   scf:    5     -189.246012     -189.279813     -189.297066  0.046000-12.367112  0.339575
   scf:    6     -189.278888     -189.289650     -189.303362  0.036920-12.361561  0.188866
   scf:    7     -189.291553     -189.291661     -189.306455  0.012408-12.363094  0.022987
   scf:    8     -189.291388     -189.291546     -189.306501  0.001700-12.363237  0.000407
   scf:    9     -189.291554     -189.291550     -189.306501  0.000054-12.363249  0.000122

SCF Convergence by FreeE+DM+H criterion
|FreeE_i-FreeE_(i-1)| (eV) <     0.00100000
max |DM_out - DM_in|         :     0.0000539083
max |H_out - H_in|      (eV) :     0.0001220626
SCF cycle converged after 9 iterations

Using DM_out to compute the final energy and forces
No. of atoms with KB's overlaping orbs in proc 0. Max # of overlaps:     368     908

MM-Stress (kbar):       -9.63       -9.63       14.57        0.00        0.00        0.00

siesta: E_KS(eV) =             -189.2916

siesta: E_KS - E_eggbox =      -189.2916

siesta: Atomic forces (eV/Ang):
     1    0.000000    0.000000    0.000000
     2    0.143070   -0.247772   -0.000000
     3   -0.143070    0.247772   -0.000000
     4    0.143019    0.247716   -0.000000
     5   -0.143019   -0.247716   -0.000000
     6   -0.286112    0.000016   -0.000000
     7    0.286112   -0.000016   -0.000000
----------------------------------------
   Tot   -0.000000    0.000000    0.000000
----------------------------------------
   Max    0.286112
   Res    0.152920    sqrt( Sum f_i^2 / 3N )
----------------------------------------
   Max    0.286112    constrained

Stress tensor Voigt[x,y,z,yz,xz,xy] (kbar):    -1058.10    -1058.12      579.14       -0.00        0.00       -0.02
(Free)E + p*V (eV/cell)     -170.2183
Target enthalpy (eV/cell)     -189.3065

siesta: Eigenvalues (eV):
  ik is       eps
   1  1  -21.6564  -14.8981  -14.8981  -14.1889  -10.6115  -10.6114   -7.7381   -7.3718   -7.3717   -5.5876
          -1.5502   -1.5501    0.1978    2.3024    3.7795    3.7797    9.4542    9.4543   10.7982   10.7982
   10.9159   16.4337   16.4342   17.2984   20.3335   20.8037   20.8037   25.0232   30.6109   30.6110
   43.9649   43.9649   46.9436
   2  1  -21.7694  -15.2700  -14.4478  -13.1085  -12.7137  -10.6577   -7.8223   -7.7515   -5.1251   -3.7413
          -3.2016   -3.0937   -0.5630   -0.3755    4.6708    4.7060    5.0943    9.6029   10.0744   10.8331
   13.5462   17.9059   20.2136   21.7843   22.9680   24.0803   25.6994   26.3277   26.3985   44.9625
   48.0035   49.6105   50.7070
   3  1  -21.7694  -15.2700  -14.4478  -13.1085  -12.7138  -10.6576   -7.8224   -7.7515   -5.1251   -3.7413
          -3.2016   -3.0937   -0.5629   -0.3757    4.6708    4.7060    5.0944    9.6030   10.0744   10.8332
   13.5460   17.9060   20.2133   21.7846   22.9680   24.0803   25.6993   26.3273   26.3984   44.9624
   48.0034   49.6104   50.7070
   4  1  -21.7694  -15.2700  -14.4478  -13.1085  -12.7137  -10.6577   -7.8223   -7.7515   -5.1251   -3.7413
          -3.2016   -3.0937   -0.5630   -0.3755    4.6708    4.7060    5.0943    9.6029   10.0744   10.8331
   13.5462   17.9059   20.2136   21.7843   22.9680   24.0803   25.6994   26.3277   26.3985   44.9625
   48.0035   49.6105   50.7070
   5  1  -21.7586  -14.8237  -14.4273  -12.4128  -12.4127  -11.9755   -7.7901   -6.5670   -6.5669   -5.5515
          -0.5833   -0.5832    0.0715    0.0718    1.7811    1.7811    9.4854   11.8082   11.8084   17.7396
   17.7397   18.2354   18.2356   24.4340   36.0024   37.0437   37.0448   38.1262   38.1263   38.8104
   38.8107   46.2945   49.1440
   6  1  -21.2529  -16.2646  -14.3405  -14.3405  -12.2229  -12.2229   -6.7793   -6.7791   -4.7729   -3.9099
          -2.4157   -2.4156   -1.9095    2.6411    2.6411    4.5243    5.8021    5.8022    9.0486   14.9490
   17.2775   17.2775   20.5614   20.5615   22.0237   24.4266   25.8468   25.8476   38.7533   38.7533
   41.9786   44.1037   44.1038
   7  1  -21.3874  -16.3840  -14.5678  -12.7948  -12.6581  -12.4029   -8.0632   -6.3739   -5.2207   -3.9634
          -3.5930   -3.0992   -0.4732   -0.1973    1.8435    4.3142    5.0669    7.5740   13.1163   17.0821
   17.7500   20.1924   21.0336   21.9425   23.2517   24.6996   24.9769   36.0072   41.1276   46.4199
   47.8068   52.9244   54.9196
   8  1  -21.3874  -16.3840  -14.5678  -12.7948  -12.6582  -12.4029   -8.0631   -6.3738   -5.2207   -3.9633
          -3.5930   -3.0991   -0.4731   -0.1974    1.8435    4.3142    5.0669    7.5739   13.1163   17.0821
   17.7498   20.1925   21.0335   21.9425   23.2523   24.6995   24.9768   36.0073   41.1270   46.4198
   47.8068   52.9244   54.9195
   9  1  -21.3874  -16.3840  -14.5678  -12.7948  -12.6581  -12.4029   -8.0632   -6.3739   -5.2207   -3.9634
          -3.5930   -3.0992   -0.4732   -0.1973    1.8435    4.3142    5.0669    7.5740   13.1163   17.0821
   17.7500   20.1924   21.0336   21.9425   23.2517   24.6996   24.9769   36.0072   41.1276   46.4199
   47.8068   52.9244   54.9196
  10  1  -21.5808  -16.2661  -13.4998  -12.3027  -12.3025  -12.1876   -9.2355   -5.6960   -5.6960   -3.9737
          -3.9737   -3.8423   -2.6483   -2.6483    3.6346    3.6350   13.2535   15.4972   15.4972   20.6233
   20.6234   23.1038   23.1040   23.1551   28.4622   28.4630   29.3341   29.3342   41.7004   44.3228
   45.6546   55.4555   55.4557
  11  1  -21.3874  -16.3840  -14.5678  -12.7948  -12.6581  -12.4029   -8.0632   -6.3739   -5.2207   -3.9634
          -3.5930   -3.0992   -0.4732   -0.1973    1.8435    4.3142    5.0669    7.5740   13.1163   17.0821
   17.7500   20.1924   21.0336   21.9425   23.2517   24.6996   24.9769   36.0072   41.1276   46.4199
   47.8068   52.9244   54.9196
  12  1  -21.3874  -16.3840  -14.5678  -12.7948  -12.6582  -12.4029   -8.0631   -6.3738   -5.2207   -3.9633
          -3.5930   -3.0991   -0.4731   -0.1974    1.8435    4.3142    5.0669    7.5739   13.1163   17.0821
   17.7498   20.1925   21.0335   21.9425   23.2523   24.6995   24.9768   36.0073   41.1270   46.4198
   47.8068   52.9244   54.9195
  13  1  -21.3874  -16.3840  -14.5678  -12.7948  -12.6581  -12.4029   -8.0632   -6.3739   -5.2207   -3.9634
          -3.5930   -3.0992   -0.4732   -0.1973    1.8435    4.3142    5.0669    7.5740   13.1163   17.0821
   17.7500   20.1924   21.0336   21.9425   23.2517   24.6996   24.9769   36.0072   41.1276   46.4199
   47.8068   52.9244   54.9196
  14  1  -21.2529  -16.2646  -14.3405  -14.3405  -12.2229  -12.2229   -6.7793   -6.7791   -4.7729   -3.9099
          -2.4157   -2.4156   -1.9095    2.6411    2.6411    4.5243    5.8021    5.8022    9.0486   14.9490
   17.2775   17.2775   20.5614   20.5615   22.0237   24.4266   25.8468   25.8476   38.7533   38.7533
   41.9786   44.1037   44.1038
siesta: Fermi energy =     -12.363249 eV

siesta: Program's energy decomposition (eV):
siesta: Ebs     =      -155.256065
siesta: Eions   =       321.344870
siesta: Ena     =        86.786586
siesta: Ekin    =       135.396493
siesta: Enl     =         6.183001
siesta: Eso     =         0.000000
siesta: Edftu   =         0.000000
siesta: DEna    =         6.339050
siesta: DUscf   =         0.927729
siesta: DUext   =         0.000000
siesta: Exc     =      -100.272113
siesta: eta*DQ  =         0.000000
siesta: Emadel  =         0.000000
siesta: Emeta   =         0.000000
siesta: Emolmec =        -3.307427
siesta: Ekinion =         0.000000
siesta: Eharris =      -189.291554
siesta: Etot    =      -189.291550
siesta: FreeEng =      -189.306501

siesta: Final energy (eV):
siesta:  Band Struct. =    -155.256065
siesta:       Kinetic =     135.396493
siesta:       Hartree =      46.884722
siesta:       Edftu   =       0.000000
siesta:       Eso     =       0.000000
siesta:    Ext. field =       0.000000
siesta:   Exch.-corr. =    -100.272113
siesta:  Ion-electron =    -273.733384
siesta:       Ion-ion =       5.740158
siesta:       Ekinion =       0.000000
siesta:         Total =    -189.291550
siesta:         Fermi =     -12.363249

siesta: Atomic forces (eV/Ang):
siesta:      1    0.000000    0.000000    0.000000
siesta:      2    0.143070   -0.247772   -0.000000
siesta:      3   -0.143070    0.247772   -0.000000
siesta:      4    0.143019    0.247716   -0.000000
siesta:      5   -0.143019   -0.247716   -0.000000
siesta:      6   -0.286112    0.000016   -0.000000
siesta:      7    0.286112   -0.000016   -0.000000
siesta: ----------------------------------------
siesta:    Tot   -0.000000    0.000000    0.000000

siesta: Stress tensor (static) (eV/Ang**3):
siesta:    -0.660406   -0.000013   -0.000000
siesta:    -0.000013   -0.660421   -0.000000
siesta:     0.000000   -0.000000    0.361466

siesta: Cell volume =         59.690464 Ang**3

siesta: Pressure (static):
siesta:                Solid            Molecule  Units
siesta:           0.00348289          0.00340435  Ry/Bohr**3
siesta:           0.31978674          0.31257540  eV/Ang**3
siesta:         512.36038250        500.80642003  kBar
(Free)E+ p_basis*V_orbitals  =        -172.794576
(Free)Eharris+ p_basis*V_orbitals  =        -172.794580

cite: Please see "LiC6_scf.bib" for an exhaustive BiBTeX file.
cite: Please clearly indicate Siesta version in published work: 4.1.5
cite: This calculation has made use of the following articles
cite: which are encouraged to be cited in a published work.
        Primary SIESTA paper
          DOI: www.doi.org/10.1088/0953-8984/14/11/302

>> End of run:   9-NOV-2022  13:59:47
Job completed
