Siesta Version  : 4.1.5
Architecture    : x86_64-unknown-linux-gnu--unknown
Compiler version: GNU Fortran (GCC) 11.3.0
Compiler flags  : mpif90 -g -O2 -fallow-argument-mismatch
PP flags        : -DMPI -DFC_HAVE_FLUSH -DFC_HAVE_ABORT
Libraries       :  -I/global/software/sl-7.x86_64/modules/intel/2020.4.304/mkl/include  /globall/software/sl-7.x86_64/modules/intel/2020.4.304/mkl/lib/intel64/libmkl_scalapack_lp64.a -Wl,--start-group /global/software/sl-7.x86_64/modules/intel/2020.4.304/mkl/lib/intel64/libmkl_intel_lp64.a /global/software/sl-7.x86_64/modules/intel/2020.4.304/mkl/lib/intel64/libmkl_sequential.a /global/software/sl-7.x86_64/modules/intel/2020.4.304/mkl/lib/intel64/libmkl_core.a /global/software/sl-7.x86_64/modules/intel/2020.4.304/mkl/lib/intel64/libmkl_blacs_openmpi_lp64.a -Wl,--end-group -lpthread -lm -ldl
PARALLEL version

* Running on 4 nodes in parallel
>> Start of run:   9-NOV-2022  14:16:48

                           ***********************       
                           *  WELCOME TO SIESTA  *       
                           ***********************       

reinit: Reading from standard input
reinit: Dumped input in INPUT_TMP.75892
************************** Dump of input data file ****************************
SystemName LiC6_scf
SystemLabel LiC6_scf
NumberOfAtoms   7
NumberOfSpecies 2
%block ChemicalSpeciesLabel
1  3   Li-gga
2  6   C-gga
%endblock ChemicalSpeciesLabel
PAO.BasisSize  SZP
PAO.EnergyShift  10 meV
%block PS.Lmax
C-gga   2
Li-gga  2
%endblock PS.Lmax
LatticeConstant 1.000000 Ang
%block LatticeVectors
	4.3161300000	0.0000000000	0.0000000000
	-2.1580650000	3.7378782260	0.0000000000
	0.0000000000	0.0000000000	4.9578124000
%endblock LatticeVectors
AtomicCoordinatesFormat Ang
%block AtomicCoordinatesAndAtomicSpecies
	0.00000000	0.00000000	0.00000000	2
	-0.70288177	1.21742694	2.47890620	1
	-1.45518323	2.52045129	2.47890620	1
	1.45518323	2.52045129	2.47890620	1
	0.70288177	1.21742694	2.47890620	1
	1.40576354	0.00000000	2.47890620	1
	2.91036646	0.00000000	2.47890620	1
%endblock AtomicCoordinatesAndAtomicSpecies
Kgrid_NoTRS  T
%block kgrid_MonkhorstPack
3       0       0       0.0
0       3       0       0.0
0       0       3       0.0
%endblock kgrid_MonkhorstPack
AtomCoorFormatOut Ang
BlockSize 1
#ProcessorY 12
Diag.ParallelOverK   T
Diag.DivideAndConquer F
MeshCutoff   300 Ry
SCF.FreeE.Tolerance 1E-3 eV
SCF.EDM.Tolerance   5E-3 eV
DM.Tolerance  1E-3
DM.Require.Energy.Convergence T
DM.NumberPulay 4
XC.Functional GGA
XC.Authors    PBE
UseSaveData        F
MD.TypeOfRun       CG
MD.VariableCell    F
MD.NumCGsteps      00
MD.MaxCGDispl      0.200000 Bohr
MD.MaxStressTol    1.000000 GPa
MD.MaxForceTol     0.010000 eV/Ang
WriteMDHistory T
WriteCoorStep T
WriteForces T
WriteCoorStep    T
WriteEigenValues T
WriteDM    F
MM.UnitsDistance Ang  # what this program prints out DO NOT CHANGE
MM.UnitsEnergy    eV  # what this program prints out DO NOT CHANGE
MM.Grimme.S6     0.75 # Grimme-paper for PBE (correct for your functional)
MM.Grimme.D     20.   # Grimme-paper (correct for your functional)
%block MM.Potentials
  1   1 Grimme     16.69      1.650 # Li, 10.1002/jcc.20495
  1   2 Grimme     17.40      2.277 # Li / C
  2   2 Grimme     18.14      2.904 # C, 10.1002/jcc.20495
%endblock MM.Potentials
#%block ProjectedDensityOfStates
# -200.0  120.0  0.4  12800  eV
#%endblock ProjectedDensityOfStates
************************** End of input data file *****************************

reinit: -----------------------------------------------------------------------
reinit: System Name: LiC6_scf
reinit: -----------------------------------------------------------------------
reinit: System Label: LiC6_scf
reinit: -----------------------------------------------------------------------
Reading two-body potentials
Grimme - two-body potential between 1 and 1
Grimme - two-body potential between 1 and 2
Grimme - two-body potential between 2 and 2

initatom: Reading input for the pseudopotentials and atomic orbitals ----------
Species number:   1 Atomic number:    3 Label: Li-gga
Species number:   2 Atomic number:    6 Label: C-gga

Ground state valence configuration:   2s01
Reading pseudopotential information in formatted form from Li-gga.psf

Valence configuration for pseudopotential generation:
2s( 1.00) rc: 2.28
2p( 0.00) rc: 2.28
3d( 0.00) rc: 2.59
4f( 0.00) rc: 2.59
Ground state valence configuration:   2s02  2p02
Reading pseudopotential information in formatted form from C-gga.psf

Valence configuration for pseudopotential generation:
2s( 2.00) rc: 1.56
2p( 2.00) rc: 1.56
3d( 0.00) rc: 1.56
4f( 0.00) rc: 1.56
relmxkb: Read Max KB Ang. Momentum=    2 for species C-gga
relmxkb: Read Max KB Ang. Momentum=    2 for species Li-gga

<basis_specs>
===============================================================================
Li-gga               Z=   3    Mass=  6.9400        Charge= 0.17977+309
Lmxo=0 Lmxkb= 2    BasisType=split      Semic=F
L=0  Nsemic=0  Cnfigmx=2
          i=1  nzeta=1  polorb=1  (2s)
            splnorm:   0.15000    
               vcte:    0.0000    
               rinn:    0.0000    
               qcoe:    0.0000    
               qyuk:    0.0000    
               qwid:   0.10000E-01
                rcs:    0.0000    
            lambdas:    1.0000    
-------------------------------------------------------------------------------
L=0  Nkbl=1  erefs: 0.17977+309
L=1  Nkbl=1  erefs: 0.17977+309
L=2  Nkbl=1  erefs: 0.17977+309
===============================================================================
</basis_specs>

atom: Called for Li-gga                (Z =   3)

read_vps: Pseudopotential generation method:
read_vps: ATM 3.2.2 Troullier-Martins                       
Valence charge for ps generation:    1.00000

read_vps: Pseudopotential includes a core correction:
read_vps: Pseudo-core for xc-correction

xc_check: Exchange-correlation functional:
xc_check: GGA Perdew, Burke & Ernzerhof 1996
V l=0 = -2*Zval/r beyond r=  2.2278
V l=1 = -2*Zval/r beyond r=  2.2278
V l=2 = -2*Zval/r beyond r=  2.5245
All V_l potentials equal beyond r=  2.4622
This should be close to max(r_c) in ps generation
All pots = -2*Zval/r beyond r=  2.5245

VLOCAL1: 99.0% of the norm of Vloc inside      7.160 Ry
VLOCAL1: 99.9% of the norm of Vloc inside     16.318 Ry
atom: Maximum radius for 4*pi*r*r*local-pseudopot. charge    2.86079
atom: Maximum radius for r*vlocal+2*Zval:    2.43160
GHOST: No ghost state for L =  0
GHOST: No ghost state for L =  1
GHOST: No ghost state for L =  2

KBgen: Kleinman-Bylander projectors: 
   l= 0   rc=  2.654023   el= -0.211234   Ekb=  1.742119   kbcos=  0.228463
   l= 1   rc=  2.721230   el= -0.080095   Ekb= -1.122375   kbcos= -0.147941
   l= 2   rc=  2.825246   el=  0.002001   Ekb= -0.207076   kbcos= -0.031965

KBgen: Total number of Kleinman-Bylander projectors:    9
atom: -------------------------------------------------------------------------

atom: SANKEY-TYPE ORBITALS:

SPLIT: Orbitals with angular momentum L= 0

SPLIT: Basis orbitals for state 2s

SPLIT: PAO cut-off radius determined from an
SPLIT: energy shift=  0.000735 Ry

   izeta = 1
                 lambda =    1.000000
                     rc =   11.897381
                 energy =   -0.210580
                kinetic =    0.143382
    potential(screened) =   -0.353962
       potential(ionic) =   -0.533453

POLgen: Perturbative polarization orbital with L=  1

POLgen: Polarization orbital for state 2s

   izeta = 1
                     rc =   11.897381
                 energy =   -0.027011
                kinetic =    0.282985
    potential(screened) =   -0.309997
       potential(ionic) =   -0.490997
atom: Total number of Sankey-type orbitals:  4

atm_pop: Valence configuration (for local Pseudopot. screening):
 2s( 1.00)                                                            
Vna: chval, zval:    1.00000   1.00000

Vna:  Cut-off radius for the neutral-atom potential:  11.897381
comcore: Pseudo-core radius Rcore=  3.450946

atom: _________________________________________________________________________

<basis_specs>
===============================================================================
C-gga                Z=   6    Mass=  12.010        Charge= 0.17977+309
Lmxo=1 Lmxkb= 2    BasisType=split      Semic=F
L=0  Nsemic=0  Cnfigmx=2
          i=1  nzeta=1  polorb=0  (2s)
            splnorm:   0.15000    
               vcte:    0.0000    
               rinn:    0.0000    
               qcoe:    0.0000    
               qyuk:    0.0000    
               qwid:   0.10000E-01
                rcs:    0.0000    
            lambdas:    1.0000    
L=1  Nsemic=0  Cnfigmx=2
          i=1  nzeta=1  polorb=1  (2p)
            splnorm:   0.15000    
               vcte:    0.0000    
               rinn:    0.0000    
               qcoe:    0.0000    
               qyuk:    0.0000    
               qwid:   0.10000E-01
                rcs:    0.0000    
            lambdas:    1.0000    
-------------------------------------------------------------------------------
L=0  Nkbl=1  erefs: 0.17977+309
L=1  Nkbl=1  erefs: 0.17977+309
L=2  Nkbl=1  erefs: 0.17977+309
===============================================================================
</basis_specs>

atom: Called for C-gga                 (Z =   6)

read_vps: Pseudopotential generation method:
read_vps: ATM 3.2.2 Troullier-Martins                       
Valence charge for ps generation:    4.00000

xc_check: Exchange-correlation functional:
xc_check: GGA Perdew, Burke & Ernzerhof 1996
V l=0 = -2*Zval/r beyond r=  1.5227
V l=1 = -2*Zval/r beyond r=  1.5227
V l=2 = -2*Zval/r beyond r=  1.5227
All V_l potentials equal beyond r=  1.4851
This should be close to max(r_c) in ps generation
All pots = -2*Zval/r beyond r=  1.5227

VLOCAL1: 99.0% of the norm of Vloc inside     19.682 Ry
VLOCAL1: 99.9% of the norm of Vloc inside     44.856 Ry
atom: Maximum radius for 4*pi*r*r*local-pseudopot. charge    1.79142
atom: Maximum radius for r*vlocal+2*Zval:    1.54183
GHOST: No ghost state for L =  0
GHOST: No ghost state for L =  1
GHOST: No ghost state for L =  2

KBgen: Kleinman-Bylander projectors: 
   l= 0   rc=  1.661951   el= -1.010689   Ekb=  5.289847   kbcos=  0.316429
   l= 1   rc=  1.661951   el= -0.388490   Ekb= -4.102504   kbcos= -0.351025
   l= 2   rc=  1.747182   el=  0.001971   Ekb= -1.006005   kbcos= -0.008530

KBgen: Total number of Kleinman-Bylander projectors:    9
atom: -------------------------------------------------------------------------

atom: SANKEY-TYPE ORBITALS:

SPLIT: Orbitals with angular momentum L= 0

SPLIT: Basis orbitals for state 2s

SPLIT: PAO cut-off radius determined from an
SPLIT: energy shift=  0.000735 Ry

   izeta = 1
                 lambda =    1.000000
                     rc =    5.948690
                 energy =   -1.010099
                kinetic =    0.827121
    potential(screened) =   -1.837220
       potential(ionic) =   -5.392783

SPLIT: Orbitals with angular momentum L= 1

SPLIT: Basis orbitals for state 2p

SPLIT: PAO cut-off radius determined from an
SPLIT: energy shift=  0.000735 Ry

   izeta = 1
                 lambda =    1.000000
                     rc =    7.638387
                 energy =   -0.387843
                kinetic =    2.314739
    potential(screened) =   -2.702582
       potential(ionic) =   -6.092371

POLgen: Perturbative polarization orbital with L=  2

POLgen: Polarization orbital for state 2p

   izeta = 1
                     rc =    7.638387
                 energy =    0.921402
                kinetic =    1.955040
    potential(screened) =   -1.033637
       potential(ionic) =   -3.679558
atom: Total number of Sankey-type orbitals:  9

atm_pop: Valence configuration (for local Pseudopot. screening):
 2s( 2.00)                                                            
 2p( 2.00)                                                            
Vna: chval, zval:    4.00000   4.00000

Vna:  Cut-off radius for the neutral-atom potential:   7.638387

atom: _________________________________________________________________________

prinput: Basis input ----------------------------------------------------------

PAO.BasisType split     

%block ChemicalSpeciesLabel
    1    3 Li-gga                  # Species index, atomic number, species label
    2    6 C-gga                   # Species index, atomic number, species label
%endblock ChemicalSpeciesLabel

%block PAO.Basis                 # Define Basis set
Li-gga                1                    # Species label, number of l-shells
 n=2   0   1 P   1                   # n, l, Nzeta, Polarization, NzetaPol
  11.897   
   1.000   
C-gga                 2                    # Species label, number of l-shells
 n=2   0   1                         # n, l, Nzeta 
   5.949   
   1.000   
 n=2   1   1 P   1                   # n, l, Nzeta, Polarization, NzetaPol
   7.638   
   1.000   
%endblock PAO.Basis

prinput: ----------------------------------------------------------------------

coor:   Atomic-coordinates input format  =     Cartesian coordinates
coor:                                          (in Angstroms)

siesta: Atomic coordinates (Bohr) and species
siesta:      0.00000   0.00000   0.00000  2        1
siesta:     -1.32825   2.30060   4.68446  1        2
siesta:     -2.74990   4.76296   4.68446  1        3
siesta:      2.74990   4.76296   4.68446  1        4
siesta:      1.32825   2.30060   4.68446  1        5
siesta:      2.65651   0.00000   4.68446  1        6
siesta:      5.49980   0.00000   4.68446  1        7

siesta: System type = bulk      

initatomlists: Number of atoms, orbitals, and projectors:      7    33    63

siesta: ******************** Simulation parameters ****************************
siesta:
siesta: The following are some of the parameters of the simulation.
siesta: A complete list of the parameters used, including default values,
siesta: can be found in file out.fdf
siesta:
redata: Spin configuration                          = none
redata: Number of spin components                   = 1
redata: Time-Reversal Symmetry                      = T
redata: Spin spiral                                 = F
redata: Long output                                 =   F
redata: Number of Atomic Species                    =        2
redata: Charge density info will appear in .RHO file
redata: Write Mulliken Pop.                         = NO
redata: Matel table size (NRTAB)                    =     1024
redata: Mesh Cutoff                                 =   300.0000 Ry
redata: Net charge of the system                    =     0.0000 |e|
redata: Min. number of SCF Iter                     =        0
redata: Max. number of SCF Iter                     =     1000
redata: SCF convergence failure will abort job
redata: SCF mix quantity                            = Hamiltonian
redata: Mix DM or H after convergence               =   F
redata: Recompute H after scf cycle                 =   F
redata: Mix DM in first SCF step                    =   T
redata: Write Pulay info on disk                    =   F
redata: New DM Occupancy tolerance                  = 0.000000000001
redata: No kicks to SCF
redata: DM Mixing Weight for Kicks                  =     0.5000
redata: Require Harris convergence for SCF          =   F
redata: Harris energy tolerance for SCF             =     0.000100 eV
redata: Require DM convergence for SCF              =   T
redata: DM tolerance for SCF                        =     0.001000
redata: Require EDM convergence for SCF             =   F
redata: EDM tolerance for SCF                       =     0.005000 eV
redata: Require H convergence for SCF               =   T
redata: Hamiltonian tolerance for SCF               =     0.001000 eV
redata: Require (free) Energy convergence for SCF   =   T
redata: (free) Energy tolerance for SCF             =     0.001000 eV
redata: Using Saved Data (generic)                  =   F
redata: Use continuation files for DM               =   F
redata: Neglect nonoverlap interactions             =   F
redata: Method of Calculation                       = Diagonalization
redata: Electronic Temperature                      =   299.9869 K
redata: Fix the spin of the system                  =   F
redata: Dynamics option                             = Single-point calculation
mix.SCF: Pulay mixing                            = Pulay
mix.SCF:    Variant                              = stable
mix.SCF:    History steps                        = 4
mix.SCF:    Linear mixing weight                 =     0.250000
mix.SCF:    Mixing weight                        =     0.250000
mix.SCF:    SVD condition                        = 0.1000E-07
redata: ***********************************************************************

%block SCF.Mixers
  Pulay
%endblock SCF.Mixers

%block SCF.Mixer.Pulay
  # Mixing method
  method pulay
  variant stable

  # Mixing options
  weight 0.2500
  weight.linear 0.2500
  history 4
%endblock SCF.Mixer.Pulay

DM_history_depth set to one: no extrapolation allowed by default for geometry relaxation
Size of DM history Fstack: 1
Total number of electrons:    10.000000
Total ionic charge:    10.000000

* ProcessorY, Blocksize:    2   1


* Orbital distribution balance (max,min):     9     8

 Kpoints in:           18 . Kpoints trimmed:           14

siesta: k-grid: Number of k-points =    14
siesta: k-grid: Cutoff (effective) =     6.474 Ang
siesta: k-grid: Supercell and displacements
siesta: k-grid:    3   0   0      0.000
siesta: k-grid:    0   3   0      0.000
siesta: k-grid:    0   0   3      0.000

diag: Algorithm                                     = Expert
diag: Parallel over k                               =   T
diag: Use parallel 2D distribution                  =   T
diag: Parallel block-size                           = 1
diag: Parallel distribution                         =     2 x     2
diag: Used triangular part                          = Lower
diag: Absolute tolerance                            =  0.100E-15
diag: Orthogonalization factor                      =  0.100E-05
diag: Memory factor                                 =  1.0000

superc: Internal auxiliary supercell:     9 x     9 x     5  =     405
superc: Number of atoms, orbitals, and projectors:   2835  13365  25515


ts: **************************************************************
ts: Save H and S matrices                           =    F
ts: Save DM and EDM matrices                        =    F
ts: Only save the overlap matrix S                  =    F
ts: **************************************************************

************************ Begin: TS CHECKS AND WARNINGS ************************
************************ End: TS CHECKS AND WARNINGS **************************


                     ====================================
                        Single-point calculation
                     ====================================

outcoor: Atomic coordinates (Ang):                          
    0.00000000    0.00000000    0.00000000   2       1  C-gga
   -0.70288177    1.21742694    2.47890620   1       2  Li-gga
   -1.45518323    2.52045129    2.47890620   1       3  Li-gga
    1.45518323    2.52045129    2.47890620   1       4  Li-gga
    0.70288177    1.21742694    2.47890620   1       5  Li-gga
    1.40576354    0.00000000    2.47890620   1       6  Li-gga
    2.91036646    0.00000000    2.47890620   1       7  Li-gga

superc: Internal auxiliary supercell:     9 x     9 x     5  =     405
superc: Number of atoms, orbitals, and projectors:   2835  13365  25515

outcell: Unit cell vectors (Ang):
        4.316130    0.000000    0.000000
       -2.158065    3.737878    0.000000
        0.000000    0.000000    4.957812

outcell: Cell vector modules (Ang)   :    4.316130    4.316130    4.957812
outcell: Cell angles (23,13,12) (deg):     90.0000     90.0000    120.0000
outcell: Cell volume (Ang**3)        :     79.9852
<dSpData1D:S at geom step 0
  <sparsity:sparsity for geom step 0
    nrows_g=33 nrows=9 sparsity=32.1699 nnzs=35033, refcount: 7>
  <dData1D:(new from dSpData1D) n=35033, refcount: 1>
refcount: 1>
new_DM -- step:     1
Initializing Density Matrix...
DM filled with atomic data:
<dSpData2D:DM initialized from atoms
  <sparsity:sparsity for geom step 0
    nrows_g=33 nrows=9 sparsity=32.1699 nnzs=35033, refcount: 8>
  <dData2D:DM n=35033 m=1, refcount: 1>
refcount: 1>
No. of atoms with KB's overlaping orbs in proc 0. Max # of overlaps:     269     684
New grid distribution:   1
           1       1:   20    1:   10    1:   14
           2       1:   20    1:   10   15:   27
           3       1:   20   11:   20    1:   14
           4       1:   20   11:   20   15:   27

InitMesh: MESH =    40 x    40 x    54 =       86400
InitMesh: (bp) =    20 x    20 x    27 =       10800
InitMesh: Mesh cutoff (required, used) =   300.000   316.498 Ry
ExtMesh (bp) on 0 =   156 x   146 x   154 =     3507504
New grid distribution:   2
           1       1:   20    1:   10    1:   14
           2       1:   20    1:   10   15:   27
           3       1:   20   11:   20    1:   14
           4       1:   20   11:   20   15:   27
New grid distribution:   3
           1       1:   20    1:   10    1:   14
           2       1:   20    1:   10   15:   27
           3       1:   20   11:   20    1:   14
           4       1:   20   11:   20   15:   27
Setting up quadratic distribution...
ExtMesh (bp) on 0 =   156 x   146 x   154 =     3507504
PhiOnMesh: Number of (b)points on node 0 =                 2800
PhiOnMesh: nlist on node 0 =               997649

stepf: Fermi-Dirac step function

siesta: Program's energy decomposition (eV):
siesta: Ebs     =      -142.230337
siesta: Eions   =       321.344870
siesta: Ena     =        94.429739
siesta: Ekin    =        94.501999
siesta: Enl     =        23.565772
siesta: Eso     =         0.000000
siesta: Edftu   =         0.000000
siesta: DEna    =        15.566416
siesta: DUscf   =         7.630041
siesta: DUext   =         0.000000
siesta: Exc     =       -90.124202
siesta: eta*DQ  =         0.000000
siesta: Emadel  =         0.000000
siesta: Emeta   =         0.000000
siesta: Emolmec =        -2.740719
siesta: Ekinion =         0.000000
siesta: Eharris =      -165.413281
siesta: Etot    =      -178.515824
siesta: FreeEng =      -178.524445

        iscf     Eharris(eV)        E_KS(eV)     FreeEng(eV)     dDmax    Ef(eV) dHmax(eV)
   scf:    1     -165.413281     -178.515824     -178.524445  1.438706 -9.716981  8.009577
timer: Routine,Calls,Time,% = IterSCF        1       8.235  58.51
   scf:    2     -183.461075     -182.452111     -182.462252  0.298754-10.309703  0.197124
   scf:    3     -182.433283     -182.451790     -182.464450  0.036169-10.334607  0.425317
   scf:    4     -182.261024     -182.405536     -182.411237  0.065677-10.264363  0.847031
   scf:    5     -182.483748     -182.458794     -182.469970  0.042395-10.289609  0.239131
   scf:    6     -182.425508     -182.453583     -182.467837  0.037585-10.318712  0.294807
   scf:    7     -182.461048     -182.462551     -182.474904  0.024377-10.296441  0.077922
   scf:    8     -182.462114     -182.462546     -182.475376  0.004719-10.301884  0.002554
   scf:    9     -182.462347     -182.462453     -182.475373  0.001496-10.303756  0.013676
   scf:   10     -182.462708     -182.462593     -182.475378  0.001843-10.302125  0.007260
   scf:   11     -182.462482     -182.462540     -182.475386  0.000670-10.303082  0.000671

SCF Convergence by FreeE+DM+H criterion
|FreeE_i-FreeE_(i-1)| (eV) <     0.00100000
max |DM_out - DM_in|         :     0.0006701814
max |H_out - H_in|      (eV) :     0.0006712241
SCF cycle converged after 11 iterations

Using DM_out to compute the final energy and forces
No. of atoms with KB's overlaping orbs in proc 0. Max # of overlaps:     269     684

MM-Stress (kbar):       -5.80       -5.80       36.66        0.00        0.00        0.00

siesta: E_KS(eV) =             -182.4625

siesta: E_KS - E_eggbox =      -182.4625

siesta: Atomic forces (eV/Ang):
     1   -0.000000   -0.000000   -0.000000
     2   -0.120085    0.207967    0.000000
     3    0.120085   -0.207967    0.000000
     4   -0.120112   -0.208040    0.000000
     5    0.120112    0.208040    0.000000
     6    0.240147   -0.000013    0.000000
     7   -0.240147    0.000013    0.000000
----------------------------------------
   Tot    0.000000   -0.000000    0.000000
----------------------------------------
   Max    0.240147
   Res    0.128378    sqrt( Sum f_i^2 / 3N )
----------------------------------------
   Max    0.240147    constrained

Stress tensor Voigt[x,y,z,yz,xz,xy] (kbar):     -814.39     -814.40      330.72       -0.00       -0.00       -0.01
(Free)E + p*V (eV/cell)     -160.8743
Target enthalpy (eV/cell)     -182.4754

siesta: Eigenvalues (eV):
  ik is       eps
   1  1  -19.0227  -12.1295  -12.0483  -12.0483  -10.2778   -9.2503   -9.2502   -7.4414   -7.4414   -3.0949
          -3.0174   -1.1677   -1.1677    5.4023    5.4023    6.1373    7.4885    7.4885   10.4727   11.7943
   11.7945   14.1369   18.3876   18.5765   18.5765   22.1081   22.1081   24.0740   24.3633   24.3633
   40.7090   40.7090   44.1900
   2  1  -19.1127  -12.5035  -12.3543  -10.9277  -10.5326  -10.2633   -9.2737   -7.8464   -4.5964   -3.8898
          -3.5250   -2.1627   -0.2803    0.2158    0.8136    5.3524    7.4398    7.4410    7.7541   11.4545
   13.2224   17.2469   18.6109   19.0654   20.0068   23.4881   24.1372   26.2500   27.3266   32.6946
   48.3084   52.5965   54.8747
   3  1  -19.1127  -12.5035  -12.3543  -10.9277  -10.5326  -10.2634   -9.2736   -7.8464   -4.5964   -3.8898
          -3.5250   -2.1627   -0.2803    0.2158    0.8136    5.3524    7.4398    7.4411    7.7541   11.4546
   13.2223   17.2469   18.6108   19.0655   20.0068   23.4882   24.1372   26.2500   27.3265   32.6946
   48.3084   52.5965   54.8747
   4  1  -19.1127  -12.5035  -12.3543  -10.9277  -10.5326  -10.2633   -9.2737   -7.8464   -4.5964   -3.8898
          -3.5250   -2.1627   -0.2803    0.2158    0.8136    5.3524    7.4398    7.4410    7.7541   11.4545
   13.2224   17.2469   18.6109   19.0654   20.0068   23.4881   24.1372   26.2500   27.3266   32.6946
   48.3084   52.5965   54.8747
   5  1  -19.2414  -13.0316  -11.9843  -10.7065  -10.3453  -10.0520  -10.0519   -6.6393   -4.0308   -4.0308
          -1.9885   -1.9885   -1.4290   -1.4290   -0.1270   -0.1269    6.7580    9.5166    9.5168   16.6698
   16.6698   19.4866   19.4867   25.2203   26.1612   26.1612   27.2899   27.2901   35.2722   35.2723
   45.7129   47.8784   55.8859
   6  1  -18.9387  -13.4323  -11.6881  -11.6881  -10.5658  -10.5657   -7.8736   -5.9263   -5.9263   -4.1198
          -2.7507   -2.2322   -2.2322    4.1453    4.1453    4.9163    4.9163    5.1653    5.3555   12.3097
   12.3097   16.6886   17.7496   19.5514   19.5517   21.6321   21.6322   23.2926   30.4615   30.4615
   42.4037   42.4038   46.1521
   7  1  -19.0290  -13.6462  -12.0303  -10.8942  -10.6842  -10.2245   -8.1701   -6.7075   -5.0164   -4.6115
          -2.7074   -2.0224   -0.9005   -0.5165    0.4474    5.0638    6.4164    7.2589   10.6762   12.7611
   14.1604   14.2962   17.2459   18.2273   22.0915   24.4150   26.1219   27.7511   29.9010   33.8665
   47.7682   51.4475   54.3675
   8  1  -19.0290  -13.6462  -12.0303  -10.8941  -10.6842  -10.2246   -8.1701   -6.7074   -5.0164   -4.6115
          -2.7073   -2.0224   -0.9005   -0.5166    0.4474    5.0638    6.4164    7.2589   10.6762   12.7611
   14.1604   14.2961   17.2460   18.2272   22.0916   24.4150   26.1219   27.7511   29.9009   33.8664
   47.7681   51.4476   54.3675
   9  1  -19.0290  -13.6462  -12.0303  -10.8942  -10.6842  -10.2245   -8.1701   -6.7075   -5.0164   -4.6115
          -2.7074   -2.0224   -0.9005   -0.5165    0.4474    5.0638    6.4164    7.2589   10.6762   12.7611
   14.1604   14.2962   17.2459   18.2273   22.0915   24.4150   26.1219   27.7511   29.9010   33.8665
   47.7682   51.4475   54.3675
  10  1  -19.1901  -13.7110  -11.6866  -10.1575  -10.0060  -10.0059   -9.0330   -6.9836   -3.5723   -3.5723
          -3.2403   -3.2403   -1.0301   -1.0301    1.3802    1.3803    6.3410   15.4883   15.4885   15.8949
   15.8949   21.0241   21.0241   24.4594   24.4596   25.4311   29.0058   29.0059   38.6852   40.0716
   40.0717   46.7712   49.0553
  11  1  -19.0290  -13.6462  -12.0303  -10.8942  -10.6842  -10.2245   -8.1701   -6.7075   -5.0164   -4.6115
          -2.7074   -2.0224   -0.9005   -0.5165    0.4474    5.0638    6.4164    7.2589   10.6762   12.7611
   14.1604   14.2962   17.2459   18.2273   22.0915   24.4150   26.1219   27.7511   29.9010   33.8665
   47.7682   51.4475   54.3675
  12  1  -19.0290  -13.6462  -12.0303  -10.8941  -10.6842  -10.2246   -8.1701   -6.7074   -5.0164   -4.6115
          -2.7073   -2.0224   -0.9005   -0.5166    0.4474    5.0638    6.4164    7.2589   10.6762   12.7611
   14.1604   14.2961   17.2460   18.2272   22.0916   24.4150   26.1219   27.7511   29.9009   33.8664
   47.7681   51.4476   54.3675
  13  1  -19.0290  -13.6462  -12.0303  -10.8942  -10.6842  -10.2245   -8.1701   -6.7075   -5.0164   -4.6115
          -2.7074   -2.0224   -0.9005   -0.5165    0.4474    5.0638    6.4164    7.2589   10.6762   12.7611
   14.1604   14.2962   17.2459   18.2273   22.0915   24.4150   26.1219   27.7511   29.9010   33.8665
   47.7682   51.4475   54.3675
  14  1  -18.9387  -13.4323  -11.6881  -11.6881  -10.5658  -10.5657   -7.8736   -5.9263   -5.9263   -4.1198
          -2.7507   -2.2322   -2.2322    4.1453    4.1453    4.9163    4.9163    5.1653    5.3555   12.3097
   12.3097   16.6886   17.7496   19.5514   19.5517   21.6321   21.6322   23.2926   30.4615   30.4615
   42.4037   42.4038   46.1521
siesta: Fermi energy =     -10.303082 eV

siesta: Program's energy decomposition (eV):
siesta: Ebs     =      -131.922034
siesta: Eions   =       321.344870
siesta: Ena     =        94.429739
siesta: Ekin    =       116.263222
siesta: Enl     =        16.076538
siesta: Eso     =         0.000000
siesta: Edftu   =         0.000000
siesta: DEna    =         7.184657
siesta: DUscf   =         1.326547
siesta: DUext   =         0.000000
siesta: Exc     =       -93.657653
siesta: eta*DQ  =         0.000000
siesta: Emadel  =         0.000000
siesta: Emeta   =         0.000000
siesta: Emolmec =        -2.740719
siesta: Ekinion =         0.000000
siesta: Eharris =      -182.462482
siesta: Etot    =      -182.462540
siesta: FreeEng =      -182.475386

siesta: Final energy (eV):
siesta:  Band Struct. =    -131.922034
siesta:       Kinetic =     116.263222
siesta:       Hartree =      35.014697
siesta:       Edftu   =       0.000000
siesta:       Eso     =       0.000000
siesta:    Ext. field =       0.000000
siesta:   Exch.-corr. =     -93.657653
siesta:  Ion-electron =    -216.424914
siesta:       Ion-ion =     -20.917173
siesta:       Ekinion =       0.000000
siesta:         Total =    -182.462540
siesta:         Fermi =     -10.303082

siesta: Atomic forces (eV/Ang):
siesta:      1   -0.000000   -0.000000   -0.000000
siesta:      2   -0.120085    0.207967    0.000000
siesta:      3    0.120085   -0.207967    0.000000
siesta:      4   -0.120112   -0.208040    0.000000
siesta:      5    0.120112    0.208040    0.000000
siesta:      6    0.240147   -0.000013    0.000000
siesta:      7   -0.240147    0.000013    0.000000
siesta: ----------------------------------------
siesta:    Tot    0.000000   -0.000000    0.000000

siesta: Stress tensor (static) (eV/Ang**3):
siesta:    -0.508299   -0.000005   -0.000000
siesta:    -0.000005   -0.508305   -0.000000
siesta:    -0.000000   -0.000000    0.206414

siesta: Cell volume =         79.985222 Ang**3

siesta: Pressure (static):
siesta:                Solid            Molecule  Units
siesta:           0.00294134          0.00299054  Ry/Bohr**3
siesta:           0.27006353          0.27458142  eV/Ang**3
siesta:         432.69414760        439.93268522  kBar
(Free)E+ p_basis*V_orbitals  =        -165.963460
(Free)Eharris+ p_basis*V_orbitals  =        -165.963402

cite: Please see "LiC6_scf.bib" for an exhaustive BiBTeX file.
cite: Please clearly indicate Siesta version in published work: 4.1.5
cite: This calculation has made use of the following articles
cite: which are encouraged to be cited in a published work.
        Primary SIESTA paper
          DOI: www.doi.org/10.1088/0953-8984/14/11/302

>> End of run:   9-NOV-2022  14:18:03
Job completed
