Siesta Version  : 4.1.5
Architecture    : x86_64-unknown-linux-gnu--unknown
Compiler version: GNU Fortran (GCC) 11.3.0
Compiler flags  : mpif90 -g -O2 -fallow-argument-mismatch
PP flags        : -DMPI -DFC_HAVE_FLUSH -DFC_HAVE_ABORT
Libraries       :  -I/global/software/sl-7.x86_64/modules/intel/2020.4.304/mkl/include  /globall/software/sl-7.x86_64/modules/intel/2020.4.304/mkl/lib/intel64/libmkl_scalapack_lp64.a -Wl,--start-group /global/software/sl-7.x86_64/modules/intel/2020.4.304/mkl/lib/intel64/libmkl_intel_lp64.a /global/software/sl-7.x86_64/modules/intel/2020.4.304/mkl/lib/intel64/libmkl_sequential.a /global/software/sl-7.x86_64/modules/intel/2020.4.304/mkl/lib/intel64/libmkl_core.a /global/software/sl-7.x86_64/modules/intel/2020.4.304/mkl/lib/intel64/libmkl_blacs_openmpi_lp64.a -Wl,--end-group -lpthread -lm -ldl
PARALLEL version

* Running on 4 nodes in parallel
>> Start of run:   9-NOV-2022  13:44:22

                           ***********************       
                           *  WELCOME TO SIESTA  *       
                           ***********************       

reinit: Reading from standard input
reinit: Dumped input in INPUT_TMP.29048
************************** Dump of input data file ****************************
SystemName LiC6_scf
SystemLabel LiC6_scf
NumberOfAtoms   7
NumberOfSpecies 2
%block ChemicalSpeciesLabel
1  3   Li-gga
2  6   C-gga
%endblock ChemicalSpeciesLabel
PAO.BasisSize  SZP
PAO.EnergyShift  10 meV
%block PS.Lmax
C-gga   2
Li-gga  2
%endblock PS.Lmax
LatticeConstant 1.000000 Ang
%block LatticeVectors
	4.3161300000	0.0000000000	0.0000000000
	-2.1580650000	3.7378782260	0.0000000000
	0.0000000000	0.0000000000	2.2199160000
%endblock LatticeVectors
AtomicCoordinatesFormat Ang
%block AtomicCoordinatesAndAtomicSpecies
	0.00000000	0.00000000	0.00000000	2
	-0.70288177	1.21742694	1.10995800	1
	-1.45518323	2.52045129	1.10995800	1
	1.45518323	2.52045129	1.10995800	1
	0.70288177	1.21742694	1.10995800	1
	1.40576354	0.00000000	1.10995800	1
	2.91036646	0.00000000	1.10995800	1
%endblock AtomicCoordinatesAndAtomicSpecies
Kgrid_NoTRS  T
%block kgrid_MonkhorstPack
3       0       0       0.0
0       3       0       0.0
0       0       3       0.0
%endblock kgrid_MonkhorstPack
AtomCoorFormatOut Ang
BlockSize 1
#ProcessorY 12
Diag.ParallelOverK   T
Diag.DivideAndConquer F
MeshCutoff   300 Ry
SCF.FreeE.Tolerance 1E-3 eV
SCF.EDM.Tolerance   5E-3 eV
DM.Tolerance  1E-3
DM.Require.Energy.Convergence T
DM.NumberPulay 4
XC.Functional GGA
XC.Authors    PBE
UseSaveData        F
MD.TypeOfRun       CG
MD.VariableCell    F
MD.NumCGsteps      00
MD.MaxCGDispl      0.200000 Bohr
MD.MaxStressTol    1.000000 GPa
MD.MaxForceTol     0.010000 eV/Ang
WriteMDHistory T
WriteCoorStep T
WriteForces T
WriteCoorStep    T
WriteEigenValues T
WriteDM    F
MM.UnitsDistance Ang  # what this program prints out DO NOT CHANGE
MM.UnitsEnergy    eV  # what this program prints out DO NOT CHANGE
MM.Grimme.S6     0.75 # Grimme-paper for PBE (correct for your functional)
MM.Grimme.D     20.   # Grimme-paper (correct for your functional)
%block MM.Potentials
  1   1 Grimme     16.69      1.650 # Li, 10.1002/jcc.20495
  1   2 Grimme     17.40      2.277 # Li / C
  2   2 Grimme     18.14      2.904 # C, 10.1002/jcc.20495
%endblock MM.Potentials
#%block ProjectedDensityOfStates
# -200.0  120.0  0.4  12800  eV
#%endblock ProjectedDensityOfStates
************************** End of input data file *****************************

reinit: -----------------------------------------------------------------------
reinit: System Name: LiC6_scf
reinit: -----------------------------------------------------------------------
reinit: System Label: LiC6_scf
reinit: -----------------------------------------------------------------------
Reading two-body potentials
Grimme - two-body potential between 1 and 1
Grimme - two-body potential between 1 and 2
Grimme - two-body potential between 2 and 2

initatom: Reading input for the pseudopotentials and atomic orbitals ----------
Species number:   1 Atomic number:    3 Label: Li-gga
Species number:   2 Atomic number:    6 Label: C-gga

Ground state valence configuration:   2s01
Reading pseudopotential information in formatted form from Li-gga.psf

Valence configuration for pseudopotential generation:
2s( 1.00) rc: 2.28
2p( 0.00) rc: 2.28
3d( 0.00) rc: 2.59
4f( 0.00) rc: 2.59
Ground state valence configuration:   2s02  2p02
Reading pseudopotential information in formatted form from C-gga.psf

Valence configuration for pseudopotential generation:
2s( 2.00) rc: 1.56
2p( 2.00) rc: 1.56
3d( 0.00) rc: 1.56
4f( 0.00) rc: 1.56
relmxkb: Read Max KB Ang. Momentum=    2 for species C-gga
relmxkb: Read Max KB Ang. Momentum=    2 for species Li-gga

<basis_specs>
===============================================================================
Li-gga               Z=   3    Mass=  6.9400        Charge= 0.17977+309
Lmxo=0 Lmxkb= 2    BasisType=split      Semic=F
L=0  Nsemic=0  Cnfigmx=2
          i=1  nzeta=1  polorb=1  (2s)
            splnorm:   0.15000    
               vcte:    0.0000    
               rinn:    0.0000    
               qcoe:    0.0000    
               qyuk:    0.0000    
               qwid:   0.10000E-01
                rcs:    0.0000    
            lambdas:    1.0000    
-------------------------------------------------------------------------------
L=0  Nkbl=1  erefs: 0.17977+309
L=1  Nkbl=1  erefs: 0.17977+309
L=2  Nkbl=1  erefs: 0.17977+309
===============================================================================
</basis_specs>

atom: Called for Li-gga                (Z =   3)

read_vps: Pseudopotential generation method:
read_vps: ATM 3.2.2 Troullier-Martins                       
Valence charge for ps generation:    1.00000

read_vps: Pseudopotential includes a core correction:
read_vps: Pseudo-core for xc-correction

xc_check: Exchange-correlation functional:
xc_check: GGA Perdew, Burke & Ernzerhof 1996
V l=0 = -2*Zval/r beyond r=  2.2278
V l=1 = -2*Zval/r beyond r=  2.2278
V l=2 = -2*Zval/r beyond r=  2.5245
All V_l potentials equal beyond r=  2.4622
This should be close to max(r_c) in ps generation
All pots = -2*Zval/r beyond r=  2.5245

VLOCAL1: 99.0% of the norm of Vloc inside      7.160 Ry
VLOCAL1: 99.9% of the norm of Vloc inside     16.318 Ry
atom: Maximum radius for 4*pi*r*r*local-pseudopot. charge    2.86079
atom: Maximum radius for r*vlocal+2*Zval:    2.43160
GHOST: No ghost state for L =  0
GHOST: No ghost state for L =  1
GHOST: No ghost state for L =  2

KBgen: Kleinman-Bylander projectors: 
   l= 0   rc=  2.654023   el= -0.211234   Ekb=  1.742119   kbcos=  0.228463
   l= 1   rc=  2.721230   el= -0.080095   Ekb= -1.122375   kbcos= -0.147941
   l= 2   rc=  2.825246   el=  0.002001   Ekb= -0.207076   kbcos= -0.031965

KBgen: Total number of Kleinman-Bylander projectors:    9
atom: -------------------------------------------------------------------------

atom: SANKEY-TYPE ORBITALS:

SPLIT: Orbitals with angular momentum L= 0

SPLIT: Basis orbitals for state 2s

SPLIT: PAO cut-off radius determined from an
SPLIT: energy shift=  0.000735 Ry

   izeta = 1
                 lambda =    1.000000
                     rc =   11.897381
                 energy =   -0.210580
                kinetic =    0.143382
    potential(screened) =   -0.353962
       potential(ionic) =   -0.533453

POLgen: Perturbative polarization orbital with L=  1

POLgen: Polarization orbital for state 2s

   izeta = 1
                     rc =   11.897381
                 energy =   -0.027011
                kinetic =    0.282985
    potential(screened) =   -0.309997
       potential(ionic) =   -0.490997
atom: Total number of Sankey-type orbitals:  4

atm_pop: Valence configuration (for local Pseudopot. screening):
 2s( 1.00)                                                            
Vna: chval, zval:    1.00000   1.00000

Vna:  Cut-off radius for the neutral-atom potential:  11.897381
comcore: Pseudo-core radius Rcore=  3.450946

atom: _________________________________________________________________________

<basis_specs>
===============================================================================
C-gga                Z=   6    Mass=  12.010        Charge= 0.17977+309
Lmxo=1 Lmxkb= 2    BasisType=split      Semic=F
L=0  Nsemic=0  Cnfigmx=2
          i=1  nzeta=1  polorb=0  (2s)
            splnorm:   0.15000    
               vcte:    0.0000    
               rinn:    0.0000    
               qcoe:    0.0000    
               qyuk:    0.0000    
               qwid:   0.10000E-01
                rcs:    0.0000    
            lambdas:    1.0000    
L=1  Nsemic=0  Cnfigmx=2
          i=1  nzeta=1  polorb=1  (2p)
            splnorm:   0.15000    
               vcte:    0.0000    
               rinn:    0.0000    
               qcoe:    0.0000    
               qyuk:    0.0000    
               qwid:   0.10000E-01
                rcs:    0.0000    
            lambdas:    1.0000    
-------------------------------------------------------------------------------
L=0  Nkbl=1  erefs: 0.17977+309
L=1  Nkbl=1  erefs: 0.17977+309
L=2  Nkbl=1  erefs: 0.17977+309
===============================================================================
</basis_specs>

atom: Called for C-gga                 (Z =   6)

read_vps: Pseudopotential generation method:
read_vps: ATM 3.2.2 Troullier-Martins                       
Valence charge for ps generation:    4.00000

xc_check: Exchange-correlation functional:
xc_check: GGA Perdew, Burke & Ernzerhof 1996
V l=0 = -2*Zval/r beyond r=  1.5227
V l=1 = -2*Zval/r beyond r=  1.5227
V l=2 = -2*Zval/r beyond r=  1.5227
All V_l potentials equal beyond r=  1.4851
This should be close to max(r_c) in ps generation
All pots = -2*Zval/r beyond r=  1.5227

VLOCAL1: 99.0% of the norm of Vloc inside     19.682 Ry
VLOCAL1: 99.9% of the norm of Vloc inside     44.856 Ry
atom: Maximum radius for 4*pi*r*r*local-pseudopot. charge    1.79142
atom: Maximum radius for r*vlocal+2*Zval:    1.54183
GHOST: No ghost state for L =  0
GHOST: No ghost state for L =  1
GHOST: No ghost state for L =  2

KBgen: Kleinman-Bylander projectors: 
   l= 0   rc=  1.661951   el= -1.010689   Ekb=  5.289847   kbcos=  0.316429
   l= 1   rc=  1.661951   el= -0.388490   Ekb= -4.102504   kbcos= -0.351025
   l= 2   rc=  1.747182   el=  0.001971   Ekb= -1.006005   kbcos= -0.008530

KBgen: Total number of Kleinman-Bylander projectors:    9
atom: -------------------------------------------------------------------------

atom: SANKEY-TYPE ORBITALS:

SPLIT: Orbitals with angular momentum L= 0

SPLIT: Basis orbitals for state 2s

SPLIT: PAO cut-off radius determined from an
SPLIT: energy shift=  0.000735 Ry

   izeta = 1
                 lambda =    1.000000
                     rc =    5.948690
                 energy =   -1.010099
                kinetic =    0.827121
    potential(screened) =   -1.837220
       potential(ionic) =   -5.392783

SPLIT: Orbitals with angular momentum L= 1

SPLIT: Basis orbitals for state 2p

SPLIT: PAO cut-off radius determined from an
SPLIT: energy shift=  0.000735 Ry

   izeta = 1
                 lambda =    1.000000
                     rc =    7.638387
                 energy =   -0.387843
                kinetic =    2.314739
    potential(screened) =   -2.702582
       potential(ionic) =   -6.092371

POLgen: Perturbative polarization orbital with L=  2

POLgen: Polarization orbital for state 2p

   izeta = 1
                     rc =    7.638387
                 energy =    0.921402
                kinetic =    1.955040
    potential(screened) =   -1.033637
       potential(ionic) =   -3.679558
atom: Total number of Sankey-type orbitals:  9

atm_pop: Valence configuration (for local Pseudopot. screening):
 2s( 2.00)                                                            
 2p( 2.00)                                                            
Vna: chval, zval:    4.00000   4.00000

Vna:  Cut-off radius for the neutral-atom potential:   7.638387

atom: _________________________________________________________________________

prinput: Basis input ----------------------------------------------------------

PAO.BasisType split     

%block ChemicalSpeciesLabel
    1    3 Li-gga                  # Species index, atomic number, species label
    2    6 C-gga                   # Species index, atomic number, species label
%endblock ChemicalSpeciesLabel

%block PAO.Basis                 # Define Basis set
Li-gga                1                    # Species label, number of l-shells
 n=2   0   1 P   1                   # n, l, Nzeta, Polarization, NzetaPol
  11.897   
   1.000   
C-gga                 2                    # Species label, number of l-shells
 n=2   0   1                         # n, l, Nzeta 
   5.949   
   1.000   
 n=2   1   1 P   1                   # n, l, Nzeta, Polarization, NzetaPol
   7.638   
   1.000   
%endblock PAO.Basis

prinput: ----------------------------------------------------------------------

coor:   Atomic-coordinates input format  =     Cartesian coordinates
coor:                                          (in Angstroms)

siesta: Atomic coordinates (Bohr) and species
siesta:      0.00000   0.00000   0.00000  2        1
siesta:     -1.32825   2.30060   2.09752  1        2
siesta:     -2.74990   4.76296   2.09752  1        3
siesta:      2.74990   4.76296   2.09752  1        4
siesta:      1.32825   2.30060   2.09752  1        5
siesta:      2.65651   0.00000   2.09752  1        6
siesta:      5.49980   0.00000   2.09752  1        7

siesta: System type = bulk      

initatomlists: Number of atoms, orbitals, and projectors:      7    33    63

siesta: ******************** Simulation parameters ****************************
siesta:
siesta: The following are some of the parameters of the simulation.
siesta: A complete list of the parameters used, including default values,
siesta: can be found in file out.fdf
siesta:
redata: Spin configuration                          = none
redata: Number of spin components                   = 1
redata: Time-Reversal Symmetry                      = T
redata: Spin spiral                                 = F
redata: Long output                                 =   F
redata: Number of Atomic Species                    =        2
redata: Charge density info will appear in .RHO file
redata: Write Mulliken Pop.                         = NO
redata: Matel table size (NRTAB)                    =     1024
redata: Mesh Cutoff                                 =   300.0000 Ry
redata: Net charge of the system                    =     0.0000 |e|
redata: Min. number of SCF Iter                     =        0
redata: Max. number of SCF Iter                     =     1000
redata: SCF convergence failure will abort job
redata: SCF mix quantity                            = Hamiltonian
redata: Mix DM or H after convergence               =   F
redata: Recompute H after scf cycle                 =   F
redata: Mix DM in first SCF step                    =   T
redata: Write Pulay info on disk                    =   F
redata: New DM Occupancy tolerance                  = 0.000000000001
redata: No kicks to SCF
redata: DM Mixing Weight for Kicks                  =     0.5000
redata: Require Harris convergence for SCF          =   F
redata: Harris energy tolerance for SCF             =     0.000100 eV
redata: Require DM convergence for SCF              =   T
redata: DM tolerance for SCF                        =     0.001000
redata: Require EDM convergence for SCF             =   F
redata: EDM tolerance for SCF                       =     0.005000 eV
redata: Require H convergence for SCF               =   T
redata: Hamiltonian tolerance for SCF               =     0.001000 eV
redata: Require (free) Energy convergence for SCF   =   T
redata: (free) Energy tolerance for SCF             =     0.001000 eV
redata: Using Saved Data (generic)                  =   F
redata: Use continuation files for DM               =   F
redata: Neglect nonoverlap interactions             =   F
redata: Method of Calculation                       = Diagonalization
redata: Electronic Temperature                      =   299.9869 K
redata: Fix the spin of the system                  =   F
redata: Dynamics option                             = Single-point calculation
mix.SCF: Pulay mixing                            = Pulay
mix.SCF:    Variant                              = stable
mix.SCF:    History steps                        = 4
mix.SCF:    Linear mixing weight                 =     0.250000
mix.SCF:    Mixing weight                        =     0.250000
mix.SCF:    SVD condition                        = 0.1000E-07
redata: ***********************************************************************

%block SCF.Mixers
  Pulay
%endblock SCF.Mixers

%block SCF.Mixer.Pulay
  # Mixing method
  method pulay
  variant stable

  # Mixing options
  weight 0.2500
  weight.linear 0.2500
  history 4
%endblock SCF.Mixer.Pulay

DM_history_depth set to one: no extrapolation allowed by default for geometry relaxation
Size of DM history Fstack: 1
Total number of electrons:    10.000000
Total ionic charge:    10.000000

* ProcessorY, Blocksize:    2   1


* Orbital distribution balance (max,min):     9     8

 Kpoints in:           18 . Kpoints trimmed:           14

siesta: k-grid: Number of k-points =    14
siesta: k-grid: Cutoff (effective) =     3.330 Ang
siesta: k-grid: Supercell and displacements
siesta: k-grid:    3   0   0      0.000
siesta: k-grid:    0   3   0      0.000
siesta: k-grid:    0   0   3      0.000

diag: Algorithm                                     = Expert
diag: Parallel over k                               =   T
diag: Use parallel 2D distribution                  =   T
diag: Parallel block-size                           = 1
diag: Parallel distribution                         =     2 x     2
diag: Used triangular part                          = Lower
diag: Absolute tolerance                            =  0.100E-15
diag: Orthogonalization factor                      =  0.100E-05
diag: Memory factor                                 =  1.0000

superc: Internal auxiliary supercell:     9 x     9 x    13  =    1053
superc: Number of atoms, orbitals, and projectors:   7371  34749  66339


ts: **************************************************************
ts: Save H and S matrices                           =    F
ts: Save DM and EDM matrices                        =    F
ts: Only save the overlap matrix S                  =    F
ts: **************************************************************

************************ Begin: TS CHECKS AND WARNINGS ************************
************************ End: TS CHECKS AND WARNINGS **************************


                     ====================================
                        Single-point calculation
                     ====================================

outcoor: Atomic coordinates (Ang):                          
    0.00000000    0.00000000    0.00000000   2       1  C-gga
   -0.70288177    1.21742694    1.10995800   1       2  Li-gga
   -1.45518323    2.52045129    1.10995800   1       3  Li-gga
    1.45518323    2.52045129    1.10995800   1       4  Li-gga
    0.70288177    1.21742694    1.10995800   1       5  Li-gga
    1.40576354    0.00000000    1.10995800   1       6  Li-gga
    2.91036646    0.00000000    1.10995800   1       7  Li-gga

superc: Internal auxiliary supercell:     9 x     9 x    13  =    1053
superc: Number of atoms, orbitals, and projectors:   7371  34749  66339

outcell: Unit cell vectors (Ang):
        4.316130    0.000000    0.000000
       -2.158065    3.737878    0.000000
        0.000000    0.000000    2.219916

outcell: Cell vector modules (Ang)   :    4.316130    4.316130    2.219916
outcell: Cell angles (23,13,12) (deg):     90.0000     90.0000    120.0000
outcell: Cell volume (Ang**3)        :     35.8143
<dSpData1D:S at geom step 0
  <sparsity:sparsity for geom step 0
    nrows_g=33 nrows=9 sparsity=80.0707 nnzs=87197, refcount: 7>
  <dData1D:(new from dSpData1D) n=87197, refcount: 1>
refcount: 1>
new_DM -- step:     1
Initializing Density Matrix...
DM filled with atomic data:
<dSpData2D:DM initialized from atoms
  <sparsity:sparsity for geom step 0
    nrows_g=33 nrows=9 sparsity=80.0707 nnzs=87197, refcount: 8>
  <dData2D:DM n=87197 m=1, refcount: 1>
refcount: 1>
No. of atoms with KB's overlaping orbs in proc 0. Max # of overlaps:     590    1472
New grid distribution:   1
           1       1:   20    1:   10    1:    6
           2       1:   20    1:   10    7:   12
           3       1:   20   11:   20    1:    6
           4       1:   20   11:   20    7:   12

InitMesh: MESH =    40 x    40 x    24 =       38400
InitMesh: (bp) =    20 x    20 x    12 =        4800
InitMesh: Mesh cutoff (required, used) =   300.000   316.498 Ry
ExtMesh (bp) on 0 =   156 x   146 x   146 =     3325296
New grid distribution:   2
           1       1:   10    1:   10    1:   12
           2      11:   20    1:   10    1:   12
           3       1:   10   11:   20    1:   12
           4      11:   20   11:   20    1:   12
New grid distribution:   3
           1       1:   10    1:   10    1:   12
           2      11:   20    1:   10    1:   12
           3       1:   10   11:   20    1:   12
           4      11:   20   11:   20    1:   12
Setting up quadratic distribution...
ExtMesh (bp) on 0 =   146 x   146 x   152 =     3240032
PhiOnMesh: Number of (b)points on node 0 =                 1200
PhiOnMesh: nlist on node 0 =               948494

stepf: Fermi-Dirac step function

siesta: Program's energy decomposition (eV):
siesta: Ebs     =      -136.250438
siesta: Eions   =       321.344870
siesta: Ena     =        68.779985
siesta: Ekin    =       247.149095
siesta: Enl     =       -19.193566
siesta: Eso     =         0.000000
siesta: Edftu   =         0.000000
siesta: DEna    =       -47.348943
siesta: DUscf   =        31.833645
siesta: DUext   =         0.000000
siesta: Exc     =      -128.784545
siesta: eta*DQ  =         0.000000
siesta: Emadel  =         0.000000
siesta: Emeta   =         0.000000
siesta: Emolmec =        -4.776760
siesta: Ekinion =         0.000000
siesta: Eharris =      -121.499162
siesta: Etot    =      -173.685960
siesta: FreeEng =      -173.699897

        iscf     Eharris(eV)        E_KS(eV)     FreeEng(eV)     dDmax    Ef(eV) dHmax(eV)
   scf:    1     -121.499162     -173.685960     -173.699897  2.666306-18.871885 18.136487
timer: Routine,Calls,Time,% = IterSCF        1      19.793  58.55
   scf:    2     -199.568532     -194.478359     -194.491165  1.618893-18.082190  0.609854
   scf:    3     -194.512559     -194.498265     -194.509708  0.058176-18.033899  0.221742
   scf:    4     -194.519923     -194.510108     -194.523139  0.083739-17.915957  0.038897
   scf:    5     -194.510318     -194.510245     -194.523167  0.006761-17.922726  0.014797
   scf:    6     -194.510051     -194.510156     -194.523237  0.015222-17.920032  0.005063
   scf:    7     -194.510200     -194.510178     -194.523238  0.000940-17.920938  0.000858

SCF Convergence by FreeE+DM+H criterion
|FreeE_i-FreeE_(i-1)| (eV) <     0.00100000
max |DM_out - DM_in|         :     0.0009399065
max |H_out - H_in|      (eV) :     0.0008578091
SCF cycle converged after 7 iterations

Using DM_out to compute the final energy and forces
No. of atoms with KB's overlaping orbs in proc 0. Max # of overlaps:     590    1472

MM-Stress (kbar):       79.21       79.21      399.10        0.00       -0.00        0.00

siesta: E_KS(eV) =             -194.5102

siesta: E_KS - E_eggbox =      -194.5102

siesta: Atomic forces (eV/Ang):
     1    0.000000   -0.000000    0.000000
     2   -1.363894    2.362808   -0.000000
     3    1.363919   -2.362793   -0.000000
     4   -1.363914   -2.362339   -0.000000
     5    1.363888    2.362353   -0.000000
     6    2.728198    0.000208   -0.000000
     7   -2.728198   -0.000237   -0.000000
----------------------------------------
   Tot    0.000000   -0.000000   -0.000000
----------------------------------------
   Max    2.728198
   Res    1.458213    sqrt( Sum f_i^2 / 3N )
----------------------------------------
   Max    2.728198    constrained

Stress tensor Voigt[x,y,z,yz,xz,xy] (kbar):    -1794.17    -1794.27     -190.50       -0.00       -0.00       -0.08
(Free)E + p*V (eV/cell)     -166.3660
Target enthalpy (eV/cell)     -194.5232

siesta: Eigenvalues (eV):
  ik is       eps
   1  1  -31.6311  -23.3839  -23.3839  -20.2868  -20.2867  -14.4986  -14.4044  -10.6816  -10.6816   -7.0968
           0.4984    3.5281    4.7598    4.7602    7.2653    7.2653    8.7102    8.7113   17.8635   17.8635
   18.1235   18.1235   21.7740   22.7744   26.2719   26.2721   27.5047   31.9547   31.9547   32.8849
   33.0951   38.3444   38.3448
   2  1  -31.6379  -23.7039  -21.9218  -21.9126  -20.4506  -14.3604  -13.9641  -12.6029   -9.4539   -8.1758
           3.2028    3.7837    4.5495    6.5144    8.3468    9.5990   13.1158   14.5507   17.0434   17.1897
   19.3151   22.1621   22.5299   22.7042   25.1942   28.0806   28.4381   28.6861   36.1547   45.4903
   50.2514   51.0493   61.1197
   3  1  -31.6379  -23.7039  -21.9219  -21.9126  -20.4505  -14.3604  -13.9642  -12.6029   -9.4539   -8.1759
           3.2028    3.7832    4.5496    6.5144    8.3474    9.5996   13.1157   14.5501   17.0435   17.1899
   19.3151   22.1622   22.5298   22.7039   25.1942   28.0810   28.4377   28.6861   36.1548   45.4901
   50.2513   51.0492   61.1196
   4  1  -31.6379  -23.7039  -21.9218  -21.9126  -20.4506  -14.3604  -13.9641  -12.6029   -9.4539   -8.1758
           3.2028    3.7837    4.5495    6.5144    8.3468    9.5990   13.1158   14.5507   17.0434   17.1897
   19.3151   22.1621   22.5299   22.7042   25.1942   28.0806   28.4381   28.6861   36.1547   45.4903
   50.2514   51.0493   61.1197
   5  1  -31.2704  -23.0111  -21.8634  -21.8632  -20.9713  -15.0173  -15.0173  -14.4969   -3.5272   -3.5268
          -0.7964   -0.7964    3.1431    4.2363    6.8778   13.1833   13.1834   17.1847   18.5538   18.5541
   20.0191   20.0193   31.9757   31.9774   34.8660   34.8674   37.1600   38.5365   38.5366   39.0597
   39.7956   42.1917   42.1917
   6  1  -29.9229  -23.4227  -23.4226  -22.9611  -17.9385  -17.9384  -12.3691  -10.5739  -10.5737   -6.4720
          -6.4719   -1.6813   -1.2317   -0.5164   -0.5163    3.6547    6.3379    6.3379   12.7569   15.7455
   15.7456   20.1523   20.7122   20.7126   30.6441   30.6442   37.1318   40.4550   42.8608   42.8611
   44.8699   56.5859   56.5863
   7  1  -30.0434  -24.1007  -22.7789  -21.9818  -19.0032  -17.4866  -12.3108  -11.6371  -11.1140   -5.2775
          -4.6649   -4.3970   -3.0849   -1.3649    1.3266    4.9656    8.3814    9.0326   12.7824   14.0056
   19.4040   19.8729   21.2979   25.4800   27.6099   35.0061   35.9417   37.8859   39.3545   45.8594
   46.4819   48.5878   77.5377
   8  1  -30.0434  -24.1007  -22.7789  -21.9819  -19.0032  -17.4865  -12.3109  -11.6371  -11.1140   -5.2775
          -4.6651   -4.3970   -3.0849   -1.3648    1.3265    4.9657    8.3814    9.0322   12.7829   14.0053
   19.4044   19.8728   21.2976   25.4800   27.6099   35.0059   35.9423   37.8854   39.3545   45.8594
   46.4816   48.5881   77.5372
   9  1  -30.0434  -24.1007  -22.7789  -21.9818  -19.0032  -17.4866  -12.3108  -11.6371  -11.1140   -5.2775
          -4.6649   -4.3970   -3.0849   -1.3649    1.3266    4.9656    8.3814    9.0326   12.7824   14.0056
   19.4040   19.8729   21.2979   25.4800   27.6099   35.0061   35.9417   37.8859   39.3545   45.8594
   46.4819   48.5878   77.5377
  10  1  -29.7281  -24.2730  -21.6171  -21.6170  -17.8950  -17.8571  -14.3702  -14.3701  -10.7457   -3.2205
          -3.2203   -0.3777   -0.3772   -0.1927   -0.1926    8.6503    8.6505    9.6791   18.9404   22.3021
   22.3023   23.8429   27.6482   27.6485   38.1927   38.1929   38.9480   42.0456   42.0472   42.2269
   50.4917   50.4927   53.5996
  11  1  -30.0434  -24.1007  -22.7789  -21.9818  -19.0032  -17.4866  -12.3108  -11.6371  -11.1140   -5.2775
          -4.6649   -4.3970   -3.0849   -1.3649    1.3266    4.9656    8.3814    9.0326   12.7824   14.0056
   19.4040   19.8729   21.2979   25.4800   27.6099   35.0061   35.9417   37.8859   39.3545   45.8594
   46.4819   48.5878   77.5377
  12  1  -30.0434  -24.1007  -22.7789  -21.9819  -19.0032  -17.4865  -12.3109  -11.6371  -11.1140   -5.2775
          -4.6651   -4.3970   -3.0849   -1.3648    1.3265    4.9657    8.3814    9.0322   12.7829   14.0053
   19.4044   19.8728   21.2976   25.4800   27.6099   35.0059   35.9423   37.8854   39.3545   45.8594
   46.4816   48.5881   77.5372
  13  1  -30.0434  -24.1007  -22.7789  -21.9818  -19.0032  -17.4866  -12.3108  -11.6371  -11.1140   -5.2775
          -4.6649   -4.3970   -3.0849   -1.3649    1.3266    4.9656    8.3814    9.0326   12.7824   14.0056
   19.4040   19.8729   21.2979   25.4800   27.6099   35.0061   35.9417   37.8859   39.3545   45.8594
   46.4819   48.5878   77.5377
  14  1  -29.9229  -23.4227  -23.4226  -22.9611  -17.9385  -17.9384  -12.3691  -10.5739  -10.5737   -6.4720
          -6.4719   -1.6813   -1.2317   -0.5164   -0.5163    3.6547    6.3379    6.3379   12.7569   15.7455
   15.7456   20.1523   20.7122   20.7126   30.6441   30.6442   37.1318   40.4550   42.8608   42.8611
   44.8699   56.5859   56.5863
siesta: Fermi energy =     -17.920938 eV

siesta: Program's energy decomposition (eV):
siesta: Ebs     =      -236.341478
siesta: Eions   =       321.344870
siesta: Ena     =        68.779985
siesta: Ekin    =       178.577237
siesta: Enl     =         0.643799
siesta: Eso     =         0.000000
siesta: Edftu   =         0.000000
siesta: DEna    =        -4.405437
siesta: DUscf   =         3.489431
siesta: DUext   =         0.000000
siesta: Exc     =      -115.473563
siesta: eta*DQ  =         0.000000
siesta: Emadel  =         0.000000
siesta: Emeta   =         0.000000
siesta: Emolmec =        -4.776760
siesta: Ekinion =         0.000000
siesta: Eharris =      -194.510200
siesta: Etot    =      -194.510178
siesta: FreeEng =      -194.523238

siesta: Final energy (eV):
siesta:  Band Struct. =    -236.341478
siesta:       Kinetic =     178.577237
siesta:       Hartree =      68.303607
siesta:       Edftu   =       0.000000
siesta:       Eso     =       0.000000
siesta:    Ext. field =       0.000000
siesta:   Exch.-corr. =    -115.473563
siesta:  Ion-electron =    -421.588099
siesta:       Ion-ion =     100.447400
siesta:       Ekinion =       0.000000
siesta:         Total =    -194.510178
siesta:         Fermi =     -17.920938

siesta: Atomic forces (eV/Ang):
siesta:      1    0.000000   -0.000000    0.000000
siesta:      2   -1.363894    2.362808   -0.000000
siesta:      3    1.363919   -2.362793   -0.000000
siesta:      4   -1.363914   -2.362339   -0.000000
siesta:      5    1.363888    2.362353   -0.000000
siesta:      6    2.728198    0.000208   -0.000000
siesta:      7   -2.728198   -0.000237   -0.000000
siesta: ----------------------------------------
siesta:    Tot    0.000000   -0.000000   -0.000000

siesta: Stress tensor (static) (eV/Ang**3):
siesta:    -1.119823   -0.000049   -0.000000
siesta:    -0.000049   -1.119880   -0.000000
siesta:    -0.000000   -0.000000   -0.118898

siesta: Cell volume =         35.814279 Ang**3

siesta: Pressure (static):
siesta:                Solid            Molecule  Units
siesta:           0.00856273          0.00981097  Ry/Bohr**3
siesta:           0.78620052          0.90081002  eV/Ang**3
siesta:        1259.64571537       1443.27237034  kBar
(Free)E+ p_basis*V_orbitals  =        -178.011313
(Free)Eharris+ p_basis*V_orbitals  =        -178.011334

cite: Please see "LiC6_scf.bib" for an exhaustive BiBTeX file.
cite: Please clearly indicate Siesta version in published work: 4.1.5
cite: This calculation has made use of the following articles
cite: which are encouraged to be cited in a published work.
        Primary SIESTA paper
          DOI: www.doi.org/10.1088/0953-8984/14/11/302

>> End of run:   9-NOV-2022  13:47:08
Job completed
