Siesta Version  : 4.1.5
Architecture    : x86_64-unknown-linux-gnu--unknown
Compiler version: GNU Fortran (GCC) 11.3.0
Compiler flags  : mpif90 -g -O2 -fallow-argument-mismatch
PP flags        : -DMPI -DFC_HAVE_FLUSH -DFC_HAVE_ABORT
Libraries       :  -I/global/software/sl-7.x86_64/modules/intel/2020.4.304/mkl/include  /globall/software/sl-7.x86_64/modules/intel/2020.4.304/mkl/lib/intel64/libmkl_scalapack_lp64.a -Wl,--start-group /global/software/sl-7.x86_64/modules/intel/2020.4.304/mkl/lib/intel64/libmkl_intel_lp64.a /global/software/sl-7.x86_64/modules/intel/2020.4.304/mkl/lib/intel64/libmkl_sequential.a /global/software/sl-7.x86_64/modules/intel/2020.4.304/mkl/lib/intel64/libmkl_core.a /global/software/sl-7.x86_64/modules/intel/2020.4.304/mkl/lib/intel64/libmkl_blacs_openmpi_lp64.a -Wl,--end-group -lpthread -lm -ldl
PARALLEL version

* Running on 20 nodes in parallel
>> Start of run:   1-NOV-2022  18:55:47

                           ***********************       
                           *  WELCOME TO SIESTA  *       
                           ***********************       

reinit: Reading from standard input
reinit: Dumped input in INPUT_TMP.32592
************************** Dump of input data file ****************************
SystemName graphite_scf
SystemLabel graphite_scf
NumberOfAtoms   36
NumberOfSpecies 1
%block ChemicalSpeciesLabel
1  6   C-gga
%endblock ChemicalSpeciesLabel
PAO.BasisSize  DZP
PAO.EnergyShift  10 meV
%block PS.Lmax
C-gga   2
%endblock PS.Lmax
LatticeConstant 1.000000 Ang
%block LatticeVectors
	7.3920000000	0.0000000000	0.0000000000
	-3.6960000000	6.4016597848	0.0000000000
	0.0000000000	0.0000000000	8.7914100000
%endblock LatticeVectors
AtomicCoordinatesFormat Ang
%block AtomicCoordinatesAndAtomicSpecies
	0.00000000	0.00000000	2.19785250	1
	0.00000000	0.00000000	6.59355750	1
	-1.23200000	2.13388659	2.19785250	1
	-2.46400000	4.26777319	6.59355750	1
	2.46400000	4.26777319	2.19785250	1
	1.23200000	2.13388659	6.59355750	1
	2.46400000	0.00000000	2.19785250	1
	4.92800000	0.00000000	6.59355750	1
	2.46400000	0.00000000	6.59355750	1
	4.92800000	0.00000000	2.19785250	1
	2.46400000	4.26777319	6.59355750	1
	1.23200000	2.13388659	2.19785250	1
	-1.23200000	2.13388659	6.59355750	1
	-2.46400000	4.26777319	2.19785250	1
	0.00000000	4.26777319	2.19785250	1
	3.69600000	2.13388659	6.59355750	1
	3.69600000	2.13388659	2.19785250	1
	0.00000000	4.26777319	6.59355750	1
	0.00000000	1.42258964	2.19785250	1
	3.69600000	4.97907014	6.59355750	1
	2.46400123	5.69036496	2.19785250	1
	1.23199877	0.71129482	6.59355750	1
	-2.46400123	5.69036496	2.19785250	1
	6.16000123	0.71129482	6.59355750	1
	-1.23200000	3.55647624	2.19785250	1
	4.92800000	2.84518355	6.59355750	1
	1.23200123	3.55647837	2.19785250	1
	2.46399877	2.84518142	6.59355750	1
	-0.00000123	5.69036496	2.19785250	1
	3.69600123	0.71129482	6.59355750	1
	2.46400000	1.42258964	2.19785250	1
	1.23200000	4.97907014	6.59355750	1
	4.92800123	1.42259177	2.19785250	1
	-1.23200123	4.97906801	6.59355750	1
	3.69599877	3.55647837	2.19785250	1
	0.00000123	2.84518142	6.59355750	1
%endblock AtomicCoordinatesAndAtomicSpecies
Kgrid_NoTRS  T
%block kgrid_MonkhorstPack
4       0       0       0.0
0       4       0       0.0
0       0       4       0.0
%endblock kgrid_MonkhorstPack
AtomCoorFormatOut Ang
BlockSize 1
#ProcessorY 12
Diag.ParallelOverK   T
Diag.DivideAndConquer F
MeshCutoff   300 Ry
SCF.FreeE.Tolerance 1E-3 eV
SCF.EDM.Tolerance   5E-3 eV
DM.Tolerance  1E-3
DM.Require.Energy.Convergence T
DM.NumberPulay 4
XC.Functional GGA
XC.Authors    PBE
UseSaveData        F
SolutionMethod     diagon
MD.TypeOfRun       CG
MD.VariableCell    F
MD.NumCGsteps      00
MD.MaxCGDispl      0.200000 Bohr
#MD.MaxStressTol    1.000000 GPa
#MD.MaxForceTol     0.010000 eV/Ang
WriteMDHistory T
WriteCoorStep T
WriteForces T
WriteCoorStep    T
WriteEigenValues T
WriteDM    F
MM.UnitsDistance Ang  # what this program prints out DO NOT CHANGE
MM.UnitsEnergy    eV  # what this program prints out DO NOT CHANGE
MM.Grimme.S6     0.75 # Grimme-paper for PBE (correct for your functional)
MM.Grimme.D     20.   # Grimme-paper (correct for your functional)
%block MM.Potentials
  1   1 Grimme     18.14      2.904 # C, 10.1002/jcc.20495
%endblock MM.Potentials
#%block ProjectedDensityOfStates
# -200.0  120.0  0.4  12800  eV
#%endblock ProjectedDensityOfStates
************************** End of input data file *****************************

reinit: -----------------------------------------------------------------------
reinit: System Name: graphite_scf
reinit: -----------------------------------------------------------------------
reinit: System Label: graphite_scf
reinit: -----------------------------------------------------------------------
Reading two-body potentials
Grimme - two-body potential between 1 and 1

initatom: Reading input for the pseudopotentials and atomic orbitals ----------
Species number:   1 Atomic number:    6 Label: C-gga

Ground state valence configuration:   2s02  2p02
Reading pseudopotential information in formatted form from C-gga.psf

Valence configuration for pseudopotential generation:
2s( 2.00) rc: 1.56
2p( 2.00) rc: 1.56
3d( 0.00) rc: 1.56
4f( 0.00) rc: 1.56
relmxkb: Read Max KB Ang. Momentum=    2 for species C-gga

<basis_specs>
===============================================================================
C-gga                Z=   6    Mass=  12.010        Charge= 0.17977+309
Lmxo=1 Lmxkb= 2    BasisType=split      Semic=F
L=0  Nsemic=0  Cnfigmx=2
          i=1  nzeta=2  polorb=0  (2s)
            splnorm:   0.15000    
               vcte:    0.0000    
               rinn:    0.0000    
               qcoe:    0.0000    
               qyuk:    0.0000    
               qwid:   0.10000E-01
                rcs:    0.0000      0.0000    
            lambdas:    1.0000      1.0000    
L=1  Nsemic=0  Cnfigmx=2
          i=1  nzeta=2  polorb=1  (2p)
            splnorm:   0.15000    
               vcte:    0.0000    
               rinn:    0.0000    
               qcoe:    0.0000    
               qyuk:    0.0000    
               qwid:   0.10000E-01
                rcs:    0.0000      0.0000    
            lambdas:    1.0000      1.0000    
-------------------------------------------------------------------------------
L=0  Nkbl=1  erefs: 0.17977+309
L=1  Nkbl=1  erefs: 0.17977+309
L=2  Nkbl=1  erefs: 0.17977+309
===============================================================================
</basis_specs>

atom: Called for C-gga                 (Z =   6)

read_vps: Pseudopotential generation method:
read_vps: ATM 3.2.2 Troullier-Martins                       
Valence charge for ps generation:    4.00000

xc_check: Exchange-correlation functional:
xc_check: GGA Perdew, Burke & Ernzerhof 1996
V l=0 = -2*Zval/r beyond r=  1.5227
V l=1 = -2*Zval/r beyond r=  1.5227
V l=2 = -2*Zval/r beyond r=  1.5227
All V_l potentials equal beyond r=  1.4851
This should be close to max(r_c) in ps generation
All pots = -2*Zval/r beyond r=  1.5227

VLOCAL1: 99.0% of the norm of Vloc inside     19.682 Ry
VLOCAL1: 99.9% of the norm of Vloc inside     44.856 Ry
atom: Maximum radius for 4*pi*r*r*local-pseudopot. charge    1.79142
atom: Maximum radius for r*vlocal+2*Zval:    1.54183
GHOST: No ghost state for L =  0
GHOST: No ghost state for L =  1
GHOST: No ghost state for L =  2

KBgen: Kleinman-Bylander projectors: 
   l= 0   rc=  1.661951   el= -1.010689   Ekb=  5.289847   kbcos=  0.316429
   l= 1   rc=  1.661951   el= -0.388490   Ekb= -4.102504   kbcos= -0.351025
   l= 2   rc=  1.747182   el=  0.001971   Ekb= -1.006005   kbcos= -0.008530

KBgen: Total number of Kleinman-Bylander projectors:    9
atom: -------------------------------------------------------------------------

atom: SANKEY-TYPE ORBITALS:
atom: Selected multiple-zeta basis: split     

SPLIT: Orbitals with angular momentum L= 0

SPLIT: Basis orbitals for state 2s

SPLIT: PAO cut-off radius determined from an
SPLIT: energy shift=  0.000735 Ry

   izeta = 1
                 lambda =    1.000000
                     rc =    5.948690
                 energy =   -1.010099
                kinetic =    0.827121
    potential(screened) =   -1.837220
       potential(ionic) =   -5.392783

   izeta = 2
                 rmatch =    3.518811
              splitnorm =    0.150000
                 energy =   -0.877891
                kinetic =    1.289227
    potential(screened) =   -2.167118
       potential(ionic) =   -5.982073

SPLIT: Orbitals with angular momentum L= 1

SPLIT: Basis orbitals for state 2p

SPLIT: PAO cut-off radius determined from an
SPLIT: energy shift=  0.000735 Ry

   izeta = 1
                 lambda =    1.000000
                     rc =    7.638387
                 energy =   -0.387843
                kinetic =    2.314739
    potential(screened) =   -2.702582
       potential(ionic) =   -6.092371

   izeta = 2
                 rmatch =    3.840617
              splitnorm =    0.150000
                 energy =   -0.270479
                kinetic =    3.438347
    potential(screened) =   -3.708826
       potential(ionic) =   -7.497707

POLgen: Perturbative polarization orbital with L=  2

POLgen: Polarization orbital for state 2p

   izeta = 1
                     rc =    7.638387
                 energy =    0.921402
                kinetic =    1.955040
    potential(screened) =   -1.033637
       potential(ionic) =   -3.679558
atom: Total number of Sankey-type orbitals: 13

atm_pop: Valence configuration (for local Pseudopot. screening):
 2s( 2.00)                                                            
 2p( 2.00)                                                            
Vna: chval, zval:    4.00000   4.00000

Vna:  Cut-off radius for the neutral-atom potential:   7.638387

atom: _________________________________________________________________________

prinput: Basis input ----------------------------------------------------------

PAO.BasisType split     

%block ChemicalSpeciesLabel
    1    6 C-gga                   # Species index, atomic number, species label
%endblock ChemicalSpeciesLabel

%block PAO.Basis                 # Define Basis set
C-gga                 2                    # Species label, number of l-shells
 n=2   0   2                         # n, l, Nzeta 
   5.949      3.519   
   1.000      1.000   
 n=2   1   2 P   1                   # n, l, Nzeta, Polarization, NzetaPol
   7.638      3.841   
   1.000      1.000   
%endblock PAO.Basis

prinput: ----------------------------------------------------------------------

coor:   Atomic-coordinates input format  =     Cartesian coordinates
coor:                                          (in Angstroms)

siesta: Atomic coordinates (Bohr) and species
siesta:      0.00000   0.00000   4.15334  1        1
siesta:      0.00000   0.00000  12.46002  1        2
siesta:     -2.32814   4.03246   4.15334  1        3
siesta:     -4.65629   8.06493  12.46002  1        4
siesta:      4.65629   8.06493   4.15334  1        5
siesta:      2.32814   4.03246  12.46002  1        6
siesta:      4.65629   0.00000   4.15334  1        7
siesta:      9.31257   0.00000  12.46002  1        8
siesta:      4.65629   0.00000  12.46002  1        9
siesta:      9.31257   0.00000   4.15334  1       10
siesta:      4.65629   8.06493  12.46002  1       11
siesta:      2.32814   4.03246   4.15334  1       12
siesta:     -2.32814   4.03246  12.46002  1       13
siesta:     -4.65629   8.06493   4.15334  1       14
siesta:      0.00000   8.06493   4.15334  1       15
siesta:      6.98443   4.03246  12.46002  1       16
siesta:      6.98443   4.03246   4.15334  1       17
siesta:      0.00000   8.06493  12.46002  1       18
siesta:      0.00000   2.68831   4.15334  1       19
siesta:      6.98443   9.40908  12.46002  1       20
siesta:      4.65629  10.75324   4.15334  1       21
siesta:      2.32814   1.34415  12.46002  1       22
siesta:     -4.65629  10.75324   4.15334  1       23
siesta:     11.64072   1.34415  12.46002  1       24
siesta:     -2.32814   6.72077   4.15334  1       25
siesta:      9.31257   5.37662  12.46002  1       26
siesta:      2.32815   6.72077   4.15334  1       27
siesta:      4.65628   5.37662  12.46002  1       28
siesta:     -0.00000  10.75324   4.15334  1       29
siesta:      6.98443   1.34415  12.46002  1       30
siesta:      4.65629   2.68831   4.15334  1       31
siesta:      2.32814   9.40908  12.46002  1       32
siesta:      9.31258   2.68831   4.15334  1       33
siesta:     -2.32815   9.40908  12.46002  1       34
siesta:      6.98443   6.72077   4.15334  1       35
siesta:      0.00000   5.37662  12.46002  1       36

siesta: System type = bulk      

initatomlists: Number of atoms, orbitals, and projectors:     36   468   324

siesta: ******************** Simulation parameters ****************************
siesta:
siesta: The following are some of the parameters of the simulation.
siesta: A complete list of the parameters used, including default values,
siesta: can be found in file out.fdf
siesta:
redata: Spin configuration                          = none
redata: Number of spin components                   = 1
redata: Time-Reversal Symmetry                      = T
redata: Spin spiral                                 = F
redata: Long output                                 =   F
redata: Number of Atomic Species                    =        1
redata: Charge density info will appear in .RHO file
redata: Write Mulliken Pop.                         = NO
redata: Matel table size (NRTAB)                    =     1024
redata: Mesh Cutoff                                 =   300.0000 Ry
redata: Net charge of the system                    =     0.0000 |e|
redata: Min. number of SCF Iter                     =        0
redata: Max. number of SCF Iter                     =     1000
redata: SCF convergence failure will abort job
redata: SCF mix quantity                            = Hamiltonian
redata: Mix DM or H after convergence               =   F
redata: Recompute H after scf cycle                 =   F
redata: Mix DM in first SCF step                    =   T
redata: Write Pulay info on disk                    =   F
redata: New DM Occupancy tolerance                  = 0.000000000001
redata: No kicks to SCF
redata: DM Mixing Weight for Kicks                  =     0.5000
redata: Require Harris convergence for SCF          =   F
redata: Harris energy tolerance for SCF             =     0.000100 eV
redata: Require DM convergence for SCF              =   T
redata: DM tolerance for SCF                        =     0.001000
redata: Require EDM convergence for SCF             =   F
redata: EDM tolerance for SCF                       =     0.005000 eV
redata: Require H convergence for SCF               =   T
redata: Hamiltonian tolerance for SCF               =     0.001000 eV
redata: Require (free) Energy convergence for SCF   =   T
redata: (free) Energy tolerance for SCF             =     0.001000 eV
redata: Using Saved Data (generic)                  =   F
redata: Use continuation files for DM               =   F
redata: Neglect nonoverlap interactions             =   F
redata: Method of Calculation                       = Diagonalization
redata: Electronic Temperature                      =   299.9869 K
redata: Fix the spin of the system                  =   F
redata: Dynamics option                             = Single-point calculation
mix.SCF: Pulay mixing                            = Pulay
mix.SCF:    Variant                              = stable
mix.SCF:    History steps                        = 4
mix.SCF:    Linear mixing weight                 =     0.250000
mix.SCF:    Mixing weight                        =     0.250000
mix.SCF:    SVD condition                        = 0.1000E-07
redata: ***********************************************************************

%block SCF.Mixers
  Pulay
%endblock SCF.Mixers

%block SCF.Mixer.Pulay
  # Mixing method
  method pulay
  variant stable

  # Mixing options
  weight 0.2500
  weight.linear 0.2500
  history 4
%endblock SCF.Mixer.Pulay

DM_history_depth set to one: no extrapolation allowed by default for geometry relaxation
Size of DM history Fstack: 1
Total number of electrons:   144.000000
Total ionic charge:   144.000000

* ProcessorY, Blocksize:    4   1


* Orbital distribution balance (max,min):    24    23

k-point displ. along   1 input, could be:     0.00    0.50
k-point displ. along   2 input, could be:     0.00    0.50
k-point displ. along   3 input, could be:     0.00    0.50
 Kpoints in:           48 . Kpoints trimmed:           44

siesta: k-grid: Number of k-points =    44
siesta: k-grid: Cutoff (effective) =    14.784 Ang
siesta: k-grid: Supercell and displacements
siesta: k-grid:    4   0   0      0.000
siesta: k-grid:    0   4   0      0.000
siesta: k-grid:    0   0   4      0.000

diag: Algorithm                                     = Expert
diag: Parallel over k                               =   T
diag: Use parallel 2D distribution                  =   T
diag: Parallel block-size                           = 1
diag: Parallel distribution                         =     4 x     5
diag: Used triangular part                          = Lower
diag: Absolute tolerance                            =  0.100E-15
diag: Orthogonalization factor                      =  0.100E-05
diag: Memory factor                                 =  1.0000

superc: Internal auxiliary supercell:     5 x     5 x     3  =      75
superc: Number of atoms, orbitals, and projectors:   2700  35100  24300


ts: **************************************************************
ts: Save H and S matrices                           =    F
ts: Save DM and EDM matrices                        =    F
ts: Only save the overlap matrix S                  =    F
ts: **************************************************************

************************ Begin: TS CHECKS AND WARNINGS ************************
************************ End: TS CHECKS AND WARNINGS **************************


                     ====================================
                        Single-point calculation
                     ====================================

outcoor: Atomic coordinates (Ang):                          
    0.00000000    0.00000000    2.19785250   1       1  C-gga
    0.00000000    0.00000000    6.59355750   1       2  C-gga
   -1.23200000    2.13388659    2.19785250   1       3  C-gga
   -2.46400000    4.26777319    6.59355750   1       4  C-gga
    2.46400000    4.26777319    2.19785250   1       5  C-gga
    1.23200000    2.13388659    6.59355750   1       6  C-gga
    2.46400000    0.00000000    2.19785250   1       7  C-gga
    4.92800000    0.00000000    6.59355750   1       8  C-gga
    2.46400000    0.00000000    6.59355750   1       9  C-gga
    4.92800000    0.00000000    2.19785250   1      10  C-gga
    2.46400000    4.26777319    6.59355750   1      11  C-gga
    1.23200000    2.13388659    2.19785250   1      12  C-gga
   -1.23200000    2.13388659    6.59355750   1      13  C-gga
   -2.46400000    4.26777319    2.19785250   1      14  C-gga
    0.00000000    4.26777319    2.19785250   1      15  C-gga
    3.69600000    2.13388659    6.59355750   1      16  C-gga
    3.69600000    2.13388659    2.19785250   1      17  C-gga
    0.00000000    4.26777319    6.59355750   1      18  C-gga
    0.00000000    1.42258964    2.19785250   1      19  C-gga
    3.69600000    4.97907014    6.59355750   1      20  C-gga
    2.46400123    5.69036496    2.19785250   1      21  C-gga
    1.23199877    0.71129482    6.59355750   1      22  C-gga
   -2.46400123    5.69036496    2.19785250   1      23  C-gga
    6.16000123    0.71129482    6.59355750   1      24  C-gga
   -1.23200000    3.55647624    2.19785250   1      25  C-gga
    4.92800000    2.84518355    6.59355750   1      26  C-gga
    1.23200123    3.55647837    2.19785250   1      27  C-gga
    2.46399877    2.84518142    6.59355750   1      28  C-gga
   -0.00000123    5.69036496    2.19785250   1      29  C-gga
    3.69600123    0.71129482    6.59355750   1      30  C-gga
    2.46400000    1.42258964    2.19785250   1      31  C-gga
    1.23200000    4.97907014    6.59355750   1      32  C-gga
    4.92800123    1.42259177    2.19785250   1      33  C-gga
   -1.23200123    4.97906801    6.59355750   1      34  C-gga
    3.69599877    3.55647837    2.19785250   1      35  C-gga
    0.00000123    2.84518142    6.59355750   1      36  C-gga

superc: Internal auxiliary supercell:     5 x     5 x     3  =      75
superc: Number of atoms, orbitals, and projectors:   2700  35100  24300

outcell: Unit cell vectors (Ang):
        7.392000    0.000000    0.000000
       -3.696000    6.401660    0.000000
        0.000000    0.000000    8.791410

outcell: Cell vector modules (Ang)   :    7.392000    7.392000    8.791410
outcell: Cell angles (23,13,12) (deg):     90.0000     90.0000    120.0000
outcell: Cell volume (Ang**3)        :    416.0189
<dSpData1D:S at geom step 0
  <sparsity:sparsity for geom step 0
    nrows_g=468 nrows=24 sparsity=.2293 nnzs=50226, refcount: 7>
  <dData1D:(new from dSpData1D) n=50226, refcount: 1>
refcount: 1>
new_DM -- step:     1
Initializing Density Matrix...
DM filled with atomic data:
<dSpData2D:DM initialized from atoms
  <sparsity:sparsity for geom step 0
    nrows_g=468 nrows=24 sparsity=.2293 nnzs=50226, refcount: 8>
  <dData2D:DM n=50226 m=1, refcount: 1>
refcount: 1>
No. of atoms with KB's overlaping orbs in proc 0. Max # of overlaps:     191     412
New grid distribution:   1
           1       1:   36    1:    9    1:   10
           2       1:   36    1:    9   11:   20
           3       1:   36    1:    9   21:   30
           4       1:   36    1:    9   31:   39
           5       1:   36    1:    9   40:   48
           6       1:   36   10:   18    1:   10
           7       1:   36   10:   18   11:   20
           8       1:   36   10:   18   21:   30
           9       1:   36   10:   18   31:   39
          10       1:   36   10:   18   40:   48
          11       1:   36   19:   27    1:   10
          12       1:   36   19:   27   11:   20
          13       1:   36   19:   27   21:   30
          14       1:   36   19:   27   31:   39
          15       1:   36   19:   27   40:   48
          16       1:   36   28:   36    1:   10
          17       1:   36   28:   36   11:   20
          18       1:   36   28:   36   21:   30
          19       1:   36   28:   36   31:   39
          20       1:   36   28:   36   40:   48

InitMesh: MESH =    72 x    72 x    96 =      497664
InitMesh: (bp) =    36 x    36 x    48 =       62208
InitMesh: Mesh cutoff (required, used) =   300.000   329.554 Ry
ExtMesh (bp) on 0 =   128 x   101 x   102 =     1318656
New grid distribution:   2
           1       1:   15   19:   36   37:   48
           2       1:   15    1:   18   13:   24
           3       1:   14    1:   18   25:   36
           4       1:   14    1:   18   37:   48
           5      15:   36    1:    9   32:   48
           6       1:   15    1:   18    1:   12
           7      16:   36   10:   18    8:   24
           8      15:   36    1:   18   25:   31
           9      16:   36    1:    9    8:   24
          10      15:   36   10:   18   32:   48
          11      16:   36   19:   36    1:    7
          12      16:   36   19:   27    8:   24
          13       1:   15   19:   36   25:   36
          14      16:   36    1:   18    1:    7
          15      16:   36   19:   27   32:   48
          16       1:   15   19:   36    1:   12
          17       1:   15   19:   36   13:   24
          18      16:   36   28:   36    8:   24
          19      16:   36   19:   36   25:   31
          20      16:   36   28:   36   32:   48
New grid distribution:   3
           1      16:   36   19:   36   25:   32
           2       1:   15    1:   18   13:   24
           3       1:   15    1:   18   25:   36
           4      16:   36   19:   36    1:    8
           5       1:   15   19:   36   37:   48
           6       1:   15    1:   18    1:   12
           7      16:   36   28:   36    9:   24
           8      16:   36   10:   18    9:   24
           9      16:   36    1:   18    1:    8
          10       1:   15    1:   18   37:   48
          11      16:   36   19:   27    9:   24
          12       1:   15   19:   36   13:   24
          13      16:   36    1:    9   33:   48
          14      16:   36    1:   18   25:   32
          15      16:   36   19:   27   33:   48
          16       1:   15   19:   36    1:   12
          17      16:   36   10:   18   33:   48
          18       1:   15   19:   36   25:   36
          19      16:   36    1:    9    9:   24
          20      16:   36   28:   36   33:   48
Setting up quadratic distribution...
ExtMesh (bp) on 0 =   107 x   110 x   104 =     1224080
PhiOnMesh: Number of (b)points on node 0 =                 3240
PhiOnMesh: nlist on node 0 =               737687

stepf: Fermi-Dirac step function

siesta: Program's energy decomposition (eV):
siesta: Ebs     =     -2060.086719
siesta: Eions   =      9434.507561
siesta: Ena     =      2224.327167
siesta: Ekin    =      4045.459344
siesta: Enl     =      -410.138271
siesta: Eso     =         0.000000
siesta: Edftu   =         0.000000
siesta: DEna    =      -292.112936
siesta: DUscf   =        30.169598
siesta: DUext   =         0.000000
siesta: Exc     =     -1735.914978
siesta: eta*DQ  =         0.000000
siesta: Emadel  =         0.000000
siesta: Emeta   =         0.000000
siesta: Emolmec =        -2.775678
siesta: Ekinion =         0.000000
siesta: Eharris =     -5478.237008
siesta: Etot    =     -5575.493316
siesta: FreeEng =     -5575.508186

        iscf     Eharris(eV)        E_KS(eV)     FreeEng(eV)     dDmax    Ef(eV) dHmax(eV)
   scf:    1    -5478.237008    -5575.493316    -5575.508186  1.822207 -7.871962  3.917995
timer: Routine,Calls,Time,% = IterSCF        1       7.358  69.40
   scf:    2    -5580.635444    -5578.133560    -5578.147834  0.073281 -7.243814  2.583055
   scf:    3    -5581.887092    -5580.332442    -5580.345510  0.128302 -6.061518  0.081897
   scf:    4    -5580.328972    -5580.331471    -5580.344598  0.005392 -6.128900  0.056924
   scf:    5    -5580.335639    -5580.333834    -5580.346937  0.005206 -6.117523  0.003069
   scf:    6    -5580.333835    -5580.333834    -5580.346938  0.000035 -6.117563  0.002777
   scf:    7    -5580.333840    -5580.333838    -5580.346940  0.000110 -6.116381  0.000180

SCF Convergence by FreeE+DM+H criterion
|FreeE_i-FreeE_(i-1)| (eV) <     0.00100000
max |DM_out - DM_in|         :     0.0001098131
max |H_out - H_in|      (eV) :     0.0001795537
SCF cycle converged after 7 iterations

Using DM_out to compute the final energy and forces
No. of atoms with KB's overlaping orbs in proc 0. Max # of overlaps:     191     412

MM-Stress (kbar):        3.51        3.51       12.90        0.00        0.00        0.00

siesta: E_KS(eV) =            -5580.3338

siesta: E_KS - E_eggbox =     -5580.3338

siesta: Atomic forces (eV/Ang):
     1   -0.000078    0.000045    0.000000
     2    0.000078   -0.000045    0.000000
     3   -0.000026    0.000000    0.000000
     4    0.000026   -0.000000    0.000000
     5   -0.000065    0.000112    0.000000
     6    0.000065   -0.000112    0.000000
     7   -0.000142    0.000022    0.000000
     8    0.000142   -0.000023    0.000000
     9    0.000062   -0.000063    0.000000
    10   -0.000062    0.000063    0.000000
    11    0.000070   -0.000022    0.000000
    12   -0.000070    0.000022   -0.000000
    13    0.000101   -0.000050    0.000000
    14   -0.000101    0.000050    0.000000
    15   -0.000078    0.000045    0.000000
    16    0.000078   -0.000045    0.000000
    17   -0.000078    0.000045    0.000000
    18    0.000078   -0.000045   -0.000000
    19    0.000087    0.000066   -0.000000
    20   -0.000087   -0.000066    0.000000
    21   -0.000023   -0.000092    0.000000
    22    0.000023    0.000093   -0.000000
    23    0.000169   -0.000108    0.000000
    24   -0.000169    0.000109    0.000000
    25    0.000086    0.000051    0.000000
    26   -0.000086   -0.000052    0.000000
    27   -0.000010   -0.000086    0.000000
    28    0.000010    0.000086    0.000000
    29    0.000157   -0.000100    0.000000
    30   -0.000157    0.000101   -0.000000
    31    0.000086    0.000052    0.000000
    32   -0.000086   -0.000051    0.000000
    33   -0.000010   -0.000086   -0.000000
    34    0.000010    0.000086   -0.000000
    35    0.000157   -0.000101   -0.000000
    36   -0.000157    0.000100    0.000000
----------------------------------------
   Tot   -0.000000   -0.000000    0.000000
----------------------------------------
   Max    0.000169
   Res    0.000069    sqrt( Sum f_i^2 / 3N )
----------------------------------------
   Max    0.000169    constrained

Stress tensor Voigt[x,y,z,yz,xz,xy] (kbar):     -110.67     -110.76       18.32        0.00       -0.00       -0.08
(Free)E + p*V (eV/cell)    -5562.7676
Target enthalpy (eV/cell)    -5580.3469

siesta: Eigenvalues (eV):
  ik is       eps
   1  1  -25.1645  -25.1464  -24.5167  -24.5167  -24.4988  -24.4987  -22.6109  -22.6109  -22.5957  -22.5957
         -21.3871  -21.3734  -20.8256  -20.8256  -20.8133  -20.8133  -20.0084  -20.0021  -18.9975  -18.9919
  -18.7381  -18.7381  -18.7265  -18.7265  -16.7029  -16.6964  -15.6723  -15.6723  -15.6618  -15.6618
  -15.1110  -15.1035  -14.3965  -14.3873  -13.6426  -13.6425  -13.6342  -13.6342  -13.2585  -13.0761
  -13.0761  -13.0730  -13.0730  -12.8990  -12.6310  -12.6310  -12.6261  -12.6260  -12.4924  -12.4924
  -12.1463  -12.1463  -11.2469  -11.2469  -11.2445  -11.2445  -10.9363  -10.9354  -10.2989  -10.2989
  -10.2633  -10.2622  -10.0061  -10.0061   -8.9494   -8.7018   -8.6520   -8.6520   -8.4842   -8.4842
   -7.9262   -7.8209   -4.6851   -4.5959   -4.2085   -4.2085   -4.0523   -4.0523   -3.3439   -3.2599
   -1.7194   -1.7194   -1.6292   -1.6292   -1.5552   -0.6571   -0.6571    2.0090    2.0090    2.0364
    2.0364    2.1052    2.1052    2.1203    2.1500    2.1500    2.5433    2.5857    2.6438    2.6438
    2.7305    2.7305    2.7875    2.7875    2.8298    2.8299    3.7455    3.7456    3.7712    3.7847
    3.8702    3.9579    4.1543    4.1543    4.2651    4.2651    4.7177    4.7177    4.7294    5.3045
    5.3045    5.3232    5.3232    5.4529    5.5675    5.7584    5.7584    6.0600    6.2937    6.2937
    6.3332    6.6033    6.6936    6.8265    6.8265    6.9097    6.9395    6.9395    6.9658    7.0437
    7.0437    7.5094    7.6079    7.6272    7.7386    8.0715    8.0715    8.2768    8.6428    8.6428
    8.9498    8.9498    9.1367    9.1367    9.1954    9.1954    9.7447    9.9668    9.9710    9.9710
   10.2719   10.2719   10.5449   10.6560   10.8138   10.8138   10.9403   10.9403   11.5005   12.0334
   12.5508   12.5508   13.1425   13.1425   13.5269   13.5269   13.6310   13.6310   13.7402   14.0067
   14.0067   14.0154   14.0155   14.2945   14.5639   14.8139   15.0643   15.5792   15.5792   16.1107
   16.3221   16.3221   16.6958   17.1817   17.4313   17.4792   17.4792   17.5687   17.5972   17.5972
   18.1048   18.3221   18.3221   18.3508   18.3731   18.6764   18.6764   18.7852   18.9879   18.9879
   19.5036   19.5036   19.7094   19.7094   19.8912   20.0783   20.1326   20.1326   20.2184   20.4009
   20.4009   20.5083   20.5083   20.9186   21.0658   21.0658   21.3893   21.6745   21.6745   21.7638
   21.8157   21.8157   22.3916   22.3916   22.6434   22.6434   23.1146   23.1276   23.5817   23.5817
   23.9024   23.9024   24.4717   24.4718   25.1136   25.4351   25.5808   25.5808   27.5285   27.5285
   29.1730   29.1730   29.5365   29.5365   29.5389   30.4479   30.7965   31.1429   31.3040   31.9219
   31.9219   32.9727   32.9727   33.2389   33.4442   33.4442   34.1330   34.6552   34.6552   34.8782
   34.8782   35.7502   35.7503   36.3633   36.8965   37.0639   37.0639   37.5540   37.5679   37.5679
   38.2644   38.2644   39.5441   39.5998   40.5946   40.5946   41.6137   41.6137   41.6316   42.1394
   42.1394   42.6188   42.8198   42.8198   42.9829   42.9829   43.1354   43.2108   43.2108   43.5624
   43.8056   43.8057   44.0611   44.0611   44.5028   44.5779   44.6804   44.6805   44.8711   45.0398
   45.0481   45.0671   45.0671   45.1542   45.2171   45.5976   46.0105   46.0105   46.1573   46.1573
   46.4553   46.5663   46.5985   47.3482   47.3482   47.3796   47.3796   48.5124   48.5124   48.9385
   49.0756   49.2156   49.2156   49.2851   50.1506   50.1506   51.8558   51.8558   51.9947   51.9947
   52.0339   52.3194   52.4027   52.4027   52.7027   52.7027   53.0721   53.0721   53.7918   53.7918
   54.0310   54.0310   54.6157   55.4252   55.4252   55.8481   56.8122   57.0629   59.3101   59.8741
   59.9604   59.9604   60.0909   60.7908   60.7908   61.0701   61.0803   61.6277   61.6277   61.6496
   61.6496   61.7586   61.8702   61.9604   61.9605   63.1411   63.5438   63.5438   63.7048   65.1597
   65.1598   66.5934   66.5935   66.6408   66.6408   67.3939   67.3939   68.9694   68.9694   69.6120
   69.6121   69.6422   69.6422   69.9904   72.7365   72.7538   72.8060   73.6258   73.6258   73.8107
   73.8122   75.3276   75.3276   75.7862   75.8130   78.0174   78.0175   79.5898   79.5899   82.5842
   83.8289   83.8710   83.8710   85.5470   88.5662   90.2667   90.2668   91.6243   91.6243   91.7199
   91.7201   95.9140   97.9292   97.9293   97.9522   97.9524   98.9609   98.9609   99.2445  100.8221
  101.9574  103.6807  103.6813  104.4457  104.6678  105.0371  106.3124  106.3125  107.2863  107.2864
  108.1679  108.1685  108.3222  108.9322  108.9324  111.3967  111.3971  112.5628  112.5631  113.9269
  113.9273  114.2117  114.5413  114.5417  114.6801  114.6809  115.8399  115.8823  115.8831  116.6373
  116.9304  117.2555  118.4124  118.4126  121.0667  123.3949  123.5933  124.6543
   2  1  -25.4866  -25.4716  -24.1946  -24.1769  -23.5551  -23.5551  -23.5386  -23.5386  -22.2998  -22.2998
         -22.2850  -22.2849  -21.6896  -21.6757  -19.9699  -19.9698  -19.9585  -19.9584  -18.1159  -18.1158
  -18.1067  -18.1066  -17.9019  -17.8887  -16.8063  -16.8061  -16.7926  -16.7925  -15.8160  -15.8158
  -15.8061  -15.8059  -14.6929  -14.6927  -14.6810  -14.6807  -13.6465  -13.6180  -13.6077  -13.2809
  -12.7515  -12.7512  -12.7488  -12.7484  -12.4366  -12.4358  -12.1233  -12.1230  -12.1208  -12.1205
  -12.1164  -11.7782  -11.3760  -11.3759  -11.2446  -11.2420  -11.0546  -11.0546   -9.9900   -9.9900
   -9.9129   -9.9109   -9.7150   -9.7150   -9.6004   -9.5972   -9.4095   -9.1739   -7.5435   -7.5435
   -7.3789   -7.3789   -4.8569   -4.8569   -4.7774   -4.7774   -3.4014   -3.2274   -2.4495   -2.4495
   -2.3018   -2.3018   -1.8070   -0.1944   -0.1944   -0.1813   -0.0984   -0.0984    0.9181    0.9181
    1.1316    1.2043    1.4582    1.4978    1.7854    1.9928    2.0539    2.2241    2.2438    2.2512
    2.2514    2.2866    2.2868    2.5304    2.5307    2.6019    2.6022    2.8348    2.8374    3.2179
    3.2179    3.2344    3.8744    3.8744    4.2667    4.7677    4.7750    5.0847    5.2738    5.2738
    6.0013    6.0014    6.1086    6.1309    6.1309    6.2612    6.2612    6.6795    6.7575    6.7576
    6.8840    6.8933    6.9771    6.9771    7.2592    7.2595    7.2653    7.2724    7.5116    7.5119
    7.5623    7.5623    7.7006    7.7007    8.5544    8.5545    8.7520    8.7521    8.8624    9.1186
    9.2838    9.2838    9.2947    9.7437    9.7439    9.8362   10.2383   10.2730   10.2734   10.3648
   10.5134   10.5134   10.9034   10.9035   10.9753   10.9753   11.0251   11.1693   11.1693   11.4198
   11.4802   11.4802   12.2547   12.2551   12.7116   12.7180   12.9942   12.9943   13.2765   13.5606
   13.5608   13.7048   13.7048   15.0495   15.0496   15.0998   15.0998   15.4651   15.4652   16.4129
   16.4129   16.6768   16.6768   16.7505   16.7505   16.7977   17.1502   17.2089   17.2094   17.4577
   17.4578   18.1456   18.1456   18.4444   18.4448   18.4702   18.4703   18.6718   18.7445   18.8806
   18.8807   19.1810   19.2452   19.2452   19.2800   19.2807   19.5405   19.6488   20.3227   20.3599
   20.3599   20.7360   20.7360   20.8267   20.8272   21.0064   21.0065   21.0681   21.1448   21.4321
   21.4544   21.8482   22.6349   22.6349   22.8111   22.8112   24.2399   24.2399   24.6366   24.6370
   25.0433   25.2150   25.2404   25.2404   25.4921   25.5255   25.7871   27.2739   27.7177   28.1226
   28.2601   29.0980   29.0980   29.1748   29.1749   29.5396   29.5397   29.9273   30.3463   30.3465
   32.7038   33.4536   33.4541   33.6122   33.6127   34.1514   35.3648   35.3649   35.4597   35.8282
   36.8112   37.9731   38.1850   38.6578   38.6578   38.8047   38.8053   38.8054   38.8059   38.8694
   38.8694   38.9867   39.2285   39.2297   39.6196   39.6196   40.7955   40.7967   40.9830   40.9842
   41.1342   41.3052   41.5065   41.5984   41.9027   42.1210   42.7817   42.8511   42.9681   43.9970
   44.0012   44.0012   44.5890   44.5890   44.7708   44.8837   44.8843   45.2354   45.2354   45.3117
   45.3117   45.3294   45.7740   45.7740   45.9036   45.9747   46.0064   46.1271   46.2208   46.7267
   46.7268   46.8636   46.8649   47.2006   47.2185   47.2186   47.4377   47.5211   47.5213   48.1425
   48.1426   48.1683   48.1684   48.5690   48.5692   49.8123   50.0890   50.0892   50.3570   50.3572
   50.7022   50.7252   50.9388   50.9389   51.9701   51.9703   52.2600   53.1835   53.4114   53.8113
   54.3868   54.4499   55.1685   55.1687   55.9913   57.5881   57.5882   57.8917   57.8919   58.4700
   58.4700   59.7618   59.7619   59.7955   59.7957   60.2211   60.5987   60.5988   60.8524   60.8524
   61.7232   62.5036   62.5039   62.8416   63.2258   63.2266   63.4813   63.6200   64.8831   64.8845
   65.1303   65.8773   65.8776   65.8992   65.9180   65.9183   66.2363   66.2840   67.5495   67.5502
   68.0730   68.0738   68.2731   70.2497   70.5979   70.7040   70.7352   71.8071   71.9699   71.9729
   73.7230   74.3534   74.8830   76.4378   76.4379   76.4424   76.4425   77.7265   77.7271   79.6251
   79.6260   80.4035   83.0041   86.1917   88.7952   92.6301   92.6327   93.1728   93.2577   94.6097
   94.6113   96.5932   97.0223   97.0254   98.8737   98.8768  100.2818  100.2820  103.3628  103.3632
  103.8513  106.6135  106.6139  107.2984  107.4089  107.4101  107.7350  107.7357  107.8539  107.8545
  108.5853  110.6717  110.6723  110.7542  110.7551  110.9725  111.4397  111.4403  111.7613  111.8328
  111.8366  113.7292  114.6633  114.7397  114.7420  115.1408  115.1430  115.8410  115.9030  115.9056
  122.0144  127.5467  127.9919  127.9930  134.9504  134.9526  137.6444  137.6462
   3  1  -25.4866  -25.4716  -24.1946  -24.1769  -23.5551  -23.5551  -23.5386  -23.5386  -22.2998  -22.2998
         -22.2850  -22.2850  -21.6896  -21.6756  -19.9698  -19.9698  -19.9584  -19.9584  -18.1159  -18.1159
  -18.1067  -18.1067  -17.9018  -17.8885  -16.8063  -16.8063  -16.7926  -16.7926  -15.8158  -15.8158
  -15.8060  -15.8060  -14.6929  -14.6929  -14.6810  -14.6810  -13.6465  -13.6177  -13.6075  -13.2809
  -12.7512  -12.7512  -12.7484  -12.7484  -12.4370  -12.4361  -12.1229  -12.1229  -12.1205  -12.1205
  -12.1164  -11.7782  -11.3759  -11.3759  -11.2450  -11.2424  -11.0546  -11.0546   -9.9900   -9.9900
   -9.9125   -9.9105   -9.7150   -9.7150   -9.6008   -9.5976   -9.4095   -9.1739   -7.5435   -7.5435
   -7.3789   -7.3789   -4.8569   -4.8569   -4.7774   -4.7774   -3.4014   -3.2274   -2.4495   -2.4495
   -2.3018   -2.3018   -1.8070   -0.1944   -0.1944   -0.1813   -0.0984   -0.0984    0.9180    0.9180
    1.1316    1.2043    1.4584    1.4980    1.7854    1.9932    2.0543    2.2246    2.2443    2.2512
    2.2512    2.2866    2.2866    2.5305    2.5305    2.6020    2.6020    2.8343    2.8369    3.2179
    3.2179    3.2344    3.8744    3.8744    4.2668    4.7677    4.7750    5.0847    5.2738    5.2738
    6.0014    6.0014    6.1086    6.1309    6.1309    6.2611    6.2611    6.6795    6.7577    6.7577
    6.8840    6.8933    6.9771    6.9771    7.2594    7.2594    7.2646    7.2717    7.5120    7.5120
    7.5621    7.5621    7.7009    7.7009    8.5544    8.5544    8.7518    8.7518    8.8627    9.1189
    9.2836    9.2836    9.2950    9.7436    9.7436    9.8364   10.2383   10.2733   10.2733   10.3648
   10.5134   10.5134   10.9034   10.9034   10.9753   10.9753   11.0251   11.1692   11.1692   11.4203
   11.4802   11.4802   12.2555   12.2555   12.7106   12.7170   12.9947   12.9947   13.2765   13.5609
   13.5609   13.7048   13.7048   15.0496   15.0496   15.0998   15.0998   15.4655   15.4655   16.4129
   16.4129   16.6768   16.6768   16.7505   16.7505   16.7977   17.1509   17.2088   17.2088   17.4576
   17.4576   18.1456   18.1456   18.4444   18.4444   18.4702   18.4702   18.6717   18.7452   18.8806
   18.8806   19.1809   19.2452   19.2452   19.2800   19.2800   19.5405   19.6492   20.3228   20.3599
   20.3599   20.7360   20.7360   20.8264   20.8264   21.0065   21.0065   21.0680   21.1449   21.4328
   21.4543   21.8483   22.6349   22.6349   22.8113   22.8113   24.2397   24.2397   24.6370   24.6370
   25.0432   25.2149   25.2402   25.2402   25.4923   25.5256   25.7872   27.2746   27.7175   28.1234
   28.2605   29.0980   29.0980   29.1748   29.1748   29.5396   29.5396   29.9271   30.3462   30.3462
   32.7037   33.4534   33.4534   33.6124   33.6124   34.1515   35.3648   35.3648   35.4597   35.8279
   36.8113   37.9731   38.1838   38.6578   38.6578   38.8053   38.8053   38.8056   38.8056   38.8693
   38.8693   38.9856   39.2295   39.2295   39.6196   39.6196   40.7968   40.7968   40.9843   40.9843
   41.1344   41.3052   41.5067   41.5985   41.9013   42.1197   42.7815   42.8509   42.9682   43.9978
   44.0012   44.0012   44.5890   44.5890   44.7717   44.8841   44.8841   45.2353   45.2353   45.3117
   45.3117   45.3285   45.7740   45.7740   45.9052   45.9749   46.0048   46.1275   46.2195   46.7266
   46.7266   46.8642   46.8642   47.2019   47.2183   47.2183   47.4380   47.5210   47.5210   48.1425
   48.1425   48.1682   48.1682   48.5686   48.5687   49.8122   50.0890   50.0890   50.3571   50.3571
   50.7023   50.7257   50.9388   50.9388   51.9702   51.9702   52.2617   53.1838   53.4116   53.8115
   54.3865   54.4496   55.1684   55.1684   55.9917   57.5882   57.5882   57.8916   57.8916   58.4700
   58.4700   59.7620   59.7620   59.7958   59.7958   60.2216   60.5988   60.5988   60.8525   60.8525
   61.7232   62.5034   62.5034   62.8399   63.2261   63.2261   63.4796   63.6207   64.8844   64.8844
   65.1312   65.8775   65.8775   65.9001   65.9182   65.9182   66.2359   66.2836   67.5512   67.5513
   68.0750   68.0751   68.2731   70.2467   70.5948   70.7009   70.7321   71.8103   71.9715   71.9715
   73.7254   74.3539   74.8852   76.4378   76.4378   76.4425   76.4425   77.7273   77.7274   79.6240
   79.6241   80.4043   83.0022   86.1901   88.7977   92.6297   92.6297   93.1739   93.2591   94.6092
   94.6093   96.5953   97.0230   97.0231   98.8741   98.8742  100.2827  100.2828  103.3626  103.3627
  103.8537  106.6131  106.6132  107.2949  107.4104  107.4105  107.7349  107.7350  107.8543  107.8544
  108.5864  110.6706  110.6707  110.7570  110.7574  110.9732  111.4398  111.4401  111.7569  111.8352
  111.8358  113.7246  114.6643  114.7436  114.7441  115.1418  115.1419  115.8374  115.9056  115.9061
  122.0148  127.5469  127.9925  127.9928  134.9508  134.9523  137.6450  137.6465
   4  1  -25.1645  -25.1464  -24.5167  -24.5167  -24.4988  -24.4987  -22.6110  -22.6109  -22.5957  -22.5957
         -21.3871  -21.3733  -20.8255  -20.8255  -20.8133  -20.8133  -20.0085  -20.0021  -18.9976  -18.9920
  -18.7381  -18.7380  -18.7265  -18.7264  -16.7029  -16.6964  -15.6724  -15.6724  -15.6620  -15.6619
  -15.1112  -15.1037  -14.3962  -14.3870  -13.6423  -13.6423  -13.6340  -13.6339  -13.2585  -13.0765
  -13.0761  -13.0733  -13.0730  -12.8990  -12.6311  -12.6308  -12.6261  -12.6258  -12.4924  -12.4924
  -12.1463  -12.1463  -11.2472  -11.2468  -11.2448  -11.2444  -10.9360  -10.9351  -10.2989  -10.2989
  -10.2636  -10.2626  -10.0061  -10.0061   -8.9494   -8.7018   -8.6520   -8.6520   -8.4842   -8.4842
   -7.9262   -7.8209   -4.6851   -4.5959   -4.2085   -4.2085   -4.0523   -4.0523   -3.3439   -3.2599
   -1.7194   -1.7194   -1.6292   -1.6292   -1.5552   -0.6571   -0.6571    2.0090    2.0090    2.0364
    2.0364    2.1051    2.1053    2.1203    2.1499    2.1501    2.5436    2.5860    2.6437    2.6438
    2.7305    2.7309    2.7875    2.7878    2.8298    2.8299    3.7451    3.7452    3.7713    3.7847
    3.8701    3.9578    4.1541    4.1542    4.2649    4.2651    4.7177    4.7177    4.7295    5.3041
    5.3046    5.3228    5.3233    5.4529    5.5675    5.7584    5.7585    6.0598    6.2937    6.2938
    6.3330    6.6032    6.6935    6.8266    6.8267    6.9096    6.9395    6.9395    6.9658    7.0438
    7.0439    7.5093    7.6080    7.6273    7.7386    8.0714    8.0717    8.2768    8.6427    8.6427
    8.9498    8.9498    9.1366    9.1367    9.1953    9.1955    9.7449    9.9667    9.9710    9.9710
   10.2720   10.2722   10.5449   10.6558   10.8138   10.8138   10.9400   10.9404   11.5005   12.0334
   12.5508   12.5508   13.1425   13.1428   13.5260   13.5269   13.6309   13.6311   13.7408   14.0067
   14.0067   14.0148   14.0158   14.2945   14.5645   14.8139   15.0645   15.5792   15.5792   16.1107
   16.3221   16.3221   16.6960   17.1821   17.4313   17.4792   17.4799   17.5686   17.5967   17.5967
   18.1044   18.3220   18.3228   18.3503   18.3731   18.6763   18.6764   18.7854   18.9875   18.9880
   19.5035   19.5036   19.7094   19.7094   19.8912   20.0783   20.1326   20.1326   20.2183   20.4006
   20.4006   20.5083   20.5084   20.9189   21.0654   21.0661   21.3893   21.6741   21.6748   21.7642
   21.8158   21.8158   22.3915   22.3918   22.6434   22.6434   23.1146   23.1276   23.5816   23.5816
   23.9026   23.9027   24.4717   24.4718   25.1137   25.4352   25.5807   25.5807   27.5284   27.5285
   29.1728   29.1728   29.5365   29.5365   29.5389   30.4479   30.7965   31.1428   31.3040   31.9218
   31.9224   32.9726   32.9733   33.2388   33.4439   33.4440   34.1329   34.6552   34.6553   34.8782
   34.8783   35.7502   35.7503   36.3632   36.8964   37.0639   37.0639   37.5540   37.5670   37.5678
   38.2634   38.2643   39.5441   39.5997   40.5945   40.5945   41.6144   41.6146   41.6317   42.1397
   42.1402   42.6189   42.8186   42.8195   42.9814   42.9826   43.1355   43.2108   43.2109   43.5624
   43.8063   43.8064   44.0618   44.0621   44.5033   44.5789   44.6804   44.6805   44.8707   45.0393
   45.0472   45.0665   45.0672   45.1530   45.2167   45.5976   46.0103   46.0107   46.1572   46.1572
   46.4553   46.5662   46.5984   47.3481   47.3482   47.3795   47.3795   48.5123   48.5124   48.9384
   49.0756   49.2156   49.2157   49.2850   50.1510   50.1516   51.8557   51.8560   51.9946   51.9947
   52.0341   52.3195   52.4027   52.4029   52.7027   52.7029   53.0720   53.0722   53.7918   53.7920
   54.0310   54.0310   54.6155   55.4252   55.4253   55.8480   56.8122   57.0629   59.3103   59.8744
   59.9600   59.9603   60.0910   60.7906   60.7910   61.0703   61.0808   61.6269   61.6277   61.6490
   61.6492   61.7588   61.8705   61.9596   61.9605   63.1409   63.5441   63.5445   63.7048   65.1599
   65.1605   66.5935   66.5936   66.6409   66.6410   67.3939   67.3945   68.9693   68.9714   69.6117
   69.6120   69.6419   69.6422   69.9879   72.7364   72.7537   72.8043   73.6226   73.6245   73.8109
   73.8123   75.3277   75.3278   75.7890   75.8158   78.0181   78.0194   79.5870   79.5894   82.5847
   83.8292   83.8700   83.8731   85.5480   88.5664   90.2671   90.2689   91.6237   91.6247   91.7202
   91.7210   95.9111   97.9260   97.9269   97.9525   97.9550   98.9578   98.9586   99.2418  100.8220
  101.9576  103.6804  103.6825  104.4470  104.6656  105.0379  106.3123  106.3150  107.2858  107.2864
  108.1681  108.1702  108.3199  108.9320  108.9323  111.3970  111.3970  112.5598  112.5621  113.9232
  113.9267  114.2113  114.5412  114.5413  114.6820  114.6839  115.8401  115.8846  115.8861  116.6380
  116.9321  117.2581  118.4120  118.4128  121.0674  123.3937  123.5944  124.6534
   5  1  -25.4866  -25.4716  -24.1946  -24.1769  -23.5551  -23.5551  -23.5386  -23.5386  -22.2998  -22.2998
         -22.2850  -22.2849  -21.6896  -21.6757  -19.9699  -19.9698  -19.9585  -19.9584  -18.1159  -18.1158
  -18.1067  -18.1066  -17.9019  -17.8887  -16.8063  -16.8061  -16.7926  -16.7925  -15.8160  -15.8158
  -15.8061  -15.8059  -14.6929  -14.6927  -14.6810  -14.6807  -13.6465  -13.6180  -13.6077  -13.2809
  -12.7515  -12.7512  -12.7488  -12.7484  -12.4366  -12.4358  -12.1233  -12.1230  -12.1208  -12.1205
  -12.1164  -11.7782  -11.3760  -11.3759  -11.2446  -11.2420  -11.0546  -11.0546   -9.9900   -9.9900
   -9.9129   -9.9109   -9.7150   -9.7150   -9.6004   -9.5972   -9.4095   -9.1739   -7.5435   -7.5435
   -7.3789   -7.3789   -4.8569   -4.8569   -4.7774   -4.7774   -3.4014   -3.2274   -2.4495   -2.4495
   -2.3018   -2.3018   -1.8070   -0.1944   -0.1944   -0.1813   -0.0984   -0.0984    0.9181    0.9181
    1.1316    1.2043    1.4582    1.4978    1.7854    1.9928    2.0539    2.2241    2.2438    2.2512
    2.2514    2.2866    2.2868    2.5304    2.5307    2.6019    2.6022    2.8348    2.8374    3.2179
    3.2179    3.2344    3.8744    3.8744    4.2667    4.7677    4.7750    5.0847    5.2738    5.2738
    6.0013    6.0014    6.1086    6.1309    6.1309    6.2612    6.2612    6.6795    6.7575    6.7576
    6.8840    6.8933    6.9771    6.9771    7.2592    7.2595    7.2653    7.2724    7.5116    7.5119
    7.5623    7.5623    7.7006    7.7007    8.5544    8.5545    8.7520    8.7521    8.8624    9.1186
    9.2838    9.2838    9.2947    9.7437    9.7439    9.8362   10.2383   10.2730   10.2734   10.3648
   10.5134   10.5134   10.9034   10.9035   10.9753   10.9753   11.0251   11.1693   11.1693   11.4198
   11.4802   11.4802   12.2547   12.2551   12.7116   12.7180   12.9942   12.9943   13.2765   13.5606
   13.5608   13.7048   13.7048   15.0495   15.0496   15.0998   15.0998   15.4651   15.4652   16.4129
   16.4129   16.6768   16.6768   16.7505   16.7505   16.7977   17.1502   17.2089   17.2094   17.4577
   17.4578   18.1456   18.1456   18.4444   18.4448   18.4702   18.4703   18.6718   18.7445   18.8806
   18.8807   19.1810   19.2452   19.2452   19.2800   19.2807   19.5405   19.6488   20.3227   20.3599
   20.3599   20.7360   20.7360   20.8267   20.8272   21.0064   21.0065   21.0681   21.1448   21.4321
   21.4544   21.8482   22.6349   22.6349   22.8111   22.8112   24.2399   24.2399   24.6366   24.6370
   25.0433   25.2150   25.2404   25.2404   25.4921   25.5255   25.7871   27.2739   27.7177   28.1226
   28.2601   29.0980   29.0980   29.1748   29.1749   29.5396   29.5397   29.9273   30.3463   30.3465
   32.7038   33.4536   33.4541   33.6122   33.6127   34.1514   35.3648   35.3649   35.4596   35.8282
   36.8112   37.9731   38.1850   38.6578   38.6578   38.8047   38.8053   38.8054   38.8059   38.8694
   38.8694   38.9867   39.2285   39.2297   39.6196   39.6196   40.7955   40.7967   40.9830   40.9842
   41.1342   41.3051   41.5065   41.5984   41.9027   42.1210   42.7817   42.8511   42.9681   43.9970
   44.0012   44.0012   44.5890   44.5890   44.7708   44.8837   44.8844   45.2354   45.2354   45.3117
   45.3117   45.3294   45.7740   45.7740   45.9036   45.9747   46.0064   46.1271   46.2208   46.7267
   46.7268   46.8636   46.8648   47.2006   47.2185   47.2186   47.4377   47.5211   47.5213   48.1425
   48.1426   48.1683   48.1684   48.5690   48.5692   49.8123   50.0890   50.0892   50.3570   50.3572
   50.7022   50.7252   50.9388   50.9389   51.9701   51.9703   52.2600   53.1835   53.4114   53.8113
   54.3868   54.4499   55.1685   55.1687   55.9912   57.5881   57.5882   57.8917   57.8920   58.4700
   58.4700   59.7618   59.7619   59.7955   59.7957   60.2211   60.5987   60.5988   60.8524   60.8524
   61.7232   62.5036   62.5039   62.8415   63.2258   63.2266   63.4813   63.6200   64.8831   64.8845
   65.1303   65.8773   65.8776   65.8992   65.9180   65.9183   66.2363   66.2840   67.5495   67.5502
   68.0729   68.0739   68.2731   70.2496   70.5978   70.7040   70.7352   71.8072   71.9699   71.9730
   73.7230   74.3534   74.8829   76.4378   76.4379   76.4424   76.4425   77.7266   77.7270   79.6252
   79.6262   80.4036   83.0037   86.1914   88.7953   92.6301   92.6327   93.1728   93.2575   94.6097
   94.6114   96.5931   97.0224   97.0254   98.8737   98.8767  100.2817  100.2820  103.3628  103.3632
  103.8514  106.6135  106.6139  107.2978  107.4090  107.4102  107.7350  107.7357  107.8540  107.8548
  108.5852  110.6715  110.6722  110.7546  110.7557  110.9724  111.4395  111.4404  111.7609  111.8326
  111.8370  113.7287  114.6633  114.7402  114.7429  115.1408  115.1431  115.8404  115.9029  115.9060
  122.0144  127.5467  127.9919  127.9931  134.9507  134.9522  137.6446  137.6458
   6  1  -25.6408  -25.6338  -23.0799  -23.0799  -23.0799  -23.0799  -23.0799  -23.0799  -23.0640  -23.0640
         -23.0640  -23.0640  -23.0640  -23.0639  -18.7600  -18.7600  -18.7534  -18.7534  -18.7534  -18.7534
  -18.7473  -18.7473  -16.6967  -16.6967  -16.6967  -16.6967  -15.8114  -15.8114  -15.8114  -15.8114
  -15.8112  -15.8112  -15.7973  -15.7973  -15.7973  -15.7973  -15.7971  -15.7971  -13.8415  -13.4731
  -11.9692  -11.9692  -11.9688  -11.9688  -11.9688  -11.9688  -11.9677  -11.9677  -11.9674  -11.9674
  -11.9674  -11.9674  -10.8456  -10.8456  -10.8456  -10.8456  -10.8456  -10.8456  -10.5407  -10.5407
  -10.5407  -10.5407  -10.5407  -10.5407   -9.2685   -9.2679   -9.2671   -9.2665   -6.2135   -6.2135
   -6.1163   -6.1163   -6.1163   -6.1163   -6.0186   -6.0186   -1.7025   -1.2434   -1.2434   -1.2434
   -1.2434   -1.2434   -1.2434   -1.1038   -1.1038   -1.1038   -1.1038   -1.1038   -1.1038    1.5236
    1.5236    1.5236    1.5236    1.5238    1.5238    1.6192    1.6959    1.6959    1.6959    1.6959
    1.6962    1.6962    1.9503    1.9503    1.9503    1.9503    1.9504    1.9504    2.1369    2.1372
    2.1376    2.1380    4.4870    4.4870    4.4870    4.4870    4.4870    4.4870    4.9576    5.3057
    5.3110    6.1165    6.1165    6.1165    6.1165    6.5791    6.5826    6.9736    6.9736    7.3564
    7.3564    7.3566    7.3566    8.0224    8.0224    8.0224    8.0225    8.0225    8.0225    8.0778
    8.0778    9.2800    9.2800    9.2803    9.2803    9.9262    9.9262    9.9262    9.9262    9.9266
    9.9266   10.1390   10.1390   10.1398   10.1398   10.1398   10.1398   10.1476   10.1476   10.1484
   10.1484   10.1485   10.1485   10.2625   10.6933   10.6933   10.6934   10.6934   10.6938   10.6939
   11.2601   11.2601   11.2601   11.2601   11.2601   11.2601   11.7691   11.7691   13.0375   13.0375
   14.7253   14.7253   14.7253   14.7253   15.2290   15.2290   15.2290   15.2290   15.2290   15.2290
   15.3335   15.3335   15.3335   15.3335   16.8188   16.8188   17.5162   17.5162   17.5162   17.5162
   17.5167   17.5167   18.6584   18.6584   18.6585   18.6585   18.9444   18.9444   18.9444   18.9444
   18.9445   18.9445   19.5836   19.5836   19.5837   19.5837   19.5837   19.5837   19.9694   20.0452
   20.0452   20.0453   20.0453   20.0453   20.0453   20.1251   20.1251   20.1251   20.1251   20.1257
   20.1257   20.2559   20.2559   20.7137   26.0782   26.0783   26.1476   26.1478   26.1703   26.1703
   26.1703   26.1703   26.1709   26.1709   28.2584   28.2584   28.2584   28.2584   28.2591   28.2591
   28.5773   28.5773   28.5773   28.5773   29.6602   29.6602   29.6604   29.6604   29.6604   29.6604
   32.3181   32.3181   32.3183   32.3183   32.3183   32.3183   36.4022   36.4022   36.4022   36.4022
   36.4023   36.4023   36.8120   36.8120   36.8120   36.8120   36.8121   36.8121   39.7242   39.7243
   39.7255   39.7255   39.7255   39.7255   40.1536   40.1536   40.1548   40.1548   40.1548   40.1548
   40.7251   40.7253   40.8183   40.8186   41.8002   41.8002   41.8523   41.8523   41.8523   41.8523
   41.8523   41.8523   42.0830   42.0830   42.0830   42.0830   43.0346   43.0346   45.0601   45.0601
   45.0601   45.0601   45.0606   45.0606   46.7071   46.7095   46.8907   46.8932   48.3049   48.3049
   48.3049   48.3049   48.3058   48.3058   49.8687   49.8687   49.8687   49.8687   49.8689   49.8689
   50.3623   50.3623   51.0564   51.0564   51.0564   51.0564   51.0567   51.0567   51.5631   51.5631
   51.5632   51.5632   52.5214   52.5214   53.2191   53.2195   53.8066   53.8066   53.8066   53.8066
   53.8069   53.8070   56.3335   56.3340   57.0473   57.6531   58.7307   58.7307   58.8948   58.8948
   58.8948   58.8948   59.1570   59.1570   61.0811   61.0811   61.0814   61.0814   61.0815   61.0815
   61.1468   61.1468   61.1471   61.1471   61.1472   61.1472   63.7127   63.8753   63.8753   63.8753
   63.8753   63.8761   63.8761   67.0859   67.0859   67.0882   67.0883   67.0883   67.0884   67.2173
   67.2174   67.2197   67.2197   67.2197   67.2198   70.3801   70.4141   70.4182   70.5105   70.5145
   71.3763   71.3780   73.2278   73.2292   74.7036   74.7036   74.7037   74.7037   74.7047   74.7048
   78.1831   78.1831   78.1832   78.1832   94.5374   94.5374   94.5374   94.5374   94.5398   94.5398
   96.0619   96.0620   96.0620   96.0620   96.0647   96.0647  104.5853  104.5854  104.5854  104.5855
  104.5858  104.5859  108.6049  108.6049  108.6050  108.6051  109.7088  109.7088  109.7122  109.7123
  109.7126  109.7129  110.7957  110.7957  110.7957  110.7958  110.7965  110.7966  113.7528  113.7530
  115.2725  115.2725  115.2761  115.2762  115.2766  115.2769  120.5594  120.5594  120.5596  120.5597
  125.4053  132.2443  136.2452  136.2455  163.1135  163.1137  163.1159  163.1159
   7  1  -25.0025  -25.0025  -24.9840  -24.9840  -23.7145  -23.7145  -23.6978  -23.6978  -21.2403  -21.2403
         -21.2402  -21.2402  -21.2269  -21.2269  -21.2268  -21.2268  -20.4276  -20.4210  -19.3980  -19.3922
  -17.5736  -17.5736  -17.5735  -17.5735  -17.5615  -17.5615  -17.5614  -17.5614  -14.2137  -14.2137
  -14.2134  -14.2134  -14.2048  -14.2048  -14.2045  -14.2045  -13.9527  -13.9527  -13.9482  -13.9482
  -13.0658  -13.0658  -12.7095  -12.7095  -12.5973  -12.5966  -12.5946  -12.5946  -12.5871  -12.5871
  -11.5553  -11.5553  -11.5335  -11.5334  -11.5310  -11.5310  -11.2288  -11.2288  -10.3785  -10.3785
  -10.3748  -10.3748   -8.8599   -8.8599   -8.8599   -8.8599   -8.6315   -8.6315   -8.6315   -8.6315
   -8.5220   -8.4140   -4.4754   -4.3139   -3.6485   -3.6485   -3.6485   -3.6485   -3.5272   -3.5272
   -3.5272   -3.5272   -1.3667   -1.3667    0.2685    0.2685    0.3263    0.3263    0.6966    0.6966
    1.3766    1.4202    2.2226    2.2226    2.2679    2.2679    2.2713    2.2713    3.2870    3.2870
    3.3359    3.3359    3.6158    3.6158    3.9098    3.9098    3.9494    3.9494    3.9494    3.9494
    3.9982    3.9982    4.0216    4.0217    4.0217    4.0217    4.6897    4.6897    4.6947    4.6947
    5.0553    5.0553    5.0553    5.0553    5.4779    5.4779    5.4961    5.4961    5.6470    5.6470
    5.9855    5.9855    5.9855    5.9855    6.6416    7.2531    7.3300    7.3300    7.8169    7.8253
    7.8253    7.8705    7.8705    7.9985    7.9985    7.9985    7.9985    8.3526    8.7110    8.7110
    8.7110    8.7110    9.0238    9.0238    9.0239    9.0239   10.0288   10.0288   10.0290   10.0290
   10.6437   10.6437   10.7241   10.7304   10.7304   11.1742   11.3267   11.3267   11.4199   11.4199
   12.1271   12.1271   12.1271   12.1271   13.1679   13.3841   13.3841   13.3845   13.3845   13.8571
   13.8583   14.9397   14.9397   14.9399   14.9399   15.3617   15.3617   15.3617   15.3617   16.0117
   16.8545   16.8545   17.3902   17.5028   17.5028   17.5033   17.5033   17.7663   17.7663   17.7669
   17.7669   17.8517   17.8517   18.1518   18.3080   18.3080   18.3080   18.3080   18.3654   18.8909
   18.9707   18.9707   18.9709   18.9709   19.9408   19.9408   20.3608   20.3608   20.8348   20.8348
   20.8348   20.8348   21.0065   21.0065   21.0066   21.0066   21.0726   21.0726   21.8181   21.8181
   22.3297   22.3297   22.3789   22.3789   23.0130   23.0130   23.3020   23.3021   23.4828   23.4828
   24.1818   24.1818   24.3845   24.3845   24.4668   24.4668   26.9014   27.6470   27.7901   27.7901
   27.8214   27.8214   28.1353   28.9011   30.3634   30.3635   30.3635   30.3636   31.1514   31.1514
   32.0505   32.0505   32.0505   32.0505   33.8803   33.8803   34.1437   34.7499   36.2784   36.2784
   36.2785   36.2785   37.6219   37.6785   37.6785   37.9031   37.9031   37.9031   37.9031   38.2116
   38.2116   38.6399   40.2249   40.2249   41.1927   41.1927   41.6468   41.6468   41.6474   41.6474
   42.6676   42.6676   42.7161   42.7161   42.7397   42.7397   42.8351   42.8352   42.8355   42.8355
   43.5012   43.5012   43.7856   43.7856   44.0722   44.0722   44.2669   44.2669   44.3406   44.3406
   44.3747   44.3747   44.5135   44.5135   44.8444   44.8444   45.3701   45.5977   47.1848   47.1848
   47.8392   47.8392   47.8876   47.8876   48.0668   48.0669   48.1871   48.1871   48.1872   48.1872
   48.7041   48.7041   48.7043   48.7043   48.7319   48.7319   48.7320   48.7320   49.9229   49.9229
   49.9230   49.9230   51.7073   51.7073   53.1590   53.8560   54.3858   54.3858   54.6150   54.7322
   55.8253   55.8254   55.8254   55.8254   57.2603   57.2603   57.2605   57.2606   58.7175   58.7175
   59.7833   59.7833   59.9454   59.9454   61.0856   61.1631   61.1631   61.3584   61.3584   61.3586
   61.3586   61.9115   61.9116   61.9473   62.2686   62.2686   62.9795   62.9795   62.9800   62.9801
   66.3576   66.3680   66.3680   66.6350   66.6350   68.1965   68.2249   70.3592   71.1047   71.1047
   71.2517   71.2517   71.8165   71.8165   71.8167   71.8167   71.8329   71.8329   71.8331   71.8331
   73.9537   73.9537   77.1560   77.1560   77.1564   77.1564   77.6819   77.6820   81.1556   81.1557
   86.0538   88.7331   88.7331   88.7334   88.7334   89.2970   89.2971   89.3251   89.3252   89.6315
   89.6315   92.7280   92.7281   95.8617   99.5042   99.5042  103.3320  103.3320  103.3349  103.3350
  103.6954  103.6955  103.6981  103.6981  104.4487  104.4487  105.3470  105.3471  106.8872  107.2500
  107.2501  107.2502  107.2503  108.2392  108.2392  111.2972  111.2975  111.8883  111.8886  112.6668
  113.5771  113.5771  113.6795  114.5591  114.5591  114.5606  114.5607  116.4039  116.4040  116.4067
  116.4068  116.5850  118.7876  118.7877  120.9641  120.9642  120.9660  120.9663
   8  1  -25.1645  -25.1464  -24.5167  -24.5167  -24.4988  -24.4987  -22.6110  -22.6109  -22.5957  -22.5957
         -21.3871  -21.3733  -20.8255  -20.8255  -20.8133  -20.8133  -20.0085  -20.0021  -18.9976  -18.9920
  -18.7381  -18.7380  -18.7265  -18.7264  -16.7029  -16.6964  -15.6724  -15.6724  -15.6620  -15.6619
  -15.1112  -15.1037  -14.3962  -14.3870  -13.6423  -13.6423  -13.6340  -13.6339  -13.2585  -13.0765
  -13.0761  -13.0733  -13.0730  -12.8990  -12.6311  -12.6308  -12.6261  -12.6258  -12.4924  -12.4924
  -12.1463  -12.1463  -11.2472  -11.2468  -11.2448  -11.2444  -10.9360  -10.9351  -10.2989  -10.2989
  -10.2636  -10.2626  -10.0061  -10.0061   -8.9494   -8.7018   -8.6520   -8.6520   -8.4842   -8.4842
   -7.9262   -7.8209   -4.6851   -4.5959   -4.2085   -4.2085   -4.0523   -4.0523   -3.3439   -3.2599
   -1.7194   -1.7194   -1.6292   -1.6292   -1.5552   -0.6571   -0.6571    2.0090    2.0090    2.0364
    2.0364    2.1051    2.1053    2.1203    2.1499    2.1501    2.5436    2.5860    2.6437    2.6438
    2.7305    2.7309    2.7875    2.7878    2.8298    2.8299    3.7451    3.7452    3.7713    3.7847
    3.8701    3.9578    4.1541    4.1542    4.2649    4.2651    4.7177    4.7177    4.7295    5.3041
    5.3046    5.3228    5.3233    5.4529    5.5675    5.7584    5.7585    6.0598    6.2937    6.2938
    6.3330    6.6032    6.6935    6.8266    6.8267    6.9096    6.9395    6.9395    6.9658    7.0438
    7.0439    7.5093    7.6080    7.6273    7.7386    8.0714    8.0717    8.2768    8.6427    8.6427
    8.9498    8.9498    9.1366    9.1367    9.1953    9.1955    9.7449    9.9667    9.9710    9.9710
   10.2720   10.2722   10.5449   10.6558   10.8138   10.8138   10.9400   10.9404   11.5005   12.0334
   12.5508   12.5508   13.1425   13.1428   13.5260   13.5269   13.6309   13.6311   13.7408   14.0067
   14.0067   14.0148   14.0158   14.2945   14.5645   14.8139   15.0645   15.5792   15.5792   16.1107
   16.3221   16.3221   16.6960   17.1821   17.4313   17.4792   17.4799   17.5686   17.5967   17.5967
   18.1044   18.3220   18.3228   18.3503   18.3731   18.6763   18.6764   18.7854   18.9875   18.9880
   19.5035   19.5036   19.7094   19.7094   19.8912   20.0783   20.1326   20.1326   20.2183   20.4006
   20.4006   20.5083   20.5084   20.9189   21.0654   21.0661   21.3893   21.6741   21.6748   21.7642
   21.8158   21.8158   22.3915   22.3918   22.6434   22.6434   23.1146   23.1276   23.5816   23.5816
   23.9026   23.9027   24.4717   24.4718   25.1137   25.4352   25.5807   25.5807   27.5284   27.5285
   29.1728   29.1728   29.5365   29.5365   29.5389   30.4479   30.7965   31.1428   31.3040   31.9218
   31.9224   32.9726   32.9733   33.2388   33.4439   33.4440   34.1329   34.6552   34.6553   34.8782
   34.8783   35.7502   35.7503   36.3632   36.8964   37.0639   37.0639   37.5540   37.5670   37.5678
   38.2634   38.2643   39.5441   39.5997   40.5945   40.5945   41.6144   41.6146   41.6317   42.1397
   42.1402   42.6189   42.8186   42.8195   42.9814   42.9826   43.1355   43.2108   43.2109   43.5624
   43.8063   43.8064   44.0618   44.0621   44.5033   44.5789   44.6804   44.6805   44.8707   45.0393
   45.0472   45.0665   45.0672   45.1530   45.2167   45.5976   46.0103   46.0107   46.1572   46.1572
   46.4553   46.5662   46.5984   47.3481   47.3482   47.3795   47.3795   48.5123   48.5124   48.9384
   49.0756   49.2156   49.2157   49.2850   50.1510   50.1516   51.8557   51.8560   51.9946   51.9947
   52.0341   52.3195   52.4027   52.4029   52.7027   52.7029   53.0720   53.0722   53.7918   53.7920
   54.0310   54.0310   54.6155   55.4252   55.4253   55.8480   56.8122   57.0629   59.3103   59.8744
   59.9600   59.9603   60.0910   60.7906   60.7910   61.0703   61.0808   61.6269   61.6277   61.6490
   61.6492   61.7588   61.8705   61.9596   61.9605   63.1409   63.5441   63.5445   63.7048   65.1599
   65.1605   66.5935   66.5936   66.6409   66.6410   67.3939   67.3945   68.9693   68.9714   69.6117
   69.6120   69.6419   69.6422   69.9879   72.7364   72.7537   72.8043   73.6226   73.6245   73.8109
   73.8123   75.3277   75.3278   75.7890   75.8158   78.0181   78.0194   79.5870   79.5894   82.5847
   83.8292   83.8700   83.8731   85.5480   88.5664   90.2671   90.2689   91.6237   91.6247   91.7202
   91.7210   95.9111   97.9260   97.9269   97.9525   97.9550   98.9578   98.9586   99.2418  100.8220
  101.9576  103.6804  103.6825  104.4470  104.6656  105.0379  106.3123  106.3150  107.2858  107.2864
  108.1681  108.1702  108.3199  108.9320  108.9323  111.3970  111.3970  112.5598  112.5621  113.9232
  113.9267  114.2113  114.5412  114.5413  114.6820  114.6839  115.8401  115.8846  115.8861  116.6380
  116.9321  117.2581  118.4120  118.4128  121.0674  123.3937  123.5944  124.6534
   9  1  -25.1645  -25.1464  -24.5167  -24.5167  -24.4988  -24.4987  -22.6110  -22.6109  -22.5957  -22.5957
         -21.3871  -21.3733  -20.8255  -20.8255  -20.8133  -20.8133  -20.0085  -20.0021  -18.9976  -18.9920
  -18.7381  -18.7380  -18.7265  -18.7264  -16.7029  -16.6964  -15.6724  -15.6724  -15.6620  -15.6619
  -15.1112  -15.1037  -14.3962  -14.3870  -13.6423  -13.6423  -13.6340  -13.6339  -13.2585  -13.0765
  -13.0761  -13.0733  -13.0730  -12.8990  -12.6311  -12.6308  -12.6261  -12.6258  -12.4924  -12.4924
  -12.1463  -12.1463  -11.2472  -11.2468  -11.2448  -11.2444  -10.9360  -10.9351  -10.2989  -10.2989
  -10.2636  -10.2626  -10.0061  -10.0061   -8.9494   -8.7018   -8.6520   -8.6520   -8.4842   -8.4842
   -7.9262   -7.8209   -4.6851   -4.5959   -4.2085   -4.2085   -4.0523   -4.0523   -3.3439   -3.2599
   -1.7194   -1.7194   -1.6292   -1.6292   -1.5552   -0.6571   -0.6571    2.0090    2.0090    2.0364
    2.0364    2.1051    2.1053    2.1203    2.1499    2.1501    2.5436    2.5860    2.6437    2.6438
    2.7305    2.7309    2.7875    2.7878    2.8298    2.8299    3.7451    3.7452    3.7713    3.7847
    3.8701    3.9578    4.1541    4.1542    4.2649    4.2651    4.7177    4.7177    4.7295    5.3041
    5.3046    5.3228    5.3233    5.4529    5.5675    5.7584    5.7585    6.0598    6.2937    6.2938
    6.3330    6.6032    6.6935    6.8266    6.8267    6.9096    6.9395    6.9395    6.9658    7.0438
    7.0439    7.5093    7.6080    7.6273    7.7386    8.0714    8.0717    8.2768    8.6427    8.6427
    8.9498    8.9498    9.1366    9.1367    9.1953    9.1955    9.7449    9.9667    9.9710    9.9710
   10.2720   10.2722   10.5449   10.6558   10.8138   10.8138   10.9400   10.9404   11.5005   12.0334
   12.5508   12.5508   13.1425   13.1428   13.5260   13.5269   13.6309   13.6311   13.7408   14.0067
   14.0067   14.0148   14.0158   14.2945   14.5645   14.8139   15.0645   15.5792   15.5792   16.1107
   16.3221   16.3221   16.6960   17.1821   17.4313   17.4792   17.4799   17.5686   17.5967   17.5967
   18.1044   18.3220   18.3228   18.3503   18.3731   18.6763   18.6764   18.7854   18.9875   18.9880
   19.5035   19.5036   19.7094   19.7094   19.8912   20.0783   20.1326   20.1326   20.2183   20.4006
   20.4006   20.5083   20.5084   20.9189   21.0654   21.0661   21.3893   21.6741   21.6748   21.7642
   21.8158   21.8158   22.3915   22.3918   22.6434   22.6434   23.1146   23.1276   23.5816   23.5816
   23.9026   23.9027   24.4717   24.4718   25.1137   25.4352   25.5807   25.5807   27.5284   27.5285
   29.1728   29.1728   29.5365   29.5365   29.5389   30.4479   30.7965   31.1428   31.3040   31.9218
   31.9224   32.9726   32.9733   33.2388   33.4439   33.4440   34.1329   34.6552   34.6553   34.8782
   34.8783   35.7502   35.7503   36.3632   36.8964   37.0639   37.0639   37.5540   37.5670   37.5678
   38.2634   38.2643   39.5441   39.5997   40.5945   40.5945   41.6144   41.6146   41.6317   42.1396
   42.1401   42.6189   42.8186   42.8195   42.9814   42.9826   43.1355   43.2108   43.2109   43.5624
   43.8063   43.8064   44.0618   44.0621   44.5033   44.5789   44.6804   44.6805   44.8707   45.0393
   45.0473   45.0665   45.0672   45.1530   45.2167   45.5976   46.0103   46.0107   46.1572   46.1572
   46.4553   46.5662   46.5984   47.3481   47.3482   47.3795   47.3795   48.5123   48.5124   48.9384
   49.0756   49.2156   49.2157   49.2850   50.1510   50.1516   51.8557   51.8560   51.9946   51.9947
   52.0341   52.3195   52.4027   52.4029   52.7027   52.7029   53.0720   53.0722   53.7918   53.7920
   54.0310   54.0311   54.6155   55.4252   55.4253   55.8480   56.8122   57.0629   59.3103   59.8744
   59.9600   59.9603   60.0910   60.7906   60.7910   61.0703   61.0808   61.6269   61.6277   61.6490
   61.6492   61.7588   61.8705   61.9596   61.9605   63.1409   63.5441   63.5445   63.7048   65.1599
   65.1604   66.5935   66.5936   66.6409   66.6410   67.3940   67.3945   68.9693   68.9714   69.6117
   69.6120   69.6419   69.6422   69.9878   72.7364   72.7537   72.8043   73.6226   73.6245   73.8109
   73.8123   75.3277   75.3278   75.7890   75.8158   78.0181   78.0194   79.5871   79.5893   82.5847
   83.8292   83.8700   83.8731   85.5479   88.5665   90.2670   90.2688   91.6237   91.6247   91.7204
   91.7210   95.9117   97.9260   97.9269   97.9527   97.9551   98.9579   98.9586   99.2423  100.8221
  101.9574  103.6801  103.6828  104.4469  104.6655  105.0379  106.3122  106.3150  107.2857  107.2864
  108.1677  108.1704  108.3201  108.9319  108.9322  111.3967  111.3970  112.5599  112.5625  113.9233
  113.9272  114.2113  114.5409  114.5414  114.6810  114.6837  115.8403  115.8835  115.8858  116.6381
  116.9315  117.2575  118.4119  118.4128  121.0674  123.3948  123.5943  124.6546
  10  1  -25.0025  -25.0025  -24.9840  -24.9840  -23.7145  -23.7145  -23.6978  -23.6978  -21.2403  -21.2403
         -21.2402  -21.2402  -21.2269  -21.2269  -21.2268  -21.2268  -20.4276  -20.4210  -19.3980  -19.3922
  -17.5736  -17.5736  -17.5735  -17.5735  -17.5615  -17.5615  -17.5614  -17.5614  -14.2137  -14.2137
  -14.2134  -14.2134  -14.2048  -14.2048  -14.2045  -14.2045  -13.9527  -13.9527  -13.9482  -13.9482
  -13.0658  -13.0658  -12.7095  -12.7095  -12.5973  -12.5966  -12.5946  -12.5946  -12.5871  -12.5871
  -11.5553  -11.5553  -11.5335  -11.5334  -11.5310  -11.5310  -11.2288  -11.2288  -10.3785  -10.3785
  -10.3748  -10.3748   -8.8599   -8.8599   -8.8599   -8.8599   -8.6315   -8.6315   -8.6315   -8.6315
   -8.5220   -8.4140   -4.4754   -4.3139   -3.6485   -3.6485   -3.6485   -3.6485   -3.5272   -3.5272
   -3.5272   -3.5272   -1.3667   -1.3667    0.2685    0.2685    0.3263    0.3263    0.6966    0.6966
    1.3766    1.4202    2.2226    2.2226    2.2679    2.2679    2.2713    2.2713    3.2870    3.2870
    3.3359    3.3359    3.6158    3.6158    3.9098    3.9098    3.9494    3.9494    3.9494    3.9494
    3.9982    3.9982    4.0216    4.0217    4.0217    4.0217    4.6897    4.6897    4.6947    4.6947
    5.0553    5.0553    5.0553    5.0553    5.4779    5.4779    5.4961    5.4961    5.6470    5.6470
    5.9855    5.9855    5.9855    5.9855    6.6416    7.2531    7.3300    7.3300    7.8169    7.8253
    7.8253    7.8705    7.8705    7.9985    7.9985    7.9985    7.9986    8.3526    8.7110    8.7110
    8.7110    8.7110    9.0238    9.0238    9.0239    9.0240   10.0288   10.0288   10.0290   10.0290
   10.6437   10.6437   10.7241   10.7304   10.7304   11.1742   11.3267   11.3267   11.4199   11.4199
   12.1271   12.1271   12.1271   12.1271   13.1679   13.3841   13.3841   13.3845   13.3845   13.8571
   13.8583   14.9397   14.9397   14.9399   14.9399   15.3617   15.3617   15.3617   15.3617   16.0117
   16.8545   16.8545   17.3902   17.5027   17.5028   17.5033   17.5033   17.7663   17.7663   17.7669
   17.7669   17.8517   17.8517   18.1518   18.3080   18.3080   18.3080   18.3080   18.3654   18.8909
   18.9707   18.9707   18.9709   18.9709   19.9408   19.9408   20.3608   20.3608   20.8348   20.8348
   20.8348   20.8348   21.0065   21.0065   21.0066   21.0066   21.0726   21.0726   21.8181   21.8181
   22.3297   22.3297   22.3789   22.3789   23.0130   23.0130   23.3020   23.3021   23.4828   23.4828
   24.1818   24.1818   24.3845   24.3845   24.4668   24.4668   26.9014   27.6470   27.7901   27.7901
   27.8214   27.8214   28.1353   28.9010   30.3634   30.3635   30.3636   30.3636   31.1514   31.1514
   32.0505   32.0505   32.0505   32.0505   33.8803   33.8803   34.1437   34.7499   36.2784   36.2784
   36.2785   36.2785   37.6218   37.6785   37.6785   37.9031   37.9031   37.9031   37.9031   38.2116
   38.2116   38.6399   40.2249   40.2249   41.1927   41.1927   41.6467   41.6467   41.6474   41.6474
   42.6676   42.6676   42.7160   42.7161   42.7397   42.7397   42.8352   42.8352   42.8354   42.8355
   43.5012   43.5012   43.7856   43.7856   44.0722   44.0722   44.2669   44.2669   44.3406   44.3406
   44.3747   44.3747   44.5135   44.5135   44.8444   44.8444   45.3701   45.5977   47.1848   47.1848
   47.8392   47.8392   47.8876   47.8876   48.0668   48.0668   48.1871   48.1871   48.1872   48.1872
   48.7041   48.7041   48.7043   48.7043   48.7319   48.7319   48.7320   48.7320   49.9229   49.9229
   49.9230   49.9230   51.7073   51.7073   53.1590   53.8560   54.3858   54.3859   54.6150   54.7322
   55.8254   55.8254   55.8254   55.8254   57.2603   57.2603   57.2605   57.2606   58.7175   58.7175
   59.7833   59.7833   59.9454   59.9454   61.0857   61.1631   61.1631   61.3584   61.3584   61.3586
   61.3586   61.9115   61.9115   61.9474   62.2686   62.2686   62.9795   62.9795   62.9800   62.9800
   66.3576   66.3680   66.3680   66.6350   66.6350   68.1965   68.2249   70.3592   71.1047   71.1047
   71.2517   71.2517   71.8165   71.8165   71.8167   71.8167   71.8329   71.8329   71.8331   71.8331
   73.9537   73.9537   77.1561   77.1562   77.1564   77.1564   77.6819   77.6819   81.1556   81.1557
   86.0540   88.7331   88.7332   88.7333   88.7334   89.2969   89.2970   89.3250   89.3251   89.6315
   89.6315   92.7280   92.7280   95.8619   99.5048   99.5048  103.3320  103.3320  103.3350  103.3350
  103.6954  103.6954  103.6981  103.6982  104.4486  104.4486  105.3476  105.3477  106.8871  107.2500
  107.2500  107.2501  107.2502  108.2391  108.2391  111.2963  111.2965  111.8874  111.8876  112.6673
  113.5771  113.5772  113.6799  114.5593  114.5596  114.5605  114.5605  116.4043  116.4046  116.4063
  116.4064  116.5849  118.7877  118.7877  120.9642  120.9643  120.9658  120.9659
  11  1  -25.1645  -25.1464  -24.5167  -24.5167  -24.4988  -24.4987  -22.6110  -22.6109  -22.5957  -22.5957
         -21.3871  -21.3733  -20.8255  -20.8255  -20.8133  -20.8133  -20.0085  -20.0021  -18.9976  -18.9920
  -18.7381  -18.7380  -18.7265  -18.7264  -16.7029  -16.6964  -15.6724  -15.6724  -15.6620  -15.6619
  -15.1112  -15.1037  -14.3962  -14.3870  -13.6423  -13.6423  -13.6340  -13.6339  -13.2585  -13.0765
  -13.0761  -13.0733  -13.0730  -12.8990  -12.6311  -12.6308  -12.6261  -12.6258  -12.4924  -12.4924
  -12.1463  -12.1463  -11.2472  -11.2468  -11.2448  -11.2444  -10.9360  -10.9351  -10.2989  -10.2989
  -10.2636  -10.2626  -10.0061  -10.0061   -8.9494   -8.7018   -8.6520   -8.6520   -8.4842   -8.4842
   -7.9262   -7.8209   -4.6851   -4.5959   -4.2085   -4.2085   -4.0523   -4.0523   -3.3439   -3.2599
   -1.7194   -1.7194   -1.6292   -1.6292   -1.5552   -0.6571   -0.6571    2.0090    2.0090    2.0364
    2.0364    2.1051    2.1053    2.1203    2.1499    2.1501    2.5436    2.5860    2.6437    2.6438
    2.7305    2.7309    2.7875    2.7878    2.8298    2.8299    3.7451    3.7452    3.7713    3.7847
    3.8701    3.9578    4.1541    4.1542    4.2649    4.2651    4.7177    4.7177    4.7295    5.3041
    5.3046    5.3228    5.3233    5.4529    5.5675    5.7584    5.7585    6.0598    6.2937    6.2938
    6.3330    6.6032    6.6935    6.8266    6.8267    6.9096    6.9395    6.9395    6.9658    7.0438
    7.0439    7.5093    7.6080    7.6273    7.7386    8.0714    8.0717    8.2768    8.6427    8.6427
    8.9498    8.9498    9.1366    9.1367    9.1953    9.1955    9.7449    9.9667    9.9710    9.9710
   10.2720   10.2722   10.5449   10.6558   10.8138   10.8138   10.9400   10.9404   11.5005   12.0334
   12.5508   12.5508   13.1425   13.1428   13.5260   13.5269   13.6309   13.6311   13.7408   14.0067
   14.0067   14.0148   14.0158   14.2945   14.5645   14.8139   15.0645   15.5792   15.5792   16.1107
   16.3221   16.3221   16.6960   17.1821   17.4313   17.4792   17.4799   17.5686   17.5967   17.5967
   18.1044   18.3220   18.3228   18.3503   18.3731   18.6763   18.6764   18.7854   18.9875   18.9880
   19.5035   19.5036   19.7094   19.7094   19.8912   20.0783   20.1326   20.1326   20.2183   20.4006
   20.4006   20.5083   20.5084   20.9189   21.0654   21.0661   21.3893   21.6741   21.6748   21.7642
   21.8158   21.8158   22.3915   22.3918   22.6434   22.6434   23.1146   23.1276   23.5816   23.5816
   23.9026   23.9027   24.4717   24.4718   25.1137   25.4352   25.5807   25.5807   27.5284   27.5285
   29.1728   29.1728   29.5365   29.5365   29.5389   30.4479   30.7965   31.1428   31.3040   31.9218
   31.9224   32.9726   32.9733   33.2388   33.4439   33.4440   34.1329   34.6552   34.6553   34.8782
   34.8783   35.7502   35.7503   36.3632   36.8964   37.0639   37.0639   37.5540   37.5670   37.5678
   38.2634   38.2643   39.5441   39.5997   40.5945   40.5945   41.6144   41.6146   41.6317   42.1396
   42.1401   42.6189   42.8186   42.8195   42.9814   42.9826   43.1355   43.2108   43.2109   43.5624
   43.8063   43.8064   44.0618   44.0621   44.5033   44.5789   44.6804   44.6805   44.8707   45.0393
   45.0473   45.0665   45.0672   45.1530   45.2167   45.5976   46.0103   46.0107   46.1572   46.1572
   46.4553   46.5662   46.5984   47.3481   47.3482   47.3795   47.3795   48.5123   48.5124   48.9384
   49.0756   49.2156   49.2157   49.2850   50.1510   50.1516   51.8557   51.8560   51.9946   51.9947
[...]
    5.3180    5.3180    5.3185    5.3186    6.2355    6.2355    6.2355    6.2355    6.2835    6.2835
    6.6031    6.6031    6.6845    6.6845    6.9516    6.9516    6.9517    6.9518    7.6178    7.6178
    8.0921    8.0921    8.2192    8.2192    8.5568    8.5568    8.5569    8.5569    8.7442    8.7443
    8.7443    8.7443    8.9312    8.9312    9.1699    9.1700    9.1701    9.1701    9.5682    9.5682
    9.5682    9.5682    9.6428    9.6428   10.6515   10.6515   10.6516   10.6516   13.1700   13.1700
   13.2926   13.2926   13.2928   13.2928   13.3030   13.3030   13.3034   13.3034   13.7284   13.7284
   14.4724   14.4724   14.4727   14.4727   14.8500   14.8500   14.8658   14.8658   14.8658   14.8658
   15.2270   15.2270   16.1703   16.1704   17.2932   17.2932   17.6951   17.6951   17.6956   17.6956
   18.0330   18.0330   18.0332   18.0332   18.4875   18.4875   18.5146   18.5146   19.0300   19.0300
   19.0302   19.0302   19.7826   19.7826   20.0330   20.0330   20.0330   20.0330   20.4310   20.4311
   20.4312   20.4312   20.6265   20.6265   21.4976   21.4976   21.5297   21.5297   21.5303   21.5303
   22.3443   22.3443   22.3443   22.3443   23.0709   23.0709   23.0802   23.0802   23.0802   23.0802
   23.8451   23.8451   23.8451   23.8451   25.2128   25.2128   27.3583   27.3583   27.3583   27.3583
   31.2942   31.2942   31.4720   31.4720   32.0102   32.0102   32.0102   32.0102   32.0403   32.0403
   32.0403   32.0403   32.4854   32.4854   32.4858   32.4858   33.5212   33.5212   34.5585   34.5585
   34.5587   34.5587   35.2215   35.2215   36.2783   36.2783   37.9081   37.9081   37.9089   37.9089
   38.7053   38.7054   39.0707   39.0707   39.0707   39.0707   41.9011   41.9011   41.9015   41.9015
   42.7597   42.7597   42.7605   42.7605   42.8839   42.8839   43.6422   43.6422   43.6969   43.6969
   43.6972   43.6972   44.3143   44.3143   44.3147   44.3147   44.3236   44.3236   44.5325   44.5325
   44.8636   44.8636   44.8640   44.8640   45.0371   45.0371   45.1386   45.1386   46.5918   46.5918
   48.0404   48.0404   48.0405   48.0405   48.9026   48.9026   49.5060   49.5060   49.6023   49.6023
   49.6025   49.6025   50.1181   50.1181   50.1182   50.1182   51.5889   51.5889   51.5890   51.5890
   52.7876   52.7876   53.2416   53.2416   53.2418   53.2418   54.3446   54.3446   54.3447   54.3447
   55.2365   55.2365   57.1195   57.1195   57.1196   57.1197   58.8188   58.8188   58.8189   58.8189
   59.2822   59.2822   59.6470   59.6470   61.1921   61.1921   61.3745   61.3745   61.7993   61.7993
   61.9915   61.9915   61.9926   61.9926   62.1672   62.1672   62.1676   62.1676   63.3163   63.3163
   64.4127   64.4127   64.4128   64.4128   66.6241   66.6241   66.6242   66.6242   69.6064   69.6064
   69.6067   69.6067   72.7448   72.7448   73.8094   73.8095   74.0471   74.0471   75.0136   75.0136
   75.0147   75.0147   75.8365   75.8365   76.1971   76.1971   76.1972   76.1972   83.7762   83.7762
   83.7779   83.7779   84.8300   84.8300   84.8328   84.8328   87.7642   87.7642   95.3096   95.3096
   95.3111   95.3111   95.7565   95.7565   97.2979   97.2979   98.3950   98.3950   98.3957   98.3958
  104.0561  104.0561  104.5538  104.5539  105.7988  105.7989  105.8018  105.8018  107.0021  107.0021
  107.0026  107.0026  110.3542  110.3543  110.3557  110.3557  112.5601  112.5601  112.5604  112.5604
  113.4090  113.4090  114.4976  114.4976  114.5014  114.5014  114.7984  114.7985  114.9449  114.9449
  114.9474  114.9475  118.0975  118.0975  118.9834  118.9834  123.5051  123.5051
  42  1  -24.9932  -24.9932  -24.9932  -24.9932  -23.7063  -23.7062  -23.7062  -23.7062  -21.2336  -21.2336
         -21.2336  -21.2336  -21.2335  -21.2335  -21.2335  -21.2335  -20.4243  -20.4243  -19.3952  -19.3952
  -17.5676  -17.5676  -17.5676  -17.5675  -17.5674  -17.5674  -17.5674  -17.5674  -14.2093  -14.2093
  -14.2092  -14.2092  -14.2090  -14.2090  -14.2090  -14.2090  -13.9504  -13.9504  -13.9504  -13.9504
  -12.8945  -12.8945  -12.8945  -12.8945  -12.5969  -12.5969  -12.5907  -12.5907  -12.5907  -12.5907
  -11.5322  -11.5322  -11.5321  -11.5321  -11.3970  -11.3970  -11.3970  -11.3970  -10.3767  -10.3767
  -10.3767  -10.3767   -8.7470   -8.7470   -8.7470   -8.7470   -8.7469   -8.7469   -8.7469   -8.7469
   -8.4659   -8.4659   -4.4036   -4.4036   -3.5904   -3.5904   -3.5904   -3.5904   -3.5904   -3.5904
   -3.5904   -3.5904    0.0029    0.0029    0.0029    0.0029    0.2974    0.2974    0.2974    0.2974
    1.3983    1.3984    1.9169    1.9169    1.9169    1.9169    2.2644    2.2644    2.2644    2.2644
    3.3008    3.3008    3.3008    3.3008    3.9867    3.9867    3.9867    3.9867    3.9876    3.9876
    3.9877    3.9877    3.9877    3.9877    3.9877    3.9877    4.6923    4.6923    4.6923    4.6923
    5.4678    5.4678    5.4678    5.4678    5.4678    5.4678    5.4678    5.4678    5.4867    5.4867
    5.4867    5.4867    6.9668    6.9668    7.8386    7.8386    7.8386    7.8386    7.8931    7.8931
    8.3712    8.3712    8.3712    8.3712    8.4096    8.4096    8.4096    8.4097    8.4097    8.4097
    8.4097    8.4097    9.2474    9.2474    9.2474    9.2474    9.4494    9.4494    9.4494    9.4494
    9.4494    9.4494    9.4494    9.4494   11.3092   11.3092   11.3726   11.3726   11.3726   11.3726
   13.1545   13.1545   13.1545   13.1545   13.1547   13.1547   13.1547   13.1547   13.8577   13.8577
   13.9753   13.9753   14.9098   14.9099   14.9099   14.9099   14.9099   14.9099   14.9099   14.9099
   16.9747   16.9747   16.9748   16.9748   17.1599   17.1599   17.1600   17.1600   17.1603   17.1603
   17.1603   17.1603   18.0597   18.0598   18.6073   18.6073   18.9723   18.9723   18.9723   18.9723
   18.9725   18.9725   18.9725   18.9725   20.2989   20.2989   20.2989   20.2989   20.6213   20.6213
   20.6213   20.6213   20.6214   20.6214   20.6214   20.6214   21.5905   21.5905   21.5905   21.5905
   22.4194   22.4194   22.4194   22.4194   23.1458   23.1458   23.1458   23.1458   23.6605   23.6605
   23.6605   23.6605   24.2075   24.2075   24.2075   24.2075   27.9328   27.9328   28.4186   28.4186
   30.4098   30.4098   30.4098   30.4098   31.2839   31.2839   31.2839   31.2839   31.7963   31.7963
   31.7963   31.7963   31.7963   31.7963   31.7963   31.7964   32.8173   32.8173   36.9038   36.9038
   36.9038   36.9038   36.9039   36.9039   36.9039   36.9039   38.0668   38.0668   39.5263   39.5263
   39.5263   39.5263   40.3086   40.3086   40.3086   40.3086   42.4803   42.4803   42.4804   42.4804
   42.4807   42.4807   42.4807   42.4807   42.6212   42.6212   42.6212   42.6212   43.3256   43.3256
   43.3256   43.3256   43.8210   43.8210   43.8210   43.8210   44.1903   44.1903   44.1903   44.1903
   44.3436   44.3436   44.3436   44.3436   45.5920   45.5921   45.5921   45.5921   46.4719   46.4719
   47.6155   47.6155   47.6155   47.6155   47.6155   47.6155   47.6155   47.6155   47.8701   47.8701
   47.8701   47.8701   50.9133   50.9133   50.9133   50.9133   50.9135   50.9135   50.9135   50.9135
   51.5084   51.5084   51.5084   51.5084   53.4350   53.4350   55.0333   55.0333   56.8585   56.8586
   56.8586   56.8586   56.8587   56.8587   56.8587   56.8587   58.2533   58.2533   58.2533   58.2533
   59.3474   59.3475   59.3475   59.3475   59.8727   59.8727   59.8728   59.8728   61.5225   61.5226
   62.0698   62.0699   62.0699   62.0699   62.2415   62.2415   62.2415   62.2415   62.2417   62.2418
   62.2418   62.2418   67.9236   67.9236   67.9236   67.9236   68.2117   68.2117   71.1789   71.1789
   71.1789   71.1789   71.8206   71.8206   71.8206   71.8206   71.8208   71.8208   71.8208   71.8208
   74.7545   74.7545   81.7980   81.7980   81.7980   81.7980   82.4018   82.4018   82.4018   82.4018
   85.7069   85.7069   85.7069   85.7069   85.7071   85.7071   85.7071   85.7072   89.4411   89.4411
   89.4412   89.4412   91.1517   91.1517  102.4511  102.4511  102.4512  102.4512  103.5252  103.5252
  103.5252  103.5252  103.5280  103.5280  103.5280  103.5280  106.3992  106.3992  106.3992  106.3992
  110.7268  110.7269  110.7270  110.7270  110.7272  110.7273  110.7274  110.7274  111.3243  111.3244
  111.5162  111.5162  111.5166  111.5167  113.1757  113.1757  115.9142  115.9142  115.9143  115.9143
  117.3153  117.3154  117.3155  117.3155  117.3178  117.3179  117.3180  117.3181
  43  1  -25.1554  -25.1553  -24.5077  -24.5077  -24.5077  -24.5077  -22.6034  -22.6034  -22.6034  -22.6034
         -21.3802  -21.3802  -20.8194  -20.8194  -20.8194  -20.8194  -20.0052  -20.0052  -18.9949  -18.9948
  -18.7323  -18.7323  -18.7322  -18.7322  -16.6996  -16.6996  -15.6672  -15.6672  -15.6672  -15.6671
  -15.1074  -15.1074  -14.3916  -14.3916  -13.6382  -13.6382  -13.6381  -13.6381  -13.0857  -13.0857
  -13.0749  -13.0749  -13.0746  -13.0746  -12.6285  -12.6285  -12.6282  -12.6282  -12.3256  -12.3256
  -12.3256  -12.3256  -11.2458  -11.2458  -11.2455  -11.2455  -10.9356  -10.9356  -10.2630  -10.2630
  -10.1559  -10.1559  -10.1558  -10.1558   -8.8274   -8.8274   -8.5675   -8.5675   -8.5675   -8.5675
   -7.8716   -7.8716   -4.6458   -4.6457   -4.1371   -4.1371   -4.1371   -4.1371   -3.3023   -3.3023
   -1.6753   -1.6753   -1.6753   -1.6753   -0.1796   -0.1796    0.6780    0.6780    0.6780    0.6780
    2.0418    2.0418    2.0418    2.0418    2.1275    2.1275    2.1277    2.1277    2.5811    2.5812
    2.7840    2.7840    2.7843    2.7843    3.5437    3.5437    3.5437    3.5437    3.7452    3.7452
    3.7777    3.7777    3.9133    3.9133    4.2676    4.2676    4.2677    4.2677    5.0783    5.0783
    5.3180    5.3180    5.3185    5.3186    6.2355    6.2355    6.2355    6.2355    6.2835    6.2835
    6.6031    6.6031    6.6845    6.6845    6.9516    6.9516    6.9517    6.9518    7.6178    7.6178
    8.0921    8.0921    8.2192    8.2192    8.5568    8.5568    8.5569    8.5569    8.7442    8.7443
    8.7443    8.7443    8.9312    8.9312    9.1699    9.1700    9.1701    9.1701    9.5682    9.5682
    9.5682    9.5682    9.6428    9.6428   10.6515   10.6515   10.6516   10.6516   13.1700   13.1700
   13.2926   13.2926   13.2928   13.2928   13.3030   13.3030   13.3034   13.3034   13.7284   13.7284
   14.4724   14.4724   14.4727   14.4727   14.8500   14.8500   14.8658   14.8658   14.8658   14.8658
   15.2270   15.2270   16.1703   16.1704   17.2932   17.2932   17.6951   17.6951   17.6956   17.6956
   18.0330   18.0330   18.0332   18.0332   18.4875   18.4875   18.5146   18.5146   19.0300   19.0300
   19.0302   19.0302   19.7826   19.7826   20.0330   20.0330   20.0330   20.0330   20.4310   20.4311
   20.4312   20.4312   20.6265   20.6265   21.4976   21.4976   21.5297   21.5297   21.5303   21.5303
   22.3443   22.3443   22.3443   22.3443   23.0709   23.0709   23.0802   23.0802   23.0802   23.0802
   23.8451   23.8451   23.8451   23.8451   25.2128   25.2128   27.3583   27.3583   27.3583   27.3583
   31.2942   31.2942   31.4720   31.4720   32.0102   32.0102   32.0102   32.0102   32.0403   32.0403
   32.0403   32.0403   32.4854   32.4854   32.4858   32.4858   33.5212   33.5212   34.5585   34.5585
   34.5587   34.5587   35.2215   35.2215   36.2783   36.2783   37.9081   37.9081   37.9089   37.9089
   38.7053   38.7054   39.0707   39.0707   39.0707   39.0707   41.9011   41.9011   41.9015   41.9015
   42.7597   42.7597   42.7605   42.7605   42.8839   42.8839   43.6422   43.6422   43.6969   43.6969
   43.6972   43.6972   44.3143   44.3143   44.3147   44.3147   44.3236   44.3236   44.5325   44.5325
   44.8636   44.8636   44.8640   44.8640   45.0371   45.0371   45.1386   45.1386   46.5918   46.5918
   48.0404   48.0404   48.0405   48.0405   48.9026   48.9026   49.5060   49.5060   49.6023   49.6023
   49.6025   49.6025   50.1181   50.1181   50.1182   50.1182   51.5889   51.5889   51.5890   51.5890
   52.7876   52.7876   53.2416   53.2416   53.2418   53.2418   54.3446   54.3446   54.3447   54.3447
   55.2365   55.2365   57.1195   57.1195   57.1196   57.1197   58.8188   58.8188   58.8189   58.8189
   59.2822   59.2822   59.6470   59.6470   61.1921   61.1921   61.3745   61.3745   61.7993   61.7993
   61.9915   61.9915   61.9926   61.9926   62.1672   62.1672   62.1676   62.1676   63.3163   63.3163
   64.4127   64.4127   64.4128   64.4128   66.6241   66.6241   66.6242   66.6242   69.6064   69.6064
   69.6067   69.6067   72.7448   72.7448   73.8094   73.8095   74.0471   74.0471   75.0136   75.0136
   75.0147   75.0147   75.8365   75.8365   76.1971   76.1971   76.1972   76.1972   83.7762   83.7762
   83.7779   83.7779   84.8300   84.8300   84.8328   84.8328   87.7642   87.7642   95.3096   95.3096
   95.3111   95.3111   95.7565   95.7565   97.2979   97.2979   98.3950   98.3950   98.3957   98.3958
  104.0561  104.0561  104.5538  104.5539  105.7988  105.7989  105.8018  105.8018  107.0021  107.0021
  107.0026  107.0026  110.3542  110.3543  110.3557  110.3557  112.5601  112.5601  112.5604  112.5604
  113.4090  113.4090  114.4976  114.4976  114.5014  114.5014  114.7984  114.7985  114.9449  114.9449
  114.9474  114.9475  118.0975  118.0975  118.9834  118.9834  123.5051  123.5051
  44  1  -24.9932  -24.9932  -24.9932  -24.9932  -23.7063  -23.7063  -23.7063  -23.7063  -21.2336  -21.2335
         -21.2335  -21.2335  -21.2335  -21.2335  -21.2335  -21.2335  -20.4243  -20.4242  -19.3950  -19.3950
  -17.5676  -17.5676  -17.5676  -17.5676  -17.5676  -17.5676  -17.5676  -17.5676  -14.2090  -14.2090
  -14.2090  -14.2090  -14.2090  -14.2090  -14.2090  -14.2090  -13.9506  -13.9506  -13.9506  -13.9506
  -12.8945  -12.8945  -12.8945  -12.8945  -12.5973  -12.5973  -12.5905  -12.5905  -12.5905  -12.5905
  -11.5318  -11.5318  -11.5318  -11.5318  -11.3970  -11.3970  -11.3970  -11.3970  -10.3771  -10.3771
  -10.3771  -10.3770   -8.7470   -8.7470   -8.7470   -8.7469   -8.7469   -8.7469   -8.7469   -8.7469
   -8.4659   -8.4659   -4.4036   -4.4036   -3.5904   -3.5904   -3.5904   -3.5904   -3.5904   -3.5904
   -3.5904   -3.5904    0.0029    0.0029    0.0029    0.0029    0.2974    0.2974    0.2974    0.2974
    1.3986    1.3986    1.9168    1.9168    1.9168    1.9168    2.2648    2.2648    2.2648    2.2648
    3.3008    3.3008    3.3008    3.3008    3.9867    3.9867    3.9867    3.9867    3.9876    3.9876
    3.9876    3.9876    3.9876    3.9876    3.9876    3.9876    4.6917    4.6917    4.6917    4.6917
    5.4678    5.4678    5.4678    5.4678    5.4678    5.4678    5.4678    5.4678    5.4869    5.4869
    5.4869    5.4869    6.9669    6.9669    7.8387    7.8387    7.8388    7.8388    7.8932    7.8932
    8.3712    8.3712    8.3712    8.3712    8.4095    8.4095    8.4095    8.4095    8.4095    8.4095
    8.4095    8.4095    9.2474    9.2474    9.2474    9.2474    9.4494    9.4494    9.4494    9.4494
    9.4494    9.4494    9.4494    9.4494   11.3094   11.3094   11.3725   11.3725   11.3725   11.3725
   13.1548   13.1548   13.1548   13.1548   13.1548   13.1548   13.1548   13.1548   13.8566   13.8566
   13.9755   13.9755   14.9102   14.9102   14.9102   14.9102   14.9102   14.9102   14.9102   14.9102
   16.9748   16.9748   16.9748   16.9748   17.1599   17.1599   17.1599   17.1599   17.1599   17.1599
   17.1599   17.1599   18.0605   18.0605   18.6072   18.6072   18.9723   18.9723   18.9723   18.9724
   18.9724   18.9724   18.9724   18.9724   20.2983   20.2983   20.2983   20.2983   20.6214   20.6214
   20.6214   20.6214   20.6214   20.6214   20.6214   20.6214   21.5909   21.5909   21.5909   21.5909
   22.4193   22.4193   22.4193   22.4193   23.1457   23.1457   23.1457   23.1457   23.6606   23.6606
   23.6606   23.6606   24.2075   24.2075   24.2075   24.2075   27.9326   27.9327   28.4193   28.4193
   30.4098   30.4099   30.4099   30.4099   31.2838   31.2838   31.2838   31.2838   31.7963   31.7963
   31.7963   31.7963   31.7963   31.7963   31.7963   31.7963   32.8174   32.8174   36.9038   36.9038
   36.9038   36.9038   36.9038   36.9038   36.9038   36.9038   38.0657   38.0657   39.5260   39.5260
   39.5260   39.5260   40.3088   40.3088   40.3088   40.3088   42.4803   42.4803   42.4803   42.4803
   42.4803   42.4803   42.4803   42.4804   42.6219   42.6219   42.6219   42.6219   43.3257   43.3257
   43.3257   43.3257   43.8211   43.8211   43.8211   43.8211   44.1909   44.1909   44.1910   44.1910
   44.3421   44.3422   44.3422   44.3422   45.5921   45.5921   45.5921   45.5921   46.4723   46.4723
   47.6154   47.6154   47.6154   47.6154   47.6154   47.6154   47.6154   47.6155   47.8698   47.8699
   47.8699   47.8699   50.9133   50.9133   50.9133   50.9133   50.9133   50.9133   50.9133   50.9133
   51.5097   51.5097   51.5097   51.5097   53.4353   53.4353   55.0336   55.0336   56.8587   56.8587
   56.8587   56.8587   56.8587   56.8587   56.8587   56.8587   58.2534   58.2534   58.2534   58.2534
   59.3482   59.3482   59.3482   59.3482   59.8729   59.8729   59.8729   59.8729   61.5211   61.5211
   62.0694   62.0695   62.0695   62.0695   62.2416   62.2416   62.2416   62.2416   62.2416   62.2416
   62.2417   62.2417   67.9252   67.9252   67.9252   67.9252   68.2113   68.2113   71.1756   71.1757
   71.1757   71.1757   71.8207   71.8207   71.8207   71.8207   71.8208   71.8208   71.8208   71.8208
   74.7548   74.7548   81.7977   81.7977   81.7977   81.7977   82.4034   82.4035   82.4035   82.4035
   85.7083   85.7083   85.7084   85.7084   85.7085   85.7085   85.7086   85.7086   89.4385   89.4385
   89.4386   89.4386   91.1533   91.1533  102.4482  102.4484  102.4485  102.4485  103.5255  103.5255
  103.5255  103.5256  103.5256  103.5256  103.5257  103.5257  106.3993  106.3994  106.3994  106.3994
  110.7266  110.7267  110.7267  110.7268  110.7269  110.7270  110.7271  110.7271  111.3264  111.3265
  111.5193  111.5193  111.5198  111.5198  113.1710  113.1711  115.9149  115.9149  115.9150  115.9150
  117.3170  117.3170  117.3171  117.3172  117.3177  117.3178  117.3180  117.3180
siesta: Fermi energy =      -6.116381 eV

siesta: Program's energy decomposition (eV):
siesta: Ebs     =     -2200.965195
siesta: Eions   =      9434.507561
siesta: Ena     =      2224.327167
siesta: Ekin    =      3905.722410
siesta: Enl     =      -379.550235
siesta: Eso     =         0.000000
siesta: Edftu   =         0.000000
siesta: DEna    =      -202.182242
siesta: DUscf   =        18.006172
siesta: DUext   =         0.000000
siesta: Exc     =     -1709.373871
siesta: eta*DQ  =         0.000000
siesta: Emadel  =         0.000000
siesta: Emeta   =         0.000000
siesta: Emolmec =        -2.775678
siesta: Ekinion =         0.000000
siesta: Eharris =     -5580.333840
siesta: Etot    =     -5580.333838
siesta: FreeEng =     -5580.346940

siesta: Final energy (eV):
siesta:  Band Struct. =   -2200.965195
siesta:       Kinetic =    3905.722410
siesta:       Hartree =    2955.417434
siesta:       Edftu   =       0.000000
siesta:       Eso     =       0.000000
siesta:    Ext. field =       0.000000
siesta:   Exch.-corr. =   -1709.373871
siesta:  Ion-electron =   -9791.886254
siesta:       Ion-ion =    -937.437879
siesta:       Ekinion =       0.000000
siesta:         Total =   -5580.333838
siesta:         Fermi =      -6.116381

siesta: Stress tensor (static) (eV/Ang**3):
siesta:    -0.069072   -0.000051    0.000000
siesta:    -0.000051   -0.069131   -0.000000
siesta:    -0.000000    0.000000    0.011435

siesta: Cell volume =        416.018920 Ang**3

siesta: Pressure (static):
siesta:                Solid            Molecule  Units
siesta:           0.00046022          0.00046025  Ry/Bohr**3
siesta:           0.04225601          0.04225873  eV/Ang**3
siesta:          67.70231650         67.70668100  kBar
(Free)E+ p_basis*V_orbitals  =       -5546.817134
(Free)Eharris+ p_basis*V_orbitals  =       -5546.817137

cite: Please see "graphite_scf.bib" for an exhaustive BiBTeX file.
cite: Please clearly indicate Siesta version in published work: 4.1.5
cite: This calculation has made use of the following articles
cite: which are encouraged to be cited in a published work.
        Primary SIESTA paper
          DOI: www.doi.org/10.1088/0953-8984/14/11/302

>> End of run:   1-NOV-2022  18:56:43
Job completed
