Siesta Version  : 4.1.5
Architecture    : x86_64-unknown-linux-gnu--unknown
Compiler version: GNU Fortran (GCC) 11.3.0
Compiler flags  : mpif90 -g -O2 -fallow-argument-mismatch
PP flags        : -DMPI -DFC_HAVE_FLUSH -DFC_HAVE_ABORT
Libraries       :  -I/global/software/sl-7.x86_64/modules/intel/2020.4.304/mkl/include  /globall/software/sl-7.x86_64/modules/intel/2020.4.304/mkl/lib/intel64/libmkl_scalapack_lp64.a -Wl,--start-group /global/software/sl-7.x86_64/modules/intel/2020.4.304/mkl/lib/intel64/libmkl_intel_lp64.a /global/software/sl-7.x86_64/modules/intel/2020.4.304/mkl/lib/intel64/libmkl_sequential.a /global/software/sl-7.x86_64/modules/intel/2020.4.304/mkl/lib/intel64/libmkl_core.a /global/software/sl-7.x86_64/modules/intel/2020.4.304/mkl/lib/intel64/libmkl_blacs_openmpi_lp64.a -Wl,--end-group -lpthread -lm -ldl
PARALLEL version

* Running on 20 nodes in parallel
>> Start of run:   1-NOV-2022  16:53:53

                           ***********************       
                           *  WELCOME TO SIESTA  *       
                           ***********************       

reinit: Reading from standard input
reinit: Dumped input in INPUT_TMP.18495
************************** Dump of input data file ****************************
SystemName graphite_scf
SystemLabel graphite_scf
NumberOfAtoms   36
NumberOfSpecies 1
%block ChemicalSpeciesLabel
1  6   C-gga
%endblock ChemicalSpeciesLabel
PAO.BasisSize  DZP
PAO.EnergyShift  10 meV
%block PS.Lmax
C-gga   2
%endblock PS.Lmax
LatticeConstant 1.000000 Ang
%block LatticeVectors
	7.3920000000	0.0000000000	0.0000000000
	-3.6960000000	6.4016597848	0.0000000000
	0.0000000000	0.0000000000	5.3016900000
%endblock LatticeVectors
AtomicCoordinatesFormat Ang
%block AtomicCoordinatesAndAtomicSpecies
	0.00000000	0.00000000	1.32542250	1
	0.00000000	0.00000000	3.97626750	1
	-1.23200000	2.13388659	1.32542250	1
	-2.46400000	4.26777319	3.97626750	1
	2.46400000	4.26777319	1.32542250	1
	1.23200000	2.13388659	3.97626750	1
	2.46400000	0.00000000	1.32542250	1
	4.92800000	0.00000000	3.97626750	1
	2.46400000	0.00000000	3.97626750	1
	4.92800000	0.00000000	1.32542250	1
	2.46400000	4.26777319	3.97626750	1
	1.23200000	2.13388659	1.32542250	1
	-1.23200000	2.13388659	3.97626750	1
	-2.46400000	4.26777319	1.32542250	1
	0.00000000	4.26777319	1.32542250	1
	3.69600000	2.13388659	3.97626750	1
	3.69600000	2.13388659	1.32542250	1
	0.00000000	4.26777319	3.97626750	1
	0.00000000	1.42258964	1.32542250	1
	3.69600000	4.97907014	3.97626750	1
	2.46400123	5.69036496	1.32542250	1
	1.23199877	0.71129482	3.97626750	1
	-2.46400123	5.69036496	1.32542250	1
	6.16000123	0.71129482	3.97626750	1
	-1.23200000	3.55647624	1.32542250	1
	4.92800000	2.84518355	3.97626750	1
	1.23200123	3.55647837	1.32542250	1
	2.46399877	2.84518142	3.97626750	1
	-0.00000123	5.69036496	1.32542250	1
	3.69600123	0.71129482	3.97626750	1
	2.46400000	1.42258964	1.32542250	1
	1.23200000	4.97907014	3.97626750	1
	4.92800123	1.42259177	1.32542250	1
	-1.23200123	4.97906801	3.97626750	1
	3.69599877	3.55647837	1.32542250	1
	0.00000123	2.84518142	3.97626750	1
%endblock AtomicCoordinatesAndAtomicSpecies
Kgrid_NoTRS  T
%block kgrid_MonkhorstPack
4       0       0       0.0
0       4       0       0.0
0       0       4       0.0
%endblock kgrid_MonkhorstPack
AtomCoorFormatOut Ang
BlockSize 1
#ProcessorY 12
Diag.ParallelOverK   T
Diag.DivideAndConquer F
MeshCutoff   300 Ry
SCF.FreeE.Tolerance 1E-3 eV
SCF.EDM.Tolerance   5E-3 eV
DM.Tolerance  1E-3
DM.Require.Energy.Convergence T
DM.NumberPulay 4
XC.Functional GGA
XC.Authors    PBE
UseSaveData        F
SolutionMethod     diagon
MD.TypeOfRun       CG
MD.VariableCell    F
MD.NumCGsteps      00
MD.MaxCGDispl      0.200000 Bohr
#MD.MaxStressTol    1.000000 GPa
#MD.MaxForceTol     0.010000 eV/Ang
WriteMDHistory T
WriteCoorStep T
WriteForces T
WriteCoorStep    T
WriteEigenValues T
WriteDM    F
MM.UnitsDistance Ang  # what this program prints out DO NOT CHANGE
MM.UnitsEnergy    eV  # what this program prints out DO NOT CHANGE
MM.Grimme.S6     0.75 # Grimme-paper for PBE (correct for your functional)
MM.Grimme.D     20.   # Grimme-paper (correct for your functional)
%block MM.Potentials
  1   1 Grimme     18.14      2.904 # C, 10.1002/jcc.20495
%endblock MM.Potentials
#%block ProjectedDensityOfStates
# -200.0  120.0  0.4  12800  eV
#%endblock ProjectedDensityOfStates
************************** End of input data file *****************************

reinit: -----------------------------------------------------------------------
reinit: System Name: graphite_scf
reinit: -----------------------------------------------------------------------
reinit: System Label: graphite_scf
reinit: -----------------------------------------------------------------------
Reading two-body potentials
Grimme - two-body potential between 1 and 1

initatom: Reading input for the pseudopotentials and atomic orbitals ----------
Species number:   1 Atomic number:    6 Label: C-gga

Ground state valence configuration:   2s02  2p02
Reading pseudopotential information in formatted form from C-gga.psf

Valence configuration for pseudopotential generation:
2s( 2.00) rc: 1.56
2p( 2.00) rc: 1.56
3d( 0.00) rc: 1.56
4f( 0.00) rc: 1.56
relmxkb: Read Max KB Ang. Momentum=    2 for species C-gga

<basis_specs>
===============================================================================
C-gga                Z=   6    Mass=  12.010        Charge= 0.17977+309
Lmxo=1 Lmxkb= 2    BasisType=split      Semic=F
L=0  Nsemic=0  Cnfigmx=2
          i=1  nzeta=2  polorb=0  (2s)
            splnorm:   0.15000    
               vcte:    0.0000    
               rinn:    0.0000    
               qcoe:    0.0000    
               qyuk:    0.0000    
               qwid:   0.10000E-01
                rcs:    0.0000      0.0000    
            lambdas:    1.0000      1.0000    
L=1  Nsemic=0  Cnfigmx=2
          i=1  nzeta=2  polorb=1  (2p)
            splnorm:   0.15000    
               vcte:    0.0000    
               rinn:    0.0000    
               qcoe:    0.0000    
               qyuk:    0.0000    
               qwid:   0.10000E-01
                rcs:    0.0000      0.0000    
            lambdas:    1.0000      1.0000    
-------------------------------------------------------------------------------
L=0  Nkbl=1  erefs: 0.17977+309
L=1  Nkbl=1  erefs: 0.17977+309
L=2  Nkbl=1  erefs: 0.17977+309
===============================================================================
</basis_specs>

atom: Called for C-gga                 (Z =   6)

read_vps: Pseudopotential generation method:
read_vps: ATM 3.2.2 Troullier-Martins                       
Valence charge for ps generation:    4.00000

xc_check: Exchange-correlation functional:
xc_check: GGA Perdew, Burke & Ernzerhof 1996
V l=0 = -2*Zval/r beyond r=  1.5227
V l=1 = -2*Zval/r beyond r=  1.5227
V l=2 = -2*Zval/r beyond r=  1.5227
All V_l potentials equal beyond r=  1.4851
This should be close to max(r_c) in ps generation
All pots = -2*Zval/r beyond r=  1.5227

VLOCAL1: 99.0% of the norm of Vloc inside     19.682 Ry
VLOCAL1: 99.9% of the norm of Vloc inside     44.856 Ry
atom: Maximum radius for 4*pi*r*r*local-pseudopot. charge    1.79142
atom: Maximum radius for r*vlocal+2*Zval:    1.54183
GHOST: No ghost state for L =  0
GHOST: No ghost state for L =  1
GHOST: No ghost state for L =  2

KBgen: Kleinman-Bylander projectors: 
   l= 0   rc=  1.661951   el= -1.010689   Ekb=  5.289847   kbcos=  0.316429
   l= 1   rc=  1.661951   el= -0.388490   Ekb= -4.102504   kbcos= -0.351025
   l= 2   rc=  1.747182   el=  0.001971   Ekb= -1.006005   kbcos= -0.008530

KBgen: Total number of Kleinman-Bylander projectors:    9
atom: -------------------------------------------------------------------------

atom: SANKEY-TYPE ORBITALS:
atom: Selected multiple-zeta basis: split     

SPLIT: Orbitals with angular momentum L= 0

SPLIT: Basis orbitals for state 2s

SPLIT: PAO cut-off radius determined from an
SPLIT: energy shift=  0.000735 Ry

   izeta = 1
                 lambda =    1.000000
                     rc =    5.948690
                 energy =   -1.010099
                kinetic =    0.827121
    potential(screened) =   -1.837220
       potential(ionic) =   -5.392783

   izeta = 2
                 rmatch =    3.518811
              splitnorm =    0.150000
                 energy =   -0.877891
                kinetic =    1.289227
    potential(screened) =   -2.167118
       potential(ionic) =   -5.982073

SPLIT: Orbitals with angular momentum L= 1

SPLIT: Basis orbitals for state 2p

SPLIT: PAO cut-off radius determined from an
SPLIT: energy shift=  0.000735 Ry

   izeta = 1
                 lambda =    1.000000
                     rc =    7.638387
                 energy =   -0.387843
                kinetic =    2.314739
    potential(screened) =   -2.702582
       potential(ionic) =   -6.092371

   izeta = 2
                 rmatch =    3.840617
              splitnorm =    0.150000
                 energy =   -0.270479
                kinetic =    3.438347
    potential(screened) =   -3.708826
       potential(ionic) =   -7.497707

POLgen: Perturbative polarization orbital with L=  2

POLgen: Polarization orbital for state 2p

   izeta = 1
                     rc =    7.638387
                 energy =    0.921402
                kinetic =    1.955040
    potential(screened) =   -1.033637
       potential(ionic) =   -3.679558
atom: Total number of Sankey-type orbitals: 13

atm_pop: Valence configuration (for local Pseudopot. screening):
 2s( 2.00)                                                            
 2p( 2.00)                                                            
Vna: chval, zval:    4.00000   4.00000

Vna:  Cut-off radius for the neutral-atom potential:   7.638387

atom: _________________________________________________________________________

prinput: Basis input ----------------------------------------------------------

PAO.BasisType split     

%block ChemicalSpeciesLabel
    1    6 C-gga                   # Species index, atomic number, species label
%endblock ChemicalSpeciesLabel

%block PAO.Basis                 # Define Basis set
C-gga                 2                    # Species label, number of l-shells
 n=2   0   2                         # n, l, Nzeta 
   5.949      3.519   
   1.000      1.000   
 n=2   1   2 P   1                   # n, l, Nzeta, Polarization, NzetaPol
   7.638      3.841   
   1.000      1.000   
%endblock PAO.Basis

prinput: ----------------------------------------------------------------------

coor:   Atomic-coordinates input format  =     Cartesian coordinates
coor:                                          (in Angstroms)

siesta: Atomic coordinates (Bohr) and species
siesta:      0.00000   0.00000   2.50469  1        1
siesta:      0.00000   0.00000   7.51406  1        2
siesta:     -2.32814   4.03246   2.50469  1        3
siesta:     -4.65629   8.06493   7.51406  1        4
siesta:      4.65629   8.06493   2.50469  1        5
siesta:      2.32814   4.03246   7.51406  1        6
siesta:      4.65629   0.00000   2.50469  1        7
siesta:      9.31257   0.00000   7.51406  1        8
siesta:      4.65629   0.00000   7.51406  1        9
siesta:      9.31257   0.00000   2.50469  1       10
siesta:      4.65629   8.06493   7.51406  1       11
siesta:      2.32814   4.03246   2.50469  1       12
siesta:     -2.32814   4.03246   7.51406  1       13
siesta:     -4.65629   8.06493   2.50469  1       14
siesta:      0.00000   8.06493   2.50469  1       15
siesta:      6.98443   4.03246   7.51406  1       16
siesta:      6.98443   4.03246   2.50469  1       17
siesta:      0.00000   8.06493   7.51406  1       18
siesta:      0.00000   2.68831   2.50469  1       19
siesta:      6.98443   9.40908   7.51406  1       20
siesta:      4.65629  10.75324   2.50469  1       21
siesta:      2.32814   1.34415   7.51406  1       22
siesta:     -4.65629  10.75324   2.50469  1       23
siesta:     11.64072   1.34415   7.51406  1       24
siesta:     -2.32814   6.72077   2.50469  1       25
siesta:      9.31257   5.37662   7.51406  1       26
siesta:      2.32815   6.72077   2.50469  1       27
siesta:      4.65628   5.37662   7.51406  1       28
siesta:     -0.00000  10.75324   2.50469  1       29
siesta:      6.98443   1.34415   7.51406  1       30
siesta:      4.65629   2.68831   2.50469  1       31
siesta:      2.32814   9.40908   7.51406  1       32
siesta:      9.31258   2.68831   2.50469  1       33
siesta:     -2.32815   9.40908   7.51406  1       34
siesta:      6.98443   6.72077   2.50469  1       35
siesta:      0.00000   5.37662   7.51406  1       36

siesta: System type = bulk      

initatomlists: Number of atoms, orbitals, and projectors:     36   468   324

siesta: ******************** Simulation parameters ****************************
siesta:
siesta: The following are some of the parameters of the simulation.
siesta: A complete list of the parameters used, including default values,
siesta: can be found in file out.fdf
siesta:
redata: Spin configuration                          = none
redata: Number of spin components                   = 1
redata: Time-Reversal Symmetry                      = T
redata: Spin spiral                                 = F
redata: Long output                                 =   F
redata: Number of Atomic Species                    =        1
redata: Charge density info will appear in .RHO file
redata: Write Mulliken Pop.                         = NO
redata: Matel table size (NRTAB)                    =     1024
redata: Mesh Cutoff                                 =   300.0000 Ry
redata: Net charge of the system                    =     0.0000 |e|
redata: Min. number of SCF Iter                     =        0
redata: Max. number of SCF Iter                     =     1000
redata: SCF convergence failure will abort job
redata: SCF mix quantity                            = Hamiltonian
redata: Mix DM or H after convergence               =   F
redata: Recompute H after scf cycle                 =   F
redata: Mix DM in first SCF step                    =   T
redata: Write Pulay info on disk                    =   F
redata: New DM Occupancy tolerance                  = 0.000000000001
redata: No kicks to SCF
redata: DM Mixing Weight for Kicks                  =     0.5000
redata: Require Harris convergence for SCF          =   F
redata: Harris energy tolerance for SCF             =     0.000100 eV
redata: Require DM convergence for SCF              =   T
redata: DM tolerance for SCF                        =     0.001000
redata: Require EDM convergence for SCF             =   F
redata: EDM tolerance for SCF                       =     0.005000 eV
redata: Require H convergence for SCF               =   T
redata: Hamiltonian tolerance for SCF               =     0.001000 eV
redata: Require (free) Energy convergence for SCF   =   T
redata: (free) Energy tolerance for SCF             =     0.001000 eV
redata: Using Saved Data (generic)                  =   F
redata: Use continuation files for DM               =   F
redata: Neglect nonoverlap interactions             =   F
redata: Method of Calculation                       = Diagonalization
redata: Electronic Temperature                      =   299.9869 K
redata: Fix the spin of the system                  =   F
redata: Dynamics option                             = Single-point calculation
mix.SCF: Pulay mixing                            = Pulay
mix.SCF:    Variant                              = stable
mix.SCF:    History steps                        = 4
mix.SCF:    Linear mixing weight                 =     0.250000
mix.SCF:    Mixing weight                        =     0.250000
mix.SCF:    SVD condition                        = 0.1000E-07
redata: ***********************************************************************

%block SCF.Mixers
  Pulay
%endblock SCF.Mixers

%block SCF.Mixer.Pulay
  # Mixing method
  method pulay
  variant stable

  # Mixing options
  weight 0.2500
  weight.linear 0.2500
  history 4
%endblock SCF.Mixer.Pulay

DM_history_depth set to one: no extrapolation allowed by default for geometry relaxation
Size of DM history Fstack: 1
Total number of electrons:   144.000000
Total ionic charge:   144.000000

* ProcessorY, Blocksize:    4   1


* Orbital distribution balance (max,min):    24    23

k-point displ. along   1 input, could be:     0.00    0.50
k-point displ. along   2 input, could be:     0.00    0.50
k-point displ. along   3 input, could be:     0.00    0.50
 Kpoints in:           48 . Kpoints trimmed:           44

siesta: k-grid: Number of k-points =    44
siesta: k-grid: Cutoff (effective) =    10.603 Ang
siesta: k-grid: Supercell and displacements
siesta: k-grid:    4   0   0      0.000
siesta: k-grid:    0   4   0      0.000
siesta: k-grid:    0   0   4      0.000

diag: Algorithm                                     = Expert
diag: Parallel over k                               =   T
diag: Use parallel 2D distribution                  =   T
diag: Parallel block-size                           = 1
diag: Parallel distribution                         =     4 x     5
diag: Used triangular part                          = Lower
diag: Absolute tolerance                            =  0.100E-15
diag: Orthogonalization factor                      =  0.100E-05
diag: Memory factor                                 =  1.0000

superc: Internal auxiliary supercell:     5 x     5 x     5  =     125
superc: Number of atoms, orbitals, and projectors:   4500  58500  40500


ts: **************************************************************
ts: Save H and S matrices                           =    F
ts: Save DM and EDM matrices                        =    F
ts: Only save the overlap matrix S                  =    F
ts: **************************************************************

************************ Begin: TS CHECKS AND WARNINGS ************************
************************ End: TS CHECKS AND WARNINGS **************************


                     ====================================
                        Single-point calculation
                     ====================================

outcoor: Atomic coordinates (Ang):                          
    0.00000000    0.00000000    1.32542250   1       1  C-gga
    0.00000000    0.00000000    3.97626750   1       2  C-gga
   -1.23200000    2.13388659    1.32542250   1       3  C-gga
   -2.46400000    4.26777319    3.97626750   1       4  C-gga
    2.46400000    4.26777319    1.32542250   1       5  C-gga
    1.23200000    2.13388659    3.97626750   1       6  C-gga
    2.46400000    0.00000000    1.32542250   1       7  C-gga
    4.92800000    0.00000000    3.97626750   1       8  C-gga
    2.46400000    0.00000000    3.97626750   1       9  C-gga
    4.92800000    0.00000000    1.32542250   1      10  C-gga
    2.46400000    4.26777319    3.97626750   1      11  C-gga
    1.23200000    2.13388659    1.32542250   1      12  C-gga
   -1.23200000    2.13388659    3.97626750   1      13  C-gga
   -2.46400000    4.26777319    1.32542250   1      14  C-gga
    0.00000000    4.26777319    1.32542250   1      15  C-gga
    3.69600000    2.13388659    3.97626750   1      16  C-gga
    3.69600000    2.13388659    1.32542250   1      17  C-gga
    0.00000000    4.26777319    3.97626750   1      18  C-gga
    0.00000000    1.42258964    1.32542250   1      19  C-gga
    3.69600000    4.97907014    3.97626750   1      20  C-gga
    2.46400123    5.69036496    1.32542250   1      21  C-gga
    1.23199877    0.71129482    3.97626750   1      22  C-gga
   -2.46400123    5.69036496    1.32542250   1      23  C-gga
    6.16000123    0.71129482    3.97626750   1      24  C-gga
   -1.23200000    3.55647624    1.32542250   1      25  C-gga
    4.92800000    2.84518355    3.97626750   1      26  C-gga
    1.23200123    3.55647837    1.32542250   1      27  C-gga
    2.46399877    2.84518142    3.97626750   1      28  C-gga
   -0.00000123    5.69036496    1.32542250   1      29  C-gga
    3.69600123    0.71129482    3.97626750   1      30  C-gga
    2.46400000    1.42258964    1.32542250   1      31  C-gga
    1.23200000    4.97907014    3.97626750   1      32  C-gga
    4.92800123    1.42259177    1.32542250   1      33  C-gga
   -1.23200123    4.97906801    3.97626750   1      34  C-gga
    3.69599877    3.55647837    1.32542250   1      35  C-gga
    0.00000123    2.84518142    3.97626750   1      36  C-gga

superc: Internal auxiliary supercell:     5 x     5 x     5  =     125
superc: Number of atoms, orbitals, and projectors:   4500  58500  40500

outcell: Unit cell vectors (Ang):
        7.392000    0.000000    0.000000
       -3.696000    6.401660    0.000000
        0.000000    0.000000    5.301690

outcell: Cell vector modules (Ang)   :    7.392000    7.392000    5.301690
outcell: Cell angles (23,13,12) (deg):     90.0000     90.0000    120.0000
outcell: Cell volume (Ang**3)        :    250.8816
<dSpData1D:S at geom step 0
  <sparsity:sparsity for geom step 0
    nrows_g=468 nrows=24 sparsity=.4206 nnzs=92120, refcount: 7>
  <dData1D:(new from dSpData1D) n=92120, refcount: 1>
refcount: 1>
new_DM -- step:     1
Initializing Density Matrix...
DM filled with atomic data:
<dSpData2D:DM initialized from atoms
  <sparsity:sparsity for geom step 0
    nrows_g=468 nrows=24 sparsity=.4206 nnzs=92120, refcount: 8>
  <dData2D:DM n=92120 m=1, refcount: 1>
refcount: 1>
No. of atoms with KB's overlaping orbs in proc 0. Max # of overlaps:     258     724
New grid distribution:   1
           1       1:   36    1:    9    1:    6
           2       1:   36    1:    9    7:   12
           3       1:   36    1:    9   13:   18
           4       1:   36    1:    9   19:   24
           5       1:   36    1:    9   25:   30
           6       1:   36   10:   18    1:    6
           7       1:   36   10:   18    7:   12
           8       1:   36   10:   18   13:   18
           9       1:   36   10:   18   19:   24
          10       1:   36   10:   18   25:   30
          11       1:   36   19:   27    1:    6
          12       1:   36   19:   27    7:   12
          13       1:   36   19:   27   13:   18
          14       1:   36   19:   27   19:   24
          15       1:   36   19:   27   25:   30
          16       1:   36   28:   36    1:    6
          17       1:   36   28:   36    7:   12
          18       1:   36   28:   36   13:   18
          19       1:   36   28:   36   19:   24
          20       1:   36   28:   36   25:   30

InitMesh: MESH =    72 x    72 x    60 =      311040
InitMesh: (bp) =    36 x    36 x    30 =       38880
InitMesh: Mesh cutoff (required, used) =   300.000   349.608 Ry
ExtMesh (bp) on 0 =   128 x   101 x    98 =     1266944
New grid distribution:   2
           1      10:   18   25:   36   13:   30
           2      28:   36   25:   36   13:   30
           3       1:   18    1:    6   13:   30
           4      19:   36    1:    6   13:   30
           5       1:   18   28:   36    1:   12
           6      19:   36   28:   36    1:   12
           7      28:   36    7:   18   13:   30
           8       1:    9    7:   18   13:   30
           9      10:   18    7:   18   13:   30
          10      19:   27    7:   18   13:   30
          11       1:   18   19:   27    1:   12
          12      19:   36   19:   27    1:   12
          13       1:   18   19:   24   13:   30
          14      19:   36   19:   24   13:   30
          15       1:   18    1:    9    1:   12
          16      19:   36    1:    9    1:   12
          17       1:   18   10:   18    1:   12
          18       1:    9   25:   36   13:   30
          19      19:   27   25:   36   13:   30
          20      19:   36   10:   18    1:   12
New grid distribution:   3
           1      10:   18   25:   36   13:   30
           2      28:   36   25:   36   13:   30
           3       1:   18    1:    6   13:   30
           4      19:   36    1:    6   13:   30
           5       1:   18   28:   36    1:   12
           6      19:   36   28:   36    1:   12
           7      28:   36    7:   18   13:   30
           8       1:    9    7:   18   13:   30
           9      10:   18    7:   18   13:   30
          10      19:   27    7:   18   13:   30
          11       1:   18   19:   27    1:   12
          12      19:   36   19:   27    1:   12
          13       1:   18   19:   24   13:   30
          14      19:   36   19:   24   13:   30
          15       1:   18    1:    9    1:   12
          16      19:   36    1:    9    1:   12
          17       1:   18   10:   18    1:   12
          18       1:    9   25:   36   13:   30
          19      19:   27   25:   36   13:   30
          20      19:   36   10:   18    1:   12
Setting up quadratic distribution...
ExtMesh (bp) on 0 =   101 x   104 x   110 =     1155440
PhiOnMesh: Number of (b)points on node 0 =                 1944
PhiOnMesh: nlist on node 0 =               728828

stepf: Fermi-Dirac step function

siesta: Program's energy decomposition (eV):
siesta: Ebs     =     -2299.893756
siesta: Eions   =      9434.507561
siesta: Ena     =      2208.148859
siesta: Ekin    =      4057.169026
siesta: Enl     =      -409.833097
siesta: Eso     =         0.000000
siesta: Edftu   =         0.000000
siesta: DEna    =      -275.855104
siesta: DUscf   =        26.727861
siesta: DUext   =         0.000000
siesta: Exc     =     -1740.545692
siesta: eta*DQ  =         0.000000
siesta: Emadel  =         0.000000
siesta: Emeta   =         0.000000
siesta: Emolmec =        -6.717494
siesta: Ekinion =         0.000000
siesta: Eharris =     -5444.815886
siesta: Etot    =     -5575.413204
siesta: FreeEng =     -5575.418881

        iscf     Eharris(eV)        E_KS(eV)     FreeEng(eV)     dDmax    Ef(eV) dHmax(eV)
   scf:    1    -5444.815886    -5575.413204    -5575.418881  1.563044 -8.207573  2.415003
timer: Routine,Calls,Time,% = IterSCF        1      13.965  74.34
   scf:    2    -5578.699744    -5577.092875    -5577.099254  0.105558 -7.925946  1.614438
   scf:    3    -5579.754847    -5578.586917    -5578.593306  0.195694 -7.359067  0.034075
   scf:    4    -5578.591015    -5578.589639    -5578.595613  0.002428 -7.369440  0.010097
   scf:    5    -5578.589748    -5578.589858    -5578.595639  0.004668 -7.369401  0.020036
   scf:    6    -5578.590156    -5578.590074    -5578.595990  0.002182 -7.372721  0.000332
   scf:    7    -5578.590072    -5578.590073    -5578.595991  0.000016 -7.372768  0.000239

SCF Convergence by FreeE+DM+H criterion
|FreeE_i-FreeE_(i-1)| (eV) <     0.00100000
max |DM_out - DM_in|         :     0.0000159262
max |H_out - H_in|      (eV) :     0.0002394317
SCF cycle converged after 7 iterations

Using DM_out to compute the final energy and forces
No. of atoms with KB's overlaping orbs in proc 0. Max # of overlaps:     258     724

MM-Stress (kbar):       27.46       27.46       31.23        0.00       -0.00       -0.00

siesta: E_KS(eV) =            -5578.5901

siesta: E_KS - E_eggbox =     -5578.5901

siesta: Atomic forces (eV/Ang):
     1   -0.000073    0.000042   -0.000000
     2    0.000073   -0.000042   -0.000000
     3   -0.000025   -0.000000   -0.000000
     4    0.000025    0.000001   -0.000000
     5   -0.000060    0.000105   -0.000000
     6    0.000060   -0.000105   -0.000000
     7   -0.000135    0.000022   -0.000000
     8    0.000135   -0.000022   -0.000000
     9    0.000059   -0.000061   -0.000000
    10   -0.000059    0.000061   -0.000000
    11    0.000064   -0.000020   -0.000000
    12   -0.000064    0.000020   -0.000000
    13    0.000097   -0.000045   -0.000000
    14   -0.000097    0.000045   -0.000000
    15   -0.000073    0.000042   -0.000000
    16    0.000073   -0.000042   -0.000000
    17   -0.000073    0.000043   -0.000000
    18    0.000073   -0.000042   -0.000000
    19    0.000083    0.000065    0.000000
    20   -0.000083   -0.000065    0.000000
    21   -0.000025   -0.000087    0.000000
    22    0.000025    0.000087    0.000000
    23    0.000161   -0.000104    0.000000
    24   -0.000161    0.000104    0.000000
    25    0.000080    0.000052    0.000000
    26   -0.000080   -0.000052    0.000000
    27   -0.000012   -0.000083    0.000000
    28    0.000012    0.000082    0.000000
    29    0.000151   -0.000095    0.000000
    30   -0.000151    0.000096    0.000000
    31    0.000081    0.000053    0.000000
    32   -0.000081   -0.000052    0.000000
    33   -0.000013   -0.000083    0.000000
    34    0.000013    0.000083    0.000000
    35    0.000151   -0.000096    0.000000
    36   -0.000151    0.000095    0.000000
----------------------------------------
   Tot   -0.000000    0.000000   -0.000000
----------------------------------------
   Max    0.000161
   Res    0.000065    sqrt( Sum f_i^2 / 3N )
----------------------------------------
   Max    0.000161    constrained

Stress tensor Voigt[x,y,z,yz,xz,xy] (kbar):     -118.91     -119.07     -299.73        0.00        0.00       -0.14
(Free)E + p*V (eV/cell)    -5550.5299
Target enthalpy (eV/cell)    -5578.5960

siesta: Eigenvalues (eV):
  ik is       eps
   1  1  -26.9839  -26.3127  -26.3127  -25.5948  -24.9666  -24.9666  -24.3392  -24.3392  -23.1244  -23.1244
         -23.0673  -22.4668  -22.4668  -21.9495  -21.5388  -21.4752  -21.4752  -21.0701  -20.2382  -20.2382
  -20.0819  -19.8095  -19.4201  -19.4201  -18.0806  -17.6699  -17.0887  -17.0887  -16.5129  -16.5129
  -16.4899  -16.3101  -16.0128  -15.7835  -15.6872  -15.6872  -15.2130  -14.9444  -14.9444  -14.5090
  -14.5090  -14.4118  -14.4118  -13.9594  -13.9594  -13.9324  -13.9324  -13.5267  -13.5267  -13.3554
  -13.3554  -12.4899  -12.4899  -12.1828  -12.1828  -12.1743  -11.9647  -11.8890  -11.4206  -11.3844
  -11.3844  -11.2709  -11.1402  -10.5385  -10.4931  -10.4930   -8.9434   -8.9434   -8.8437   -8.7831
   -8.7831   -7.8780   -5.5577   -5.1717   -5.1717   -5.1122   -4.8310   -3.9094   -3.9094   -3.8394
   -3.8394   -3.4761   -1.8971   -1.8971    0.0263    0.0263    0.1604    0.1604    1.1466    1.1466
    1.2096    1.2369    1.6159    1.6159    1.7893    1.7893    1.8261    1.8261    1.9144    1.9378
    1.9618    2.3339    2.3339    2.5092    2.5566    2.5566    2.8188    3.2184    3.5941    3.5941
    3.6808    3.9203    3.9203    4.2701    4.4063    4.4903    4.4903    4.5128    4.5128    5.1522
    5.1522    5.3791    5.9807    6.0696    6.0696    6.3650    6.4662    6.4902    6.7165    6.7166
    6.7579    6.9218    7.2210    7.2210    7.5590    7.5590    7.7752    7.8784    8.1354    8.5362
    8.5563    8.5563    9.4327    9.4327    9.8628    9.8628    9.9644    9.9644   10.4498   10.4498
   11.0904   11.0904   11.2011   11.2834   11.7559   11.7559   11.9812   11.9812   12.2238   12.4865
   12.4865   13.1129   13.1129   13.8904   14.2221   14.8887   14.8887   15.4423   15.5393   15.5393
   15.8503   16.0186   16.0186   16.0382   16.0382   16.2495   16.7206   16.7206   17.4183   17.5226
   17.7151   17.7151   17.8523   18.3805   18.4248   18.4248   18.5999   18.7755   18.7755   18.8443
   18.8443   19.0114   19.0673   19.0673   20.1553   20.1760   20.2190   20.3775   21.2368   21.3716
   21.6782   21.6782   22.4068   22.4068   22.4839   22.4839   23.0042   23.0042   23.5509   23.5509
   24.0938   24.0938   25.5754   26.0669   26.0669   26.2016   26.2016   26.4820   26.4820   26.9175
   27.3592   27.3592   27.3760   27.5507   27.7457   27.7457   27.7539   27.9984   27.9984   28.6324
   28.6324   28.7098   29.5347   29.7913   31.0125   31.1463   31.1463   31.8467   31.8467   33.3350
   34.0540   34.0541   35.9003   35.9003   36.0281   36.0281   36.0423   36.2186   36.2186   36.8256
   37.4004   37.4004   38.2287   38.2287   38.2883   38.4545   39.6062   40.6413   40.6413   41.0252
   41.0253   41.0786   41.6857   41.6857   42.3185   42.3185   42.9176   43.0571   43.0571   43.2070
   43.3539   43.3539   43.7062   43.7798   43.8913   43.9953   43.9953   44.2806   44.2807   44.3402
   44.3448   44.3448   44.9364   45.0864   45.6115   45.7318   45.9917   46.2020   46.2074   46.2074
   46.3203   46.3203   46.5634   47.0101   47.2111   48.7821   49.2855   49.2855   49.5858   49.5858
   49.7092   50.0061   50.1210   50.1210   50.9087   50.9087   51.1173   51.4228   51.6184   51.7642
   51.7642   52.0648   52.0648   52.3930   52.3930   52.5962   52.5962   52.7927   52.8816   52.9981
   54.0513   54.0513   54.6945   54.6945   54.8078   54.8079   55.4160   55.5311   55.5311   55.6585
   57.0816   57.0816   57.8641   57.8642   59.4558   60.5027   60.6215   60.6215   60.8264   60.8265
   62.2534   62.2534   62.5110   62.6112   62.6113   62.9594   64.0927   64.0927   64.2571   64.2571
   65.1878   65.1878   65.3047   65.3047   65.4598   65.4598   65.9318   66.4828   67.0004   68.0177
   68.1911   68.1911   69.2335   69.2491   69.2491   69.2541   69.2542   69.6610   69.8357   69.8357
   70.0209   70.0209   70.6878   71.0968   71.0969   71.3568   72.4906   72.6354   72.7875   73.2514
   74.0007   74.4994   74.6449   74.6449   74.8259   75.8140   75.8140   76.6847   76.6847   77.2767
   77.2767   79.6091   81.4731   81.4731   82.0111   82.0111   86.0748   86.0749   89.2008   91.4546
   92.3001   93.5527   93.5527   95.9224   95.9226   97.4602   97.4604   98.3198   98.7088   98.7089
   99.4852   99.4853   99.7554   99.7555  101.7938  102.2912  102.8304  102.8304  103.5470  103.9968
  104.5367  105.0255  105.3442  105.3449  105.6104  105.6105  108.3746  108.3749  108.9939  108.9942
  109.5769  109.5773  110.6915  110.6916  111.1078  112.6825  116.4777  116.9491  119.1587  119.1598
  119.2535  119.2543  121.6694  121.6696  122.1139  122.1140  124.2948  124.2950  126.0482  126.6978
  126.6980  129.1406  129.7892  130.5851  130.5855  130.7463  133.1304  133.1304  133.3394  135.1177
  136.1215  136.7522  139.8938  139.8944  142.8199  144.2672  159.8708  159.8716
   2  1  -27.3205  -25.9791  -25.9105  -25.3175  -25.3175  -24.6538  -24.0355  -24.0355  -24.0163  -24.0162
         -23.3804  -22.8252  -22.8251  -22.2448  -21.5738  -21.5737  -20.6506  -20.6505  -19.5489  -19.5488
  -19.4417  -18.9253  -18.9252  -18.5840  -18.3111  -18.3109  -17.5261  -17.5259  -17.1575  -17.1574
  -16.8948  -16.6426  -16.6424  -16.1176  -16.1174  -15.4876  -15.4874  -15.2908  -15.0176  -14.5064
  -14.5064  -14.4236  -14.0792  -14.0788  -13.7427  -13.6139  -13.6136  -13.4285  -13.4282  -13.3131
  -13.0065  -13.0061  -12.9999  -12.9999  -12.5283  -12.3144  -12.1655  -11.4742  -11.1373  -10.9060
  -10.8094  -10.6113  -10.2967  -10.2967  -10.1884   -9.6005   -9.6005   -8.7720   -8.7371   -8.7371
   -7.8674   -7.8674   -6.4372   -6.4372   -5.1246   -4.6202   -4.6202   -4.5831   -4.5831   -2.8248
   -2.3920   -2.3920   -2.1234   -2.1234   -0.9915   -0.4817   -0.2452   -0.2452    0.2718    0.3726
    0.3728    0.7487    0.7490    0.8990    1.0171    1.0509    1.1531    1.3633    1.4736    1.5806
    1.8827    1.9087    1.9088    1.9864    1.9867    2.7564    3.0480    3.4456    3.4456    4.1180
    4.1181    4.1536    4.6976    4.6977    5.2234    5.3179    5.8202    5.8203    5.8252    5.8252
    6.0170    6.0216    6.0218    6.1743    6.3198    6.5636    6.5636    6.7967    6.7967    6.9067
    6.9072    7.2373    7.2470    7.2470    7.3347    7.3347    7.8609    9.0059    9.1612    9.1614
    9.3995    9.3998    9.5237    9.5243   10.2099   10.2099   10.6629   10.6629   10.6829   10.7706
   10.7708   11.1487   11.1645   11.1650   11.2930   11.2930   11.3024   11.5398   11.7213   12.1597
   12.1600   12.9854   12.9854   13.0902   13.0905   13.2049   13.3953   14.1472   14.4272   14.4272
   16.0675   16.3249   16.3249   16.4493   16.5719   16.7225   16.7233   16.8528   16.8528   17.0631
   17.0632   17.2106   17.2108   17.6910   17.6915   18.3127   18.7028   18.7681   18.7682   18.8038
   18.8038   19.0868   19.0869   19.9107   19.9113   20.4711   20.6510   20.9904   20.9906   21.1245
   21.4013   22.1254   22.8466   23.3872   23.3872   24.0237   24.0238   24.4390   24.6744   24.6750
   24.7860   24.8918   24.8919   24.9026   24.9027   24.9631   26.3885   26.3991   26.3996   26.6041
   26.6150   26.8344   27.1954   27.1955   27.2895   27.4102   27.4103   27.6789   27.8521   27.8522
   28.6786   28.8630   30.4025   30.4025   30.6461   32.3915   33.4367   33.4368   33.4889   33.5745
   34.7073   34.7075   34.8318   34.8319   35.8186   36.7355   36.7363   36.8293   36.8294   36.9648
   37.3298   37.4828   37.4828   37.8011   38.6011   38.6022   39.0224   39.0234   39.0333   39.0333
   39.7914   40.0153   40.3155   40.3167   40.6657   41.1970   41.6844   42.0509   42.7836   42.7844
   43.0171   43.0174   43.2853   43.2854   44.2076   44.3330   44.3331   44.5428   44.6176   44.9449
   45.2341   45.3677   45.8314   45.8323   46.1646   46.1648   46.2254   46.4495   46.4495   46.5865
   47.1598   47.1599   47.2546   47.2549   48.0570   48.5569   48.5570   48.5820   48.9629   48.9636
   49.0113   49.0114   49.0182   49.0182   50.1094   50.1230   50.1231   50.4904   50.8338   50.8341
   51.5842   51.5844   51.7728   52.7133   52.7135   52.9199   52.9201   53.5146   54.0145   54.0146
   54.4210   54.7642   55.8272   55.8274   57.1050   57.4792   57.8784   57.8787   58.1321   58.1324
   59.8724   59.8726   60.2480   60.7573   60.7577   61.9400   61.9592   61.9594   62.5072   62.5073
   62.8601   62.9157   62.9160   63.0582   63.0583   63.2011   63.3157   63.4692   63.6179   63.6190
   63.8947   63.8959   65.0526   65.6373   66.9129   67.2360   67.2381   67.4581   67.4589   67.5526
   67.8253   67.8269   68.5281   68.5283   68.5416   68.5417   68.6961   68.7347   68.7719   69.8323
   70.4283   71.4620   71.6555   72.6418   72.6829   72.6832   72.7789   72.7789   73.0743   73.0743
   73.1119   73.1136   74.8212   74.8212   75.2402   75.2403   75.5561   76.1011   78.4072   80.6204
   80.6205   83.7531   83.7536   84.3026   84.4921   85.3473   85.3474   86.5952   86.5961   88.0034
   88.0042   92.7974   93.3722   93.6205   96.5579   96.6236   97.0133   97.0162   97.5937   98.4015
   98.4021   99.6558   99.6572  100.8475  101.2448  101.5880  103.0658  103.0668  103.8614  106.2131
  106.2134  106.8444  106.8448  108.8339  108.8350  108.9968  109.1079  109.1086  109.6714  109.6716
  109.9862  112.8670  112.8698  113.1562  113.1563  115.1073  115.1092  116.0758  116.0768  116.7112
  118.0682  118.0695  120.3661  120.7030  121.8802  123.0263  123.0267  123.3378  125.1110  125.1113
  125.3259  137.2139  137.2162  137.7182  138.0295  138.0304  138.6346  138.6356  139.3706  141.0747
  141.0762  143.2425  143.2428  144.0579  144.9127  153.6898  153.6905  156.6010
   3  1  -27.3205  -25.9791  -25.9105  -25.3175  -25.3175  -24.6538  -24.0356  -24.0356  -24.0162  -24.0162
         -23.3803  -22.8251  -22.8251  -22.2447  -21.5737  -21.5737  -20.6505  -20.6505  -19.5490  -19.5490
  -19.4415  -18.9253  -18.9253  -18.5838  -18.3111  -18.3111  -17.5261  -17.5261  -17.1574  -17.1574
  -16.8948  -16.6424  -16.6424  -16.1176  -16.1176  -15.4877  -15.4877  -15.2908  -15.0173  -14.5064
  -14.5064  -14.4233  -14.0788  -14.0788  -13.7431  -13.6136  -13.6136  -13.4281  -13.4281  -13.3135
  -13.0061  -13.0061  -12.9999  -12.9999  -12.5287  -12.3144  -12.1659  -11.4742  -11.1369  -10.9056
  -10.8099  -10.6117  -10.2967  -10.2967  -10.1884   -9.6005   -9.6005   -8.7720   -8.7371   -8.7371
   -7.8674   -7.8674   -6.4372   -6.4372   -5.1246   -4.6202   -4.6202   -4.5831   -4.5831   -2.8248
   -2.3920   -2.3920   -2.1234   -2.1234   -0.9915   -0.4815   -0.2452   -0.2452    0.2721    0.3726
    0.3726    0.7488    0.7488    0.8994    1.0171    1.0512    1.1534    1.3637    1.4739    1.5801
    1.8821    1.9086    1.9086    1.9865    1.9865    2.7564    3.0480    3.4456    3.4456    4.1181
    4.1181    4.1536    4.6976    4.6976    5.2234    5.3180    5.8205    5.8205    5.8251    5.8251
    6.0163    6.0216    6.0216    6.1743    6.3191    6.5637    6.5637    6.7967    6.7967    6.9072
    6.9072    7.2376    7.2468    7.2468    7.3347    7.3347    7.8613    9.0062    9.1611    9.1611
    9.3996    9.3996    9.5241    9.5241   10.2099   10.2099   10.6630   10.6630   10.6829   10.7705
   10.7705   11.1487   11.1653   11.1653   11.2930   11.2930   11.3024   11.5388   11.7202   12.1602
   12.1602   12.9854   12.9854   13.0904   13.0904   13.2057   13.3953   14.1472   14.4272   14.4272
   16.0675   16.3249   16.3249   16.4502   16.5718   16.7225   16.7225   16.8530   16.8530   17.0632
   17.0632   17.2105   17.2105   17.6908   17.6908   18.3133   18.7029   18.7682   18.7682   18.8038
   18.8038   19.0867   19.0867   19.9111   19.9111   20.4718   20.6511   20.9900   20.9900   21.1244
   21.4014   22.1260   22.8465   23.3871   23.3871   24.0238   24.0238   24.4389   24.6745   24.6745
   24.7859   24.8918   24.8918   24.9027   24.9027   24.9638   26.3888   26.3990   26.3990   26.6040
   26.6150   26.8345   27.1954   27.1954   27.2896   27.4102   27.4102   27.6789   27.8522   27.8522
   28.6784   28.8630   30.4025   30.4025   30.6462   32.3916   33.4367   33.4367   33.4880   33.5746
   34.7074   34.7074   34.8318   34.8318   35.8187   36.7359   36.7359   36.8293   36.8293   36.9636
   37.3299   37.4827   37.4827   37.8007   38.6021   38.6021   39.0236   39.0236   39.0333   39.0333
   39.7912   40.0138   40.3168   40.3168   40.6659   41.1956   41.6847   42.0513   42.7843   42.7843
   43.0173   43.0173   43.2852   43.2852   44.2058   44.3331   44.3331   44.5444   44.6178   44.9465
   45.2351   45.3663   45.8318   45.8318   46.1643   46.1643   46.2252   46.4494   46.4494   46.5867
   47.1598   47.1598   47.2544   47.2544   48.0579   48.5567   48.5567   48.5824   48.9632   48.9632
   49.0113   49.0113   49.0182   49.0182   50.1091   50.1231   50.1231   50.4906   50.8333   50.8333
   51.5843   51.5844   51.7729   52.7133   52.7133   52.9199   52.9199   53.5155   54.0145   54.0145
   54.4212   54.7643   55.8274   55.8274   57.1057   57.4789   57.8785   57.8785   58.1322   58.1322
   59.8726   59.8726   60.2464   60.7572   60.7572   61.9407   61.9595   61.9595   62.5077   62.5077
   62.8606   62.9161   62.9161   63.0584   63.0584   63.1992   63.3165   63.4689   63.6189   63.6190
   63.8952   63.8952   65.0526   65.6360   66.9125   67.2382   67.2383   67.4584   67.4585   67.5528
   67.8271   67.8271   68.5282   68.5282   68.5416   68.5417   68.6933   68.7317   68.7748   69.8291
   70.4286   71.4591   71.6555   72.6439   72.6832   72.6832   72.7789   72.7789   73.0743   73.0743
   73.1124   73.1124   74.8211   74.8211   75.2403   75.2403   75.5589   76.1020   78.4072   80.6204
   80.6205   83.7539   83.7541   84.3050   84.4930   85.3458   85.3460   86.5964   86.5966   88.0021
   88.0023   92.7977   93.3740   93.6183   96.5601   96.6260   97.0135   97.0136   97.5937   98.4008
   98.4008   99.6564   99.6566  100.8461  101.2451  101.5851  103.0668  103.0668  103.8622  106.2138
  106.2138  106.8442  106.8442  108.8332  108.8334  108.9923  109.1092  109.1095  109.6705  109.6706
  109.9882  112.8698  112.8703  113.1552  113.1553  115.1087  115.1090  116.0755  116.0761  116.7120
  118.0699  118.0700  120.3621  120.7007  121.8818  123.0269  123.0271  123.3390  125.1117  125.1120
  125.3267  137.2171  137.2174  137.7183  138.0302  138.0313  138.6352  138.6357  139.3660  141.0743
  141.0756  143.2440  143.2445  144.0581  144.9134  153.6905  153.6911  156.5998
   4  1  -26.9839  -26.3128  -26.3127  -25.5948  -24.9666  -24.9666  -24.3393  -24.3392  -23.1245  -23.1244
         -23.0673  -22.4668  -22.4667  -21.9494  -21.5389  -21.4752  -21.4751  -21.0702  -20.2382  -20.2380
  -20.0820  -19.8096  -19.4202  -19.4200  -18.0806  -17.6699  -17.0888  -17.0888  -16.5131  -16.5130
  -16.4899  -16.3102  -16.0130  -15.7833  -15.6872  -15.6872  -15.2127  -14.9443  -14.9442  -14.5088
  -14.5088  -14.4121  -14.4118  -13.9595  -13.9592  -13.9327  -13.9324  -13.5268  -13.5265  -13.3554
  -13.3554  -12.4901  -12.4898  -12.1831  -12.1827  -12.1740  -11.9645  -11.8890  -11.4209  -11.3844
  -11.3844  -11.2712  -11.1402  -10.5385  -10.4931  -10.4930   -8.9434   -8.9434   -8.8437   -8.7831
   -8.7831   -7.8780   -5.5576   -5.1717   -5.1717   -5.1122   -4.8310   -3.9094   -3.9094   -3.8394
   -3.8394   -3.4761   -1.8971   -1.8971    0.0263    0.0263    0.1604    0.1605    1.1466    1.1469
    1.2099    1.2371    1.6159    1.6159    1.7892    1.7895    1.8261    1.8263    1.9145    1.9378
    1.9618    2.3338    2.3339    2.5089    2.5566    2.5566    2.8183    3.2184    3.5939    3.5940
    3.6807    3.9200    3.9204    4.2699    4.4062    4.4903    4.4904    4.5123    4.5129    5.1522
    5.1523    5.3792    5.9808    6.0697    6.0698    6.3649    6.4661    6.4901    6.7167    6.7169
    6.7576    6.9218    7.2208    7.2212    7.5589    7.5590    7.7752    7.8785    8.1354    8.5362
    8.5562    8.5564    9.4327    9.4327    9.8628    9.8628    9.9644    9.9644   10.4498   10.4498
   11.0904   11.0904   11.2014   11.2834   11.7552   11.7556   11.9813   11.9816   12.2242   12.4857
   12.4867   13.1127   13.1128   13.8904   14.2225   14.8890   14.8892   15.4421   15.5393   15.5393
   15.8506   16.0185   16.0194   16.0381   16.0382   16.2493   16.7198   16.7202   17.4179   17.5228
   17.7151   17.7151   17.8523   18.3805   18.4248   18.4248   18.5998   18.7751   18.7758   18.8441
   18.8444   19.0118   19.0675   19.0678   20.1554   20.1760   20.2188   20.3774   21.2371   21.3719
   21.6779   21.6784   22.4067   22.4067   22.4839   22.4840   23.0043   23.0046   23.5508   23.5509
   24.0932   24.0936   25.5755   26.0668   26.0669   26.2016   26.2016   26.4820   26.4820   26.9175
   27.3592   27.3593   27.3760   27.5507   27.7457   27.7457   27.7540   27.9985   27.9986   28.6324
   28.6324   28.7098   29.5346   29.7914   31.0124   31.1464   31.1464   31.8467   31.8468   33.3350
   34.0535   34.0539   35.8998   35.9001   36.0281   36.0282   36.0425   36.2186   36.2186   36.8255
   37.4004   37.4005   38.2281   38.2287   38.2883   38.4545   39.6071   40.6419   40.6423   41.0254
   41.0258   41.0786   41.6845   41.6859   42.3172   42.3185   42.9171   43.0574   43.0581   43.2065
   43.3538   43.3543   43.7051   43.7785   43.8924   43.9953   43.9954   44.2809   44.2817   44.3411
   44.3446   44.3451   44.9364   45.0864   45.6112   45.7314   45.9917   46.2019   46.2069   46.2076
   46.3203   46.3203   46.5630   47.0097   47.2112   48.7819   49.2855   49.2858   49.5857   49.5858
   49.7092   50.0060   50.1210   50.1210   50.9089   50.9092   51.1174   51.4229   51.6184   51.7639
   51.7639   52.0647   52.0649   52.3928   52.3933   52.5963   52.5963   52.7927   52.8818   52.9983
   54.0513   54.0514   54.6944   54.6945   54.8076   54.8079   55.4161   55.5309   55.5311   55.6580
   57.0814   57.0817   57.8645   57.8645   59.4559   60.5030   60.6215   60.6218   60.8259   60.8264
   62.2535   62.2536   62.5112   62.6112   62.6113   62.9598   64.0926   64.0928   64.2571   64.2572
   65.1881   65.1883   65.3040   65.3047   65.4598   65.4600   65.9308   66.4833   67.0003   68.0176
   68.1908   68.1910   69.2314   69.2469   69.2495   69.2536   69.2548   69.6595   69.8354   69.8374
   70.0206   70.0209   70.6879   71.0968   71.0970   71.3567   72.4907   72.6363   72.7873   73.2515
   74.0009   74.5020   74.6448   74.6449   74.8277   75.8143   75.8150   76.6846   76.6846   77.2740
   77.2768   79.6090   81.4725   81.4734   82.0099   82.0129   86.0751   86.0752   89.2001   91.4548
   92.3005   93.5524   93.5547   95.9217   95.9218   97.4605   97.4634   98.3166   98.7060   98.7070
   99.4853   99.4880   99.7544   99.7551  101.7937  102.2918  102.8307  102.8313  103.5443  103.9945
  104.5373  105.0268  105.3443  105.3445  105.6090  105.6106  108.3743  108.3765  108.9906  108.9930
  109.5753  109.5772  110.6917  110.6928  111.1083  112.6846  116.4781  116.9507  119.1585  119.1599
  119.2541  119.2547  121.6705  121.6712  122.1127  122.1145  124.2946  124.2950  126.0498  126.6982
  126.6993  129.1396  129.7901  130.5841  130.5848  130.7446  133.1295  133.1302  133.3397  135.1164
  136.1228  136.7526  139.8947  139.8956  142.8207  144.2681  159.8719  159.8722
   5  1  -27.3205  -25.9791  -25.9105  -25.3175  -25.3175  -24.6538  -24.0355  -24.0355  -24.0163  -24.0162
         -23.3804  -22.8252  -22.8251  -22.2448  -21.5738  -21.5737  -20.6506  -20.6505  -19.5489  -19.5488
  -19.4417  -18.9253  -18.9252  -18.5840  -18.3111  -18.3109  -17.5261  -17.5259  -17.1575  -17.1574
  -16.8948  -16.6426  -16.6424  -16.1176  -16.1174  -15.4876  -15.4874  -15.2908  -15.0176  -14.5064
  -14.5064  -14.4236  -14.0792  -14.0788  -13.7427  -13.6139  -13.6136  -13.4285  -13.4282  -13.3131
  -13.0065  -13.0061  -12.9999  -12.9999  -12.5283  -12.3144  -12.1655  -11.4742  -11.1373  -10.9060
  -10.8094  -10.6113  -10.2967  -10.2967  -10.1884   -9.6005   -9.6005   -8.7720   -8.7371   -8.7371
   -7.8674   -7.8674   -6.4372   -6.4372   -5.1246   -4.6202   -4.6202   -4.5831   -4.5831   -2.8248
   -2.3920   -2.3920   -2.1234   -2.1234   -0.9915   -0.4817   -0.2452   -0.2452    0.2718    0.3726
    0.3728    0.7487    0.7490    0.8990    1.0171    1.0509    1.1531    1.3633    1.4736    1.5806
    1.8827    1.9087    1.9088    1.9864    1.9867    2.7564    3.0480    3.4456    3.4456    4.1180
    4.1181    4.1536    4.6976    4.6977    5.2234    5.3179    5.8202    5.8203    5.8252    5.8252
    6.0170    6.0216    6.0218    6.1743    6.3198    6.5636    6.5636    6.7967    6.7967    6.9067
    6.9072    7.2373    7.2470    7.2470    7.3347    7.3347    7.8609    9.0059    9.1612    9.1614
    9.3995    9.3998    9.5237    9.5243   10.2099   10.2099   10.6629   10.6629   10.6829   10.7706
   10.7708   11.1487   11.1645   11.1650   11.2930   11.2930   11.3024   11.5398   11.7213   12.1597
   12.1600   12.9854   12.9854   13.0902   13.0905   13.2049   13.3953   14.1472   14.4272   14.4272
   16.0675   16.3249   16.3249   16.4493   16.5719   16.7225   16.7233   16.8528   16.8528   17.0631
   17.0632   17.2106   17.2108   17.6910   17.6915   18.3127   18.7028   18.7681   18.7682   18.8038
   18.8038   19.0868   19.0869   19.9107   19.9113   20.4711   20.6510   20.9904   20.9906   21.1245
   21.4013   22.1254   22.8466   23.3872   23.3872   24.0237   24.0238   24.4390   24.6744   24.6750
   24.7860   24.8918   24.8919   24.9026   24.9027   24.9631   26.3885   26.3991   26.3996   26.6041
   26.6150   26.8344   27.1954   27.1955   27.2895   27.4102   27.4103   27.6789   27.8521   27.8522
   28.6786   28.8630   30.4025   30.4025   30.6461   32.3915   33.4367   33.4368   33.4889   33.5745
   34.7073   34.7075   34.8318   34.8319   35.8186   36.7355   36.7363   36.8293   36.8294   36.9648
   37.3298   37.4828   37.4828   37.8011   38.6011   38.6022   39.0224   39.0234   39.0333   39.0333
   39.7914   40.0153   40.3155   40.3167   40.6657   41.1970   41.6844   42.0509   42.7836   42.7844
   43.0171   43.0174   43.2853   43.2854   44.2076   44.3330   44.3331   44.5428   44.6176   44.9449
   45.2341   45.3677   45.8314   45.8323   46.1646   46.1648   46.2254   46.4495   46.4495   46.5865
   47.1598   47.1599   47.2546   47.2549   48.0570   48.5569   48.5570   48.5820   48.9629   48.9636
   49.0113   49.0114   49.0182   49.0182   50.1094   50.1230   50.1231   50.4904   50.8338   50.8341
   51.5842   51.5843   51.7728   52.7133   52.7135   52.9199   52.9201   53.5146   54.0145   54.0146
   54.4210   54.7642   55.8272   55.8274   57.1050   57.4792   57.8784   57.8787   58.1321   58.1324
   59.8724   59.8726   60.2479   60.7573   60.7577   61.9400   61.9592   61.9594   62.5073   62.5073
   62.8601   62.9157   62.9160   63.0582   63.0583   63.2010   63.3157   63.4692   63.6179   63.6191
   63.8946   63.8959   65.0526   65.6371   66.9129   67.2360   67.2381   67.4580   67.4590   67.5526
   67.8253   67.8269   68.5282   68.5283   68.5416   68.5418   68.6962   68.7346   68.7719   69.8322
   70.4283   71.4620   71.6555   72.6418   72.6829   72.6832   72.7789   72.7789   73.0743   73.0743
   73.1119   73.1137   74.8212   74.8212   75.2402   75.2403   75.5561   76.1011   78.4072   80.6204
   80.6205   83.7532   83.7536   84.3025   84.4920   85.3474   85.3477   86.5953   86.5961   88.0035
   88.0041   92.7969   93.3720   93.6201   96.5581   96.6235   97.0133   97.0161   97.5936   98.4016
   98.4022   99.6559   99.6572  100.8477  101.2447  101.5878  103.0660  103.0669  103.8613  106.2132
  106.2135  106.8444  106.8448  108.8338  108.8349  108.9966  109.1082  109.1091  109.6713  109.6715
  109.9863  112.8668  112.8702  113.1562  113.1564  115.1077  115.1096  116.0757  116.0762  116.7113
  118.0682  118.0694  120.3658  120.7027  121.8801  123.0262  123.0264  123.3377  125.1110  125.1114
  125.3258  137.2141  137.2164  137.7181  138.0293  138.0299  138.6346  138.6361  139.3687  141.0745
  141.0757  143.2435  143.2439  144.0580  144.9127  153.6903  153.6912  156.6022
   6  1  -27.4886  -26.0690  -24.8253  -24.8253  -24.8253  -24.8253  -24.8253  -24.8253  -23.5760  -23.5760
         -23.5760  -23.5760  -23.5759  -23.5759  -20.4117  -20.4117  -19.9303  -19.9303  -19.9302  -19.9302
  -19.3881  -19.3881  -17.7399  -17.7399  -17.7399  -17.7399  -17.2892  -17.2892  -17.2892  -17.2892
  -17.2890  -17.2890  -17.0981  -16.5531  -16.5531  -16.5531  -16.5531  -16.5529  -16.5529  -13.9338
  -13.9338  -13.9338  -13.9338  -13.9338  -13.9338  -13.2683  -13.2683  -13.2680  -13.2679  -13.2679
  -13.2679  -12.8546  -12.8546  -12.8542  -12.8542  -12.8542  -12.8542  -11.6435  -10.4405  -10.4399
  -10.3153  -10.3147   -9.2985   -9.2985   -9.2468   -9.2468   -9.2468   -9.2468   -9.2468   -9.2468
   -7.5442   -7.5442   -7.5442   -7.5442   -4.8968   -4.8968   -3.5061   -3.5061   -3.5061   -3.5061
   -3.5061   -3.5061   -0.9311   -0.9311   -0.9310   -0.9310   -0.9310   -0.9310   -0.1728   -0.1728
   -0.1728   -0.1728   -0.1726   -0.1725    0.8861    0.8868    1.0274    1.1763    1.1770    1.2692
    1.2692    1.2692    1.2692    1.2695    1.2695    3.6357    3.9182    3.9182    3.9182    3.9182
    3.9183    3.9183    4.6545    4.9247    5.4526    5.4526    5.8519    5.8988    5.8988    5.8991
    5.8991    6.5384    6.5384    6.5384    6.5384    8.0194    8.0194    8.0194    8.0194    8.0199
    8.0199    8.4481    8.4481    8.9100    8.9100    8.9108    8.9108    8.9108    8.9108    9.1771
    9.1771    9.1780    9.1780    9.1780    9.1780    9.7027    9.7027    9.7030    9.7030   10.9049
   10.9049   10.9049   10.9049   10.9049   10.9049   11.0853   11.0853   11.0853   11.0853   11.0859
   11.0859   11.2878   13.9529   13.9529   14.2678   14.2678   14.2678   14.2679   14.2679   14.2679
   15.0571   15.0571   15.0572   15.0572   15.0572   15.0572   17.2404   17.2404   17.2404   17.2404
   17.2411   17.2411   17.6037   17.6037   17.6037   17.6037   17.7744   17.7744   17.7744   17.7744
   18.4382   19.1589   19.1589   20.1537   21.4292   21.4292   21.4293   21.4293   21.4299   21.4299
   22.7729   22.7730   23.6087   23.6087   23.6088   23.6088   23.6088   23.6088   25.8406   25.8406
   25.8406   25.8406   25.8413   25.8413   26.0489   26.0491   26.1441   26.1441   26.1443   26.1443
   26.1443   26.1443   26.5099   26.5099   26.5099   26.5099   26.5099   26.5099   27.8027   29.6778
   29.6778   29.6779   29.6779   29.6798   31.7442   31.7442   31.7442   31.7442   31.7443   31.7443
   36.7697   36.7698   36.7698   36.7698   36.7698   36.7698   36.7910   36.7910   36.7923   36.7923
   36.7923   36.7923   36.8805   36.8805   38.7844   38.7844   38.7856   38.7856   38.7857   38.7857
   38.9611   38.9613   39.1030   39.1030   41.4622   41.4623   41.4623   41.4623   41.4624   41.4624
   42.8064   42.8081   43.8518   43.8521   44.1219   44.1244   45.0779   45.0779   45.0784   45.0784
   45.6531   45.6531   45.6532   45.6532   46.1062   46.1062   46.8390   46.8390   46.8390   46.8390
   46.8397   46.8397   48.2495   48.2504   49.2460   49.2460   49.2460   49.2460   49.2461   49.2461
   50.3439   50.3439   50.3439   50.3439   50.3448   50.3449   50.7894   50.7894   51.1947   51.1947
   51.1947   51.1947   51.6343   51.6347   51.7419   51.7419   52.6427   53.7410   53.7410   53.7410
   53.7410   53.7413   53.7413   57.3256   57.3256   57.3259   57.3259   57.3259   57.3259   58.6052
   58.6052   60.6822   61.0813   61.0813   61.0813   61.0814   61.0821   61.0821   63.0190   63.0190
   63.0201   63.0201   63.1452   63.1452   63.1456   63.1456   63.1456   63.1456   65.1662   65.1662
   65.1685   65.1685   65.1686   65.1686   66.1078   66.6759   66.6759   66.6783   66.6783   66.6784
   66.6784   68.2614   68.2653   68.2666   68.2666   68.2667   68.2667   68.2675   68.2675   70.3949
   70.3990   70.5076   72.3513   72.3513   72.3513   72.3513   72.3516   72.3516   72.7672   72.7672
   77.0434   77.0434   77.0434   77.0434   82.9913   82.9913   82.9915   82.9915   82.9932   82.9932
   85.2012   85.2014   85.2014   85.2015   85.2015   85.2016   85.3409   85.3410   90.8782   90.8782
   90.8784   90.8784   90.8808   90.8808   92.9990   93.0016   97.3363   97.3364   97.3364   97.3365
   97.3375   97.3376  107.4554  107.4555  107.4555  107.4555  107.9158  107.9159  107.9188  107.9189
  107.9192  107.9194  110.0867  110.0867  110.0868  110.0869  110.0879  110.0879  113.4350  113.4352
  113.4352  113.4353  113.4362  113.4362  117.8072  117.8103  119.8796  119.8798  119.8830  119.8832
  119.8840  119.8844  127.3665  127.3665  127.3666  127.3667  127.3671  127.3671  127.9457  127.9458
  128.9816  128.9818  128.9823  128.9824  131.5304  131.5311  131.5313  131.5321  131.5326  131.5328
  142.3467  145.0112  163.8013  163.8018  165.5703  165.5715  165.5726  165.5742
   7  1  -26.8157  -26.8157  -25.4826  -25.4826  -25.4371  -25.4371  -24.1903  -24.1903  -22.9129  -22.9129
         -22.9128  -22.9128  -21.9733  -21.8140  -21.8140  -21.8140  -21.8140  -21.4992  -20.4855  -20.1773
  -19.0800  -19.0800  -19.0799  -19.0799  -18.2983  -18.2983  -18.2981  -18.2981  -16.2883  -16.2883
  -15.5853  -15.5853  -15.5851  -15.5851  -15.2623  -15.2623  -15.0396  -15.0396  -15.0394  -15.0394
  -14.9321  -14.9321  -14.6991  -14.6991  -13.9053  -13.7784  -13.7784  -13.5326  -13.5326  -13.4729
  -12.8483  -12.8483  -12.4219  -12.4219  -11.7487  -11.7486  -11.7486  -11.7486  -11.6335  -11.6335
  -11.3449  -11.3449  -11.1138  -10.9761  -10.9761   -9.7255   -9.7255   -9.3777   -8.2182   -8.2182
   -8.2182   -8.2182   -5.4652   -5.4652   -5.4652   -5.4652   -4.9081   -4.1240   -3.5434   -3.5434
   -3.5434   -3.5434   -1.8197   -1.8197   -0.5905   -0.1059   -0.1059    0.7032    0.7032    1.1059
    1.2748    1.2749    1.4032    1.4033    1.9656    1.9656    2.0484    2.0484    2.0484    2.0484
    2.3864    2.3864    2.6066    2.6066    2.8136    2.8136    3.4362    3.4362    3.4799    3.4799
    3.7113    3.7113    3.7113    3.7113    3.7466    3.7466    4.3050    4.3050    4.8121    4.8121
    5.5871    5.5871    5.5873    5.5873    6.1158    6.1158    6.4715    6.4715    6.4715    6.4715
    6.6438    6.8925    7.2557    7.2557    8.3431    8.3431    8.3431    8.3431    8.7973    8.7973
    8.7973    8.7973    9.2784    9.2784    9.2787    9.2787    9.9264    9.9264   10.3991   10.3991
   10.5951   10.7113   10.7113   11.2868   11.2868   12.2937   12.2937   12.7374   12.7849   12.7849
   12.7853   12.7853   12.8378   13.1587   13.8443   14.6540   15.2356   15.2356   15.2359   15.2359
   15.7109   15.8396   15.8396   15.8402   15.8402   17.7904   17.7904   17.7904   17.7904   17.8075
   17.8075   17.8078   17.8078   17.8813   17.8813   17.9684   17.9684   18.6576   18.6577   18.7321
   18.7321   18.9821   18.9821   20.1134   20.2314   20.2314   20.7402   20.7402   20.7403   20.7403
   21.6914   21.6914   21.6917   21.6917   21.7118   21.7118   22.5864   23.7154   24.4017   24.4542
   24.4542   25.7766   25.7766   25.7766   25.7767   26.0756   26.0756   26.2452   26.2452   26.4388
   26.4388   27.0476   27.3637   27.3637   27.4018   27.4018   27.9816   27.9816   29.2365   29.2365
   29.2365   29.2365   30.1525   30.1525   30.4032   30.4032   31.8973   32.4286   32.4286   32.6637
   32.7963   32.7963   34.0164   34.0164   36.2323   36.2323   36.2325   36.2325   36.3185   36.8240
   38.2839   38.2839   38.2840   38.2840   39.8179   39.8179   39.8189   39.8190   41.3335   41.3335
   41.4810   41.4810   42.4094   42.6877   42.6877   42.6998   42.6998   42.8898   42.8899   42.8899
   42.8899   43.2405   43.2405   43.4065   43.4066   43.4428   43.4428   43.7102   43.7102   44.3889
   44.3889   44.4650   44.4650   45.2630   45.2630   46.7922   46.7922   46.7923   46.7923   47.6093
   47.6093   47.6094   47.6094   48.2200   48.2200   48.2200   48.2201   48.3949   48.3949   48.6845
   48.6846   48.6849   48.6849   49.4147   49.4147   49.9559   49.9559   49.9560   49.9560   50.0651
   51.3821   51.3821   52.3920   52.3920   52.3922   52.3922   52.4480   54.0238   54.1507   54.1507
   54.1507   54.1507   54.2662   54.2662   54.8093   54.8093   56.4129   56.4129   56.8488   56.8488
   57.0377   57.1624   57.5627   57.5627   58.5972   58.7912   58.7912   58.7918   58.7918   59.1962
   61.5892   61.6664   63.5631   63.5631   63.5634   63.5635   63.6565   63.6565   63.9061   63.9061
   66.1020   66.1020   66.1021   66.1021   66.2301   67.1472   67.1473   67.1479   67.1479   67.6362
   67.6362   67.9138   68.2193   68.2193   69.1398   69.1398   70.5709   70.5709   70.5711   70.5711
   70.8636   70.8636   71.9710   71.9710   73.0302   73.0302   73.5257   73.5257   73.5264   73.5265
   73.7129   73.7129   74.7422   74.7422   75.7928   75.7928   75.7929   75.7929   78.8748   78.8748
   79.8567   79.8567   80.2241   80.2243   85.5144   89.7947   89.7947   92.9085   92.9086   92.9086
   92.9086   93.5130   93.5131   94.5060   95.8655   96.4741   97.0419   97.0419   99.5653  100.3846
  100.3848  101.5559  101.5560  102.0071  102.0072  102.0103  102.0103  102.7841  103.3486  103.3488
  103.5670  103.5670  103.5685  103.5685  105.4049  105.4049  106.8069  108.3070  108.3071  108.3081
  108.3081  108.9580  108.9581  109.5094  109.5094  115.2688  115.2690  117.8957  117.8958  117.8980
  117.8981  118.7332  118.7333  120.7281  120.7281  120.7287  120.7287  122.0888  122.0888  122.0892
  122.0893  122.3984  123.3787  123.8676  128.6842  128.6842  132.1818  132.1820  136.8802  136.8803
  141.3897  141.3901  146.5174  146.5176  146.5189  146.5192  149.6131  149.6133
   8  1  -26.9839  -26.3128  -26.3127  -25.5948  -24.9666  -24.9666  -24.3393  -24.3392  -23.1245  -23.1244
         -23.0673  -22.4668  -22.4667  -21.9494  -21.5389  -21.4752  -21.4751  -21.0702  -20.2382  -20.2380
  -20.0820  -19.8096  -19.4202  -19.4200  -18.0806  -17.6699  -17.0888  -17.0888  -16.5131  -16.5130
  -16.4899  -16.3102  -16.0130  -15.7833  -15.6872  -15.6872  -15.2127  -14.9443  -14.9442  -14.5088
  -14.5088  -14.4121  -14.4118  -13.9595  -13.9592  -13.9327  -13.9324  -13.5268  -13.5265  -13.3554
  -13.3554  -12.4901  -12.4898  -12.1831  -12.1827  -12.1740  -11.9645  -11.8890  -11.4209  -11.3844
  -11.3844  -11.2712  -11.1402  -10.5385  -10.4931  -10.4930   -8.9434   -8.9434   -8.8437   -8.7831
   -8.7831   -7.8780   -5.5576   -5.1717   -5.1717   -5.1122   -4.8310   -3.9094   -3.9094   -3.8394
   -3.8394   -3.4761   -1.8971   -1.8971    0.0263    0.0263    0.1604    0.1605    1.1466    1.1469
    1.2099    1.2371    1.6159    1.6159    1.7892    1.7895    1.8261    1.8263    1.9145    1.9378
    1.9618    2.3338    2.3339    2.5089    2.5566    2.5566    2.8183    3.2184    3.5939    3.5940
    3.6807    3.9200    3.9204    4.2699    4.4062    4.4903    4.4904    4.5123    4.5129    5.1522
    5.1523    5.3792    5.9808    6.0697    6.0698    6.3649    6.4661    6.4901    6.7167    6.7169
    6.7576    6.9218    7.2208    7.2212    7.5589    7.5590    7.7752    7.8785    8.1354    8.5362
    8.5562    8.5564    9.4327    9.4327    9.8628    9.8628    9.9644    9.9644   10.4498   10.4498
   11.0904   11.0904   11.2014   11.2834   11.7552   11.7556   11.9813   11.9816   12.2242   12.4857
   12.4867   13.1127   13.1128   13.8904   14.2225   14.8890   14.8892   15.4421   15.5393   15.5393
   15.8506   16.0185   16.0194   16.0381   16.0382   16.2493   16.7198   16.7202   17.4179   17.5228
   17.7151   17.7151   17.8523   18.3805   18.4248   18.4248   18.5998   18.7751   18.7758   18.8441
   18.8444   19.0118   19.0675   19.0678   20.1554   20.1760   20.2188   20.3774   21.2371   21.3719
   21.6779   21.6784   22.4067   22.4067   22.4839   22.4840   23.0043   23.0046   23.5508   23.5509
   24.0932   24.0936   25.5755   26.0668   26.0669   26.2016   26.2016   26.4820   26.4820   26.9175
   27.3592   27.3593   27.3760   27.5507   27.7457   27.7457   27.7540   27.9985   27.9986   28.6324
   28.6324   28.7098   29.5346   29.7914   31.0124   31.1464   31.1464   31.8467   31.8468   33.3350
   34.0535   34.0539   35.8998   35.9001   36.0281   36.0282   36.0425   36.2186   36.2186   36.8255
   37.4004   37.4005   38.2281   38.2287   38.2883   38.4545   39.6071   40.6419   40.6423   41.0254
   41.0258   41.0786   41.6845   41.6859   42.3172   42.3185   42.9171   43.0574   43.0581   43.2065
   43.3538   43.3543   43.7051   43.7785   43.8924   43.9953   43.9954   44.2809   44.2817   44.3411
   44.3446   44.3451   44.9364   45.0864   45.6112   45.7314   45.9917   46.2019   46.2069   46.2076
   46.3203   46.3203   46.5630   47.0097   47.2112   48.7819   49.2855   49.2858   49.5857   49.5858
   49.7092   50.0060   50.1210   50.1210   50.9089   50.9092   51.1174   51.4229   51.6184   51.7639
   51.7639   52.0647   52.0649   52.3928   52.3933   52.5963   52.5963   52.7927   52.8818   52.9983
   54.0513   54.0514   54.6944   54.6945   54.8076   54.8079   55.4161   55.5309   55.5311   55.6580
   57.0814   57.0817   57.8645   57.8645   59.4559   60.5030   60.6215   60.6218   60.8259   60.8264
   62.2535   62.2536   62.5112   62.6112   62.6113   62.9598   64.0926   64.0928   64.2571   64.2572
   65.1881   65.1883   65.3040   65.3047   65.4598   65.4600   65.9308   66.4833   67.0003   68.0176
   68.1908   68.1910   69.2314   69.2469   69.2495   69.2536   69.2548   69.6595   69.8354   69.8374
   70.0206   70.0209   70.6879   71.0968   71.0970   71.3567   72.4907   72.6363   72.7873   73.2515
   74.0009   74.5020   74.6448   74.6449   74.8277   75.8143   75.8150   76.6846   76.6846   77.2740
   77.2768   79.6090   81.4725   81.4734   82.0099   82.0129   86.0751   86.0752   89.2001   91.4548
   92.3005   93.5524   93.5547   95.9217   95.9218   97.4605   97.4634   98.3166   98.7060   98.7070
   99.4853   99.4880   99.7544   99.7551  101.7937  102.2918  102.8307  102.8313  103.5443  103.9945
  104.5373  105.0268  105.3443  105.3445  105.6090  105.6106  108.3743  108.3765  108.9906  108.9930
  109.5753  109.5772  110.6917  110.6928  111.1083  112.6846  116.4781  116.9507  119.1585  119.1599
  119.2541  119.2547  121.6705  121.6712  122.1127  122.1145  124.2946  124.2950  126.0498  126.6982
  126.6993  129.1396  129.7901  130.5841  130.5848  130.7446  133.1295  133.1302  133.3397  135.1164
  136.1228  136.7526  139.8947  139.8956  142.8207  144.2681  159.8719  159.8722
   9  1  -26.9839  -26.3128  -26.3127  -25.5948  -24.9666  -24.9666  -24.3393  -24.3392  -23.1245  -23.1244
         -23.0673  -22.4668  -22.4667  -21.9494  -21.5389  -21.4752  -21.4751  -21.0702  -20.2382  -20.2380
  -20.0820  -19.8096  -19.4202  -19.4200  -18.0806  -17.6699  -17.0888  -17.0888  -16.5131  -16.5130
  -16.4899  -16.3102  -16.0130  -15.7833  -15.6872  -15.6872  -15.2127  -14.9443  -14.9442  -14.5088
  -14.5088  -14.4121  -14.4118  -13.9595  -13.9592  -13.9327  -13.9324  -13.5268  -13.5265  -13.3554
  -13.3554  -12.4901  -12.4898  -12.1831  -12.1827  -12.1740  -11.9645  -11.8890  -11.4209  -11.3844
  -11.3844  -11.2712  -11.1402  -10.5385  -10.4931  -10.4930   -8.9434   -8.9434   -8.8437   -8.7831
   -8.7831   -7.8780   -5.5576   -5.1717   -5.1717   -5.1122   -4.8310   -3.9094   -3.9094   -3.8394
   -3.8394   -3.4761   -1.8971   -1.8971    0.0263    0.0263    0.1604    0.1605    1.1466    1.1469
    1.2099    1.2371    1.6159    1.6159    1.7892    1.7895    1.8261    1.8263    1.9145    1.9378
    1.9618    2.3338    2.3339    2.5089    2.5566    2.5566    2.8183    3.2184    3.5939    3.5940
    3.6807    3.9200    3.9204    4.2699    4.4062    4.4903    4.4904    4.5123    4.5129    5.1522
    5.1523    5.3792    5.9808    6.0697    6.0698    6.3649    6.4661    6.4901    6.7167    6.7169
    6.7576    6.9218    7.2208    7.2212    7.5589    7.5590    7.7752    7.8785    8.1354    8.5362
    8.5562    8.5564    9.4327    9.4327    9.8628    9.8628    9.9644    9.9644   10.4498   10.4498
   11.0904   11.0904   11.2014   11.2834   11.7552   11.7556   11.9813   11.9816   12.2242   12.4857
   12.4867   13.1127   13.1128   13.8904   14.2225   14.8890   14.8892   15.4421   15.5393   15.5393
   15.8506   16.0185   16.0194   16.0381   16.0382   16.2493   16.7198   16.7202   17.4179   17.5228
   17.7151   17.7151   17.8523   18.3805   18.4248   18.4248   18.5998   18.7751   18.7758   18.8441
   18.8444   19.0118   19.0675   19.0678   20.1554   20.1760   20.2188   20.3774   21.2371   21.3719
   21.6779   21.6784   22.4067   22.4067   22.4839   22.4840   23.0043   23.0046   23.5508   23.5509
   24.0932   24.0936   25.5755   26.0668   26.0669   26.2016   26.2016   26.4820   26.4820   26.9175
   27.3592   27.3593   27.3760   27.5507   27.7457   27.7457   27.7540   27.9985   27.9986   28.6324
   28.6324   28.7098   29.5346   29.7914   31.0124   31.1464   31.1464   31.8467   31.8468   33.3350
   34.0535   34.0539   35.8998   35.9001   36.0281   36.0282   36.0425   36.2186   36.2186   36.8255
   37.4004   37.4005   38.2281   38.2287   38.2883   38.4545   39.6071   40.6419   40.6423   41.0254
   41.0258   41.0786   41.6845   41.6859   42.3172   42.3185   42.9171   43.0574   43.0581   43.2065
   43.3538   43.3543   43.7051   43.7785   43.8924   43.9953   43.9954   44.2809   44.2817   44.3411
   44.3446   44.3451   44.9364   45.0864   45.6112   45.7314   45.9917   46.2019   46.2069   46.2076
   46.3203   46.3203   46.5630   47.0097   47.2112   48.7819   49.2855   49.2858   49.5857   49.5858
   49.7092   50.0060   50.1210   50.1210   50.9089   50.9091   51.1174   51.4229   51.6184   51.7639
   51.7639   52.0647   52.0649   52.3928   52.3933   52.5963   52.5963   52.7928   52.8818   52.9983
   54.0513   54.0514   54.6944   54.6945   54.8076   54.8078   55.4161   55.5309   55.5311   55.6580
   57.0814   57.0817   57.8645   57.8645   59.4559   60.5030   60.6215   60.6218   60.8259   60.8265
   62.2535   62.2536   62.5111   62.6112   62.6113   62.9598   64.0926   64.0928   64.2571   64.2572
   65.1881   65.1883   65.3040   65.3047   65.4598   65.4600   65.9308   66.4833   67.0003   68.0176
   68.1908   68.1910   69.2314   69.2469   69.2495   69.2535   69.2548   69.6595   69.8354   69.8374
   70.0206   70.0209   70.6879   71.0968   71.0970   71.3567   72.4907   72.6363   72.7873   73.2515
   74.0009   74.5021   74.6448   74.6449   74.8277   75.8143   75.8150   76.6846   76.6847   77.2740
   77.2768   79.6091   81.4725   81.4734   82.0099   82.0129   86.0751   86.0752   89.2001   91.4548
   92.3005   93.5523   93.5546   95.9216   95.9218   97.4607   97.4634   98.3173   98.7060   98.7069
   99.4854   99.4880   99.7544   99.7550  101.7935  102.2919  102.8305  102.8312  103.5442  103.9945
  104.5373  105.0269  105.3441  105.3447  105.6089  105.6106  108.3742  108.3761  108.9908  108.9934
  109.5752  109.5774  110.6917  110.6928  111.1082  112.6841  116.4783  116.9512  119.1578  119.1604
  119.2532  119.2545  121.6703  121.6708  122.1129  122.1148  124.2949  124.2952  126.0497  126.6981
  126.6993  129.1409  129.7902  130.5839  130.5850  130.7453  133.1297  133.1304  133.3399  135.1172
  136.1225  136.7522  139.8937  139.8953  142.8206  144.2682  159.8707  159.8715
  10  1  -26.8157  -26.8157  -25.4826  -25.4826  -25.4371  -25.4371  -24.1903  -24.1903  -22.9129  -22.9129
         -22.9128  -22.9128  -21.9733  -21.8140  -21.8140  -21.8140  -21.8140  -21.4992  -20.4855  -20.1773
  -19.0800  -19.0800  -19.0799  -19.0799  -18.2983  -18.2983  -18.2981  -18.2981  -16.2883  -16.2883
  -15.5853  -15.5853  -15.5851  -15.5851  -15.2623  -15.2623  -15.0396  -15.0396  -15.0394  -15.0394
  -14.9321  -14.9321  -14.6991  -14.6991  -13.9053  -13.7784  -13.7784  -13.5326  -13.5326  -13.4729
  -12.8483  -12.8483  -12.4219  -12.4219  -11.7487  -11.7486  -11.7486  -11.7486  -11.6335  -11.6335
  -11.3449  -11.3449  -11.1138  -10.9761  -10.9761   -9.7255   -9.7255   -9.3777   -8.2182   -8.2182
   -8.2182   -8.2182   -5.4652   -5.4652   -5.4652   -5.4652   -4.9081   -4.1240   -3.5434   -3.5434
   -3.5434   -3.5434   -1.8197   -1.8197   -0.5905   -0.1059   -0.1059    0.7032    0.7032    1.1059
    1.2748    1.2749    1.4032    1.4033    1.9656    1.9656    2.0484    2.0484    2.0484    2.0484
    2.3864    2.3864    2.6066    2.6066    2.8136    2.8136    3.4362    3.4362    3.4799    3.4799
    3.7113    3.7113    3.7113    3.7113    3.7466    3.7466    4.3050    4.3050    4.8121    4.8121
    5.5871    5.5871    5.5873    5.5873    6.1158    6.1158    6.4715    6.4715    6.4715    6.4715
    6.6438    6.8925    7.2557    7.2557    8.3431    8.3431    8.3431    8.3431    8.7973    8.7973
    8.7973    8.7973    9.2784    9.2784    9.2787    9.2787    9.9264    9.9264   10.3991   10.3991
   10.5951   10.7113   10.7113   11.2868   11.2868   12.2937   12.2937   12.7374   12.7849   12.7849
   12.7853   12.7853   12.8378   13.1587   13.8443   14.6540   15.2356   15.2356   15.2359   15.2359
   15.7109   15.8396   15.8396   15.8402   15.8402   17.7904   17.7904   17.7904   17.7904   17.8075
   17.8075   17.8078   17.8078   17.8813   17.8813   17.9684   17.9684   18.6576   18.6577   18.7321
   18.7321   18.9821   18.9821   20.1134   20.2314   20.2314   20.7402   20.7402   20.7403   20.7403
   21.6914   21.6914   21.6917   21.6917   21.7118   21.7118   22.5864   23.7154   24.4017   24.4542
   24.4542   25.7766   25.7766   25.7767   25.7767   26.0756   26.0756   26.2452   26.2452   26.4388
   26.4388   27.0476   27.3637   27.3637   27.4018   27.4018   27.9816   27.9816   29.2365   29.2365
   29.2365   29.2365   30.1525   30.1525   30.4032   30.4032   31.8973   32.4286   32.4287   32.6637
   32.7963   32.7963   34.0164   34.0164   36.2323   36.2323   36.2325   36.2325   36.3185   36.8240
   38.2839   38.2839   38.2840   38.2840   39.8179   39.8179   39.8189   39.8190   41.3335   41.3335
   41.4810   41.4810   42.4094   42.6877   42.6877   42.6998   42.6998   42.8898   42.8899   42.8899
   42.8899   43.2405   43.2405   43.4066   43.4066   43.4428   43.4428   43.7102   43.7102   44.3889
   44.3889   44.4650   44.4650   45.2630   45.2630   46.7922   46.7922   46.7923   46.7923   47.6093
   47.6093   47.6093   47.6094   48.2200   48.2200   48.2200   48.2201   48.3949   48.3949   48.6845
   48.6846   48.6849   48.6849   49.4147   49.4147   49.9559   49.9559   49.9560   49.9560   50.0651
   51.3821   51.3821   52.3920   52.3920   52.3922   52.3922   52.4480   54.0238   54.1507   54.1507
   54.1507   54.1507   54.2662   54.2662   54.8093   54.8093   56.4129   56.4129   56.8488   56.8488
   57.0377   57.1624   57.5627   57.5627   58.5973   58.7912   58.7913   58.7918   58.7918   59.1962
   61.5893   61.6665   63.5632   63.5632   63.5634   63.5634   63.6565   63.6565   63.9061   63.9061
   66.1020   66.1020   66.1021   66.1021   66.2301   67.1473   67.1473   67.1478   67.1479   67.6362
   67.6362   67.9138   68.2193   68.2193   69.1398   69.1399   70.5709   70.5709   70.5710   70.5711
   70.8636   70.8637   71.9710   71.9711   73.0302   73.0302   73.5257   73.5257   73.5264   73.5265
   73.7129   73.7129   74.7422   74.7422   75.7928   75.7928   75.7929   75.7929   78.8748   78.8748
   79.8567   79.8567   80.2241   80.2241   85.5144   89.7946   89.7946   92.9084   92.9085   92.9086
   92.9086   93.5129   93.5131   94.5061   95.8652   96.4743   97.0418   97.0419   99.5655  100.3844
  100.3845  101.5555  101.5556  102.0071  102.0071  102.0104  102.0104  102.7842  103.3488  103.3488
  103.5669  103.5670  103.5685  103.5685  105.4049  105.4050  106.8072  108.3071  108.3072  108.3081
  108.3081  108.9589  108.9590  109.5094  109.5094  115.2679  115.2681  117.8961  117.8962  117.8976
  117.8978  118.7325  118.7328  120.7284  120.7285  120.7287  120.7288  122.0888  122.0890  122.0897
  122.0898  122.3988  123.3789  123.8676  128.6840  128.6841  132.1822  132.1825  136.8808  136.8810
  141.3890  141.3892  146.5171  146.5173  146.5183  146.5186  149.6132  149.6133
  11  1  -26.9839  -26.3128  -26.3127  -25.5948  -24.9666  -24.9666  -24.3393  -24.3392  -23.1245  -23.1244
         -23.0673  -22.4668  -22.4667  -21.9494  -21.5389  -21.4752  -21.4751  -21.0702  -20.2382  -20.2380
  -20.0820  -19.8096  -19.4202  -19.4200  -18.0806  -17.6699  -17.0888  -17.0888  -16.5131  -16.5130
  -16.4899  -16.3102  -16.0130  -15.7833  -15.6872  -15.6872  -15.2127  -14.9443  -14.9442  -14.5088
  -14.5088  -14.4121  -14.4118  -13.9595  -13.9592  -13.9327  -13.9324  -13.5268  -13.5265  -13.3554
  -13.3554  -12.4901  -12.4898  -12.1831  -12.1827  -12.1740  -11.9645  -11.8890  -11.4209  -11.3844
  -11.3844  -11.2712  -11.1402  -10.5385  -10.4931  -10.4930   -8.9434   -8.9434   -8.8437   -8.7831
   -8.7831   -7.8780   -5.5576   -5.1717   -5.1717   -5.1122   -4.8310   -3.9094   -3.9094   -3.8394
   -3.8394   -3.4761   -1.8971   -1.8971    0.0263    0.0263    0.1604    0.1605    1.1466    1.1469
    1.2099    1.2371    1.6159    1.6159    1.7892    1.7895    1.8261    1.8263    1.9145    1.9378
    1.9618    2.3338    2.3339    2.5089    2.5566    2.5566    2.8183    3.2184    3.5939    3.5940
    3.6807    3.9200    3.9204    4.2699    4.4062    4.4903    4.4904    4.5123    4.5129    5.1522
    5.1523    5.3792    5.9808    6.0697    6.0698    6.3649    6.4661    6.4901    6.7167    6.7169
    6.7576    6.9218    7.2208    7.2212    7.5589    7.5590    7.7752    7.8785    8.1354    8.5362
    8.5562    8.5564    9.4327    9.4327    9.8628    9.8628    9.9644    9.9644   10.4498   10.4498
   11.0904   11.0904   11.2014   11.2834   11.7552   11.7556   11.9813   11.9816   12.2242   12.4857
   12.4867   13.1127   13.1128   13.8904   14.2225   14.8890   14.8892   15.4421   15.5393   15.5393
   15.8506   16.0185   16.0194   16.0381   16.0382   16.2493   16.7198   16.7202   17.4179   17.5228
   17.7151   17.7151   17.8523   18.3805   18.4248   18.4248   18.5998   18.7751   18.7758   18.8441
   18.8444   19.0118   19.0675   19.0678   20.1554   20.1760   20.2188   20.3774   21.2371   21.3719
   21.6779   21.6784   22.4067   22.4067   22.4839   22.4840   23.0043   23.0046   23.5508   23.5509
   24.0932   24.0936   25.5755   26.0668   26.0669   26.2016   26.2016   26.4820   26.4820   26.9175
   27.3592   27.3593   27.3760   27.5507   27.7457   27.7457   27.7540   27.9985   27.9986   28.6324
   28.6324   28.7098   29.5346   29.7914   31.0124   31.1464   31.1464   31.8467   31.8468   33.3350
   34.0535   34.0539   35.8998   35.9001   36.0281   36.0282   36.0425   36.2186   36.2186   36.8255
   37.4004   37.4005   38.2281   38.2287   38.2883   38.4545   39.6071   40.6419   40.6423   41.0254
   41.0258   41.0786   41.6845   41.6859   42.3172   42.3185   42.9171   43.0574   43.0581   43.2065
   43.3538   43.3543   43.7051   43.7785   43.8924   43.9953   43.9954   44.2809   44.2817   44.3411
   44.3446   44.3451   44.9364   45.0864   45.6112   45.7314   45.9917   46.2019   46.2069   46.2076
   46.3203   46.3203   46.5630   47.0097   47.2112   48.7819   49.2855   49.2858   49.5857   49.5858
   49.7092   50.0060   50.1210   50.1210   50.9089   50.9091   51.1174   51.4229   51.6184   51.7639
   51.7639   52.0647   52.0649   52.3928   52.3933   52.5963   52.5963   52.7928   52.8818   52.9983
   54.0513   54.0514   54.6944   54.6945   54.8076   54.8078   55.4161   55.5309   55.5311   55.6580
   57.0814   57.0817   57.8645   57.8645   59.4559   60.5030   60.6215   60.6218   60.8259   60.8265
[...]
    6.0492    6.0492    6.0942    6.0942    6.6027    6.6027    6.6027    6.6027    6.7335    6.7335
    7.0511    7.0511    7.1659    7.1659    7.1660    7.1660    7.3029    7.3029    7.3030    7.3030
    8.1440    8.1440    8.1442    8.1442    9.9551    9.9551   10.5022   10.5022   10.5024   10.5024
   11.5139   11.5139   11.6018   11.6018   11.6345   11.6345   11.6347   11.6347   12.3150   12.3150
   12.3156   12.3156   13.9546   13.9546   13.9547   13.9547   14.5330   14.5330   14.5330   14.5330
   15.2851   15.2851   15.3727   15.3727   16.5522   16.5522   16.5523   16.5523   17.0640   17.0640
   17.0643   17.0643   17.5947   17.5947   17.7706   17.7706   18.6323   18.6323   18.6325   18.6325
   19.0173   19.0173   19.9102   19.9102   19.9104   19.9104   20.3511   20.3511   20.8655   20.8655
   21.0765   21.0765   21.0768   21.0768   21.3700   21.3700   22.7582   22.7582   22.8307   22.8307
   22.8309   22.8309   22.9155   22.9155   22.9158   22.9158   26.4703   26.4703   26.5067   26.5067
   27.8329   27.8329   27.8329   27.8329   28.6313   28.6313   28.6313   28.6313   31.0143   31.0143
   31.5766   31.5766   31.5766   31.5766   32.4811   32.4811   32.4812   32.4812   32.5151   32.5151
   33.0918   33.0918   33.0919   33.0919   34.0820   34.0820   35.0427   35.0427   35.0428   35.0428
   37.5154   37.5154   37.5211   37.5211   37.5218   37.5218   40.6272   40.6272   40.6531   40.6531
   40.6532   40.6532   41.0920   41.0920   41.1944   41.1944   41.7690   41.7690   41.7703   41.7703
   42.5987   42.5987   42.5991   42.5991   43.4759   43.4759   43.4765   43.4765   43.6122   43.6122
   44.3097   44.3097   44.4427   44.4427   44.9742   44.9742   44.9743   44.9743   46.1876   46.1876
   46.8972   46.8972   46.8975   46.8975   47.1228   47.1228   47.1230   47.1230   47.6026   47.6026
   49.6851   49.6851   50.6722   50.6722   50.6722   50.6722   50.7431   50.7431   50.7431   50.7431
   51.6026   51.6026   53.4622   53.4622   53.4623   53.4623   55.1347   55.1347   55.1347   55.1347
   56.6534   56.6534   57.2792   57.2792   58.0397   58.0397   58.0398   58.0398   58.9378   58.9378
   59.9903   59.9903   60.3337   60.3337   60.3344   60.3344   60.8424   60.8424   61.5545   61.5545
   61.5547   61.5547   63.0683   63.0683   63.0689   63.0689   64.8524   64.8524   64.8525   64.8525
   64.9037   64.9037   65.6863   65.6863   65.6871   65.6871   65.8417   65.8417   66.7952   66.7952
   68.5162   68.5162   68.5165   68.5165   68.8958   68.8958   68.8958   68.8958   69.8712   69.8712
   69.8736   69.8736   70.0546   70.0546   70.6389   70.6389   70.9884   70.9885   72.5676   72.5676
   72.6672   72.6672   72.6674   72.6674   73.4067   73.4067   73.4070   73.4070   76.7032   76.7032
   78.3446   78.3446   82.5333   82.5334   82.5357   82.5357   83.4592   83.4592   83.4599   83.4599
   85.4136   85.4136   85.4138   85.4138   89.4299   89.4299   97.4855   97.4855   97.4871   97.4871
  101.2780  101.2780  101.2806  101.2806  101.4754  101.4754  102.3239  102.3240  102.3241  102.3241
  104.0908  104.0908  104.5550  104.5550  104.6608  104.6608  104.6617  104.6618  106.5005  106.5005
  110.6202  110.6202  110.6207  110.6207  111.8705  111.8706  111.8711  111.8712  112.5383  112.5384
  112.5421  112.5422  112.6675  112.6675  113.6737  113.6737  117.9665  117.9666  118.7753  118.7754
  119.0875  119.0875  121.3886  121.3886  121.3923  121.3923  121.6984  121.6985  121.6985  121.6986
  129.9093  129.9093  137.3120  137.3121  137.3125  137.3126  150.5529  150.5530
  42  1  -26.2119  -26.2119  -26.2119  -26.2119  -24.9109  -24.9109  -24.9109  -24.9109  -22.4161  -22.4161
         -22.4161  -22.4161  -22.4160  -22.4160  -22.4160  -22.4160  -21.5974  -21.5974  -20.5676  -20.5676
  -18.7178  -18.7178  -18.7178  -18.7178  -18.7177  -18.7177  -18.7177  -18.7177  -15.3308  -15.3308
  -15.3308  -15.3308  -15.3306  -15.3306  -15.3306  -15.3306  -15.0712  -15.0712  -15.0712  -15.0712
  -13.9224  -13.9224  -13.9224  -13.9224  -13.7089  -13.7089  -13.7089  -13.7089  -13.6942  -13.6942
  -12.6350  -12.6350  -12.6350  -12.6350  -12.4454  -12.4454  -12.4454  -12.4454  -11.4717  -11.4717
  -11.4717  -11.4717   -9.8566   -9.8566   -9.8566   -9.8566   -9.8566   -9.8566   -9.8566   -9.8566
   -9.5816   -9.5816   -5.6067   -5.6067   -4.8117   -4.8117   -4.8117   -4.8117   -4.8117   -4.8117
   -4.8117   -4.8117   -1.0836   -1.0836   -1.0836   -1.0836    0.2429    0.2429    0.8610    0.8610
    0.8610    0.8610    2.2523    2.2523    2.2523    2.2523    2.7443    2.7443    2.7443    2.7443
    2.7443    2.7443    2.7444    2.7444    2.9306    2.9306    2.9307    2.9307    3.5794    3.5794
    3.5795    3.5795    4.3781    4.3781    4.3781    4.3781    6.1071    6.1071    6.1071    6.1071
    6.1071    6.1071    6.1071    6.1071    6.2311    6.2311    6.2311    6.2311    6.8816    6.8816
    6.8816    6.8816    6.9603    6.9603    6.9603    6.9603    8.0300    8.0300    8.6965    8.6965
    8.6965    8.6965    8.6967    8.6967    8.6967    8.6967   10.1941   10.1941   10.1941   10.1941
   10.9400   10.9400   11.7443   11.7443   11.7443   11.7443   11.7445   11.7445   11.7445   11.7445
   12.7876   12.7876   14.3256   14.3256   14.3256   14.3256   15.0038   15.0038   15.0038   15.0038
   15.0038   15.0038   15.0038   15.0038   15.2257   15.2257   15.5816   15.5816   17.7771   17.7771
   17.7771   17.7771   17.7774   17.7774   17.7774   17.7774   18.9011   18.9011   18.9011   18.9011
   19.5007   19.5007   19.5008   19.5008   20.3102   20.3102   20.3102   20.3102   21.1174   21.1174
   21.2021   21.2021   21.2021   21.2021   21.2023   21.2023   21.2023   21.2023   22.1400   22.1400
   22.1400   22.1400   23.5805   23.5805   23.5805   23.5805   27.0833   27.0833   27.0833   27.0833
   27.0833   27.0833   27.0833   27.0833   28.4220   28.4220   30.9527   30.9527   30.9527   30.9527
   31.4841   31.4841   31.4841   31.4841   31.7952   31.7952   32.6674   32.6674   32.6674   32.6674
   32.7979   32.7979   32.7979   32.7979   32.7979   32.7979   32.7979   32.7979   37.8452   37.8452
   37.8452   37.8452   38.9576   38.9576   40.4453   40.4453   40.4453   40.4453   40.4461   40.4461
   40.4461   40.4461   41.2369   41.2369   41.2369   41.2369   41.6354   41.6354   41.6354   41.6354
   42.6210   42.6210   42.6210   42.6210   42.8252   42.8252   42.9863   42.9863   42.9863   42.9863
   44.1468   44.1468   44.1469   44.1469   44.7318   44.7318   44.7318   44.7318   44.7320   44.7320
   44.7320   44.7320   44.9928   44.9928   44.9928   44.9928   49.9072   49.9072   49.9188   49.9188
   49.9188   49.9188   49.9190   49.9190   49.9191   49.9191   50.1459   50.1459   50.1459   50.1459
   54.0401   54.0401   55.4475   55.4475   55.4475   55.4475   56.2566   56.2566   56.2567   56.2567
   58.5367   58.5367   58.5367   58.5367   58.5367   58.5367   58.5368   58.5368   58.8157   58.8157
   58.8157   58.8157   59.4886   59.4886   59.4886   59.4886   59.4887   59.4887   59.4887   59.4887
   59.9229   59.9229   60.9723   60.9723   60.9723   60.9723   64.2674   64.2674   64.2674   64.2674
   65.0827   65.0827   67.3854   67.3854   67.5709   67.5709   67.5709   67.5709   67.5718   67.5718
   67.5718   67.5718   69.2710   69.2710   69.2711   69.2711   69.6510   69.6510   69.9035   69.9035
   69.9035   69.9035   69.9037   69.9037   69.9037   69.9037   70.6708   70.6708   70.6709   70.6709
   72.0172   72.0172   72.0172   72.0173   77.1386   77.1387   77.1387   77.1387   78.4867   78.4867
   78.4867   78.4868   81.6987   81.6987   81.6988   81.6988   81.6991   81.6991   81.6991   81.6991
   82.4481   82.4481   90.9131   90.9131   90.9131   90.9131  100.1003  100.1004  102.0283  102.0283
  102.0284  102.0284  102.0583  102.0584  102.0584  102.0584  102.0595  102.0595  102.0595  102.0596
  103.8036  103.8037  103.8039  103.8040  105.2914  105.2914  105.2915  105.2915  105.2926  105.2926
  105.2927  105.2927  107.2930  107.2930  107.2930  107.2931  111.6717  111.6717  117.1313  117.1314
  117.1315  117.1315  117.2346  117.2346  117.2347  117.2347  117.6683  117.6683  117.6685  117.6686
  117.6700  117.6701  117.6702  117.6702  120.7973  120.7974  126.9749  126.9750  126.9751  126.9751
  126.9754  126.9755  126.9756  126.9756  132.2126  132.2126  132.2131  132.2132
  43  1  -26.3765  -26.3765  -25.7207  -25.7207  -25.7207  -25.7207  -23.7977  -23.7977  -23.7977  -23.7977
         -22.5642  -22.5642  -21.9977  -21.9977  -21.9976  -21.9976  -21.1760  -21.1760  -20.1608  -20.1608
  -19.8967  -19.8967  -19.8966  -19.8966  -17.8341  -17.8341  -16.7981  -16.7981  -16.7981  -16.7981
  -16.2450  -16.2450  -15.5135  -15.5135  -14.7592  -14.7592  -14.7591  -14.7591  -14.1798  -14.1798
  -14.1794  -14.1794  -14.1070  -14.1070  -13.7648  -13.7648  -13.7645  -13.7645  -13.3361  -13.3361
  -13.3361  -13.3361  -12.3492  -12.3492  -12.3488  -12.3488  -12.0355  -12.0355  -11.3626  -11.3626
  -11.2341  -11.2341  -11.2341  -11.2341   -9.9354   -9.9354   -9.6809   -9.6809   -9.6809   -9.6809
   -8.9999   -8.9999   -5.8426   -5.8426   -5.3450   -5.3450   -5.3450   -5.3450   -4.5329   -4.5329
   -2.9560   -2.9560   -2.9560   -2.9560    0.4246    0.4246    0.4247    0.4247    0.9590    0.9590
    0.9592    0.9592    1.2322    1.2322    1.9400    1.9400    1.9403    1.9403    2.5212    2.5212
    2.6176    2.6176    2.8083    2.8083    3.0395    3.0395    3.0396    3.0396    4.2329    4.2329
    4.2334    4.2334    4.2565    4.2565    5.6019    5.6019    5.6493    5.6493    5.6494    5.6494
    6.0492    6.0492    6.0942    6.0942    6.6027    6.6027    6.6027    6.6027    6.7335    6.7335
    7.0511    7.0511    7.1659    7.1659    7.1660    7.1660    7.3029    7.3029    7.3030    7.3030
    8.1440    8.1440    8.1442    8.1442    9.9551    9.9551   10.5022   10.5022   10.5024   10.5024
   11.5139   11.5139   11.6018   11.6018   11.6345   11.6345   11.6347   11.6347   12.3150   12.3150
   12.3156   12.3156   13.9546   13.9546   13.9547   13.9547   14.5330   14.5330   14.5330   14.5330
   15.2851   15.2851   15.3727   15.3727   16.5522   16.5522   16.5523   16.5523   17.0640   17.0640
   17.0643   17.0643   17.5947   17.5947   17.7706   17.7706   18.6323   18.6323   18.6325   18.6325
   19.0173   19.0173   19.9102   19.9102   19.9104   19.9104   20.3511   20.3511   20.8655   20.8655
   21.0765   21.0765   21.0768   21.0768   21.3700   21.3700   22.7582   22.7582   22.8307   22.8307
   22.8309   22.8309   22.9155   22.9155   22.9158   22.9158   26.4703   26.4703   26.5067   26.5067
   27.8329   27.8329   27.8329   27.8329   28.6313   28.6313   28.6313   28.6313   31.0143   31.0143
   31.5766   31.5766   31.5766   31.5766   32.4811   32.4811   32.4812   32.4812   32.5151   32.5151
   33.0918   33.0918   33.0919   33.0919   34.0820   34.0820   35.0427   35.0427   35.0428   35.0428
   37.5154   37.5154   37.5211   37.5211   37.5218   37.5218   40.6272   40.6272   40.6531   40.6531
   40.6532   40.6532   41.0920   41.0920   41.1944   41.1944   41.7690   41.7690   41.7703   41.7703
   42.5987   42.5987   42.5991   42.5991   43.4759   43.4759   43.4765   43.4765   43.6122   43.6122
   44.3097   44.3097   44.4427   44.4427   44.9742   44.9742   44.9743   44.9743   46.1876   46.1876
   46.8972   46.8972   46.8975   46.8975   47.1228   47.1228   47.1230   47.1230   47.6026   47.6026
   49.6851   49.6851   50.6722   50.6722   50.6722   50.6722   50.7431   50.7431   50.7431   50.7431
   51.6026   51.6026   53.4622   53.4622   53.4623   53.4623   55.1347   55.1347   55.1347   55.1347
   56.6534   56.6534   57.2792   57.2792   58.0397   58.0397   58.0398   58.0398   58.9378   58.9378
   59.9903   59.9903   60.3337   60.3337   60.3344   60.3344   60.8424   60.8424   61.5545   61.5545
   61.5547   61.5547   63.0683   63.0683   63.0689   63.0689   64.8524   64.8524   64.8525   64.8525
   64.9037   64.9037   65.6863   65.6863   65.6871   65.6871   65.8417   65.8417   66.7952   66.7952
   68.5162   68.5162   68.5165   68.5165   68.8958   68.8958   68.8958   68.8958   69.8712   69.8712
   69.8736   69.8736   70.0546   70.0546   70.6389   70.6389   70.9884   70.9885   72.5676   72.5676
   72.6672   72.6672   72.6674   72.6674   73.4067   73.4067   73.4070   73.4070   76.7032   76.7032
   78.3446   78.3446   82.5333   82.5334   82.5357   82.5357   83.4592   83.4592   83.4599   83.4599
   85.4136   85.4136   85.4138   85.4138   89.4299   89.4299   97.4855   97.4855   97.4871   97.4871
  101.2780  101.2780  101.2806  101.2806  101.4754  101.4754  102.3239  102.3240  102.3241  102.3241
  104.0908  104.0908  104.5550  104.5550  104.6608  104.6608  104.6617  104.6618  106.5005  106.5005
  110.6202  110.6202  110.6207  110.6207  111.8705  111.8706  111.8711  111.8712  112.5383  112.5384
  112.5421  112.5422  112.6675  112.6675  113.6737  113.6737  117.9665  117.9666  118.7753  118.7754
  119.0875  119.0875  121.3886  121.3886  121.3923  121.3923  121.6984  121.6985  121.6985  121.6986
  129.9093  129.9093  137.3120  137.3121  137.3125  137.3126  150.5529  150.5530
  44  1  -26.2119  -26.2119  -26.2119  -26.2119  -24.9109  -24.9109  -24.9109  -24.9109  -22.4161  -22.4161
         -22.4161  -22.4161  -22.4161  -22.4161  -22.4161  -22.4161  -21.5973  -21.5973  -20.5675  -20.5675
  -18.7179  -18.7179  -18.7179  -18.7179  -18.7179  -18.7179  -18.7179  -18.7179  -15.3306  -15.3306
  -15.3306  -15.3306  -15.3306  -15.3306  -15.3306  -15.3306  -15.0714  -15.0714  -15.0714  -15.0714
  -13.9224  -13.9224  -13.9224  -13.9224  -13.7087  -13.7087  -13.7087  -13.7087  -13.6946  -13.6946
  -12.6347  -12.6347  -12.6347  -12.6347  -12.4454  -12.4454  -12.4454  -12.4454  -11.4721  -11.4721
  -11.4720  -11.4720   -9.8566   -9.8566   -9.8566   -9.8566   -9.8566   -9.8566   -9.8566   -9.8566
   -9.5816   -9.5816   -5.6067   -5.6067   -4.8117   -4.8117   -4.8117   -4.8117   -4.8117   -4.8117
   -4.8117   -4.8117   -1.0836   -1.0836   -1.0836   -1.0836    0.2431    0.2431    0.8614    0.8614
    0.8614    0.8614    2.2524    2.2524    2.2524    2.2524    2.7442    2.7442    2.7443    2.7443
    2.7443    2.7443    2.7443    2.7443    2.9306    2.9306    2.9306    2.9306    3.5788    3.5788
    3.5788    3.5788    4.3783    4.3783    4.3784    4.3784    6.1071    6.1071    6.1071    6.1071
    6.1071    6.1071    6.1071    6.1071    6.2312    6.2312    6.2312    6.2312    6.8816    6.8816
    6.8816    6.8816    6.9604    6.9604    6.9605    6.9605    8.0301    8.0301    8.6965    8.6965
    8.6965    8.6965    8.6965    8.6965    8.6965    8.6965   10.1940   10.1940   10.1940   10.1940
   10.9403   10.9403   11.7446   11.7446   11.7446   11.7446   11.7446   11.7446   11.7446   11.7446
   12.7864   12.7864   14.3255   14.3255   14.3255   14.3255   15.0040   15.0040   15.0040   15.0040
   15.0040   15.0040   15.0040   15.0040   15.2265   15.2265   15.5815   15.5815   17.7771   17.7771
   17.7771   17.7771   17.7771   17.7771   17.7771   17.7771   18.9014   18.9014   18.9014   18.9014
   19.5004   19.5004   19.5004   19.5004   20.3101   20.3101   20.3101   20.3101   21.1179   21.1179
   21.2022   21.2022   21.2022   21.2022   21.2022   21.2022   21.2022   21.2022   22.1402   22.1402
   22.1402   22.1402   23.5802   23.5802   23.5802   23.5802   27.0833   27.0833   27.0833   27.0833
   27.0833   27.0833   27.0833   27.0833   28.4223   28.4223   30.9527   30.9527   30.9527   30.9527
   31.4841   31.4841   31.4841   31.4841   31.7946   31.7946   32.6674   32.6674   32.6674   32.6674
   32.7979   32.7979   32.7979   32.7979   32.7979   32.7979   32.7979   32.7979   37.8453   37.8453
   37.8453   37.8453   38.9576   38.9576   40.4459   40.4459   40.4459   40.4459   40.4459   40.4459
   40.4459   40.4459   41.2374   41.2374   41.2374   41.2374   41.6350   41.6350   41.6350   41.6350
   42.6213   42.6213   42.6213   42.6213   42.8245   42.8245   42.9849   42.9849   42.9849   42.9849
   44.1481   44.1481   44.1481   44.1481   44.7316   44.7316   44.7316   44.7316   44.7316   44.7316
   44.7316   44.7316   44.9929   44.9929   44.9929   44.9929   49.9076   49.9076   49.9188   49.9188
   49.9188   49.9188   49.9188   49.9188   49.9188   49.9188   50.1463   50.1463   50.1463   50.1463
   54.0404   54.0404   55.4475   55.4475   55.4475   55.4475   56.2564   56.2564   56.2564   56.2564
   58.5368   58.5368   58.5368   58.5368   58.5368   58.5368   58.5369   58.5369   58.8159   58.8159
   58.8159   58.8159   59.4884   59.4884   59.4884   59.4884   59.4884   59.4884   59.4884   59.4884
   59.9215   59.9215   60.9728   60.9728   60.9728   60.9728   64.2668   64.2668   64.2668   64.2668
   65.0839   65.0839   67.3849   67.3849   67.5713   67.5713   67.5713   67.5713   67.5714   67.5714
   67.5714   67.5714   69.2720   69.2720   69.2720   69.2720   69.6513   69.6513   69.9036   69.9036
   69.9037   69.9037   69.9037   69.9037   69.9037   69.9037   70.6676   70.6676   70.6677   70.6677
   72.0179   72.0179   72.0179   72.0180   77.1411   77.1411   77.1411   77.1411   78.4870   78.4871
   78.4871   78.4871   81.6988   81.6988   81.6988   81.6988   81.6989   81.6989   81.6989   81.6989
   82.4487   82.4487   90.9111   90.9111   90.9111   90.9111  100.1030  100.1030  102.0285  102.0285
  102.0286  102.0286  102.0596  102.0596  102.0596  102.0596  102.0596  102.0596  102.0597  102.0597
  103.8032  103.8032  103.8033  103.8034  105.2914  105.2914  105.2915  105.2915  105.2915  105.2915
  105.2916  105.2916  107.2927  107.2928  107.2928  107.2928  111.6670  111.6671  117.1277  117.1279
  117.1280  117.1280  117.2357  117.2357  117.2358  117.2358  117.6692  117.6693  117.6693  117.6694
  117.6700  117.6701  117.6703  117.6703  120.7978  120.7979  126.9754  126.9755  126.9755  126.9757
  126.9759  126.9761  126.9761  126.9761  132.2154  132.2156  132.2161  132.2161
siesta: Fermi energy =      -7.372768 eV

siesta: Program's energy decomposition (eV):
siesta: Ebs     =     -2362.585635
siesta: Eions   =      9434.507561
siesta: Ena     =      2208.148859
siesta: Ekin    =      3944.505857
siesta: Enl     =      -383.595837
siesta: Eso     =         0.000000
siesta: Edftu   =         0.000000
siesta: DEna    =      -202.301686
siesta: DUscf   =        17.505643
siesta: DUext   =         0.000000
siesta: Exc     =     -1721.627853
siesta: eta*DQ  =         0.000000
siesta: Emadel  =         0.000000
siesta: Emeta   =         0.000000
siesta: Emolmec =        -6.717494
siesta: Ekinion =         0.000000
siesta: Eharris =     -5578.590072
siesta: Etot    =     -5578.590073
siesta: FreeEng =     -5578.595991

siesta: Final energy (eV):
siesta:  Band Struct. =   -2362.585635
siesta:       Kinetic =    3944.505857
siesta:       Hartree =     888.813441
siesta:       Edftu   =       0.000000
siesta:       Eso     =       0.000000
siesta:    Ext. field =       0.000000
siesta:   Exch.-corr. =   -1721.627853
siesta:  Ion-electron =   -5841.408945
siesta:       Ion-ion =   -2842.155079
siesta:       Ekinion =       0.000000
siesta:         Total =   -5578.590073
siesta:         Fermi =      -7.372768

siesta: Stress tensor (static) (eV/Ang**3):
siesta:    -0.074218   -0.000086   -0.000000
siesta:    -0.000086   -0.074318    0.000000
siesta:     0.000000    0.000000   -0.187073

siesta: Cell volume =        250.881639 Ang**3

siesta: Pressure (static):
siesta:                Solid            Molecule  Units
siesta:           0.00121840          0.00121845  Ry/Bohr**3
siesta:           0.11186965          0.11187399  eV/Ang**3
siesta:         179.23687904        179.24382990  kBar
(Free)E+ p_basis*V_orbitals  =       -5545.066185
(Free)Eharris+ p_basis*V_orbitals  =       -5545.066184

cite: Please see "graphite_scf.bib" for an exhaustive BiBTeX file.
cite: Please clearly indicate Siesta version in published work: 4.1.5
cite: This calculation has made use of the following articles
cite: which are encouraged to be cited in a published work.
        Primary SIESTA paper
          DOI: www.doi.org/10.1088/0953-8984/14/11/302

>> End of run:   1-NOV-2022  16:55:48
Job completed
