Siesta Version  : 4.1.5
Architecture    : x86_64-unknown-linux-gnu--unknown
Compiler version: GNU Fortran (GCC) 11.3.0
Compiler flags  : mpif90 -g -O2 -fallow-argument-mismatch
PP flags        : -DMPI -DFC_HAVE_FLUSH -DFC_HAVE_ABORT
Libraries       :  -I/global/software/sl-7.x86_64/modules/intel/2020.4.304/mkl/include  /globall/software/sl-7.x86_64/modules/intel/2020.4.304/mkl/lib/intel64/libmkl_scalapack_lp64.a -Wl,--start-group /global/software/sl-7.x86_64/modules/intel/2020.4.304/mkl/lib/intel64/libmkl_intel_lp64.a /global/software/sl-7.x86_64/modules/intel/2020.4.304/mkl/lib/intel64/libmkl_sequential.a /global/software/sl-7.x86_64/modules/intel/2020.4.304/mkl/lib/intel64/libmkl_core.a /global/software/sl-7.x86_64/modules/intel/2020.4.304/mkl/lib/intel64/libmkl_blacs_openmpi_lp64.a -Wl,--end-group -lpthread -lm -ldl
PARALLEL version

* Running on 20 nodes in parallel
>> Start of run:   1-NOV-2022  17:33:49

                           ***********************       
                           *  WELCOME TO SIESTA  *       
                           ***********************       

reinit: Reading from standard input
reinit: Dumped input in INPUT_TMP.14852
************************** Dump of input data file ****************************
SystemName graphite_scf
SystemLabel graphite_scf
NumberOfAtoms   36
NumberOfSpecies 1
%block ChemicalSpeciesLabel
1  6   C-gga
%endblock ChemicalSpeciesLabel
PAO.BasisSize  DZP
PAO.EnergyShift  10 meV
%block PS.Lmax
C-gga   2
%endblock PS.Lmax
LatticeConstant 1.000000 Ang
%block LatticeVectors
	7.3920000000	0.0000000000	0.0000000000
	-3.6960000000	6.4016597848	0.0000000000
	0.0000000000	0.0000000000	4.1608200000
%endblock LatticeVectors
AtomicCoordinatesFormat Ang
%block AtomicCoordinatesAndAtomicSpecies
	0.00000000	0.00000000	1.04020500	1
	0.00000000	0.00000000	3.12061500	1
	-1.23200000	2.13388659	1.04020500	1
	-2.46400000	4.26777319	3.12061500	1
	2.46400000	4.26777319	1.04020500	1
	1.23200000	2.13388659	3.12061500	1
	2.46400000	0.00000000	1.04020500	1
	4.92800000	0.00000000	3.12061500	1
	2.46400000	0.00000000	3.12061500	1
	4.92800000	0.00000000	1.04020500	1
	2.46400000	4.26777319	3.12061500	1
	1.23200000	2.13388659	1.04020500	1
	-1.23200000	2.13388659	3.12061500	1
	-2.46400000	4.26777319	1.04020500	1
	0.00000000	4.26777319	1.04020500	1
	3.69600000	2.13388659	3.12061500	1
	3.69600000	2.13388659	1.04020500	1
	0.00000000	4.26777319	3.12061500	1
	0.00000000	1.42258964	1.04020500	1
	3.69600000	4.97907014	3.12061500	1
	2.46400123	5.69036496	1.04020500	1
	1.23199877	0.71129482	3.12061500	1
	-2.46400123	5.69036496	1.04020500	1
	6.16000123	0.71129482	3.12061500	1
	-1.23200000	3.55647624	1.04020500	1
	4.92800000	2.84518355	3.12061500	1
	1.23200123	3.55647837	1.04020500	1
	2.46399877	2.84518142	3.12061500	1
	-0.00000123	5.69036496	1.04020500	1
	3.69600123	0.71129482	3.12061500	1
	2.46400000	1.42258964	1.04020500	1
	1.23200000	4.97907014	3.12061500	1
	4.92800123	1.42259177	1.04020500	1
	-1.23200123	4.97906801	3.12061500	1
	3.69599877	3.55647837	1.04020500	1
	0.00000123	2.84518142	3.12061500	1
%endblock AtomicCoordinatesAndAtomicSpecies
Kgrid_NoTRS  T
%block kgrid_MonkhorstPack
4       0       0       0.0
0       4       0       0.0
0       0       4       0.0
%endblock kgrid_MonkhorstPack
AtomCoorFormatOut Ang
BlockSize 1
#ProcessorY 12
Diag.ParallelOverK   T
Diag.DivideAndConquer F
MeshCutoff   300 Ry
SCF.FreeE.Tolerance 1E-3 eV
SCF.EDM.Tolerance   5E-3 eV
DM.Tolerance  1E-3
DM.Require.Energy.Convergence T
DM.NumberPulay 4
XC.Functional GGA
XC.Authors    PBE
UseSaveData        F
SolutionMethod     diagon
MD.TypeOfRun       CG
MD.VariableCell    F
MD.NumCGsteps      00
MD.MaxCGDispl      0.200000 Bohr
#MD.MaxStressTol    1.000000 GPa
#MD.MaxForceTol     0.010000 eV/Ang
WriteMDHistory T
WriteCoorStep T
WriteForces T
WriteCoorStep    T
WriteEigenValues T
WriteDM    F
MM.UnitsDistance Ang  # what this program prints out DO NOT CHANGE
MM.UnitsEnergy    eV  # what this program prints out DO NOT CHANGE
MM.Grimme.S6     0.75 # Grimme-paper for PBE (correct for your functional)
MM.Grimme.D     20.   # Grimme-paper (correct for your functional)
%block MM.Potentials
  1   1 Grimme     18.14      2.904 # C, 10.1002/jcc.20495
%endblock MM.Potentials
#%block ProjectedDensityOfStates
# -200.0  120.0  0.4  12800  eV
#%endblock ProjectedDensityOfStates
************************** End of input data file *****************************

reinit: -----------------------------------------------------------------------
reinit: System Name: graphite_scf
reinit: -----------------------------------------------------------------------
reinit: System Label: graphite_scf
reinit: -----------------------------------------------------------------------
Reading two-body potentials
Grimme - two-body potential between 1 and 1

initatom: Reading input for the pseudopotentials and atomic orbitals ----------
Species number:   1 Atomic number:    6 Label: C-gga

Ground state valence configuration:   2s02  2p02
Reading pseudopotential information in formatted form from C-gga.psf

Valence configuration for pseudopotential generation:
2s( 2.00) rc: 1.56
2p( 2.00) rc: 1.56
3d( 0.00) rc: 1.56
4f( 0.00) rc: 1.56
relmxkb: Read Max KB Ang. Momentum=    2 for species C-gga

<basis_specs>
===============================================================================
C-gga                Z=   6    Mass=  12.010        Charge= 0.17977+309
Lmxo=1 Lmxkb= 2    BasisType=split      Semic=F
L=0  Nsemic=0  Cnfigmx=2
          i=1  nzeta=2  polorb=0  (2s)
            splnorm:   0.15000    
               vcte:    0.0000    
               rinn:    0.0000    
               qcoe:    0.0000    
               qyuk:    0.0000    
               qwid:   0.10000E-01
                rcs:    0.0000      0.0000    
            lambdas:    1.0000      1.0000    
L=1  Nsemic=0  Cnfigmx=2
          i=1  nzeta=2  polorb=1  (2p)
            splnorm:   0.15000    
               vcte:    0.0000    
               rinn:    0.0000    
               qcoe:    0.0000    
               qyuk:    0.0000    
               qwid:   0.10000E-01
                rcs:    0.0000      0.0000    
            lambdas:    1.0000      1.0000    
-------------------------------------------------------------------------------
L=0  Nkbl=1  erefs: 0.17977+309
L=1  Nkbl=1  erefs: 0.17977+309
L=2  Nkbl=1  erefs: 0.17977+309
===============================================================================
</basis_specs>

atom: Called for C-gga                 (Z =   6)

read_vps: Pseudopotential generation method:
read_vps: ATM 3.2.2 Troullier-Martins                       
Valence charge for ps generation:    4.00000

xc_check: Exchange-correlation functional:
xc_check: GGA Perdew, Burke & Ernzerhof 1996
V l=0 = -2*Zval/r beyond r=  1.5227
V l=1 = -2*Zval/r beyond r=  1.5227
V l=2 = -2*Zval/r beyond r=  1.5227
All V_l potentials equal beyond r=  1.4851
This should be close to max(r_c) in ps generation
All pots = -2*Zval/r beyond r=  1.5227

VLOCAL1: 99.0% of the norm of Vloc inside     19.682 Ry
VLOCAL1: 99.9% of the norm of Vloc inside     44.856 Ry
atom: Maximum radius for 4*pi*r*r*local-pseudopot. charge    1.79142
atom: Maximum radius for r*vlocal+2*Zval:    1.54183
GHOST: No ghost state for L =  0
GHOST: No ghost state for L =  1
GHOST: No ghost state for L =  2

KBgen: Kleinman-Bylander projectors: 
   l= 0   rc=  1.661951   el= -1.010689   Ekb=  5.289847   kbcos=  0.316429
   l= 1   rc=  1.661951   el= -0.388490   Ekb= -4.102504   kbcos= -0.351025
   l= 2   rc=  1.747182   el=  0.001971   Ekb= -1.006005   kbcos= -0.008530

KBgen: Total number of Kleinman-Bylander projectors:    9
atom: -------------------------------------------------------------------------

atom: SANKEY-TYPE ORBITALS:
atom: Selected multiple-zeta basis: split     

SPLIT: Orbitals with angular momentum L= 0

SPLIT: Basis orbitals for state 2s

SPLIT: PAO cut-off radius determined from an
SPLIT: energy shift=  0.000735 Ry

   izeta = 1
                 lambda =    1.000000
                     rc =    5.948690
                 energy =   -1.010099
                kinetic =    0.827121
    potential(screened) =   -1.837220
       potential(ionic) =   -5.392783

   izeta = 2
                 rmatch =    3.518811
              splitnorm =    0.150000
                 energy =   -0.877891
                kinetic =    1.289227
    potential(screened) =   -2.167118
       potential(ionic) =   -5.982073

SPLIT: Orbitals with angular momentum L= 1

SPLIT: Basis orbitals for state 2p

SPLIT: PAO cut-off radius determined from an
SPLIT: energy shift=  0.000735 Ry

   izeta = 1
                 lambda =    1.000000
                     rc =    7.638387
                 energy =   -0.387843
                kinetic =    2.314739
    potential(screened) =   -2.702582
       potential(ionic) =   -6.092371

   izeta = 2
                 rmatch =    3.840617
              splitnorm =    0.150000
                 energy =   -0.270479
                kinetic =    3.438347
    potential(screened) =   -3.708826
       potential(ionic) =   -7.497707

POLgen: Perturbative polarization orbital with L=  2

POLgen: Polarization orbital for state 2p

   izeta = 1
                     rc =    7.638387
                 energy =    0.921402
                kinetic =    1.955040
    potential(screened) =   -1.033637
       potential(ionic) =   -3.679558
atom: Total number of Sankey-type orbitals: 13

atm_pop: Valence configuration (for local Pseudopot. screening):
 2s( 2.00)                                                            
 2p( 2.00)                                                            
Vna: chval, zval:    4.00000   4.00000

Vna:  Cut-off radius for the neutral-atom potential:   7.638387

atom: _________________________________________________________________________

prinput: Basis input ----------------------------------------------------------

PAO.BasisType split     

%block ChemicalSpeciesLabel
    1    6 C-gga                   # Species index, atomic number, species label
%endblock ChemicalSpeciesLabel

%block PAO.Basis                 # Define Basis set
C-gga                 2                    # Species label, number of l-shells
 n=2   0   2                         # n, l, Nzeta 
   5.949      3.519   
   1.000      1.000   
 n=2   1   2 P   1                   # n, l, Nzeta, Polarization, NzetaPol
   7.638      3.841   
   1.000      1.000   
%endblock PAO.Basis

prinput: ----------------------------------------------------------------------

coor:   Atomic-coordinates input format  =     Cartesian coordinates
coor:                                          (in Angstroms)

siesta: Atomic coordinates (Bohr) and species
siesta:      0.00000   0.00000   1.96570  1        1
siesta:      0.00000   0.00000   5.89711  1        2
siesta:     -2.32814   4.03246   1.96570  1        3
siesta:     -4.65629   8.06493   5.89711  1        4
siesta:      4.65629   8.06493   1.96570  1        5
siesta:      2.32814   4.03246   5.89711  1        6
siesta:      4.65629   0.00000   1.96570  1        7
siesta:      9.31257   0.00000   5.89711  1        8
siesta:      4.65629   0.00000   5.89711  1        9
siesta:      9.31257   0.00000   1.96570  1       10
siesta:      4.65629   8.06493   5.89711  1       11
siesta:      2.32814   4.03246   1.96570  1       12
siesta:     -2.32814   4.03246   5.89711  1       13
siesta:     -4.65629   8.06493   1.96570  1       14
siesta:      0.00000   8.06493   1.96570  1       15
siesta:      6.98443   4.03246   5.89711  1       16
siesta:      6.98443   4.03246   1.96570  1       17
siesta:      0.00000   8.06493   5.89711  1       18
siesta:      0.00000   2.68831   1.96570  1       19
siesta:      6.98443   9.40908   5.89711  1       20
siesta:      4.65629  10.75324   1.96570  1       21
siesta:      2.32814   1.34415   5.89711  1       22
siesta:     -4.65629  10.75324   1.96570  1       23
siesta:     11.64072   1.34415   5.89711  1       24
siesta:     -2.32814   6.72077   1.96570  1       25
siesta:      9.31257   5.37662   5.89711  1       26
siesta:      2.32815   6.72077   1.96570  1       27
siesta:      4.65628   5.37662   5.89711  1       28
siesta:     -0.00000  10.75324   1.96570  1       29
siesta:      6.98443   1.34415   5.89711  1       30
siesta:      4.65629   2.68831   1.96570  1       31
siesta:      2.32814   9.40908   5.89711  1       32
siesta:      9.31258   2.68831   1.96570  1       33
siesta:     -2.32815   9.40908   5.89711  1       34
siesta:      6.98443   6.72077   1.96570  1       35
siesta:      0.00000   5.37662   5.89711  1       36

siesta: System type = bulk      

initatomlists: Number of atoms, orbitals, and projectors:     36   468   324

siesta: ******************** Simulation parameters ****************************
siesta:
siesta: The following are some of the parameters of the simulation.
siesta: A complete list of the parameters used, including default values,
siesta: can be found in file out.fdf
siesta:
redata: Spin configuration                          = none
redata: Number of spin components                   = 1
redata: Time-Reversal Symmetry                      = T
redata: Spin spiral                                 = F
redata: Long output                                 =   F
redata: Number of Atomic Species                    =        1
redata: Charge density info will appear in .RHO file
redata: Write Mulliken Pop.                         = NO
redata: Matel table size (NRTAB)                    =     1024
redata: Mesh Cutoff                                 =   300.0000 Ry
redata: Net charge of the system                    =     0.0000 |e|
redata: Min. number of SCF Iter                     =        0
redata: Max. number of SCF Iter                     =     1000
redata: SCF convergence failure will abort job
redata: SCF mix quantity                            = Hamiltonian
redata: Mix DM or H after convergence               =   F
redata: Recompute H after scf cycle                 =   F
redata: Mix DM in first SCF step                    =   T
redata: Write Pulay info on disk                    =   F
redata: New DM Occupancy tolerance                  = 0.000000000001
redata: No kicks to SCF
redata: DM Mixing Weight for Kicks                  =     0.5000
redata: Require Harris convergence for SCF          =   F
redata: Harris energy tolerance for SCF             =     0.000100 eV
redata: Require DM convergence for SCF              =   T
redata: DM tolerance for SCF                        =     0.001000
redata: Require EDM convergence for SCF             =   F
redata: EDM tolerance for SCF                       =     0.005000 eV
redata: Require H convergence for SCF               =   T
redata: Hamiltonian tolerance for SCF               =     0.001000 eV
redata: Require (free) Energy convergence for SCF   =   T
redata: (free) Energy tolerance for SCF             =     0.001000 eV
redata: Using Saved Data (generic)                  =   F
redata: Use continuation files for DM               =   F
redata: Neglect nonoverlap interactions             =   F
redata: Method of Calculation                       = Diagonalization
redata: Electronic Temperature                      =   299.9869 K
redata: Fix the spin of the system                  =   F
redata: Dynamics option                             = Single-point calculation
mix.SCF: Pulay mixing                            = Pulay
mix.SCF:    Variant                              = stable
mix.SCF:    History steps                        = 4
mix.SCF:    Linear mixing weight                 =     0.250000
mix.SCF:    Mixing weight                        =     0.250000
mix.SCF:    SVD condition                        = 0.1000E-07
redata: ***********************************************************************

%block SCF.Mixers
  Pulay
%endblock SCF.Mixers

%block SCF.Mixer.Pulay
  # Mixing method
  method pulay
  variant stable

  # Mixing options
  weight 0.2500
  weight.linear 0.2500
  history 4
%endblock SCF.Mixer.Pulay

DM_history_depth set to one: no extrapolation allowed by default for geometry relaxation
Size of DM history Fstack: 1
Total number of electrons:   144.000000
Total ionic charge:   144.000000

* ProcessorY, Blocksize:    4   1


* Orbital distribution balance (max,min):    24    23

k-point displ. along   1 input, could be:     0.00    0.50
k-point displ. along   2 input, could be:     0.00    0.50
k-point displ. along   3 input, could be:     0.00    0.50
 Kpoints in:           48 . Kpoints trimmed:           44

siesta: k-grid: Number of k-points =    44
siesta: k-grid: Cutoff (effective) =     8.322 Ang
siesta: k-grid: Supercell and displacements
siesta: k-grid:    4   0   0      0.000
siesta: k-grid:    0   4   0      0.000
siesta: k-grid:    0   0   4      0.000

diag: Algorithm                                     = Expert
diag: Parallel over k                               =   T
diag: Use parallel 2D distribution                  =   T
diag: Parallel block-size                           = 1
diag: Parallel distribution                         =     4 x     5
diag: Used triangular part                          = Lower
diag: Absolute tolerance                            =  0.100E-15
diag: Orthogonalization factor                      =  0.100E-05
diag: Memory factor                                 =  1.0000

superc: Internal auxiliary supercell:     5 x     5 x     5  =     125
superc: Number of atoms, orbitals, and projectors:   4500  58500  40500


ts: **************************************************************
ts: Save H and S matrices                           =    F
ts: Save DM and EDM matrices                        =    F
ts: Only save the overlap matrix S                  =    F
ts: **************************************************************

************************ Begin: TS CHECKS AND WARNINGS ************************
************************ End: TS CHECKS AND WARNINGS **************************


                     ====================================
                        Single-point calculation
                     ====================================

outcoor: Atomic coordinates (Ang):                          
    0.00000000    0.00000000    1.04020500   1       1  C-gga
    0.00000000    0.00000000    3.12061500   1       2  C-gga
   -1.23200000    2.13388659    1.04020500   1       3  C-gga
   -2.46400000    4.26777319    3.12061500   1       4  C-gga
    2.46400000    4.26777319    1.04020500   1       5  C-gga
    1.23200000    2.13388659    3.12061500   1       6  C-gga
    2.46400000    0.00000000    1.04020500   1       7  C-gga
    4.92800000    0.00000000    3.12061500   1       8  C-gga
    2.46400000    0.00000000    3.12061500   1       9  C-gga
    4.92800000    0.00000000    1.04020500   1      10  C-gga
    2.46400000    4.26777319    3.12061500   1      11  C-gga
    1.23200000    2.13388659    1.04020500   1      12  C-gga
   -1.23200000    2.13388659    3.12061500   1      13  C-gga
   -2.46400000    4.26777319    1.04020500   1      14  C-gga
    0.00000000    4.26777319    1.04020500   1      15  C-gga
    3.69600000    2.13388659    3.12061500   1      16  C-gga
    3.69600000    2.13388659    1.04020500   1      17  C-gga
    0.00000000    4.26777319    3.12061500   1      18  C-gga
    0.00000000    1.42258964    1.04020500   1      19  C-gga
    3.69600000    4.97907014    3.12061500   1      20  C-gga
    2.46400123    5.69036496    1.04020500   1      21  C-gga
    1.23199877    0.71129482    3.12061500   1      22  C-gga
   -2.46400123    5.69036496    1.04020500   1      23  C-gga
    6.16000123    0.71129482    3.12061500   1      24  C-gga
   -1.23200000    3.55647624    1.04020500   1      25  C-gga
    4.92800000    2.84518355    3.12061500   1      26  C-gga
    1.23200123    3.55647837    1.04020500   1      27  C-gga
    2.46399877    2.84518142    3.12061500   1      28  C-gga
   -0.00000123    5.69036496    1.04020500   1      29  C-gga
    3.69600123    0.71129482    3.12061500   1      30  C-gga
    2.46400000    1.42258964    1.04020500   1      31  C-gga
    1.23200000    4.97907014    3.12061500   1      32  C-gga
    4.92800123    1.42259177    1.04020500   1      33  C-gga
   -1.23200123    4.97906801    3.12061500   1      34  C-gga
    3.69599877    3.55647837    1.04020500   1      35  C-gga
    0.00000123    2.84518142    3.12061500   1      36  C-gga

superc: Internal auxiliary supercell:     5 x     5 x     5  =     125
superc: Number of atoms, orbitals, and projectors:   4500  58500  40500

outcell: Unit cell vectors (Ang):
        7.392000    0.000000    0.000000
       -3.696000    6.401660    0.000000
        0.000000    0.000000    4.160820

outcell: Cell vector modules (Ang)   :    7.392000    7.392000    4.160820
outcell: Cell angles (23,13,12) (deg):     90.0000     90.0000    120.0000
outcell: Cell volume (Ang**3)        :    196.8945
<dSpData1D:S at geom step 0
  <sparsity:sparsity for geom step 0
    nrows_g=468 nrows=24 sparsity=.6051 nnzs=132532, refcount: 7>
  <dData1D:(new from dSpData1D) n=132532, refcount: 1>
refcount: 1>
new_DM -- step:     1
Initializing Density Matrix...
DM filled with atomic data:
<dSpData2D:DM initialized from atoms
  <sparsity:sparsity for geom step 0
    nrows_g=468 nrows=24 sparsity=.6051 nnzs=132532, refcount: 8>
  <dData2D:DM n=132532 m=1, refcount: 1>
refcount: 1>
No. of atoms with KB's overlaping orbs in proc 0. Max # of overlaps:     345     934
New grid distribution:   1
           1       1:   36    1:    9    1:    5
           2       1:   36    1:    9    6:   10
           3       1:   36    1:    9   11:   15
           4       1:   36    1:    9   16:   20
           5       1:   36    1:    9   21:   24
           6       1:   36   10:   18    1:    5
           7       1:   36   10:   18    6:   10
           8       1:   36   10:   18   11:   15
           9       1:   36   10:   18   16:   20
          10       1:   36   10:   18   21:   24
          11       1:   36   19:   27    1:    5
          12       1:   36   19:   27    6:   10
          13       1:   36   19:   27   11:   15
          14       1:   36   19:   27   16:   20
          15       1:   36   19:   27   21:   24
          16       1:   36   28:   36    1:    5
          17       1:   36   28:   36    6:   10
          18       1:   36   28:   36   11:   15
          19       1:   36   28:   36   16:   20
          20       1:   36   28:   36   21:   24

InitMesh: MESH =    72 x    72 x    48 =      248832
InitMesh: (bp) =    36 x    36 x    24 =       31104
InitMesh: Mesh cutoff (required, used) =   300.000   349.608 Ry
ExtMesh (bp) on 0 =   128 x   101 x   101 =     1305728
New grid distribution:   2
           1      19:   36    1:    9    1:   10
           2       1:   18    1:    9    1:   10
           3      19:   36   19:   24   11:   24
           4      10:   18    7:   18   11:   24
           5      19:   36    1:    6   11:   24
           6      19:   36   10:   18    1:   10
           7       1:   18   10:   18    1:   10
           8      19:   27    7:   18   11:   24
           9      10:   18   25:   36   11:   24
          10      28:   36    7:   18   11:   24
          11       1:   18   19:   27    1:   10
          12       1:   18    1:    6   11:   24
          13      19:   36   19:   27    1:   10
          14      28:   36   25:   36   11:   24
          15       1:   18   19:   24   11:   24
          16       1:   18   28:   36    1:   10
          17      19:   36   28:   36    1:   10
          18       1:    9   25:   36   11:   24
          19      19:   27   25:   36   11:   24
          20       1:    9    7:   18   11:   24
New grid distribution:   3
           1      19:   36    1:    9    1:   10
           2       1:   18    1:    9    1:   10
           3      19:   36   19:   24   11:   24
           4      10:   18    7:   18   11:   24
           5      19:   36    1:    6   11:   24
           6      19:   36   10:   18    1:   10
           7       1:   18   10:   18    1:   10
           8      19:   27    7:   18   11:   24
           9      10:   18   25:   36   11:   24
          10      28:   36    7:   18   11:   24
          11       1:   18   19:   27    1:   10
          12       1:   18    1:    6   11:   24
          13      19:   36   19:   27    1:   10
          14      28:   36   25:   36   11:   24
          15       1:   18   19:   24   11:   24
          16       1:   18   28:   36    1:   10
          17      19:   36   28:   36    1:   10
          18       1:    9   25:   36   11:   24
          19      19:   27   25:   36   11:   24
          20       1:    9    7:   18   11:   24
Setting up quadratic distribution...
ExtMesh (bp) on 0 =   110 x   101 x   106 =     1177660
PhiOnMesh: Number of (b)points on node 0 =                 1620
PhiOnMesh: nlist on node 0 =               777916

stepf: Fermi-Dirac step function

siesta: Program's energy decomposition (eV):
siesta: Ebs     =     -2456.111112
siesta: Eions   =      9434.507561
siesta: Ena     =      2157.804338
siesta: Ekin    =      4170.868987
siesta: Enl     =      -424.193545
siesta: Eso     =         0.000000
siesta: Edftu   =         0.000000
siesta: DEna    =      -268.328364
siesta: DUscf   =        24.573674
siesta: DUext   =         0.000000
siesta: Exc     =     -1768.700020
siesta: eta*DQ  =         0.000000
siesta: Emadel  =         0.000000
siesta: Emeta   =         0.000000
siesta: Emolmec =        -7.360980
siesta: Ekinion =         0.000000
siesta: Eharris =     -5311.063798
siesta: Etot    =     -5549.843471
siesta: FreeEng =     -5549.862593

        iscf     Eharris(eV)        E_KS(eV)     FreeEng(eV)     dDmax    Ef(eV) dHmax(eV)
   scf:    1    -5311.063798    -5549.843471    -5549.862593  1.530352 -7.961250  1.814660
timer: Routine,Calls,Time,% = IterSCF        1      21.900  76.64
   scf:    2    -5552.182707    -5551.040170    -5551.059533  0.136897 -7.722593  1.220559
   scf:    3    -5553.017418    -5552.131967    -5552.151121  0.255067 -7.190966  0.069997
   scf:    4    -5552.145788    -5552.141330    -5552.160571  0.008374 -7.196735  0.007496
   scf:    5    -5552.141214    -5552.141359    -5552.160627  0.004170 -7.197922  0.011246
   scf:    6    -5552.141487    -5552.141459    -5552.160724  0.001180 -7.197808  0.006511
   scf:    7    -5552.141465    -5552.141465    -5552.160738  0.001452 -7.197948  0.001013
   scf:    8    -5552.141465    -5552.141465    -5552.160739  0.000090 -7.198133  0.000650

SCF Convergence by FreeE+DM+H criterion
|FreeE_i-FreeE_(i-1)| (eV) <     0.00100000
max |DM_out - DM_in|         :     0.0000900849
max |H_out - H_in|      (eV) :     0.0006495662
SCF cycle converged after 8 iterations

Using DM_out to compute the final energy and forces
No. of atoms with KB's overlaping orbs in proc 0. Max # of overlaps:     345     934

MM-Stress (kbar):       56.10       56.10       53.10        0.00        0.00        0.00

siesta: E_KS(eV) =            -5552.1415

siesta: E_KS - E_eggbox =     -5552.1415

siesta: Atomic forces (eV/Ang):
     1   -0.000106    0.000061   -0.000000
     2    0.000106   -0.000061   -0.000000
     3   -0.000072    0.000043   -0.000000
     4    0.000071   -0.000043   -0.000000
     5   -0.000107    0.000100   -0.000000
     6    0.000107   -0.000100   -0.000000
     7   -0.000139    0.000041   -0.000000
     8    0.000139   -0.000041   -0.000000
     9    0.000111   -0.000079   -0.000000
    10   -0.000111    0.000079   -0.000000
    11    0.000088   -0.000057   -0.000000
    12   -0.000088    0.000057   -0.000000
    13    0.000119   -0.000048   -0.000000
    14   -0.000119    0.000048   -0.000000
    15   -0.000106    0.000061   -0.000000
    16    0.000106   -0.000061   -0.000000
    17   -0.000106    0.000062   -0.000000
    18    0.000106   -0.000061   -0.000000
    19    0.000117    0.000054    0.000000
    20   -0.000117   -0.000053    0.000000
    21    0.000001   -0.000109    0.000000
    22   -0.000001    0.000109    0.000000
    23    0.000200   -0.000128    0.000000
    24   -0.000200    0.000128    0.000000
    25    0.000119    0.000025    0.000000
    26   -0.000119   -0.000026    0.000000
    27    0.000024   -0.000094    0.000000
    28   -0.000025    0.000093    0.000000
    29    0.000174   -0.000115    0.000000
    30   -0.000174    0.000116    0.000000
    31    0.000122    0.000032    0.000000
    32   -0.000122   -0.000032    0.000000
    33    0.000017   -0.000094    0.000000
    34   -0.000017    0.000094    0.000000
    35    0.000179   -0.000122    0.000000
    36   -0.000179    0.000121    0.000000
----------------------------------------
   Tot   -0.000000    0.000000    0.000000
----------------------------------------
   Max    0.000200
   Res    0.000082    sqrt( Sum f_i^2 / 3N )
----------------------------------------
   Max    0.000200    constrained

Stress tensor Voigt[x,y,z,yz,xz,xy] (kbar):     -126.11     -126.30    -1483.03        0.00        0.00       -0.17
(Free)E + p*V (eV/cell)    -5481.0711
Target enthalpy (eV/cell)    -5552.1607

siesta: Eigenvalues (eV):
  ik is       eps
   1  1  -29.4913  -28.7947  -28.7947  -26.7407  -26.7407  -25.4132  -24.7943  -24.7943  -24.7552  -24.1663
         -24.1663  -23.8677  -22.9439  -22.6706  -22.6706  -22.4557  -22.4557  -21.4119  -20.6268  -20.6267
  -20.0572  -19.6691  -19.6571  -19.4830  -19.0486  -19.0486  -19.0319  -19.0319  -18.9990  -18.6761
  -18.6761  -17.5277  -17.3554  -17.3554  -16.5414  -16.3448  -16.3448  -16.1383  -16.1383  -15.9926
  -15.7209  -15.7209  -15.7044  -15.7044  -15.1620  -14.9073  -14.5572  -14.5572  -14.4523  -14.4523
  -14.4376  -14.4376  -14.0338  -14.0338  -13.7309  -13.7158  -13.2903  -13.2903  -13.1947  -12.4632
  -12.4632  -11.9885  -11.6643  -10.6323  -10.6323  -10.6294   -8.0269   -7.5202   -7.3291   -7.3290
   -7.2823   -7.1735   -7.1735   -5.8824   -5.8824   -5.7773   -4.3780   -4.3780   -2.5644   -2.5644
   -2.3988   -2.3988   -1.5542   -1.5299   -1.5299   -1.3086   -0.8782   -0.8782   -0.6665   -0.6665
   -0.6598   -0.4245   -0.3538    0.1712    0.1712    0.3002    1.4265    1.4265    1.8643    2.1561
    2.1561    2.5447    2.5796    2.6900    2.7844    2.7844    2.8620    2.8620    3.0712    3.0712
    3.6771    3.9841    4.4243    4.4244    4.5286    4.6357    4.6357    5.9753    5.9753    6.5456
    6.8095    6.9998    6.9998    7.1577    7.3799    8.0638    8.2072    8.2072    8.4617    8.4617
    8.9344    9.3484    9.3484    9.3535    9.3535    9.6374    9.8124    9.8736    9.8736   10.2546
   10.3465   10.3465   11.1762   11.1762   11.4367   11.4367   11.9237   11.9237   11.9368   12.2437
   12.2437   12.5271   12.9317   12.9374   12.9374   13.3705   13.8946   13.8946   13.9944   13.9944
   14.1316   14.3961   14.3961   14.7576   15.0472   15.0472   15.7570   15.8091   15.8617   16.1589
   16.1589   16.2993   16.9543   17.1173   17.1174   17.6397   18.0654   18.0654   18.2779   18.2779
   18.6078   18.6078   20.6899   21.0279   21.0411   21.0737   21.0737   21.0867   21.0867   21.6620
   22.3097   22.4234   22.4234   22.4350   22.4350   22.9770   23.6086   23.6086   24.6241   25.5147
   26.2082   26.7000   26.7194   26.7194   27.5449   27.5449   28.4590   28.4590   29.3808   29.3808
   29.4245   29.5567   32.0394   32.0394   32.0747   32.0747   33.4470   33.4470   34.6074   34.6074
   34.9427   34.9427   34.9550   35.0276   35.0276   35.9003   35.9003   36.3740   36.6203   36.6203
   37.3525   37.3525   37.4274   37.7464   37.7464   38.3038   38.8922   39.0487   39.1403   39.1403
   39.8796   39.8796   39.9162   40.3302   40.8465   40.8465   40.8548   40.8548   40.8863   40.8863
   40.9599   41.2686   42.3303   42.3801   42.7065   42.7065   43.0069   43.0070   43.2671   43.2671
   43.4091   43.9072   44.1443   44.2223   44.2223   44.4477   44.4477   44.7643   44.9034   45.1660
   45.4816   45.4816   46.3389   46.4486   46.5359   46.5360   47.1831   47.1831   47.4808   49.5858
   49.5858   51.9492   52.7183   53.2717   53.2717   55.4614   56.2217   56.2218   56.4066   56.4822
   56.7173   56.7556   56.7556   57.1242   57.3911   57.3911   58.1582   58.1582   58.3547   58.3548
   58.3956   58.9846   58.9846   59.6041   59.7182   60.1390   60.1390   60.1415   60.1415   60.5358
   61.0261   61.0261   61.6560   61.6560   61.7391   61.7392   62.0788   62.8604   63.5578   63.5578
   63.7926   63.9353   64.2095   64.2095   64.9305   66.7594   66.7594   67.7046   67.7046   67.9498
   67.9498   68.1306   68.1453   68.1453   68.3398   69.1563   69.1563   69.1688   69.3917   69.4017
   69.6882   69.6882   69.7639   70.3256   70.3256   70.4921   70.4921   70.9894   71.2292   71.7228
   72.1752   72.2080   72.2080   73.1536   73.3905   73.8050   73.8051   75.5157   76.9287   76.9288
   77.0115   77.0115   77.6119   77.6120   78.5184   78.5185   79.1481   79.1483   80.8298   81.5951
   81.5951   82.0219   82.0712   82.0713   82.0757   82.4804   85.6603   86.0897   88.2469   88.2470
   89.3609   89.3610   90.2586   90.2586   91.3246   91.3246   93.3985   93.3986   95.7566   95.7566
   96.8575   96.8577   97.1930   98.7611   98.7613   98.7914   98.7915   99.1225  100.6779  100.6828
  100.6829  100.9254  100.9255  101.6182  101.6183  101.8612  102.1090  104.2139  106.2075  106.2075
  106.4363  106.4364  107.2136  107.6405  108.3384  111.0733  111.0734  112.3273  112.3275  113.7449
  114.4168  114.4169  115.6192  115.6196  116.6849  117.1990  118.1231  118.1238  119.9901  122.2477
  124.0233  124.0237  126.0437  128.5469  128.6436  128.6480  128.6482  129.5427  129.5443  129.6871
  129.6873  131.1811  131.7145  132.8658  132.9642  132.9643  134.0556  140.3620  140.3648  141.2688
  141.2693  143.6721  143.6726  145.2746  145.2754  147.4567  148.0597  148.5535  149.1120  149.4657
  149.4667  151.5267  171.3664  171.3666  177.0056  177.4352  177.4354  181.6938
   2  1  -29.8404  -28.4478  -27.7595  -27.7595  -26.4043  -26.4042  -25.7427  -25.0522  -23.8737  -23.8617
         -23.8617  -23.2974  -23.2974  -22.2002  -22.2001  -21.9989  -21.7972  -21.7971  -21.2076  -20.3675
  -20.3675  -20.3616  -20.3615  -19.8908  -19.3807  -19.3807  -18.2781  -18.2068  -18.0597  -18.0596
  -17.8786  -17.8786  -17.4923  -17.4923  -17.2752  -17.2750  -16.8929  -16.5167  -16.5165  -15.9908
  -15.9908  -15.7471  -15.7468  -15.6475  -15.6474  -15.4075  -15.3194  -14.8159  -14.8159  -14.3932
  -14.1131  -13.7493  -13.7490  -13.4983  -13.4838  -13.4838  -13.2017  -13.2013  -12.5543  -12.4381
  -12.1777  -11.3615  -11.0941   -9.8686   -9.6369   -9.6369   -8.6918   -8.6918   -7.7338   -7.6033
   -7.6033   -7.1458   -7.1458   -7.1341   -4.8102   -4.8102   -4.4882   -4.4882   -4.1682   -3.3534
   -3.1241   -2.1187   -2.1186   -2.0343   -1.5828   -1.5826   -1.4374   -1.4374   -1.0481   -0.6861
   -0.6861   -0.5926    0.2018    0.4682    0.6049    0.6049    0.9372    1.5335    1.7455    1.8640
    2.1173    2.3474    2.3476    2.5115    2.5118    2.7448    2.7450    2.8604    4.2557    4.2557
    4.5632    4.6104    5.1775    5.1776    5.6014    5.9790    6.0067    6.3810    6.3811    6.6497
    6.6499    6.8715    6.8721    7.7631    7.7632    8.2566    8.2568    8.5834    8.7116    8.9860
    9.1665    9.1667    9.6744    9.6746    9.7058    9.8325    9.8325    9.8925   10.1872   10.1873
   10.1931   10.1933   10.3201   10.6245   10.6247   10.8750   10.8752   10.8818   10.9908   10.9908
   11.2458   11.5614   11.5614   12.2210   12.2210   13.0723   13.2264   13.2269   13.2550   13.2554
   13.8996   14.6933   14.6933   15.0183   15.3903   15.3903   15.9826   15.9827   16.1886   16.3812
   16.3813   16.8876   17.3114   17.6015   17.9423   18.2492   18.3662   18.3673   18.9883   18.9898
   18.9903   19.0550   19.0550   20.1537   20.1537   20.2370   20.2370   20.3370   21.9789   22.3729
   22.9507   22.9507   23.1341   23.1345   23.6417   23.6418   23.6969   23.6972   24.0200   24.1039
   24.9062   24.9063   26.1107   26.1485   26.5411   28.2557   28.2559   29.5474   29.5475   30.6916
   30.7097   30.7099   31.0320   31.3361   32.1218   32.1219   32.3734   32.3735   32.4388   32.6765
   32.6766   33.3752   33.7705   36.3983   36.6239   36.6240   36.6575   36.6583   37.8510   37.8510
   37.9124   37.9132   38.3135   38.4549   38.4558   38.6086   38.6086   39.0936   39.0936   39.6352
   39.8193   39.8197   39.8289   39.8420   40.1411   40.4372   41.8425   41.8953   41.8954   41.9851
   42.1285   42.4414   42.4418   42.9577   43.1693   43.3099   43.3099   43.3541   44.0082   44.0085
   44.4392   44.6196   44.6196   45.0156   45.0163   45.1825   45.8689   45.8690   46.0952   46.0956
   46.3564   46.3565   46.9999   47.0000   47.1235   47.2167   49.5977   49.5980   49.9929   50.6307
   52.4074   52.4076   53.5851   54.5840   54.7699   55.4635   55.4990   55.4991   55.9077   55.9082
   56.1125   56.4852   56.4853   57.4391   57.7761   57.7762   57.9721   57.9732   58.3147   58.4776
   58.6544   58.8335   58.8336   58.9719   58.9721   59.0990   59.3391   59.3394   59.7439   59.7511
   60.8330   60.8333   61.8166   61.8173   62.3233   62.3236   63.0135   63.0138   63.2266   63.6811
   63.8978   64.2767   64.2769   64.4786   64.9098   64.9117   65.3284   65.3286   65.5366   65.5374
   65.7312   66.2448   66.5434   67.8508   67.8509   67.9695   68.1026   68.1030   68.3721   68.3721
   68.5275   68.5285   68.7217   68.7236   68.7238   68.9380   68.9390   69.1584   69.2059   69.2060
   69.3692   69.9460   70.8475   73.1163   73.1165   74.3101   74.3309   74.7405   74.7407   74.7713
   75.3413   75.3415   76.4298   76.9424   76.9425   80.0189   80.3344   80.3363   81.7047   81.7048
   82.0538   83.0821   87.2239   87.2247   87.8011   87.8026   87.8521   87.8523   88.6525   89.6466
   90.3001   90.7831   91.6564   92.1326   92.1334   93.9982   93.9984   94.0332   94.0361   94.4725
   94.8968   94.8971   95.6309   95.8421   96.4121   96.4139   97.5940   98.2018   98.2021   98.5910
   99.4352   99.4355   99.8387   99.8397  102.5969  103.1042  103.1049  104.4947  104.7434  104.7437
  105.4005  105.4017  106.1079  106.1081  107.4321  108.7807  108.7812  110.7570  111.7632  114.8640
  115.1447  115.1460  115.7976  116.4978  118.2028  118.2044  119.6062  119.6085  119.8054  119.8070
  124.7970  124.7989  126.9662  127.1316  127.1323  129.7481  129.7484  130.2665  131.9174  133.8037
  133.8060  134.8609  134.8645  135.2543  135.5623  135.5638  138.5136  138.6684  138.6696  140.3055
  143.2790  143.2804  146.2043  146.8815  148.0069  148.1093  148.1115  150.5801  150.5817  151.1802
  155.5189  155.5199  163.8624  163.8626  165.0341  174.6596  174.6601  181.1791
   3  1  -29.8404  -28.4478  -27.7595  -27.7595  -26.4043  -26.4043  -25.7426  -25.0522  -23.8737  -23.8617
         -23.8617  -23.2975  -23.2975  -22.2002  -22.2002  -21.9988  -21.7972  -21.7972  -21.2074  -20.3675
  -20.3675  -20.3616  -20.3616  -19.8908  -19.3806  -19.3806  -18.2782  -18.2066  -18.0597  -18.0597
  -17.8787  -17.8787  -17.4923  -17.4923  -17.2752  -17.2752  -16.8927  -16.5165  -16.5165  -15.9908
  -15.9908  -15.7468  -15.7468  -15.6476  -15.6476  -15.4079  -15.3194  -14.8157  -14.8157  -14.3929
  -14.1135  -13.7489  -13.7489  -13.4986  -13.4838  -13.4838  -13.2013  -13.2013  -12.5540  -12.4385
  -12.1781  -11.3610  -11.0946   -9.8686   -9.6369   -9.6369   -8.6918   -8.6918   -7.7338   -7.6033
   -7.6033   -7.1458   -7.1458   -7.1341   -4.8102   -4.8102   -4.4882   -4.4882   -4.1682   -3.3534
   -3.1239   -2.1187   -2.1187   -2.0340   -1.5827   -1.5827   -1.4374   -1.4374   -1.0481   -0.6861
   -0.6861   -0.5922    0.2013    0.4682    0.6049    0.6049    0.9377    1.5329    1.7455    1.8644
    2.1175    2.3475    2.3475    2.5115    2.5115    2.7447    2.7447    2.8605    4.2560    4.2560
    4.5626    4.6104    5.1773    5.1773    5.6018    5.9791    6.0060    6.3808    6.3808    6.6497
    6.6497    6.8721    6.8721    7.7634    7.7634    8.2565    8.2565    8.5840    8.7116    8.9864
    9.1669    9.1669    9.6745    9.6745    9.7059    9.8325    9.8325    9.8930   10.1871   10.1871
   10.1932   10.1932   10.3192   10.6248   10.6248   10.8748   10.8748   10.8818   10.9908   10.9908
   11.2448   11.5614   11.5614   12.2211   12.2211   13.0722   13.2266   13.2266   13.2555   13.2555
   13.9004   14.6933   14.6933   15.0183   15.3903   15.3903   15.9825   15.9825   16.1886   16.3813
   16.3813   16.8877   17.3113   17.6015   17.9424   18.2501   18.3665   18.3665   18.9891   18.9894
   18.9894   19.0550   19.0550   20.1537   20.1537   20.2370   20.2370   20.3370   21.9789   22.3730
   22.9507   22.9507   23.1344   23.1344   23.6417   23.6417   23.6966   23.6966   24.0206   24.1044
   24.9062   24.9062   26.1106   26.1482   26.5412   28.2554   28.2554   29.5476   29.5476   30.6921
   30.7102   30.7102   31.0319   31.3359   32.1218   32.1218   32.3735   32.3735   32.4382   32.6766
   32.6766   33.3741   33.7707   36.3984   36.6240   36.6240   36.6580   36.6580   37.8510   37.8510
   37.9133   37.9133   38.3122   38.4555   38.4555   38.6085   38.6085   39.0935   39.0935   39.6340
   39.8198   39.8198   39.8289   39.8426   40.1413   40.4372   41.8440   41.8953   41.8953   41.9853
   42.1268   42.4419   42.4419   42.9562   43.1706   43.3099   43.3099   43.3530   44.0084   44.0085
   44.4389   44.6196   44.6196   45.0160   45.0160   45.1834   45.8688   45.8688   46.0955   46.0956
   46.3562   46.3562   46.9999   46.9999   47.1233   47.2170   49.5979   49.5979   49.9930   50.6309
   52.4076   52.4076   53.5853   54.5844   54.7704   55.4632   55.4990   55.4990   55.9083   55.9083
   56.1129   56.4853   56.4853   57.4383   57.7753   57.7753   57.9725   57.9725   58.3133   58.4787
   58.6544   58.8329   58.8329   58.9722   58.9722   59.0992   59.3396   59.3397   59.7445   59.7508
   60.8340   60.8340   61.8170   61.8170   62.3235   62.3235   63.0136   63.0136   63.2279   63.6808
   63.8960   64.2765   64.2766   64.4788   64.9113   64.9114   65.3287   65.3287   65.5362   65.5363
   65.7313   66.2464   66.5406   67.8510   67.8510   67.9665   68.1033   68.1033   68.3723   68.3723
   68.5277   68.5277   68.7235   68.7235   68.7246   68.9396   68.9397   69.1580   69.2058   69.2058
   69.3704   69.9438   70.8478   73.1163   73.1163   74.3082   74.3321   74.7405   74.7405   74.7686
   75.3414   75.3414   76.4299   76.9423   76.9423   80.0201   80.3354   80.3356   81.7045   81.7048
   82.0563   83.0829   87.2259   87.2260   87.7999   87.8002   87.8522   87.8522   88.6545   89.6445
   90.2984   90.7846   91.6566   92.1310   92.1311   93.9981   93.9982   94.0335   94.0336   94.4750
   94.8974   94.8976   95.6319   95.8443   96.4132   96.4133   97.5942   98.2018   98.2018   98.5913
   99.4353   99.4354   99.8383   99.8384  102.5975  103.1045  103.1046  104.4951  104.7432  104.7433
  105.4011  105.4012  106.1077  106.1077  107.4328  108.7809  108.7809  110.7540  111.7632  114.8672
  115.1447  115.1448  115.7947  116.4936  118.2048  118.2051  119.6062  119.6071  119.8078  119.8083
  124.7975  124.7977  126.9676  127.1325  127.1328  129.7474  129.7477  130.2673  131.9121  133.8057
  133.8062  134.8657  134.8664  135.2550  135.5634  135.5643  138.5142  138.6683  138.6690  140.3011
  143.2812  143.2818  146.2008  146.8817  148.0082  148.1087  148.1095  150.5813  150.5821  151.1813
  155.5191  155.5196  163.8614  163.8618  165.0344  174.6572  174.6598  181.1795
   4  1  -29.4913  -28.7948  -28.7947  -26.7408  -26.7407  -25.4131  -24.7943  -24.7942  -24.7552  -24.1663
         -24.1663  -23.8677  -22.9439  -22.6706  -22.6705  -22.4557  -22.4557  -21.4118  -20.6267  -20.6266
  -20.0572  -19.6692  -19.6572  -19.4830  -19.0488  -19.0488  -19.0319  -19.0318  -18.9990  -18.6761
  -18.6761  -17.5275  -17.3553  -17.3552  -16.5414  -16.3448  -16.3448  -16.1386  -16.1383  -15.9927
  -15.7211  -15.7209  -15.7044  -15.7042  -15.1617  -14.9073  -14.5569  -14.5569  -14.4523  -14.4523
  -14.4378  -14.4377  -14.0341  -14.0338  -13.7309  -13.7156  -13.2901  -13.2901  -13.1948  -12.4635
  -12.4632  -11.9884  -11.6646  -10.6323  -10.6323  -10.6294   -8.0269   -7.5202   -7.3290   -7.3290
   -7.2823   -7.1735   -7.1735   -5.8824   -5.8824   -5.7773   -4.3780   -4.3780   -2.5644   -2.5644
   -2.3988   -2.3987   -1.5542   -1.5299   -1.5299   -1.3086   -0.8782   -0.8780   -0.6665   -0.6665
   -0.6598   -0.4243   -0.3538    0.1711    0.1712    0.3002    1.4264    1.4264    1.8643    2.1560
    2.1561    2.5445    2.5792    2.6899    2.7844    2.7846    2.8623    2.8623    3.0712    3.0713
    3.6771    3.9842    4.4238    4.4244    4.5285    4.6354    4.6356    5.9752    5.9753    6.5456
    6.8096    7.0002    7.0002    7.1576    7.3798    8.0636    8.2068    8.2073    8.4617    8.4619
    8.9344    9.3484    9.3484    9.3538    9.3539    9.6377    9.8124    9.8733    9.8735   10.2546
   10.3465   10.3465   11.1762   11.1762   11.4367   11.4369   11.9228   11.9233   11.9370   12.2432
   12.2441   12.5271   12.9317   12.9371   12.9373   13.3708   13.8946   13.8946   13.9944   13.9944
   14.1318   14.3961   14.3961   14.7579   15.0474   15.0479   15.7570   15.8087   15.8613   16.1589
   16.1589   16.2999   16.9543   17.1174   17.1182   17.6399   18.0645   18.0652   18.2779   18.2779
   18.6074   18.6081   20.6899   21.0278   21.0412   21.0737   21.0737   21.0867   21.0867   21.6620
   22.3097   22.4230   22.4233   22.4351   22.4352   22.9772   23.6082   23.6088   24.6242   25.5145
   26.2082   26.6999   26.7192   26.7194   27.5449   27.5450   28.4590   28.4591   29.3808   29.3810
   29.4245   29.5568   32.0392   32.0393   32.0746   32.0747   33.4470   33.4475   34.6074   34.6075
   34.9426   34.9428   34.9552   35.0277   35.0277   35.8998   35.9002   36.3740   36.6203   36.6203
   37.3524   37.3525   37.4267   37.7456   37.7462   38.3037   38.8923   39.0492   39.1398   39.1401
   39.8800   39.8802   39.9161   40.3305   40.8466   40.8467   40.8548   40.8549   40.8866   40.8871
   40.9602   41.2678   42.3307   42.3799   42.7065   42.7065   43.0067   43.0074   43.2668   43.2672
   43.4091   43.9068   44.1442   44.2222   44.2226   44.4478   44.4482   44.7640   44.9031   45.1658
   45.4812   45.4816   46.3388   46.4488   46.5358   46.5360   47.1830   47.1832   47.4808   49.5858
   49.5859   51.9494   52.7186   53.2717   53.2718   55.4614   56.2219   56.2219   56.4066   56.4818
   56.7175   56.7561   56.7563   57.1240   57.3904   57.3906   58.1583   58.1583   58.3538   58.3548
   58.3952   58.9844   58.9849   59.6046   59.7183   60.1390   60.1391   60.1412   60.1420   60.5356
   61.0259   61.0262   61.6561   61.6563   61.7382   61.7390   62.0797   62.8605   63.5575   63.5577
   63.7933   63.9356   64.2097   64.2103   64.9305   66.7588   66.7590   67.7045   67.7045   67.9498
   67.9500   68.1309   68.1433   68.1457   68.3375   69.1562   69.1566   69.1709   69.3919   69.4000
   69.6885   69.6891   69.7624   70.3257   70.3274   70.4917   70.4921   70.9894   71.2270   71.7226
   72.1753   72.2076   72.2089   73.1539   73.3906   73.8050   73.8054   75.5153   76.9287   76.9287
   77.0113   77.0115   77.6115   77.6122   78.5183   78.5191   79.1486   79.1495   80.8305   81.5943
   81.5953   82.0219   82.0712   82.0714   82.0759   82.4802   85.6610   86.0897   88.2455   88.2477
   89.3607   89.3609   90.2579   90.2592   91.3257   91.3261   93.3988   93.4006   95.7540   95.7549
   96.8575   96.8604   97.1929   98.7612   98.7615   98.7900   98.7917   99.1222  100.6754  100.6829
  100.6832  100.9250  100.9258  101.6180  101.6184  101.8580  102.1105  104.2139  106.2058  106.2066
  106.4354  106.4365  107.2139  107.6419  108.3420  111.0708  111.0719  112.3266  112.3284  113.7465
  114.4164  114.4168  115.6196  115.6204  116.6868  117.1993  118.1213  118.1214  119.9899  122.2479
  124.0232  124.0233  126.0419  128.5469  128.6446  128.6478  128.6487  129.5420  129.5460  129.6879
  129.6881  131.1821  131.7143  132.8659  132.9644  132.9647  134.0547  140.3664  140.3682  141.2669
  141.2692  143.6725  143.6728  145.2763  145.2776  147.4574  148.0568  148.5545  149.1120  149.4663
  149.4671  151.5235  171.3642  171.3654  177.0059  177.4348  177.4354  181.6892
   5  1  -29.8404  -28.4478  -27.7595  -27.7595  -26.4043  -26.4042  -25.7427  -25.0522  -23.8737  -23.8617
         -23.8617  -23.2974  -23.2974  -22.2002  -22.2001  -21.9989  -21.7972  -21.7971  -21.2076  -20.3675
  -20.3675  -20.3616  -20.3615  -19.8908  -19.3807  -19.3807  -18.2781  -18.2068  -18.0597  -18.0596
  -17.8786  -17.8786  -17.4923  -17.4923  -17.2752  -17.2750  -16.8929  -16.5167  -16.5165  -15.9908
  -15.9908  -15.7471  -15.7468  -15.6475  -15.6474  -15.4075  -15.3194  -14.8159  -14.8159  -14.3932
  -14.1131  -13.7493  -13.7490  -13.4983  -13.4838  -13.4838  -13.2017  -13.2013  -12.5543  -12.4381
  -12.1777  -11.3615  -11.0941   -9.8686   -9.6369   -9.6369   -8.6918   -8.6918   -7.7338   -7.6033
   -7.6033   -7.1458   -7.1458   -7.1341   -4.8102   -4.8102   -4.4882   -4.4882   -4.1682   -3.3534
   -3.1241   -2.1187   -2.1186   -2.0343   -1.5828   -1.5826   -1.4374   -1.4374   -1.0481   -0.6861
   -0.6861   -0.5926    0.2018    0.4682    0.6049    0.6049    0.9372    1.5335    1.7455    1.8640
    2.1173    2.3474    2.3476    2.5115    2.5118    2.7448    2.7450    2.8604    4.2557    4.2557
    4.5632    4.6104    5.1775    5.1776    5.6014    5.9790    6.0067    6.3810    6.3811    6.6497
    6.6499    6.8715    6.8721    7.7631    7.7632    8.2566    8.2568    8.5834    8.7116    8.9860
    9.1665    9.1667    9.6744    9.6746    9.7058    9.8325    9.8325    9.8925   10.1872   10.1873
   10.1931   10.1933   10.3201   10.6245   10.6247   10.8750   10.8752   10.8818   10.9908   10.9908
   11.2458   11.5614   11.5614   12.2210   12.2210   13.0723   13.2264   13.2269   13.2550   13.2554
   13.8996   14.6933   14.6933   15.0183   15.3903   15.3903   15.9826   15.9827   16.1886   16.3812
   16.3813   16.8876   17.3114   17.6015   17.9423   18.2492   18.3662   18.3673   18.9883   18.9898
   18.9903   19.0550   19.0550   20.1537   20.1537   20.2370   20.2370   20.3370   21.9789   22.3729
   22.9507   22.9507   23.1341   23.1345   23.6417   23.6418   23.6969   23.6972   24.0200   24.1039
   24.9062   24.9063   26.1107   26.1485   26.5411   28.2557   28.2559   29.5474   29.5475   30.6916
   30.7097   30.7099   31.0320   31.3361   32.1218   32.1219   32.3734   32.3735   32.4388   32.6765
   32.6766   33.3752   33.7705   36.3983   36.6239   36.6240   36.6575   36.6583   37.8510   37.8510
   37.9124   37.9132   38.3135   38.4549   38.4558   38.6086   38.6086   39.0936   39.0936   39.6352
   39.8193   39.8197   39.8289   39.8420   40.1411   40.4372   41.8425   41.8953   41.8954   41.9851
   42.1285   42.4415   42.4418   42.9577   43.1693   43.3099   43.3099   43.3541   44.0082   44.0085
   44.4392   44.6196   44.6196   45.0156   45.0163   45.1825   45.8689   45.8690   46.0953   46.0956
   46.3564   46.3565   46.9999   47.0000   47.1235   47.2167   49.5977   49.5980   49.9929   50.6307
   52.4074   52.4076   53.5851   54.5840   54.7699   55.4635   55.4991   55.4991   55.9077   55.9082
   56.1125   56.4852   56.4853   57.4391   57.7761   57.7762   57.9721   57.9732   58.3146   58.4776
   58.6544   58.8335   58.8336   58.9719   58.9721   59.0990   59.3391   59.3394   59.7439   59.7511
   60.8329   60.8334   61.8166   61.8173   62.3233   62.3236   63.0135   63.0138   63.2267   63.6811
   63.8977   64.2766   64.2769   64.4786   64.9098   64.9117   65.3284   65.3286   65.5366   65.5375
   65.7312   66.2448   66.5434   67.8508   67.8509   67.9695   68.1026   68.1030   68.3721   68.3721
   68.5275   68.5285   68.7217   68.7236   68.7238   68.9380   68.9390   69.1584   69.2059   69.2060
   69.3692   69.9459   70.8475   73.1163   73.1165   74.3102   74.3309   74.7405   74.7407   74.7713
   75.3413   75.3415   76.4297   76.9424   76.9425   80.0188   80.3344   80.3361   81.7047   81.7049
   82.0537   83.0821   87.2239   87.2247   87.8013   87.8025   87.8521   87.8523   88.6524   89.6467
   90.3003   90.7830   91.6564   92.1327   92.1335   93.9982   93.9984   94.0332   94.0361   94.4723
   94.8972   94.8974   95.6309   95.8420   96.4122   96.4139   97.5939   98.2018   98.2021   98.5909
   99.4352   99.4355   99.8387   99.8397  102.5968  103.1042  103.1049  104.4947  104.7434  104.7437
  105.4005  105.4018  106.1079  106.1082  107.4320  108.7808  108.7812  110.7568  111.7623  114.8638
  115.1448  115.1460  115.7969  116.4976  118.2033  118.2049  119.6054  119.6086  119.8060  119.8080
  124.7972  124.7989  126.9662  127.1315  127.1323  129.7480  129.7482  130.2664  131.9167  133.8036
  133.8063  134.8618  134.8659  135.2551  135.5626  135.5635  138.5138  138.6680  138.6699  140.3049
  143.2796  143.2812  146.2024  146.8815  148.0072  148.1094  148.1114  150.5792  150.5813  151.1802
  155.5182  155.5197  163.8622  163.8625  165.0340  174.6579  174.6600  181.1791
   6  1  -30.0147  -27.2468  -27.2468  -27.2468  -27.2468  -27.2468  -27.2468  -25.2015  -22.8728  -22.8728
         -22.8728  -22.8727  -22.8727  -22.8727  -22.8243  -22.8243  -21.5844  -21.5844  -21.5843  -21.5843
  -20.0958  -19.3198  -19.3198  -19.3198  -19.3198  -19.3197  -19.3197  -18.7999  -18.7999  -17.8187
  -17.8187  -17.8186  -17.8186  -16.9191  -16.9191  -16.9191  -16.9191  -16.9191  -16.9190  -16.3132
  -16.3132  -16.3132  -16.3132  -16.3130  -16.3130  -14.9049  -14.9049  -14.9046  -14.9046  -14.9046
  -14.9046  -13.0822  -13.0822  -13.0818  -13.0818  -13.0818  -13.0818  -12.8089  -12.8089  -11.7164
  -11.7159  -10.8989  -10.8983   -9.1194   -9.1194   -9.1194   -9.1194   -7.8597   -7.8597   -7.8597
   -7.8597   -7.8597   -7.8597   -7.8478   -4.5605   -4.5605   -4.5605   -4.5605   -4.5605   -4.5605
   -2.6997   -2.6997   -2.6997   -2.6997   -2.6995   -2.6995   -1.3953   -1.3953   -0.4260   -0.4253
    0.2342    0.2342    0.2342    0.2342    0.2342    0.2342    0.7875    0.7883    1.0918    2.0572
    2.0572    2.0572    2.0572    2.0575    2.0575    2.3130    4.6632    4.6632    5.1079    5.2518
    5.2518    5.2521    5.2521    5.5524    7.1688    7.1688    7.1688    7.1688    7.1693    7.1693
    7.5416    7.5416    7.5424    7.5424    7.5424    7.5424    8.6009    8.8141    8.8141    8.8149
    8.8149    8.8149    8.8149    9.0633    9.0633    9.7103    9.7104    9.7104    9.7104    9.7107
    9.7107   10.3263   10.3263   10.3263   10.3263   10.6472   10.6472   10.6475   10.6475   11.6718
   11.6718   11.6719   11.6719   11.6723   11.6723   11.7014   11.7014   11.7014   11.7014   11.7014
   11.7014   15.4275   15.4275   15.4275   15.4275   15.4275   15.4275   16.4460   16.8486   16.8486
   16.8487   16.8487   18.9189   18.9189   18.9189   18.9189   18.9189   18.9189   18.9251   18.9252
   19.1087   19.1087   19.1087   19.1087   19.1096   19.1096   19.7340   19.7340   21.9952   22.1453
   23.4217   23.4217   23.4218   23.4218   23.8760   23.8760   23.9492   23.9493   24.3228   24.3228
   24.3228   24.3228   24.3235   24.3235   28.8151   28.8151   28.8156   28.8156   28.8156   28.8156
   31.4041   31.4041   31.4042   31.4042   31.4042   31.4042   32.0637   32.0637   32.0637   32.0637
   32.0641   32.0641   35.9031   35.9032   35.9044   35.9044   35.9044   35.9044   38.0937   38.0937
   38.0937   38.0937   38.0938   38.0938   39.4120   39.4120   39.4120   39.4120   39.6556   39.6556
   39.6557   39.6557   39.6558   39.6559   41.0720   41.0720   41.0732   41.0732   41.0733   41.0733
   43.6311   43.6330   43.6663   43.6663   43.9512   43.9538   44.3803   44.3803   45.3528   45.3531
   46.1544   46.1545   46.1545   46.1545   46.1546   46.1546   46.5075   46.5075   46.5075   46.5075
   46.5080   46.5080   48.2818   48.2819   48.2822   48.2822   48.5326   48.5326   53.3713   53.3713
   53.3716   53.3716   53.3716   53.3716   53.4881   53.4885   55.5902   55.5902   55.5902   55.5902
   55.5908   55.5908   55.6564   55.6882   58.0293   58.0293   58.0302   58.0302   58.4045   58.4045
   58.4045   58.4046   58.4057   58.4057   59.2283   59.2283   60.7020   60.7020   61.2758   61.7393
   61.7393   61.7411   61.7411   61.7412   61.7412   62.5162   64.3634   64.3634   64.3653   64.3653
   65.0371   65.0371   65.0371   65.0371   65.0373   65.0373   66.3964   66.3964   66.3985   66.3985
   66.3985   66.3986   66.4502   66.4502   66.4502   66.4502   66.4509   66.4509   66.6748   66.6748
   66.6749   66.6749   66.6881   66.6918   67.1721   67.1721   67.1725   67.1725   67.1725   67.1725
   67.8088   67.8127   72.2314   72.2314   72.2315   72.2315   72.2317   72.2317   76.1418   76.1418
   76.1419   76.1419   78.7121   80.8106   80.8107   80.8127   80.8128   80.8129   80.8129   85.2066
   85.2066   87.6222   87.6222   87.6226   87.6227   87.6239   87.6240   90.6121   90.6122   90.6123
   90.6123   90.6139   90.6141   92.8845   92.8845   92.8846   92.8846   92.8863   92.8864   95.2056
   95.2083   97.0284   97.0284   97.0286   97.0286   97.0289   97.0289   98.1269   98.1287   98.4581
   98.4583  101.3625  101.3626  101.3627  101.3627  101.3634  101.3635  106.5900  106.5901  106.5907
  106.5907  109.0440  109.0441  109.0442  109.0444  109.0446  109.0447  109.8880  109.8903  114.5702
  114.5747  115.3222  115.3223  115.3240  115.3241  115.3245  115.3245  116.5374  116.5375  116.5376
  116.5376  116.5390  116.5390  128.2593  128.2595  130.6428  130.6429  130.6437  130.6439  134.1828
  134.1831  135.3914  135.3915  135.3960  135.3961  135.3965  135.3970  141.2949  141.2950  141.2952
  141.2953  141.2958  141.2962  152.8888  152.8889  152.8891  152.8893  152.8899  152.8901  161.4781
  162.1216  162.1224  162.1250  162.1251  171.3746  181.4146  189.9561  189.9564
   7  1  -29.3168  -29.3168  -27.9317  -27.9317  -25.2532  -25.2532  -25.2532  -25.2532  -24.6071  -24.6071
         -24.3217  -23.4416  -23.4416  -23.4219  -21.5844  -21.5844  -21.5843  -21.5843  -20.8283  -20.8283
  -20.8282  -20.8282  -20.0417  -19.8539  -19.2802  -19.2802  -18.2938  -18.2938  -18.2937  -18.2937
  -17.6856  -17.6856  -17.0982  -17.0982  -17.0981  -17.0981  -17.0644  -17.0644  -16.2047  -16.2047
  -15.5791  -15.0120  -15.0119  -15.0117  -15.0117  -14.7752  -14.7752  -14.7752  -14.7752  -14.5097
  -14.5097  -14.2414  -14.2174  -14.2174  -13.7145  -13.7145  -13.6415  -13.1317  -13.1316  -12.6447
  -12.6447  -11.6912  -11.6912  -11.1697   -9.3582   -9.3582   -9.3582   -9.3582   -7.4271   -7.4271
   -6.8702   -6.8702   -5.8522   -5.8522   -5.8522   -5.8522   -4.4232   -4.4232   -3.7166   -3.2683
   -1.7011   -1.3547   -1.3547   -1.3547   -1.3547   -1.2391   -1.2391   -1.1994   -1.1994   -0.2187
   -0.2187   -0.2187   -0.2187    0.4864    0.4864    0.5950    0.5950    1.1069    1.1069    1.4377
    1.4378    1.9781    1.9781    2.1290    3.3202    3.3202    3.4389    3.4389    4.1157    4.1157
    4.1720    4.1720    4.5002    4.5002    4.5003    4.5003    5.1240    5.1240    5.6433    5.6433
    5.6434    5.6434    7.2313    7.2313    8.6747    8.6747    8.6747    8.6748    8.6984    8.6984
    9.0474    9.0474    9.4958    9.5964    9.7311    9.7311   10.1677   10.1677   10.1677   10.1678
   10.4226   10.4227   10.4227   10.4227   10.5176   10.5176   10.6094   11.6528   12.2430   12.5784
   12.5784   13.1983   13.1983   13.1983   13.1983   13.3149   13.3149   13.3151   13.3151   14.9836
   14.9836   15.0041   15.0104   15.0104   15.0107   15.0107   15.0895   15.0895   15.3164   16.5742
   16.5742   16.5750   16.5750   16.9385   16.9385   17.0082   17.2853   17.9777   17.9777   18.7945
   18.7945   20.8431   20.8431   20.8431   20.8431   21.0776   21.0776   21.4046   21.4046   21.4151
   21.4151   21.4153   21.4153   23.2387   23.2387   23.3308   23.3308   23.9201   25.0047   25.8303
   25.8303   25.8304   25.8304   27.0709   27.0709   27.0709   27.0709   29.4954   29.4954   30.1375
   30.8604   31.1885   31.1885   31.8937   31.8937   32.0224   32.2254   32.2254   34.9208   34.9208
   35.0076   35.0076   35.0077   35.0077   35.1444   35.1444   36.4331   36.4331   37.2590   37.2590
   38.5514   38.5514   38.5992   38.5992   38.5992   38.5992   38.7519   38.7519   39.2833   39.6741
   39.6741   39.7245   39.7245   39.7250   39.7250   39.9552   40.8775   40.8775   40.8798   40.8798
   40.8804   40.8804   41.0651   41.0651   41.2400   41.2400   41.5237   41.5237   41.9327   43.0137
   43.0137   44.0662   44.0662   44.6566   44.6567   45.6156   45.6156   45.6158   45.6158   46.1227
   46.1227   46.1227   46.1228   47.1041   47.1041   47.7180   48.4778   48.4778   48.4781   48.4781
   50.8278   52.7455   52.8646   52.8646   55.0268   55.0269   55.1768   55.1768   55.1769   55.1769
   55.3909   55.3909   56.4497   56.4497   57.2810   57.7025   57.7025   57.7028   57.7028   58.7145
   59.3550   59.3550   59.4583   59.4584   60.1553   60.1553   60.4300   60.4300   60.4303   60.4303
   60.9684   62.6653   62.8057   62.9589   62.9589   63.2075   63.2075   63.2078   63.2078   63.4852
   63.4852   63.4854   63.4854   63.6462   63.6462   67.3717   67.3717   67.8162   67.8162   67.9373
   67.9373   67.9377   67.9377   67.9505   67.9506   68.0944   68.0944   68.0947   68.0947   69.3298
   69.3299   69.5640   69.6229   69.6229   69.9059   69.9059   70.8651   71.5838   71.5838   71.5841
   71.5841   72.2988   72.2988   73.6218   73.6218   73.6220   73.6220   74.2831   74.7842   74.7843
   74.7845   74.7846   74.9910   74.9911   75.9717   75.9717   77.7652   79.3733   79.3733   82.4722
   82.4723   85.8125   85.8126   86.4288   86.4289   87.6165   87.6166   87.7618   87.7619   88.1525
   88.1525   93.0112   93.0113   94.7443   94.7443   95.3846   95.4437   95.4437   95.4437   95.4439
   96.1500   96.1501   96.2700   96.2805   97.1025   98.5362   98.5363   98.5379   98.5379   99.5064
  100.5201  100.5201  100.5231  100.5231  102.9654  102.9654  102.9662  102.9662  103.1712  103.3580
  103.3581  104.6071  104.6072  104.6075  104.6076  105.5474  112.9778  112.9778  114.7018  114.7020
  114.7021  114.7022  114.8415  114.8418  118.5271  118.5272  121.2354  121.2357  124.8883  124.8884
  124.9723  124.9724  125.7692  126.9633  126.9635  127.3773  127.3774  127.3809  127.3810  130.6989
  130.6989  130.6993  130.6994  134.2945  134.2946  134.2955  134.2956  134.4185  134.4190  136.1908
  136.8366  136.8367  139.3549  143.1893  144.0046  144.0048  144.0058  144.0060  155.3556  155.3558
  163.4378  163.4380  163.4400  163.4401  177.3498  177.3499  179.4431  179.4433
   8  1  -29.4913  -28.7948  -28.7947  -26.7408  -26.7407  -25.4131  -24.7943  -24.7942  -24.7552  -24.1663
         -24.1663  -23.8677  -22.9439  -22.6706  -22.6705  -22.4557  -22.4557  -21.4118  -20.6267  -20.6266
  -20.0572  -19.6692  -19.6572  -19.4830  -19.0488  -19.0488  -19.0319  -19.0318  -18.9990  -18.6761
  -18.6761  -17.5275  -17.3553  -17.3552  -16.5414  -16.3448  -16.3448  -16.1386  -16.1383  -15.9927
  -15.7211  -15.7209  -15.7044  -15.7042  -15.1617  -14.9073  -14.5569  -14.5569  -14.4523  -14.4523
  -14.4378  -14.4377  -14.0341  -14.0338  -13.7309  -13.7156  -13.2901  -13.2901  -13.1948  -12.4635
  -12.4632  -11.9884  -11.6646  -10.6323  -10.6323  -10.6294   -8.0269   -7.5202   -7.3290   -7.3290
   -7.2823   -7.1735   -7.1735   -5.8824   -5.8824   -5.7773   -4.3780   -4.3780   -2.5644   -2.5644
   -2.3988   -2.3987   -1.5542   -1.5299   -1.5299   -1.3086   -0.8782   -0.8780   -0.6665   -0.6665
   -0.6598   -0.4243   -0.3538    0.1711    0.1712    0.3002    1.4264    1.4264    1.8643    2.1560
    2.1561    2.5445    2.5792    2.6899    2.7844    2.7846    2.8623    2.8623    3.0712    3.0713
    3.6771    3.9842    4.4238    4.4244    4.5285    4.6354    4.6356    5.9752    5.9753    6.5456
    6.8096    7.0002    7.0002    7.1576    7.3798    8.0636    8.2068    8.2073    8.4617    8.4619
    8.9344    9.3484    9.3484    9.3538    9.3539    9.6377    9.8124    9.8733    9.8735   10.2546
   10.3465   10.3465   11.1762   11.1762   11.4367   11.4369   11.9228   11.9233   11.9370   12.2432
   12.2441   12.5271   12.9317   12.9371   12.9373   13.3708   13.8946   13.8946   13.9944   13.9944
   14.1318   14.3961   14.3961   14.7579   15.0474   15.0479   15.7570   15.8087   15.8613   16.1589
   16.1589   16.2999   16.9543   17.1174   17.1182   17.6399   18.0645   18.0652   18.2779   18.2779
   18.6074   18.6081   20.6899   21.0278   21.0412   21.0737   21.0737   21.0867   21.0867   21.6620
   22.3097   22.4230   22.4233   22.4351   22.4352   22.9772   23.6082   23.6088   24.6242   25.5145
   26.2082   26.6999   26.7192   26.7194   27.5449   27.5450   28.4590   28.4591   29.3808   29.3810
   29.4245   29.5568   32.0392   32.0393   32.0746   32.0747   33.4470   33.4475   34.6074   34.6075
   34.9426   34.9428   34.9552   35.0277   35.0277   35.8998   35.9002   36.3740   36.6203   36.6203
   37.3524   37.3525   37.4267   37.7456   37.7462   38.3037   38.8923   39.0492   39.1398   39.1401
   39.8800   39.8802   39.9161   40.3305   40.8466   40.8467   40.8548   40.8549   40.8866   40.8871
   40.9602   41.2678   42.3307   42.3799   42.7065   42.7065   43.0067   43.0074   43.2668   43.2672
   43.4091   43.9068   44.1442   44.2222   44.2226   44.4478   44.4482   44.7640   44.9031   45.1658
   45.4812   45.4816   46.3388   46.4488   46.5358   46.5360   47.1830   47.1832   47.4808   49.5858
   49.5859   51.9494   52.7186   53.2717   53.2718   55.4614   56.2219   56.2219   56.4066   56.4818
   56.7175   56.7561   56.7563   57.1240   57.3904   57.3906   58.1583   58.1583   58.3538   58.3548
   58.3952   58.9844   58.9849   59.6046   59.7183   60.1390   60.1391   60.1412   60.1420   60.5356
   61.0259   61.0262   61.6561   61.6563   61.7382   61.7390   62.0797   62.8605   63.5575   63.5577
   63.7933   63.9356   64.2097   64.2103   64.9305   66.7588   66.7590   67.7045   67.7045   67.9498
   67.9500   68.1309   68.1433   68.1457   68.3375   69.1562   69.1566   69.1709   69.3919   69.4000
   69.6885   69.6891   69.7624   70.3257   70.3274   70.4917   70.4921   70.9894   71.2270   71.7226
   72.1753   72.2076   72.2089   73.1539   73.3906   73.8050   73.8054   75.5153   76.9287   76.9287
   77.0113   77.0115   77.6115   77.6122   78.5183   78.5191   79.1486   79.1495   80.8305   81.5943
   81.5953   82.0219   82.0712   82.0714   82.0759   82.4802   85.6610   86.0897   88.2455   88.2477
   89.3607   89.3609   90.2579   90.2592   91.3257   91.3261   93.3988   93.4006   95.7540   95.7549
   96.8575   96.8604   97.1929   98.7612   98.7615   98.7900   98.7917   99.1222  100.6754  100.6829
  100.6832  100.9250  100.9258  101.6180  101.6184  101.8580  102.1105  104.2139  106.2058  106.2066
  106.4354  106.4365  107.2139  107.6419  108.3420  111.0708  111.0719  112.3266  112.3284  113.7465
  114.4164  114.4168  115.6196  115.6204  116.6868  117.1993  118.1213  118.1214  119.9899  122.2479
  124.0232  124.0233  126.0419  128.5469  128.6446  128.6478  128.6487  129.5420  129.5460  129.6879
  129.6881  131.1821  131.7143  132.8659  132.9644  132.9647  134.0547  140.3664  140.3682  141.2669
  141.2692  143.6725  143.6728  145.2763  145.2776  147.4574  148.0568  148.5545  149.1120  149.4663
  149.4671  151.5235  171.3642  171.3654  177.0059  177.4348  177.4354  181.6892
   9  1  -29.4913  -28.7948  -28.7947  -26.7408  -26.7407  -25.4131  -24.7943  -24.7942  -24.7552  -24.1663
         -24.1663  -23.8677  -22.9439  -22.6706  -22.6705  -22.4557  -22.4557  -21.4118  -20.6267  -20.6266
  -20.0572  -19.6692  -19.6572  -19.4830  -19.0488  -19.0488  -19.0319  -19.0318  -18.9990  -18.6761
  -18.6761  -17.5275  -17.3553  -17.3552  -16.5414  -16.3448  -16.3448  -16.1386  -16.1383  -15.9927
  -15.7211  -15.7209  -15.7044  -15.7042  -15.1617  -14.9073  -14.5569  -14.5569  -14.4523  -14.4523
  -14.4378  -14.4377  -14.0341  -14.0338  -13.7309  -13.7156  -13.2901  -13.2901  -13.1948  -12.4635
  -12.4632  -11.9884  -11.6646  -10.6323  -10.6323  -10.6294   -8.0269   -7.5202   -7.3290   -7.3290
   -7.2823   -7.1735   -7.1735   -5.8824   -5.8824   -5.7773   -4.3780   -4.3780   -2.5644   -2.5644
   -2.3988   -2.3987   -1.5542   -1.5299   -1.5299   -1.3086   -0.8782   -0.8780   -0.6665   -0.6665
   -0.6598   -0.4243   -0.3538    0.1711    0.1712    0.3002    1.4264    1.4264    1.8643    2.1560
    2.1561    2.5445    2.5792    2.6899    2.7844    2.7846    2.8623    2.8623    3.0712    3.0713
    3.6771    3.9842    4.4238    4.4244    4.5285    4.6354    4.6356    5.9752    5.9753    6.5456
    6.8096    7.0002    7.0002    7.1576    7.3798    8.0636    8.2068    8.2073    8.4617    8.4619
    8.9344    9.3484    9.3484    9.3538    9.3539    9.6377    9.8124    9.8733    9.8735   10.2546
   10.3465   10.3465   11.1762   11.1762   11.4367   11.4369   11.9228   11.9233   11.9370   12.2432
   12.2441   12.5271   12.9317   12.9371   12.9373   13.3708   13.8946   13.8946   13.9944   13.9944
   14.1318   14.3961   14.3961   14.7579   15.0474   15.0479   15.7570   15.8087   15.8613   16.1589
   16.1589   16.2999   16.9543   17.1174   17.1182   17.6399   18.0645   18.0652   18.2779   18.2779
   18.6074   18.6081   20.6899   21.0278   21.0412   21.0737   21.0737   21.0867   21.0867   21.6620
   22.3097   22.4230   22.4233   22.4351   22.4352   22.9772   23.6082   23.6088   24.6242   25.5145
   26.2082   26.6999   26.7192   26.7194   27.5449   27.5450   28.4590   28.4591   29.3808   29.3810
   29.4245   29.5568   32.0392   32.0393   32.0746   32.0747   33.4470   33.4474   34.6074   34.6075
   34.9426   34.9428   34.9552   35.0277   35.0277   35.8998   35.9002   36.3740   36.6203   36.6203
   37.3524   37.3525   37.4267   37.7456   37.7462   38.3037   38.8923   39.0492   39.1398   39.1401
   39.8800   39.8802   39.9161   40.3305   40.8466   40.8467   40.8548   40.8549   40.8866   40.8871
   40.9602   41.2678   42.3307   42.3799   42.7065   42.7065   43.0067   43.0074   43.2668   43.2672
   43.4091   43.9068   44.1442   44.2221   44.2226   44.4478   44.4482   44.7640   44.9031   45.1659
   45.4812   45.4816   46.3388   46.4488   46.5358   46.5360   47.1830   47.1832   47.4808   49.5858
   49.5859   51.9494   52.7186   53.2717   53.2718   55.4614   56.2219   56.2219   56.4066   56.4818
   56.7174   56.7561   56.7563   57.1240   57.3904   57.3906   58.1583   58.1583   58.3538   58.3549
   58.3952   58.9844   58.9849   59.6046   59.7182   60.1390   60.1391   60.1412   60.1419   60.5356
   61.0259   61.0262   61.6561   61.6563   61.7382   61.7391   62.0797   62.8606   63.5575   63.5577
   63.7933   63.9356   64.2097   64.2103   64.9305   66.7588   66.7590   67.7045   67.7045   67.9498
   67.9500   68.1309   68.1433   68.1456   68.3375   69.1561   69.1566   69.1710   69.3920   69.4001
   69.6885   69.6891   69.7623   70.3257   70.3274   70.4917   70.4921   70.9894   71.2269   71.7226
   72.1753   72.2077   72.2090   73.1539   73.3905   73.8050   73.8054   75.5153   76.9287   76.9287
   77.0113   77.0115   77.6115   77.6121   78.5184   78.5191   79.1484   79.1494   80.8306   81.5944
   81.5953   82.0219   82.0712   82.0714   82.0759   82.4802   85.6610   86.0896   88.2455   88.2476
   89.3608   89.3608   90.2579   90.2593   91.3257   91.3261   93.3988   93.4007   95.7539   95.7549
   96.8576   96.8604   97.1929   98.7612   98.7615   98.7899   98.7916   99.1222  100.6753  100.6829
  100.6832  100.9249  100.9257  101.6180  101.6184  101.8578  102.1105  104.2139  106.2059  106.2067
  106.4354  106.4367  107.2140  107.6418  108.3416  111.0710  111.0723  112.3268  112.3284  113.7464
  114.4164  114.4167  115.6192  115.6204  116.6867  117.1997  118.1214  118.1221  119.9898  122.2480
  124.0229  124.0232  126.0424  128.5465  128.6451  128.6478  128.6487  129.5407  129.5464  129.6878
  129.6880  131.1822  131.7148  132.8664  132.9645  132.9648  134.0545  140.3632  140.3678  141.2668
  141.2695  143.6725  143.6732  145.2751  145.2772  147.4574  148.0575  148.5547  149.1125  149.4650
  149.4667  151.5250  171.3652  171.3662  177.0059  177.4351  177.4355  181.6936
  10  1  -29.3168  -29.3168  -27.9317  -27.9317  -25.2532  -25.2532  -25.2532  -25.2532  -24.6071  -24.6071
         -24.3217  -23.4416  -23.4416  -23.4219  -21.5844  -21.5844  -21.5843  -21.5843  -20.8283  -20.8283
  -20.8282  -20.8282  -20.0417  -19.8539  -19.2802  -19.2802  -18.2938  -18.2938  -18.2937  -18.2937
  -17.6856  -17.6856  -17.0982  -17.0982  -17.0981  -17.0981  -17.0644  -17.0644  -16.2047  -16.2047
  -15.5791  -15.0120  -15.0119  -15.0117  -15.0117  -14.7752  -14.7752  -14.7752  -14.7752  -14.5097
  -14.5097  -14.2414  -14.2174  -14.2174  -13.7145  -13.7145  -13.6415  -13.1317  -13.1316  -12.6447
  -12.6447  -11.6912  -11.6912  -11.1697   -9.3582   -9.3582   -9.3582   -9.3582   -7.4271   -7.4271
   -6.8702   -6.8702   -5.8522   -5.8522   -5.8522   -5.8522   -4.4232   -4.4232   -3.7166   -3.2683
   -1.7011   -1.3547   -1.3547   -1.3547   -1.3547   -1.2391   -1.2391   -1.1994   -1.1994   -0.2187
   -0.2187   -0.2187   -0.2187    0.4864    0.4864    0.5950    0.5950    1.1069    1.1069    1.4377
    1.4378    1.9781    1.9781    2.1290    3.3202    3.3202    3.4389    3.4389    4.1157    4.1157
    4.1720    4.1720    4.5002    4.5002    4.5003    4.5003    5.1240    5.1240    5.6433    5.6433
    5.6434    5.6434    7.2313    7.2313    8.6747    8.6747    8.6747    8.6748    8.6984    8.6984
    9.0474    9.0474    9.4958    9.5964    9.7311    9.7311   10.1677   10.1677   10.1677   10.1678
   10.4226   10.4226   10.4227   10.4228   10.5176   10.5176   10.6094   11.6528   12.2430   12.5784
   12.5784   13.1983   13.1983   13.1983   13.1983   13.3149   13.3149   13.3151   13.3151   14.9836
   14.9836   15.0041   15.0104   15.0104   15.0107   15.0107   15.0895   15.0895   15.3164   16.5742
   16.5742   16.5750   16.5750   16.9385   16.9385   17.0082   17.2853   17.9777   17.9777   18.7945
   18.7945   20.8431   20.8431   20.8431   20.8431   21.0776   21.0776   21.4046   21.4046   21.4151
   21.4151   21.4153   21.4153   23.2387   23.2387   23.3308   23.3308   23.9201   25.0047   25.8303
   25.8303   25.8304   25.8304   27.0709   27.0709   27.0709   27.0709   29.4954   29.4954   30.1375
   30.8604   31.1885   31.1885   31.8937   31.8937   32.0224   32.2254   32.2254   34.9208   34.9208
   35.0076   35.0076   35.0077   35.0077   35.1444   35.1444   36.4331   36.4331   37.2589   37.2589
   38.5514   38.5514   38.5992   38.5992   38.5992   38.5992   38.7519   38.7519   39.2833   39.6741
   39.6741   39.7245   39.7245   39.7250   39.7250   39.9552   40.8775   40.8775   40.8798   40.8798
   40.8804   40.8804   41.0650   41.0650   41.2400   41.2400   41.5237   41.5237   41.9327   43.0137
   43.0137   44.0662   44.0662   44.6567   44.6567   45.6156   45.6156   45.6158   45.6158   46.1227
   46.1227   46.1228   46.1228   47.1041   47.1041   47.7180   48.4778   48.4778   48.4781   48.4781
   50.8278   52.7455   52.8646   52.8646   55.0268   55.0269   55.1768   55.1768   55.1769   55.1769
   55.3909   55.3909   56.4497   56.4497   57.2811   57.7025   57.7025   57.7027   57.7028   58.7145
   59.3550   59.3550   59.4583   59.4584   60.1553   60.1553   60.4300   60.4300   60.4304   60.4304
   60.9684   62.6653   62.8058   62.9589   62.9589   63.2075   63.2075   63.2078   63.2078   63.4852
   63.4853   63.4854   63.4854   63.6462   63.6462   67.3717   67.3718   67.8162   67.8163   67.9373
   67.9373   67.9378   67.9378   67.9505   67.9505   68.0944   68.0944   68.0946   68.0947   69.3299
   69.3299   69.5640   69.6229   69.6229   69.9059   69.9059   70.8651   71.5838   71.5838   71.5841
   71.5841   72.2988   72.2988   73.6218   73.6218   73.6220   73.6220   74.2831   74.7843   74.7843
   74.7845   74.7845   74.9910   74.9911   75.9717   75.9717   77.7653   79.3730   79.3732   82.4722
   82.4722   85.8126   85.8126   86.4287   86.4287   87.6166   87.6167   87.7618   87.7619   88.1525
   88.1526   93.0111   93.0111   94.7439   94.7440   95.3844   95.4436   95.4437   95.4438   95.4439
   96.1500   96.1501   96.2700   96.2807   97.1025   98.5361   98.5361   98.5377   98.5379   99.5065
  100.5201  100.5201  100.5231  100.5231  102.9654  102.9654  102.9661  102.9661  103.1713  103.3580
  103.3581  104.6070  104.6072  104.6076  104.6076  105.5477  112.9778  112.9779  114.7019  114.7019
  114.7021  114.7023  114.8416  114.8418  118.5268  118.5271  121.2353  121.2354  124.8886  124.8888
  124.9729  124.9730  125.7691  126.9646  126.9651  127.3782  127.3786  127.3807  127.3809  130.6987
  130.6988  130.6996  130.6997  134.2948  134.2948  134.2956  134.2958  134.4157  134.4163  136.1906
  136.8365  136.8368  139.3550  143.1897  144.0049  144.0050  144.0052  144.0054  155.3545  155.3551
  163.4390  163.4391  163.4404  163.4406  177.3499  177.3502  179.4434  179.4435
  11  1  -29.4913  -28.7948  -28.7947  -26.7408  -26.7407  -25.4131  -24.7943  -24.7942  -24.7552  -24.1663
         -24.1663  -23.8677  -22.9439  -22.6706  -22.6705  -22.4557  -22.4557  -21.4118  -20.6267  -20.6266
  -20.0572  -19.6692  -19.6572  -19.4830  -19.0488  -19.0488  -19.0319  -19.0318  -18.9990  -18.6761
  -18.6761  -17.5275  -17.3553  -17.3552  -16.5414  -16.3448  -16.3448  -16.1386  -16.1383  -15.9927
  -15.7211  -15.7209  -15.7044  -15.7042  -15.1617  -14.9073  -14.5569  -14.5569  -14.4523  -14.4523
  -14.4378  -14.4377  -14.0341  -14.0338  -13.7309  -13.7156  -13.2901  -13.2901  -13.1948  -12.4635
  -12.4632  -11.9884  -11.6646  -10.6323  -10.6323  -10.6294   -8.0269   -7.5202   -7.3290   -7.3290
   -7.2823   -7.1735   -7.1735   -5.8824   -5.8824   -5.7773   -4.3780   -4.3780   -2.5644   -2.5644
   -2.3988   -2.3987   -1.5542   -1.5299   -1.5299   -1.3086   -0.8782   -0.8780   -0.6665   -0.6665
   -0.6598   -0.4243   -0.3538    0.1711    0.1712    0.3002    1.4264    1.4264    1.8643    2.1560
    2.1561    2.5445    2.5792    2.6899    2.7844    2.7846    2.8623    2.8623    3.0712    3.0713
    3.6771    3.9842    4.4238    4.4244    4.5285    4.6354    4.6356    5.9752    5.9753    6.5456
    6.8096    7.0002    7.0002    7.1576    7.3798    8.0636    8.2068    8.2073    8.4617    8.4619
    8.9344    9.3484    9.3484    9.3538    9.3539    9.6377    9.8124    9.8733    9.8735   10.2546
   10.3465   10.3465   11.1762   11.1762   11.4367   11.4369   11.9228   11.9233   11.9370   12.2432
   12.2441   12.5271   12.9317   12.9371   12.9373   13.3708   13.8946   13.8946   13.9944   13.9944
   14.1318   14.3961   14.3961   14.7579   15.0474   15.0479   15.7570   15.8087   15.8613   16.1589
   16.1589   16.2999   16.9543   17.1174   17.1182   17.6399   18.0645   18.0652   18.2779   18.2779
   18.6074   18.6081   20.6899   21.0278   21.0412   21.0737   21.0737   21.0867   21.0867   21.6620
   22.3097   22.4230   22.4233   22.4351   22.4352   22.9772   23.6082   23.6088   24.6242   25.5145
   26.2082   26.6999   26.7192   26.7194   27.5449   27.5450   28.4590   28.4591   29.3808   29.3810
   29.4245   29.5568   32.0392   32.0393   32.0746   32.0747   33.4470   33.4474   34.6074   34.6075
   34.9426   34.9428   34.9552   35.0277   35.0277   35.8998   35.9002   36.3740   36.6203   36.6203
   37.3524   37.3525   37.4267   37.7456   37.7462   38.3037   38.8923   39.0492   39.1398   39.1401
   39.8800   39.8802   39.9161   40.3305   40.8466   40.8467   40.8548   40.8549   40.8866   40.8871
   40.9602   41.2678   42.3307   42.3799   42.7065   42.7065   43.0067   43.0074   43.2668   43.2672
   43.4091   43.9068   44.1442   44.2221   44.2226   44.4478   44.4482   44.7640   44.9031   45.1659
   45.4812   45.4816   46.3388   46.4488   46.5358   46.5360   47.1830   47.1832   47.4808   49.5858
   49.5859   51.9494   52.7186   53.2717   53.2718   55.4614   56.2219   56.2219   56.4066   56.4818
   56.7174   56.7561   56.7563   57.1240   57.3904   57.3906   58.1583   58.1583   58.3538   58.3549
   58.3952   58.9844   58.9849   59.6046   59.7182   60.1390   60.1391   60.1412   60.1419   60.5356
   61.0259   61.0262   61.6561   61.6563   61.7382   61.7391   62.0797   62.8606   63.5575   63.5577
   63.7933   63.9356   64.2097   64.2103   64.9305   66.7588   66.7590   67.7045   67.7045   67.9498
[...]
    6.0010    6.0010    7.1955    7.1955    7.1957    7.1957    7.6278    7.6278    8.5307    8.5307
    9.1069    9.1069    9.1069    9.1069    9.2417    9.2417    9.2418    9.2418   10.4753   10.4753
   11.2323   11.2323   11.2329   11.2329   13.4083   13.4083   13.4083   13.4083   13.7284   13.7284
   13.8083   13.8083   13.8083   13.8083   14.4365   14.4365   14.4368   14.4368   14.8309   14.8309
   14.8323   14.8323   15.2691   15.2691   15.5544   15.5544   15.5547   15.5547   15.6674   15.6674
   16.9248   16.9248   16.9253   16.9253   18.5499   18.5499   18.5501   18.5501   18.7886   18.7886
   18.7890   18.7890   19.3129   19.3129   20.6478   20.6478   20.6480   20.6480   21.1783   21.1783
   21.3509   21.3509   21.6938   21.6938   21.6938   21.6938   22.6895   22.6895   22.6896   22.6896
   22.7016   22.7016   23.0197   23.0197   24.8705   24.8705   24.8705   24.8705   25.4571   25.4571
   26.5451   26.5451   27.3397   27.3397   27.3397   27.3397   35.2593   35.2593   35.2599   35.2599
   36.3634   36.3634   37.7662   37.7662   37.7663   37.7663   38.6434   38.6434   38.6438   38.6438
   38.9731   38.9731   39.2347   39.2347   40.1694   40.1694   40.3627   40.3627   40.3637   40.3637
   40.8175   40.8175   40.8177   40.8177   41.3276   41.3276   42.0822   42.0822   42.0824   42.0824
   42.6736   42.6736   42.9673   42.9673   42.9677   42.9677   43.0312   43.0312   43.4291   43.4291
   43.4296   43.4296   43.5868   43.5868   44.0362   44.0362   45.0059   45.0059   45.0060   45.0060
   45.4407   45.4407   49.4434   49.4434   49.4435   49.4435   50.4198   50.4198   51.2267   51.2268
   51.8070   51.8070   52.5792   52.5792   52.5793   52.5793   53.3614   53.3614   53.3616   53.3616
   54.5160   54.5160   54.5162   54.5162   54.9952   54.9952   55.0688   55.0688   56.2209   56.2210
   56.2210   56.2210   57.5466   57.5466   57.5471   57.5471   60.6496   60.6497   60.6500   60.6500
   60.7496   60.7496   61.7253   61.7253   61.7253   61.7253   64.1001   64.1001   64.4058   64.4058
   64.4060   64.4060   65.8563   65.8563   66.3207   66.3207   66.3208   66.3208   66.8225   66.8225
   67.7209   67.7209   67.7213   67.7213   67.7541   67.7541   69.0189   69.0189   69.0214   69.0214
   69.3069   69.3069   69.3546   69.3546   69.5336   69.5336   69.5342   69.5342   69.8200   69.8200
   72.5372   72.5372   72.5376   72.5376   72.9855   72.9856   75.1997   75.1997   75.7358   75.7358
   75.7366   75.7366   76.9953   76.9953   76.9974   76.9974   78.3470   78.3471   79.0137   79.0138
   79.0263   79.0263   79.0266   79.0266   82.2933   82.2933   82.2935   82.2935   85.4251   85.4251
   86.1422   86.1422   86.1428   86.1428   88.0176   88.0176   89.2688   89.2689   89.2692   89.2692
   95.1627   95.1627   95.1628   95.1628  100.0499  100.0499  100.0522  100.0522  101.2050  101.2050
  101.2053  101.2053  101.7510  101.7510  101.7516  101.7517  103.0130  103.0130  103.8165  103.8165
  104.6450  104.6450  107.5091  107.5092  110.4406  110.4406  110.4421  110.4421  110.9842  110.9842
  110.9844  110.9844  112.5799  112.5799  112.5829  112.5830  113.8570  113.8571  114.9256  114.9256
  114.9265  114.9265  117.8478  117.8478  118.3070  118.3070  119.2105  119.2105  121.2307  121.2308
  121.2315  121.2316  121.3001  121.3001  121.3022  121.3022  129.6644  129.6644  131.6028  131.6029
  139.4975  139.4976  139.4983  139.4984  142.1876  142.1876  142.4298  142.4300  142.7634  142.7635
  142.7667  142.7669  149.7242  149.7243  149.7265  149.7267  153.5827  153.5829
  42  1  -27.7062  -27.7062  -27.7062  -27.7062  -26.3597  -26.3597  -26.3597  -26.3597  -23.7766  -23.7766
         -23.7766  -23.7766  -23.7765  -23.7765  -23.7765  -23.7765  -22.9274  -22.9274  -21.8805  -21.8805
  -19.9544  -19.9544  -19.9544  -19.9544  -19.9543  -19.9543  -19.9543  -19.9543  -16.4664  -16.4664
  -16.4664  -16.4664  -16.4662  -16.4662  -16.4661  -16.4661  -16.1827  -16.1827  -16.1827  -16.1827
  -14.7918  -14.7918  -14.7918  -14.7918  -14.6577  -14.6577  -13.8450  -13.8450  -13.8450  -13.8450
  -13.1594  -13.1594  -13.1594  -13.1594  -12.4234  -12.4234  -12.4234  -12.4234  -11.9829  -11.9829
  -11.9829  -11.9829   -9.7195   -9.7195   -9.7195   -9.7195   -9.7195   -9.7195   -9.7194   -9.7194
   -9.4935   -9.4935   -6.2561   -6.2561   -5.4565   -5.4565   -5.4565   -5.4565   -5.4565   -5.4565
   -5.4565   -5.4565   -2.6546   -2.6546   -2.6546   -2.6546   -1.2602   -1.2602   -1.2602   -1.2602
   -0.4218   -0.4218    1.8698    1.8698    1.8698    1.8698    2.0216    2.0216    2.0216    2.0216
    2.0216    2.0216    2.0216    2.0216    2.4373    2.4373    2.4373    2.4373    2.5476    2.5476
    2.5477    2.5477    4.0033    4.0033    4.0033    4.0033    6.2497    6.2497    6.2497    6.2497
    7.2403    7.2403    7.2403    7.2403    7.2404    7.2404    7.2404    7.2404    8.6340    8.6340
    8.6340    8.6340    9.4334    9.4334    9.4334    9.4334    9.4337    9.4337    9.4337    9.4337
   10.5054   10.5054   11.9462   11.9462   12.7444   12.7444   12.7444   12.7444   14.5204   14.5204
   14.7204   14.7204   14.7204   14.7204   14.7441   14.7441   14.7441   14.7441   14.7443   14.7443
   14.7443   14.7443   15.3300   15.3300   15.3300   15.3300   15.3306   15.3306   15.3306   15.3306
   15.4084   15.4084   17.1831   17.1831   18.0505   18.0505   18.0505   18.0505   19.4224   19.4224
   19.4224   19.4224   20.5610   20.5610   20.5610   20.5610   21.3295   21.3295   21.3295   21.3295
   21.3295   21.3295   21.3295   21.3295   21.7427   21.7427   21.7427   21.7427   22.5373   22.5373
   22.5373   22.5373   23.2129   23.2129   23.2129   23.2129   26.1551   26.1551   26.1551   26.1551
   26.1552   26.1552   26.1552   26.1552   28.4656   28.4656   32.6465   32.6465   37.4493   37.4493
   37.4493   37.4493   38.3930   38.3930   38.3930   38.3930   38.3934   38.3934   38.3934   38.3934
   38.5105   38.5105   38.5105   38.5105   39.9519   39.9519   39.9519   39.9519   40.0128   40.0128
   40.0129   40.0129   41.5523   41.5523   42.4022   42.4022   42.4022   42.4022   42.4023   42.4023
   42.4023   42.4023   42.7384   42.7384   42.7385   42.7385   43.5239   43.5239   43.5240   43.5240
   43.5240   43.5240   43.5240   43.5240   44.1164   44.1164   44.1164   44.1164   46.0782   46.0782
   46.1190   46.1190   46.1190   46.1190   51.3849   51.3849   51.3849   51.3849   51.3850   51.3850
   51.3850   51.3850   51.7445   51.7445   51.7445   51.7445   52.3610   52.3610   52.3610   52.3610
   55.4873   55.4873   55.8215   55.8215   55.8427   55.8427   55.8427   55.8427   55.9371   55.9371
   55.9371   55.9371   55.9372   55.9372   55.9372   55.9372   61.8261   61.8261   62.0118   62.0118
   62.0118   62.0118   62.0119   62.0119   62.0119   62.0119   62.4070   62.4070   62.4070   62.4070
   67.2842   67.2842   67.2842   67.2842   67.5804   67.5804   67.5804   67.5805   67.6224   67.6224
   67.6225   67.6225   67.6225   67.6225   67.6225   67.6225   67.8454   67.8454   67.9404   67.9404
   67.9404   67.9404   67.9407   67.9407   67.9407   67.9407   69.1023   69.1023   69.1023   69.1023
   73.3554   73.3554   73.3555   73.3555   73.5969   73.5969   73.5969   73.5969   75.5410   75.5410
   75.5410   75.5410   76.1390   76.1390   79.3018   79.3018   79.3018   79.3019   80.4682   80.4682
   80.4683   80.4683   80.4687   80.4687   80.4687   80.4687   83.4398   83.4399   86.7183   86.7184
   86.7185   86.7185   86.9628   86.9628   86.9629   86.9629   86.9631   86.9631   86.9632   86.9632
   89.9222   89.9222   97.6806   97.6806   98.6340   98.6340   98.6340   98.6340  101.3427  101.3427
  101.3428  101.3428  103.3643  103.3643  103.3643  103.3643  103.3656  103.3656  103.3656  103.3656
  105.6185  105.6187  105.6189  105.6190  111.7317  111.7318  111.7318  111.7318  111.7339  111.7340
  112.5722  112.5722  112.5724  112.5724  112.5726  112.5726  112.5728  112.5729  112.7375  112.7375
  112.7376  112.7376  114.9448  114.9449  114.9449  114.9449  121.1324  121.1326  123.8492  123.8492
  123.8494  123.8495  128.6257  128.6257  128.6258  128.6258  128.6262  128.6262  128.6263  128.6264
  141.1966  141.1966  141.1966  141.1968  144.2862  144.2863  144.2864  144.2865  144.2866  144.2866
  144.2867  144.2869  147.7024  147.7024  147.7030  147.7033  147.7197  147.7197
  43  1  -27.8763  -27.8763  -27.1979  -27.1979  -27.1979  -27.1979  -25.2073  -25.2073  -25.2073  -25.2073
         -23.9291  -23.9291  -23.3443  -23.3443  -23.3443  -23.3443  -22.4913  -22.4913  -21.4480  -21.4480
  -21.1825  -21.1825  -21.1824  -21.1824  -19.0104  -19.0104  -17.9666  -17.9666  -17.9665  -17.9665
  -17.4630  -17.4630  -16.6518  -16.6518  -15.8844  -15.8844  -15.8844  -15.8844  -15.2073  -15.2073
  -15.2070  -15.2070  -14.8508  -14.8508  -14.8505  -14.8505  -13.6463  -13.6463  -13.3564  -13.3564
  -13.3560  -13.3560  -12.8979  -12.8979  -12.7677  -12.7677  -12.7677  -12.7677  -12.3236  -12.3236
  -10.9187  -10.9187  -10.9187  -10.9187   -9.7818   -9.7818   -9.5775   -9.5775   -9.5775   -9.5775
   -8.9833   -8.9833   -6.2865   -6.2865   -5.9720   -5.9720   -5.9720   -5.9720   -5.2136   -5.2136
   -4.0105   -4.0105   -4.0105   -4.0105   -1.7493   -1.7493   -1.7492   -1.7492   -0.7851   -0.7851
    0.2583    0.2583    0.2585    0.2585    1.3744    1.3744    1.7783    1.7783    1.7785    1.7785
    1.8430    1.8430    2.3203    2.3203    2.4343    2.4343    2.4344    2.4344    3.5803    3.5803
    3.5807    3.5807    3.6613    3.6613    5.4970    5.4970    5.4971    5.4971    5.6746    5.6746
    6.0010    6.0010    7.1955    7.1955    7.1957    7.1957    7.6278    7.6278    8.5307    8.5307
    9.1069    9.1069    9.1069    9.1069    9.2417    9.2417    9.2418    9.2418   10.4753   10.4753
   11.2323   11.2323   11.2329   11.2329   13.4083   13.4083   13.4083   13.4083   13.7284   13.7284
   13.8083   13.8083   13.8083   13.8083   14.4365   14.4365   14.4368   14.4368   14.8309   14.8309
   14.8323   14.8323   15.2691   15.2691   15.5544   15.5544   15.5547   15.5547   15.6674   15.6674
   16.9248   16.9248   16.9253   16.9253   18.5499   18.5499   18.5501   18.5501   18.7886   18.7886
   18.7890   18.7890   19.3129   19.3129   20.6478   20.6478   20.6480   20.6480   21.1783   21.1783
   21.3509   21.3509   21.6938   21.6938   21.6938   21.6938   22.6895   22.6895   22.6896   22.6896
   22.7016   22.7016   23.0197   23.0197   24.8705   24.8705   24.8705   24.8705   25.4571   25.4571
   26.5451   26.5451   27.3397   27.3397   27.3397   27.3397   35.2593   35.2593   35.2599   35.2599
   36.3634   36.3634   37.7662   37.7662   37.7663   37.7663   38.6434   38.6434   38.6438   38.6438
   38.9731   38.9731   39.2347   39.2347   40.1694   40.1694   40.3627   40.3627   40.3637   40.3637
   40.8175   40.8175   40.8177   40.8177   41.3276   41.3276   42.0822   42.0822   42.0824   42.0824
   42.6736   42.6736   42.9673   42.9673   42.9677   42.9677   43.0312   43.0312   43.4291   43.4291
   43.4296   43.4296   43.5868   43.5868   44.0362   44.0362   45.0059   45.0059   45.0060   45.0060
   45.4407   45.4407   49.4434   49.4434   49.4435   49.4435   50.4198   50.4198   51.2267   51.2268
   51.8070   51.8070   52.5792   52.5792   52.5793   52.5793   53.3614   53.3614   53.3616   53.3616
   54.5160   54.5160   54.5162   54.5162   54.9952   54.9952   55.0688   55.0688   56.2209   56.2210
   56.2210   56.2210   57.5466   57.5466   57.5471   57.5471   60.6496   60.6497   60.6500   60.6500
   60.7496   60.7496   61.7253   61.7253   61.7253   61.7253   64.1001   64.1001   64.4058   64.4058
   64.4060   64.4060   65.8563   65.8563   66.3207   66.3207   66.3208   66.3208   66.8225   66.8225
   67.7209   67.7209   67.7213   67.7213   67.7541   67.7541   69.0189   69.0189   69.0214   69.0214
   69.3069   69.3069   69.3546   69.3546   69.5336   69.5336   69.5342   69.5342   69.8200   69.8200
   72.5372   72.5372   72.5376   72.5376   72.9855   72.9856   75.1997   75.1997   75.7358   75.7358
   75.7366   75.7366   76.9953   76.9953   76.9974   76.9974   78.3470   78.3471   79.0137   79.0138
   79.0263   79.0263   79.0266   79.0266   82.2933   82.2933   82.2935   82.2935   85.4251   85.4251
   86.1422   86.1422   86.1428   86.1428   88.0176   88.0176   89.2688   89.2689   89.2692   89.2692
   95.1627   95.1627   95.1628   95.1628  100.0499  100.0499  100.0522  100.0522  101.2050  101.2050
  101.2053  101.2053  101.7510  101.7510  101.7516  101.7517  103.0130  103.0130  103.8165  103.8165
  104.6450  104.6450  107.5091  107.5092  110.4406  110.4406  110.4421  110.4421  110.9842  110.9842
  110.9844  110.9844  112.5799  112.5799  112.5829  112.5830  113.8570  113.8571  114.9256  114.9256
  114.9265  114.9265  117.8478  117.8478  118.3070  118.3070  119.2105  119.2105  121.2307  121.2308
  121.2315  121.2316  121.3001  121.3001  121.3022  121.3022  129.6644  129.6644  131.6028  131.6029
  139.4975  139.4976  139.4983  139.4984  142.1876  142.1876  142.4298  142.4300  142.7634  142.7635
  142.7667  142.7669  149.7242  149.7243  149.7265  149.7267  153.5827  153.5829
  44  1  -27.7062  -27.7062  -27.7062  -27.7062  -26.3598  -26.3598  -26.3598  -26.3598  -23.7766  -23.7766
         -23.7766  -23.7766  -23.7766  -23.7766  -23.7766  -23.7766  -22.9274  -22.9274  -21.8804  -21.8804
  -19.9545  -19.9545  -19.9545  -19.9545  -19.9545  -19.9545  -19.9545  -19.9545  -16.4662  -16.4662
  -16.4662  -16.4662  -16.4661  -16.4661  -16.4661  -16.4661  -16.1829  -16.1829  -16.1829  -16.1829
  -14.7916  -14.7916  -14.7916  -14.7916  -14.6580  -14.6580  -13.8448  -13.8448  -13.8448  -13.8448
  -13.1593  -13.1593  -13.1593  -13.1593  -12.4238  -12.4238  -12.4238  -12.4238  -11.9829  -11.9829
  -11.9829  -11.9829   -9.7195   -9.7195   -9.7195   -9.7195   -9.7195   -9.7195   -9.7195   -9.7195
   -9.4935   -9.4935   -6.2560   -6.2560   -5.4565   -5.4565   -5.4565   -5.4565   -5.4565   -5.4565
   -5.4565   -5.4565   -2.6546   -2.6546   -2.6546   -2.6546   -1.2600   -1.2600   -1.2600   -1.2600
   -0.4216   -0.4216    1.8701    1.8701    1.8701    1.8701    2.0215    2.0215    2.0215    2.0215
    2.0215    2.0215    2.0215    2.0215    2.4373    2.4373    2.4373    2.4373    2.5471    2.5471
    2.5471    2.5471    4.0034    4.0034    4.0034    4.0034    6.2498    6.2498    6.2498    6.2498
    7.2403    7.2403    7.2403    7.2403    7.2403    7.2403    7.2403    7.2403    8.6338    8.6338
    8.6339    8.6339    9.4336    9.4336    9.4336    9.4336    9.4336    9.4336    9.4336    9.4336
   10.5057   10.5057   11.9451   11.9451   12.7444   12.7444   12.7444   12.7444   14.5211   14.5211
   14.7204   14.7204   14.7204   14.7204   14.7446   14.7446   14.7446   14.7446   14.7446   14.7446
   14.7447   14.7447   15.3300   15.3300   15.3300   15.3300   15.3300   15.3300   15.3300   15.3300
   15.4083   15.4083   17.1837   17.1837   18.0500   18.0500   18.0500   18.0500   19.4228   19.4228
   19.4228   19.4228   20.5609   20.5609   20.5609   20.5609   21.3295   21.3295   21.3295   21.3295
   21.3295   21.3295   21.3295   21.3295   21.7426   21.7426   21.7426   21.7426   22.5374   22.5374
   22.5374   22.5374   23.2128   23.2128   23.2128   23.2128   26.1551   26.1551   26.1551   26.1551
   26.1551   26.1551   26.1551   26.1551   28.4657   28.4657   32.6456   32.6456   37.4496   37.4496
   37.4496   37.4496   38.3931   38.3931   38.3931   38.3931   38.3931   38.3931   38.3932   38.3932
   38.5107   38.5107   38.5107   38.5107   39.9525   39.9525   39.9526   39.9526   40.0117   40.0117
   40.0118   40.0118   41.5526   41.5526   42.4022   42.4022   42.4022   42.4022   42.4022   42.4022
   42.4022   42.4022   42.7386   42.7386   42.7386   42.7386   43.5240   43.5240   43.5240   43.5240
   43.5240   43.5240   43.5240   43.5240   44.1174   44.1174   44.1174   44.1174   46.0784   46.0784
   46.1184   46.1184   46.1184   46.1184   51.3846   51.3846   51.3846   51.3846   51.3846   51.3846
   51.3846   51.3846   51.7447   51.7447   51.7447   51.7447   52.3609   52.3609   52.3609   52.3609
   55.4879   55.4879   55.8205   55.8205   55.8426   55.8426   55.8426   55.8426   55.9373   55.9373
   55.9373   55.9373   55.9373   55.9373   55.9373   55.9373   61.8263   61.8263   62.0120   62.0120
   62.0120   62.0120   62.0120   62.0120   62.0120   62.0121   62.4070   62.4070   62.4070   62.4070
   67.2850   67.2850   67.2850   67.2850   67.5810   67.5810   67.5810   67.5810   67.6226   67.6226
   67.6226   67.6226   67.6226   67.6226   67.6226   67.6226   67.8446   67.8446   67.9405   67.9405
   67.9406   67.9406   67.9406   67.9406   67.9406   67.9406   69.0991   69.0991   69.0991   69.0991
   73.3564   73.3564   73.3564   73.3565   73.5974   73.5975   73.5975   73.5975   75.5428   75.5428
   75.5428   75.5428   76.1397   76.1397   79.3004   79.3004   79.3004   79.3004   80.4683   80.4683
   80.4683   80.4683   80.4684   80.4684   80.4685   80.4685   83.4391   83.4391   86.7183   86.7183
   86.7183   86.7183   86.9631   86.9631   86.9631   86.9632   86.9632   86.9632   86.9633   86.9633
   89.9226   89.9226   97.6834   97.6834   98.6342   98.6342   98.6342   98.6342  101.3428  101.3428
  101.3429  101.3429  103.3644  103.3644  103.3644  103.3644  103.3644  103.3644  103.3645  103.3645
  105.6177  105.6178  105.6179  105.6179  111.7293  111.7293  111.7341  111.7341  111.7342  111.7342
  112.5730  112.5730  112.5731  112.5731  112.5736  112.5736  112.5738  112.5739  112.7379  112.7379
  112.7382  112.7382  114.9430  114.9430  114.9431  114.9431  121.1328  121.1329  123.8449  123.8452
  123.8452  123.8452  128.6273  128.6274  128.6275  128.6275  128.6276  128.6276  128.6278  128.6279
  141.1967  141.1968  141.1969  141.1970  144.2850  144.2851  144.2851  144.2852  144.2853  144.2855
  144.2858  144.2858  147.7054  147.7056  147.7061  147.7063  147.7206  147.7207
siesta: Fermi energy =      -7.198133 eV

siesta: Program's energy decomposition (eV):
siesta: Ebs     =     -2491.397465
siesta: Eions   =      9434.507561
siesta: Ena     =      2157.804338
siesta: Ekin    =      4080.911329
siesta: Enl     =      -401.093002
siesta: Eso     =         0.000000
siesta: Edftu   =         0.000000
siesta: DEna    =      -209.678770
siesta: DUscf   =        17.286057
siesta: DUext   =         0.000000
siesta: Exc     =     -1755.502876
siesta: eta*DQ  =         0.000000
siesta: Emadel  =         0.000000
siesta: Emeta   =         0.000000
siesta: Emolmec =        -7.360980
siesta: Ekinion =         0.000000
siesta: Eharris =     -5552.141465
siesta: Etot    =     -5552.141465
siesta: FreeEng =     -5552.160739

siesta: Final energy (eV):
siesta:  Band Struct. =   -2491.397465
siesta:       Kinetic =    4080.911329
siesta:       Hartree =     471.761451
siesta:       Edftu   =       0.000000
siesta:       Eso     =       0.000000
siesta:    Ext. field =       0.000000
siesta:   Exch.-corr. =   -1755.502876
siesta:  Ion-electron =   -5225.804128
siesta:       Ion-ion =   -3116.146261
siesta:       Ekinion =       0.000000
siesta:         Total =   -5552.141465
siesta:         Fermi =      -7.198133

siesta: Stress tensor (static) (eV/Ang**3):
siesta:    -0.078710   -0.000106    0.000000
siesta:    -0.000106   -0.078833   -0.000000
siesta:     0.000000    0.000000   -0.925622

siesta: Cell volume =        196.894451 Ang**3

siesta: Pressure (static):
siesta:                Solid            Molecule  Units
siesta:           0.00393235          0.00393243  Ry/Bohr**3
siesta:           0.36105480          0.36106207  eV/Ang**3
siesta:         578.47981898        578.49146704  kBar
(Free)E+ p_basis*V_orbitals  =       -5518.630933
(Free)Eharris+ p_basis*V_orbitals  =       -5518.630933

cite: Please see "graphite_scf.bib" for an exhaustive BiBTeX file.
cite: Please clearly indicate Siesta version in published work: 4.1.5
cite: This calculation has made use of the following articles
cite: which are encouraged to be cited in a published work.
        Primary SIESTA paper
          DOI: www.doi.org/10.1088/0953-8984/14/11/302

>> End of run:   1-NOV-2022  17:37:06
Job completed
