Siesta Version  : 4.1.5
Architecture    : x86_64-unknown-linux-gnu--unknown
Compiler version: GNU Fortran (GCC) 11.3.0
Compiler flags  : mpif90 -g -O2 -fallow-argument-mismatch
PP flags        : -DMPI -DFC_HAVE_FLUSH -DFC_HAVE_ABORT
Libraries       :  -I/global/software/sl-7.x86_64/modules/intel/2020.4.304/mkl/include  /globall/software/sl-7.x86_64/modules/intel/2020.4.304/mkl/lib/intel64/libmkl_scalapack_lp64.a -Wl,--start-group /global/software/sl-7.x86_64/modules/intel/2020.4.304/mkl/lib/intel64/libmkl_intel_lp64.a /global/software/sl-7.x86_64/modules/intel/2020.4.304/mkl/lib/intel64/libmkl_sequential.a /global/software/sl-7.x86_64/modules/intel/2020.4.304/mkl/lib/intel64/libmkl_core.a /global/software/sl-7.x86_64/modules/intel/2020.4.304/mkl/lib/intel64/libmkl_blacs_openmpi_lp64.a -Wl,--end-group -lpthread -lm -ldl
PARALLEL version

* Running on 20 nodes in parallel
>> Start of run:   1-NOV-2022  19:08:41

                           ***********************       
                           *  WELCOME TO SIESTA  *       
                           ***********************       

reinit: Reading from standard input
reinit: Dumped input in INPUT_TMP.06795
************************** Dump of input data file ****************************
SystemName graphite_scf
SystemLabel graphite_scf
NumberOfAtoms   36
NumberOfSpecies 1
%block ChemicalSpeciesLabel
1  6   C-gga
%endblock ChemicalSpeciesLabel
PAO.BasisSize  DZP
PAO.EnergyShift  10 meV
%block PS.Lmax
C-gga   2
%endblock PS.Lmax
LatticeConstant 1.000000 Ang
%block LatticeVectors
	7.3920000000	0.0000000000	0.0000000000
	-3.6960000000	6.4016597848	0.0000000000
	0.0000000000	0.0000000000	9.7309500000
%endblock LatticeVectors
AtomicCoordinatesFormat Ang
%block AtomicCoordinatesAndAtomicSpecies
	0.00000000	0.00000000	2.43273750	1
	0.00000000	0.00000000	7.29821250	1
	-1.23200000	2.13388659	2.43273750	1
	-2.46400000	4.26777319	7.29821250	1
	2.46400000	4.26777319	2.43273750	1
	1.23200000	2.13388659	7.29821250	1
	2.46400000	0.00000000	2.43273750	1
	4.92800000	0.00000000	7.29821250	1
	2.46400000	0.00000000	7.29821250	1
	4.92800000	0.00000000	2.43273750	1
	2.46400000	4.26777319	7.29821250	1
	1.23200000	2.13388659	2.43273750	1
	-1.23200000	2.13388659	7.29821250	1
	-2.46400000	4.26777319	2.43273750	1
	0.00000000	4.26777319	2.43273750	1
	3.69600000	2.13388659	7.29821250	1
	3.69600000	2.13388659	2.43273750	1
	0.00000000	4.26777319	7.29821250	1
	0.00000000	1.42258964	2.43273750	1
	3.69600000	4.97907014	7.29821250	1
	2.46400123	5.69036496	2.43273750	1
	1.23199877	0.71129482	7.29821250	1
	-2.46400123	5.69036496	2.43273750	1
	6.16000123	0.71129482	7.29821250	1
	-1.23200000	3.55647624	2.43273750	1
	4.92800000	2.84518355	7.29821250	1
	1.23200123	3.55647837	2.43273750	1
	2.46399877	2.84518142	7.29821250	1
	-0.00000123	5.69036496	2.43273750	1
	3.69600123	0.71129482	7.29821250	1
	2.46400000	1.42258964	2.43273750	1
	1.23200000	4.97907014	7.29821250	1
	4.92800123	1.42259177	2.43273750	1
	-1.23200123	4.97906801	7.29821250	1
	3.69599877	3.55647837	2.43273750	1
	0.00000123	2.84518142	7.29821250	1
%endblock AtomicCoordinatesAndAtomicSpecies
Kgrid_NoTRS  T
%block kgrid_MonkhorstPack
4       0       0       0.0
0       4       0       0.0
0       0       4       0.0
%endblock kgrid_MonkhorstPack
AtomCoorFormatOut Ang
BlockSize 1
#ProcessorY 12
Diag.ParallelOverK   T
Diag.DivideAndConquer F
MeshCutoff   300 Ry
SCF.FreeE.Tolerance 1E-3 eV
SCF.EDM.Tolerance   5E-3 eV
DM.Tolerance  1E-3
DM.Require.Energy.Convergence T
DM.NumberPulay 4
XC.Functional GGA
XC.Authors    PBE
UseSaveData        F
SolutionMethod     diagon
MD.TypeOfRun       CG
MD.VariableCell    F
MD.NumCGsteps      00
MD.MaxCGDispl      0.200000 Bohr
#MD.MaxStressTol    1.000000 GPa
#MD.MaxForceTol     0.010000 eV/Ang
WriteMDHistory T
WriteCoorStep T
WriteForces T
WriteCoorStep    T
WriteEigenValues T
WriteDM    F
MM.UnitsDistance Ang  # what this program prints out DO NOT CHANGE
MM.UnitsEnergy    eV  # what this program prints out DO NOT CHANGE
MM.Grimme.S6     0.75 # Grimme-paper for PBE (correct for your functional)
MM.Grimme.D     20.   # Grimme-paper (correct for your functional)
%block MM.Potentials
  1   1 Grimme     18.14      2.904 # C, 10.1002/jcc.20495
%endblock MM.Potentials
#%block ProjectedDensityOfStates
# -200.0  120.0  0.4  12800  eV
#%endblock ProjectedDensityOfStates
************************** End of input data file *****************************

reinit: -----------------------------------------------------------------------
reinit: System Name: graphite_scf
reinit: -----------------------------------------------------------------------
reinit: System Label: graphite_scf
reinit: -----------------------------------------------------------------------
Reading two-body potentials
Grimme - two-body potential between 1 and 1

initatom: Reading input for the pseudopotentials and atomic orbitals ----------
Species number:   1 Atomic number:    6 Label: C-gga

Ground state valence configuration:   2s02  2p02
Reading pseudopotential information in formatted form from C-gga.psf

Valence configuration for pseudopotential generation:
2s( 2.00) rc: 1.56
2p( 2.00) rc: 1.56
3d( 0.00) rc: 1.56
4f( 0.00) rc: 1.56
relmxkb: Read Max KB Ang. Momentum=    2 for species C-gga

<basis_specs>
===============================================================================
C-gga                Z=   6    Mass=  12.010        Charge= 0.17977+309
Lmxo=1 Lmxkb= 2    BasisType=split      Semic=F
L=0  Nsemic=0  Cnfigmx=2
          i=1  nzeta=2  polorb=0  (2s)
            splnorm:   0.15000    
               vcte:    0.0000    
               rinn:    0.0000    
               qcoe:    0.0000    
               qyuk:    0.0000    
               qwid:   0.10000E-01
                rcs:    0.0000      0.0000    
            lambdas:    1.0000      1.0000    
L=1  Nsemic=0  Cnfigmx=2
          i=1  nzeta=2  polorb=1  (2p)
            splnorm:   0.15000    
               vcte:    0.0000    
               rinn:    0.0000    
               qcoe:    0.0000    
               qyuk:    0.0000    
               qwid:   0.10000E-01
                rcs:    0.0000      0.0000    
            lambdas:    1.0000      1.0000    
-------------------------------------------------------------------------------
L=0  Nkbl=1  erefs: 0.17977+309
L=1  Nkbl=1  erefs: 0.17977+309
L=2  Nkbl=1  erefs: 0.17977+309
===============================================================================
</basis_specs>

atom: Called for C-gga                 (Z =   6)

read_vps: Pseudopotential generation method:
read_vps: ATM 3.2.2 Troullier-Martins                       
Valence charge for ps generation:    4.00000

xc_check: Exchange-correlation functional:
xc_check: GGA Perdew, Burke & Ernzerhof 1996
V l=0 = -2*Zval/r beyond r=  1.5227
V l=1 = -2*Zval/r beyond r=  1.5227
V l=2 = -2*Zval/r beyond r=  1.5227
All V_l potentials equal beyond r=  1.4851
This should be close to max(r_c) in ps generation
All pots = -2*Zval/r beyond r=  1.5227

VLOCAL1: 99.0% of the norm of Vloc inside     19.682 Ry
VLOCAL1: 99.9% of the norm of Vloc inside     44.856 Ry
atom: Maximum radius for 4*pi*r*r*local-pseudopot. charge    1.79142
atom: Maximum radius for r*vlocal+2*Zval:    1.54183
GHOST: No ghost state for L =  0
GHOST: No ghost state for L =  1
GHOST: No ghost state for L =  2

KBgen: Kleinman-Bylander projectors: 
   l= 0   rc=  1.661951   el= -1.010689   Ekb=  5.289847   kbcos=  0.316429
   l= 1   rc=  1.661951   el= -0.388490   Ekb= -4.102504   kbcos= -0.351025
   l= 2   rc=  1.747182   el=  0.001971   Ekb= -1.006005   kbcos= -0.008530

KBgen: Total number of Kleinman-Bylander projectors:    9
atom: -------------------------------------------------------------------------

atom: SANKEY-TYPE ORBITALS:
atom: Selected multiple-zeta basis: split     

SPLIT: Orbitals with angular momentum L= 0

SPLIT: Basis orbitals for state 2s

SPLIT: PAO cut-off radius determined from an
SPLIT: energy shift=  0.000735 Ry

   izeta = 1
                 lambda =    1.000000
                     rc =    5.948690
                 energy =   -1.010099
                kinetic =    0.827121
    potential(screened) =   -1.837220
       potential(ionic) =   -5.392783

   izeta = 2
                 rmatch =    3.518811
              splitnorm =    0.150000
                 energy =   -0.877891
                kinetic =    1.289227
    potential(screened) =   -2.167118
       potential(ionic) =   -5.982073

SPLIT: Orbitals with angular momentum L= 1

SPLIT: Basis orbitals for state 2p

SPLIT: PAO cut-off radius determined from an
SPLIT: energy shift=  0.000735 Ry

   izeta = 1
                 lambda =    1.000000
                     rc =    7.638387
                 energy =   -0.387843
                kinetic =    2.314739
    potential(screened) =   -2.702582
       potential(ionic) =   -6.092371

   izeta = 2
                 rmatch =    3.840617
              splitnorm =    0.150000
                 energy =   -0.270479
                kinetic =    3.438347
    potential(screened) =   -3.708826
       potential(ionic) =   -7.497707

POLgen: Perturbative polarization orbital with L=  2

POLgen: Polarization orbital for state 2p

   izeta = 1
                     rc =    7.638387
                 energy =    0.921402
                kinetic =    1.955040
    potential(screened) =   -1.033637
       potential(ionic) =   -3.679558
atom: Total number of Sankey-type orbitals: 13

atm_pop: Valence configuration (for local Pseudopot. screening):
 2s( 2.00)                                                            
 2p( 2.00)                                                            
Vna: chval, zval:    4.00000   4.00000

Vna:  Cut-off radius for the neutral-atom potential:   7.638387

atom: _________________________________________________________________________

prinput: Basis input ----------------------------------------------------------

PAO.BasisType split     

%block ChemicalSpeciesLabel
    1    6 C-gga                   # Species index, atomic number, species label
%endblock ChemicalSpeciesLabel

%block PAO.Basis                 # Define Basis set
C-gga                 2                    # Species label, number of l-shells
 n=2   0   2                         # n, l, Nzeta 
   5.949      3.519   
   1.000      1.000   
 n=2   1   2 P   1                   # n, l, Nzeta, Polarization, NzetaPol
   7.638      3.841   
   1.000      1.000   
%endblock PAO.Basis

prinput: ----------------------------------------------------------------------

coor:   Atomic-coordinates input format  =     Cartesian coordinates
coor:                                          (in Angstroms)

siesta: Atomic coordinates (Bohr) and species
siesta:      0.00000   0.00000   4.59721  1        1
siesta:      0.00000   0.00000  13.79163  1        2
siesta:     -2.32814   4.03246   4.59721  1        3
siesta:     -4.65629   8.06493  13.79163  1        4
siesta:      4.65629   8.06493   4.59721  1        5
siesta:      2.32814   4.03246  13.79163  1        6
siesta:      4.65629   0.00000   4.59721  1        7
siesta:      9.31257   0.00000  13.79163  1        8
siesta:      4.65629   0.00000  13.79163  1        9
siesta:      9.31257   0.00000   4.59721  1       10
siesta:      4.65629   8.06493  13.79163  1       11
siesta:      2.32814   4.03246   4.59721  1       12
siesta:     -2.32814   4.03246  13.79163  1       13
siesta:     -4.65629   8.06493   4.59721  1       14
siesta:      0.00000   8.06493   4.59721  1       15
siesta:      6.98443   4.03246  13.79163  1       16
siesta:      6.98443   4.03246   4.59721  1       17
siesta:      0.00000   8.06493  13.79163  1       18
siesta:      0.00000   2.68831   4.59721  1       19
siesta:      6.98443   9.40908  13.79163  1       20
siesta:      4.65629  10.75324   4.59721  1       21
siesta:      2.32814   1.34415  13.79163  1       22
siesta:     -4.65629  10.75324   4.59721  1       23
siesta:     11.64072   1.34415  13.79163  1       24
siesta:     -2.32814   6.72077   4.59721  1       25
siesta:      9.31257   5.37662  13.79163  1       26
siesta:      2.32815   6.72077   4.59721  1       27
siesta:      4.65628   5.37662  13.79163  1       28
siesta:     -0.00000  10.75324   4.59721  1       29
siesta:      6.98443   1.34415  13.79163  1       30
siesta:      4.65629   2.68831   4.59721  1       31
siesta:      2.32814   9.40908  13.79163  1       32
siesta:      9.31258   2.68831   4.59721  1       33
siesta:     -2.32815   9.40908  13.79163  1       34
siesta:      6.98443   6.72077   4.59721  1       35
siesta:      0.00000   5.37662  13.79163  1       36

siesta: System type = bulk      

initatomlists: Number of atoms, orbitals, and projectors:     36   468   324

siesta: ******************** Simulation parameters ****************************
siesta:
siesta: The following are some of the parameters of the simulation.
siesta: A complete list of the parameters used, including default values,
siesta: can be found in file out.fdf
siesta:
redata: Spin configuration                          = none
redata: Number of spin components                   = 1
redata: Time-Reversal Symmetry                      = T
redata: Spin spiral                                 = F
redata: Long output                                 =   F
redata: Number of Atomic Species                    =        1
redata: Charge density info will appear in .RHO file
redata: Write Mulliken Pop.                         = NO
redata: Matel table size (NRTAB)                    =     1024
redata: Mesh Cutoff                                 =   300.0000 Ry
redata: Net charge of the system                    =     0.0000 |e|
redata: Min. number of SCF Iter                     =        0
redata: Max. number of SCF Iter                     =     1000
redata: SCF convergence failure will abort job
redata: SCF mix quantity                            = Hamiltonian
redata: Mix DM or H after convergence               =   F
redata: Recompute H after scf cycle                 =   F
redata: Mix DM in first SCF step                    =   T
redata: Write Pulay info on disk                    =   F
redata: New DM Occupancy tolerance                  = 0.000000000001
redata: No kicks to SCF
redata: DM Mixing Weight for Kicks                  =     0.5000
redata: Require Harris convergence for SCF          =   F
redata: Harris energy tolerance for SCF             =     0.000100 eV
redata: Require DM convergence for SCF              =   T
redata: DM tolerance for SCF                        =     0.001000
redata: Require EDM convergence for SCF             =   F
redata: EDM tolerance for SCF                       =     0.005000 eV
redata: Require H convergence for SCF               =   T
redata: Hamiltonian tolerance for SCF               =     0.001000 eV
redata: Require (free) Energy convergence for SCF   =   T
redata: (free) Energy tolerance for SCF             =     0.001000 eV
redata: Using Saved Data (generic)                  =   F
redata: Use continuation files for DM               =   F
redata: Neglect nonoverlap interactions             =   F
redata: Method of Calculation                       = Diagonalization
redata: Electronic Temperature                      =   299.9869 K
redata: Fix the spin of the system                  =   F
redata: Dynamics option                             = Single-point calculation
mix.SCF: Pulay mixing                            = Pulay
mix.SCF:    Variant                              = stable
mix.SCF:    History steps                        = 4
mix.SCF:    Linear mixing weight                 =     0.250000
mix.SCF:    Mixing weight                        =     0.250000
mix.SCF:    SVD condition                        = 0.1000E-07
redata: ***********************************************************************

%block SCF.Mixers
  Pulay
%endblock SCF.Mixers

%block SCF.Mixer.Pulay
  # Mixing method
  method pulay
  variant stable

  # Mixing options
  weight 0.2500
  weight.linear 0.2500
  history 4
%endblock SCF.Mixer.Pulay

DM_history_depth set to one: no extrapolation allowed by default for geometry relaxation
Size of DM history Fstack: 1
Total number of electrons:   144.000000
Total ionic charge:   144.000000

* ProcessorY, Blocksize:    4   1


* Orbital distribution balance (max,min):    24    23

k-point displ. along   1 input, could be:     0.00    0.50
k-point displ. along   2 input, could be:     0.00    0.50
k-point displ. along   3 input, could be:     0.00    0.50
 Kpoints in:           48 . Kpoints trimmed:           44

siesta: k-grid: Number of k-points =    44
siesta: k-grid: Cutoff (effective) =    14.784 Ang
siesta: k-grid: Supercell and displacements
siesta: k-grid:    4   0   0      0.000
siesta: k-grid:    0   4   0      0.000
siesta: k-grid:    0   0   4      0.000

diag: Algorithm                                     = Expert
diag: Parallel over k                               =   T
diag: Use parallel 2D distribution                  =   T
diag: Parallel block-size                           = 1
diag: Parallel distribution                         =     4 x     5
diag: Used triangular part                          = Lower
diag: Absolute tolerance                            =  0.100E-15
diag: Orthogonalization factor                      =  0.100E-05
diag: Memory factor                                 =  1.0000

superc: Internal auxiliary supercell:     5 x     5 x     3  =      75
superc: Number of atoms, orbitals, and projectors:   2700  35100  24300


ts: **************************************************************
ts: Save H and S matrices                           =    F
ts: Save DM and EDM matrices                        =    F
ts: Only save the overlap matrix S                  =    F
ts: **************************************************************

************************ Begin: TS CHECKS AND WARNINGS ************************
************************ End: TS CHECKS AND WARNINGS **************************


                     ====================================
                        Single-point calculation
                     ====================================

outcoor: Atomic coordinates (Ang):                          
    0.00000000    0.00000000    2.43273750   1       1  C-gga
    0.00000000    0.00000000    7.29821250   1       2  C-gga
   -1.23200000    2.13388659    2.43273750   1       3  C-gga
   -2.46400000    4.26777319    7.29821250   1       4  C-gga
    2.46400000    4.26777319    2.43273750   1       5  C-gga
    1.23200000    2.13388659    7.29821250   1       6  C-gga
    2.46400000    0.00000000    2.43273750   1       7  C-gga
    4.92800000    0.00000000    7.29821250   1       8  C-gga
    2.46400000    0.00000000    7.29821250   1       9  C-gga
    4.92800000    0.00000000    2.43273750   1      10  C-gga
    2.46400000    4.26777319    7.29821250   1      11  C-gga
    1.23200000    2.13388659    2.43273750   1      12  C-gga
   -1.23200000    2.13388659    7.29821250   1      13  C-gga
   -2.46400000    4.26777319    2.43273750   1      14  C-gga
    0.00000000    4.26777319    2.43273750   1      15  C-gga
    3.69600000    2.13388659    7.29821250   1      16  C-gga
    3.69600000    2.13388659    2.43273750   1      17  C-gga
    0.00000000    4.26777319    7.29821250   1      18  C-gga
    0.00000000    1.42258964    2.43273750   1      19  C-gga
    3.69600000    4.97907014    7.29821250   1      20  C-gga
    2.46400123    5.69036496    2.43273750   1      21  C-gga
    1.23199877    0.71129482    7.29821250   1      22  C-gga
   -2.46400123    5.69036496    2.43273750   1      23  C-gga
    6.16000123    0.71129482    7.29821250   1      24  C-gga
   -1.23200000    3.55647624    2.43273750   1      25  C-gga
    4.92800000    2.84518355    7.29821250   1      26  C-gga
    1.23200123    3.55647837    2.43273750   1      27  C-gga
    2.46399877    2.84518142    7.29821250   1      28  C-gga
   -0.00000123    5.69036496    2.43273750   1      29  C-gga
    3.69600123    0.71129482    7.29821250   1      30  C-gga
    2.46400000    1.42258964    2.43273750   1      31  C-gga
    1.23200000    4.97907014    7.29821250   1      32  C-gga
    4.92800123    1.42259177    2.43273750   1      33  C-gga
   -1.23200123    4.97906801    7.29821250   1      34  C-gga
    3.69599877    3.55647837    2.43273750   1      35  C-gga
    0.00000123    2.84518142    7.29821250   1      36  C-gga

superc: Internal auxiliary supercell:     5 x     5 x     3  =      75
superc: Number of atoms, orbitals, and projectors:   2700  35100  24300

outcell: Unit cell vectors (Ang):
        7.392000    0.000000    0.000000
       -3.696000    6.401660    0.000000
        0.000000    0.000000    9.730950

outcell: Cell vector modules (Ang)   :    7.392000    7.392000    9.730950
outcell: Cell angles (23,13,12) (deg):     90.0000     90.0000    120.0000
outcell: Cell volume (Ang**3)        :    460.4790
<dSpData1D:S at geom step 0
  <sparsity:sparsity for geom step 0
    nrows_g=468 nrows=24 sparsity=.1974 nnzs=43238, refcount: 7>
  <dData1D:(new from dSpData1D) n=43238, refcount: 1>
refcount: 1>
new_DM -- step:     1
Initializing Density Matrix...
DM filled with atomic data:
<dSpData2D:DM initialized from atoms
  <sparsity:sparsity for geom step 0
    nrows_g=468 nrows=24 sparsity=.1974 nnzs=43238, refcount: 8>
  <dData2D:DM n=43238 m=1, refcount: 1>
refcount: 1>
No. of atoms with KB's overlaping orbs in proc 0. Max # of overlaps:     156     332
New grid distribution:   1
           1       1:   36    1:    9    1:   11
           2       1:   36    1:    9   12:   22
           3       1:   36    1:    9   23:   33
           4       1:   36    1:    9   34:   44
           5       1:   36    1:    9   45:   54
           6       1:   36   10:   18    1:   11
           7       1:   36   10:   18   12:   22
           8       1:   36   10:   18   23:   33
           9       1:   36   10:   18   34:   44
          10       1:   36   10:   18   45:   54
          11       1:   36   19:   27    1:   11
          12       1:   36   19:   27   12:   22
          13       1:   36   19:   27   23:   33
          14       1:   36   19:   27   34:   44
          15       1:   36   19:   27   45:   54
          16       1:   36   28:   36    1:   11
          17       1:   36   28:   36   12:   22
          18       1:   36   28:   36   23:   33
          19       1:   36   28:   36   34:   44
          20       1:   36   28:   36   45:   54

InitMesh: MESH =    72 x    72 x   108 =      559872
InitMesh: (bp) =    36 x    36 x    54 =       69984
InitMesh: Mesh cutoff (required, used) =   300.000   340.439 Ry
ExtMesh (bp) on 0 =   128 x   101 x   103 =     1331584
New grid distribution:   2
           1       1:   15   19:   36    1:   13
           2       1:   15    1:   18   14:   27
           3      16:   36    1:    9    9:   27
           4       1:   14    1:   18   28:   40
           5      15:   36   10:   18   36:   54
           6      16:   36   19:   27   36:   54
           7      16:   36   10:   18    9:   27
           8      15:   36    1:   18   28:   35
           9      16:   36   28:   36   36:   54
          10       1:   14    1:   18   41:   54
          11      16:   36    1:   18    1:    8
          12       1:   15   19:   36   14:   27
          13      16:   36   19:   27    9:   27
          14       1:   15   19:   36   28:   40
          15       1:   15   19:   36   41:   54
          16      16:   36   19:   36    1:    8
          17      15:   36    1:    9   36:   54
          18      16:   36   28:   36    9:   27
          19       1:   15    1:   18    1:   13
          20      16:   36   19:   36   28:   35
New grid distribution:   3
           1      16:   36   19:   27   37:   54
           2       1:   15    1:   18   15:   27
           3      16:   36    1:    9   10:   27
           4       1:   15    1:   18   28:   41
           5       1:   15    1:   18   42:   54
           6       1:   15    1:   18    1:   14
           7      16:   36    1:   18    1:    9
           8      16:   36   10:   18   10:   27
           9      16:   36   19:   36    1:    9
          10      16:   36   10:   18   37:   54
          11       1:   15   19:   36    1:   14
          12      16:   36    1:   18   28:   36
          13      16:   36   19:   36   28:   36
          14       1:   15   19:   36   28:   41
          15       1:   15   19:   36   42:   54
          16      16:   36   28:   36   10:   27
          17       1:   15   19:   36   15:   27
          18      16:   36    1:    9   37:   54
          19      16:   36   19:   27   10:   27
          20      16:   36   28:   36   37:   54
Setting up quadratic distribution...
ExtMesh (bp) on 0 =   107 x   110 x   105 =     1235850
PhiOnMesh: Number of (b)points on node 0 =                 3510
PhiOnMesh: nlist on node 0 =               717756

stepf: Fermi-Dirac step function

siesta: Program's energy decomposition (eV):
siesta: Ebs     =     -2025.591638
siesta: Eions   =      9434.507561
siesta: Ena     =      2224.382601
siesta: Ekin    =      4046.914272
siesta: Enl     =      -410.738380
siesta: Eso     =         0.000000
siesta: Edftu   =         0.000000
siesta: DEna    =      -292.857168
siesta: DUscf   =        30.258114
siesta: DUext   =         0.000000
siesta: Exc     =     -1736.010947
siesta: eta*DQ  =         0.000000
siesta: Emadel  =         0.000000
siesta: Emeta   =         0.000000
siesta: Emolmec =        -2.494651
siesta: Ekinion =         0.000000
siesta: Eharris =     -5477.793584
siesta: Etot    =     -5575.053722
siesta: FreeEng =     -5575.070830

        iscf     Eharris(eV)        E_KS(eV)     FreeEng(eV)     dDmax    Ef(eV) dHmax(eV)
   scf:    1    -5477.793584    -5575.053722    -5575.070830  1.838530 -7.868711  4.156811
timer: Routine,Calls,Time,% = IterSCF        1       6.685  68.75
   scf:    2    -5580.255619    -5577.725151    -5577.742023  0.074426 -7.181088  2.735965
   scf:    3    -5581.512648    -5579.947300    -5579.963468  0.130222 -5.891649  0.091425
   scf:    4    -5579.931182    -5579.941131    -5579.957378  0.008412 -6.008215  0.139756
   scf:    5    -5579.954302    -5579.948738    -5579.964950  0.007675 -5.958806  0.005622
   scf:    6    -5579.948744    -5579.948741    -5579.964953  0.000054 -5.958298  0.004329
   scf:    7    -5579.948752    -5579.948747    -5579.964957  0.000157 -5.956313  0.000060

SCF Convergence by FreeE+DM+H criterion
|FreeE_i-FreeE_(i-1)| (eV) <     0.00100000
max |DM_out - DM_in|         :     0.0001574433
max |H_out - H_in|      (eV) :     0.0000601621
SCF cycle converged after 7 iterations

Using DM_out to compute the final energy and forces
No. of atoms with KB's overlaping orbs in proc 0. Max # of overlaps:     156     332

MM-Stress (kbar):        2.20        2.20        7.73        0.00        0.00       -0.00

siesta: E_KS(eV) =            -5579.9487

siesta: E_KS - E_eggbox =     -5579.9487

siesta: Atomic forces (eV/Ang):
     1   -0.000081    0.000046    0.000000
     2    0.000081   -0.000047    0.000000
     3   -0.000029    0.000002    0.000000
     4    0.000029   -0.000002    0.000000
     5   -0.000068    0.000114    0.000000
     6    0.000068   -0.000113    0.000000
     7   -0.000145    0.000024   -0.000000
     8    0.000145   -0.000024    0.000000
     9    0.000065   -0.000065   -0.000000
    10   -0.000065    0.000065    0.000000
    11    0.000073   -0.000024    0.000000
    12   -0.000073    0.000024   -0.000000
    13    0.000104   -0.000051   -0.000000
    14   -0.000104    0.000051    0.000000
    15   -0.000081    0.000047   -0.000000
    16    0.000081   -0.000046    0.000000
    17   -0.000081    0.000047   -0.000000
    18    0.000081   -0.000047    0.000000
    19    0.000090    0.000064    0.000000
    20   -0.000090   -0.000064   -0.000000
    21   -0.000020   -0.000094    0.000000
    22    0.000020    0.000094   -0.000000
    23    0.000172   -0.000110    0.000000
    24   -0.000173    0.000110    0.000000
    25    0.000089    0.000049   -0.000000
    26   -0.000089   -0.000050    0.000000
    27   -0.000007   -0.000088   -0.000000
    28    0.000007    0.000087    0.000000
    29    0.000160   -0.000102    0.000000
    30   -0.000160    0.000102    0.000000
    31    0.000089    0.000050    0.000000
    32   -0.000089   -0.000050    0.000000
    33   -0.000007   -0.000088    0.000000
    34    0.000007    0.000088   -0.000000
    35    0.000160   -0.000103    0.000000
    36   -0.000160    0.000102    0.000000
----------------------------------------
   Tot   -0.000000    0.000000    0.000000
----------------------------------------
   Max    0.000173
   Res    0.000070    sqrt( Sum f_i^2 / 3N )
----------------------------------------
   Max    0.000173    constrained

Stress tensor Voigt[x,y,z,yz,xz,xy] (kbar):     -100.89     -100.98       10.07       -0.00        0.00       -0.07
(Free)E + p*V (eV/cell)    -5561.5909
Target enthalpy (eV/cell)    -5579.9650

siesta: Eigenvalues (eV):
  ik is       eps
   1  1  -25.0008  -24.9958  -24.3535  -24.3535  -24.3480  -24.3480  -22.4490  -22.4490  -22.4442  -22.4442
         -21.2257  -21.2218  -20.6644  -20.6644  -20.6615  -20.6615  -19.8491  -19.8482  -18.8389  -18.8377
  -18.5764  -18.5764  -18.5751  -18.5751  -16.5437  -16.5425  -15.5120  -15.5120  -15.5089  -15.5089
  -14.9521  -14.9493  -14.2374  -14.2337  -13.4847  -13.4847  -13.4791  -13.4791  -12.9994  -12.9198
  -12.9198  -12.9167  -12.9167  -12.8407  -12.4740  -12.4739  -12.4699  -12.4699  -12.2362  -12.2362
  -12.0848  -12.0848  -11.0905  -11.0905  -11.0877  -11.0877  -10.7800  -10.7787  -10.1066  -10.1057
  -10.0549  -10.0549   -9.9300   -9.9300   -8.7174   -8.6127   -8.4418   -8.4418   -8.3711   -8.3711
   -7.7341   -7.6886   -4.5038   -4.4614   -4.0092   -4.0092   -3.9362   -3.9362   -3.1603   -3.1264
   -1.5337   -1.5337   -1.4989   -1.4988   -1.1498   -0.2323   -0.2323    2.1779    2.1779    2.1907
    2.1907    2.2756    2.2756    2.2935    2.2935    2.5089    2.6590    2.7424    2.8631    2.8631
    2.9442    2.9442    3.1839    3.1839    3.2265    3.2265    3.7671    3.9015    3.9023    3.9329
    3.9373    4.0508    4.0925    4.3165    4.3165    4.4311    4.4311    4.6265    4.6265    5.0898
    5.0898    5.3476    5.4768    5.4768    5.4846    5.4846    5.9461    6.2406    6.4358    6.4358
    6.5681    6.7554    6.8116    6.9130    6.9130    7.1539    7.1539    7.3470    7.3801    7.3801
    7.4887    7.4887    7.4985    7.7721    7.7777    7.9512    8.0822    8.1379    8.2344    8.5268
    8.5268    8.7056    8.7056    8.7562    9.1371    9.1371    9.2487    9.2487    9.3106    9.3106
    9.3361    9.3361    9.6239    9.6239    9.6444   10.2066   10.4900   10.4900   11.5381   11.9525
   11.9525   12.1565   13.4397   13.4397   13.7049   13.7049   13.7081   13.7081   13.8306   13.9362
   13.9761   13.9761   14.0578   14.0578   14.1529   14.1529   14.3110   14.8299   14.8353   15.3219
   15.4401   15.4401   16.8200   17.2157   17.6552   17.6552   17.7704   17.8796   18.1055   18.1391
   18.1391   18.1693   18.1693   18.2910   18.3081   18.3923   18.5830   18.5830   18.8459   18.9143
   18.9143   19.2218   19.2218   19.4996   19.6932   19.7869   19.9967   20.1839   20.1839   20.2293
   20.2293   20.4640   20.4640   20.5322   20.5322   20.8379   20.8379   21.6247   21.6247   21.6506
   21.6507   21.7459   21.7459   21.7500   22.4457   22.4457   23.2116   23.2851   23.4905   23.4905
   23.9504   23.9504   24.0885   24.0885   24.2880   24.2880   25.3460   25.4844   26.9289   26.9289
   27.0141   27.0141   28.1927   28.6057   28.7546   28.7546   30.6036   30.7735   30.8701   31.4208
   31.4208   32.5270   32.5271   32.8940   32.8940   33.3122   34.0746   34.0746   34.2061   34.2096
   34.2096   34.4772   34.4772   36.1506   36.2212   37.8498   37.8498   37.8707   37.8707   38.0172
   38.2080   38.2080   38.7455   39.0640   39.0640   39.1560   40.6140   40.6140   41.4368   41.5722
   42.1921   42.1921   42.6181   42.9217   42.9217   42.9397   42.9397   43.1071   43.1071   43.1468
   43.4637   43.7776   43.7776   43.8800   43.8800   44.0844   44.0844   44.3675   44.5852   44.7134
   44.7134   45.0762   45.1893   45.1987   45.2478   45.3672   45.6816   45.6817   45.7733   45.7733
   46.3121   46.3121   46.4828   46.7079   46.7684   47.3305   47.3305   48.2985   48.2985   48.9019
   48.9886   48.9886   49.0239   49.1902   49.1902   49.3027   49.5365   50.2579   50.2579   51.0242
   51.0242   51.3943   52.2531   52.2531   52.8180   52.8181   53.3529   53.3530   53.4477   53.4477
   53.9538   53.9538   54.4816   54.4816   54.7253   54.9251   55.5839   58.5682   59.5492   60.0952
   60.0952   60.1050   60.1111   60.1111   60.9533   60.9702   61.7165   61.7165   61.7256   61.7404
   61.7414   61.8955   61.8956   61.9514   61.9553   62.1502   62.1502   63.2060   63.2061   63.7838
   63.7838   64.9318   64.9318   66.5875   66.5875   66.7494   66.7494   66.7839   66.7839   68.1710
   69.7684   69.7684   69.7953   69.7953   71.3843   71.3843   72.4578   72.8939   72.9066   73.2252
   73.2252   73.9604   73.9751   75.4335   75.4336   75.8483   76.0547   76.3495   77.8537   77.8538
   79.6735   80.7809   83.3563   83.7629   83.7629   88.3357   88.3357   88.9242   88.9244   90.4704
   90.4705   97.0094   97.0095   97.3154   97.3440   98.3576   98.3576   99.4147   99.4148  100.5296
  103.5630  104.2788  104.2792  104.5371  104.6282  104.9105  105.4093  105.4094  106.6593  106.6594
  106.8833  106.8839  107.0332  107.8563  107.8564  111.6290  111.6296  112.3822  112.3823  112.8601
  113.4289  113.4760  113.4764  114.0326  114.0329  114.5892  114.5900  115.7976  115.7984  115.8475
  115.8478  116.2717  116.9521  117.5851  119.9168  121.0629  123.7407  123.8245
   2  1  -25.3225  -25.3204  -24.0316  -24.0261  -23.3926  -23.3926  -23.3874  -23.3874  -22.1381  -22.1380
         -22.1335  -22.1334  -21.5281  -21.5240  -19.8087  -19.8086  -19.8066  -19.8066  -17.9552  -17.9551
  -17.9542  -17.9541  -17.7394  -17.7379  -16.6441  -16.6439  -16.6415  -16.6413  -15.6556  -15.6554
  -15.6534  -15.6532  -14.5328  -14.5326  -14.5279  -14.5277  -13.4591  -13.4533  -13.3860  -13.2240
  -12.5954  -12.5951  -12.5921  -12.5918  -12.2809  -12.2788  -11.9673  -11.9670  -11.9638  -11.9635
  -11.8619  -11.7147  -11.1252  -11.1252  -11.0873  -11.0866  -10.9866  -10.9866   -9.7557   -9.7550
   -9.7506   -9.7506   -9.6340   -9.6340   -9.4430   -9.4414   -9.1805   -9.0814   -7.3351   -7.3351
   -7.2652   -7.2652   -4.6751   -4.6751   -4.6418   -4.6418   -3.1957   -3.1181   -2.2487   -2.2487
   -2.1877   -2.1877   -1.3468   -0.0060   -0.0060    0.0296    0.0297    0.2609    1.3122    1.3467
    1.4173    1.4173    1.6275    1.6423    2.1423    2.1961    2.2126    2.3615    2.4006    2.4227
    2.4228    2.4380    2.4381    2.6852    2.6855    2.7655    2.7657    2.9920    2.9925    3.4052
    3.5793    3.8271    3.8272    4.2269    4.2269    4.9217    4.9274    4.9290    5.0671    5.6542
    5.6542    5.9880    5.9880    6.2338    6.2339    6.3827    6.3828    6.4404    6.4404    6.5174
    7.0456    7.0467    7.1056    7.1056    7.2838    7.2839    7.4247    7.4257    7.6231    7.6232
    7.6337    7.6339    7.6763    7.6766    7.8987    7.8988    7.9775    8.3273    8.8061    8.8062
    8.9960    9.3044    9.3044    9.3160    9.3642    9.3643    9.4044    9.7312    9.7314    9.7736
    9.7736    9.8042    9.8045    9.8764   10.1671   11.0633   11.1240   11.1241   11.2698   11.2698
   11.8839   11.8839   12.5667   12.5670   12.6346   12.8708   12.8722   12.9803   12.9805   13.7771
   13.7771   13.9895   13.9897   14.5211   14.5211   15.0928   15.0929   15.1036   15.3973   15.3973
   15.5311   15.5313   16.3129   16.3129   16.9433   16.9434   17.0068   17.0068   17.4869   17.6925
   17.6931   17.7352   17.7352   18.1768   18.1768   18.3365   18.6360   18.6361   18.7798   18.7800
   18.8150   18.8157   18.9488   19.1374   19.1378   19.2127   19.3846   19.3846   19.3942   20.0947
   20.0947   20.2312   20.2550   20.4559   20.4564   20.9727   21.0640   21.1419   21.3172   21.4045
   21.4045   21.5170   22.1068   22.1068   23.2148   23.4225   23.4227   23.6854   23.6855   24.1487
   24.1491   24.8071   24.8072   25.2433   25.3299   25.7532   25.8594   26.8181   27.0356   27.0357
   27.7011   28.2534   28.4612   28.4613   28.7806   28.7807   28.9200   28.9963   29.2741   29.2742
   32.8245   32.8250   32.9878   32.9883   33.9226   34.1362   34.3486   34.6232   34.6922   35.6998
   35.6999   36.3679   36.6801   36.6802   38.0296   38.5680   38.7940   38.8569   38.8569   39.0347
   39.0359   39.1428   39.1428   39.2195   39.2207   40.2564   40.2565   40.9840   40.9852   41.1018
   41.1030   41.1291   41.5984   41.6152   42.0417   42.0421   42.1006   42.1487   42.1488   42.1936
   42.7372   42.9508   42.9960   43.2301   43.2307   44.7021   44.7589   44.7595   44.9110   45.2121
   45.2121   45.5094   45.5494   45.5502   45.6449   45.7336   45.7431   45.7432   46.0226   46.0229
   46.0371   46.0856   46.0972   46.1710   46.1711   47.1945   47.2286   47.2287   47.3817   47.6791
   47.9412   47.9413   48.0483   48.0483   48.1265   48.1267   48.3539   48.8961   49.4755   49.4755
   49.7116   49.7117   50.8962   51.0589   51.0591   51.5430   51.5433   52.9019   53.9505   53.9720
   54.5721   54.5789   54.9088   55.5282   55.5283   57.5126   57.5128   57.6235   57.6235   58.2547
   58.2547   59.6200   59.9031   59.9032   59.9369   59.9371   60.4870   60.4870   61.4414   61.4415
   62.3988   62.8085   62.8089   63.1363   63.2437   63.4303   63.4311   63.5194   64.3458   64.3470
   65.3422   65.4942   65.7818   65.7821   66.0280   66.0283   66.0673   66.0676   66.4093   66.4258
   66.9406   67.2907   67.2918   70.3976   70.4880   70.6873   70.7577   70.9636   71.0089   71.4332
   71.4362   72.1125   73.5318   76.2652   76.2659   76.5914   76.5915   76.6027   76.6028   77.4412
   77.4431   77.6134   82.6240   87.2451   88.3546   88.6278   92.3580   92.3606   92.5472   93.4248
   93.4251   95.3507   95.3527   95.5622   96.2182   96.2204   97.9948   97.9978  101.9411  101.9423
  103.1612  105.0154  105.0161  105.8243  105.8254  106.3342  106.6008  106.6011  107.8245  107.8254
  108.1048  108.1055  108.3980  108.3995  109.6125  110.6598  110.8420  112.0944  112.1978  112.2000
  112.2164  112.6233  112.6254  112.7594  112.7632  113.3634  113.3645  113.6842  113.8833  113.8869
  120.4601  122.7971  122.7983  128.1313  136.0425  136.0447  136.7183  136.7202
   3  1  -25.3225  -25.3204  -24.0316  -24.0261  -23.3926  -23.3926  -23.3875  -23.3875  -22.1381  -22.1381
         -22.1334  -22.1334  -21.5281  -21.5240  -19.8086  -19.8086  -19.8066  -19.8066  -17.9553  -17.9553
  -17.9542  -17.9542  -17.7393  -17.7377  -16.6441  -16.6441  -16.6415  -16.6415  -15.6554  -15.6554
  -15.6533  -15.6533  -14.5328  -14.5328  -14.5279  -14.5279  -13.4588  -13.4531  -13.3860  -13.2240
  -12.5951  -12.5951  -12.5918  -12.5918  -12.2812  -12.2792  -11.9670  -11.9670  -11.9635  -11.9635
  -11.8619  -11.7147  -11.1252  -11.1252  -11.0876  -11.0870  -10.9866  -10.9866   -9.7553   -9.7546
   -9.7506   -9.7506   -9.6340   -9.6340   -9.4434   -9.4418   -9.1805   -9.0814   -7.3351   -7.3351
   -7.2652   -7.2652   -4.6751   -4.6751   -4.6418   -4.6418   -3.1957   -3.1181   -2.2487   -2.2487
   -2.1877   -2.1877   -1.3468   -0.0060   -0.0060    0.0296    0.0296    0.2609    1.3122    1.3467
    1.4173    1.4173    1.6277    1.6426    2.1427    2.1961    2.2129    2.3620    2.4011    2.4226
    2.4226    2.4379    2.4379    2.6853    2.6853    2.7656    2.7656    2.9915    2.9920    3.4052
    3.5793    3.8272    3.8272    4.2269    4.2269    4.9218    4.9274    4.9290    5.0672    5.6542
    5.6542    5.9880    5.9880    6.2339    6.2339    6.3827    6.3827    6.4404    6.4404    6.5174
    7.0456    7.0467    7.1056    7.1056    7.2840    7.2840    7.4240    7.4250    7.6232    7.6232
    7.6341    7.6341    7.6767    7.6767    7.8986    7.8986    7.9775    8.3274    8.8059    8.8059
    8.9960    9.3044    9.3044    9.3163    9.3640    9.3640    9.4047    9.7311    9.7311    9.7736
    9.7736    9.8044    9.8044    9.8767   10.1671   11.0637   11.1239   11.1239   11.2697   11.2697
   11.8839   11.8839   12.5674   12.5674   12.6346   12.8698   12.8712   12.9809   12.9809   13.7771
   13.7771   13.9898   13.9898   14.5211   14.5211   15.0932   15.0932   15.1036   15.3973   15.3973
   15.5311   15.5311   16.3129   16.3129   16.9432   16.9432   17.0068   17.0068   17.4876   17.6924
   17.6924   17.7352   17.7352   18.1768   18.1768   18.3372   18.6360   18.6360   18.7798   18.7798
   18.8150   18.8150   18.9487   19.1373   19.1373   19.2126   19.3846   19.3846   19.3943   20.0947
   20.0947   20.2312   20.2555   20.4557   20.4557   20.9734   21.0640   21.1420   21.3171   21.4045
   21.4045   21.5169   22.1068   22.1068   23.2149   23.4228   23.4228   23.6853   23.6853   24.1491
   24.1491   24.8069   24.8069   25.2432   25.3298   25.7532   25.8595   26.8188   27.0356   27.0356
   27.7015   28.2542   28.4610   28.4610   28.7806   28.7806   28.9199   28.9961   29.2741   29.2741
   32.8247   32.8247   32.9876   32.9876   33.9227   34.1360   34.3488   34.6230   34.6922   35.6998
   35.6998   36.3680   36.6801   36.6801   38.0297   38.5669   38.7928   38.8569   38.8569   39.0357
   39.0357   39.1428   39.1428   39.2205   39.2205   40.2564   40.2564   40.9853   40.9853   41.1032
   41.1032   41.1293   41.5986   41.6152   42.0415   42.0415   42.0992   42.1487   42.1487   42.1922
   42.7377   42.9506   42.9958   43.2303   43.2303   44.7029   44.7593   44.7593   44.9110   45.2121
   45.2121   45.5096   45.5499   45.5499   45.6453   45.7351   45.7431   45.7431   46.0226   46.0227
   46.0384   46.0838   46.0953   46.1710   46.1710   47.1944   47.2284   47.2284   47.3819   47.6792
   47.9412   47.9412   48.0481   48.0481   48.1263   48.1263   48.3545   48.8959   49.4754   49.4754
   49.7116   49.7116   50.8980   51.0589   51.0589   51.5431   51.5432   52.9021   53.9508   53.9723
   54.5718   54.5786   54.9095   55.5282   55.5282   57.5127   57.5127   57.6235   57.6235   58.2548
   58.2548   59.6207   59.9033   59.9033   59.9371   59.9371   60.4870   60.4870   61.4415   61.4415
   62.3988   62.8084   62.8084   63.1346   63.2443   63.4306   63.4306   63.5177   64.3467   64.3467
   65.3432   65.4949   65.7831   65.7831   66.0282   66.0282   66.0675   66.0675   66.4089   66.4255
   66.9406   67.2928   67.2929   70.3994   70.4850   70.6843   70.7546   70.9666   71.0057   71.4350
   71.4350   72.1129   73.5343   76.2664   76.2665   76.5915   76.5915   76.6027   76.6027   77.4406
   77.4407   77.6143   82.6223   87.2433   88.3555   88.6303   92.3574   92.3574   92.5489   93.4256
   93.4257   95.3504   95.3505   95.5641   96.2190   96.2192   97.9954   97.9955  101.9407  101.9408
  103.1638  105.0152  105.0153  105.8254  105.8256  106.3352  106.6006  106.6007  107.8248  107.8249
  108.1042  108.1043  108.3972  108.3974  109.6132  110.6613  110.8385  112.0900  112.2014  112.2019
  112.2128  112.6273  112.6277  112.7624  112.7630  113.3642  113.3643  113.6797  113.8863  113.8869
  120.4604  122.7978  122.7981  128.1315  136.0430  136.0445  136.7189  136.7204
   4  1  -25.0007  -24.9958  -24.3535  -24.3535  -24.3480  -24.3480  -22.4491  -22.4491  -22.4443  -22.4442
         -21.2256  -21.2218  -20.6644  -20.6644  -20.6614  -20.6614  -19.8491  -19.8482  -18.8390  -18.8378
  -18.5765  -18.5763  -18.5751  -18.5750  -16.5436  -16.5424  -15.5121  -15.5121  -15.5091  -15.5091
  -14.9523  -14.9494  -14.2372  -14.2334  -13.4845  -13.4844  -13.4789  -13.4789  -12.9994  -12.9201
  -12.9198  -12.9170  -12.9167  -12.8407  -12.4740  -12.4737  -12.4700  -12.4697  -12.2362  -12.2362
  -12.0848  -12.0848  -11.0908  -11.0904  -11.0880  -11.0876  -10.7797  -10.7784  -10.1069  -10.1061
  -10.0549  -10.0549   -9.9300   -9.9300   -8.7174   -8.6127   -8.4418   -8.4418   -8.3711   -8.3711
   -7.7341   -7.6886   -4.5039   -4.4615   -4.0092   -4.0092   -3.9362   -3.9362   -3.1603   -3.1264
   -1.5337   -1.5337   -1.4989   -1.4989   -1.1498   -0.2323   -0.2323    2.1779    2.1779    2.1907
    2.1907    2.2756    2.2757    2.2935    2.2936    2.5089    2.6593    2.7428    2.8631    2.8634
    2.9442    2.9445    3.1839    3.1839    3.2264    3.2264    3.7671    3.9010    3.9019    3.9329
    3.9373    4.0507    4.0925    4.3164    4.3165    4.4310    4.4312    4.6265    4.6265    5.0898
    5.0898    5.3477    5.4763    5.4769    5.4842    5.4847    5.9461    6.2405    6.4359    6.4360
    6.5679    6.7554    6.8115    6.9131    6.9132    7.1539    7.1541    7.3470    7.3801    7.3801
    7.4886    7.4887    7.4984    7.7722    7.7778    7.9512    8.0821    8.1379    8.2344    8.5268
    8.5270    8.7056    8.7056    8.7563    9.1371    9.1371    9.2487    9.2487    9.3106    9.3107
    9.3360    9.3362    9.6240    9.6242    9.6442   10.2064   10.4897   10.4901   11.5381   11.9525
   11.9525   12.1565   13.4397   13.4399   13.7040   13.7050   13.7080   13.7082   13.8311   13.9362
   13.9753   13.9763   14.0578   14.0578   14.1529   14.1529   14.3117   14.8300   14.8353   15.3220
   15.4401   15.4401   16.8204   17.2162   17.6552   17.6560   17.7704   17.8796   18.1052   18.1390
   18.1398   18.1687   18.1688   18.2910   18.3079   18.3919   18.5830   18.5830   18.8459   18.9142
   18.9143   19.2211   19.2215   19.4995   19.6931   19.7869   19.9970   20.1839   20.1839   20.2293
   20.2293   20.4641   20.4641   20.5322   20.5322   20.8376   20.8382   21.6247   21.6247   21.6503
   21.6509   21.7459   21.7461   21.7503   22.4458   22.4459   23.2115   23.2850   23.4907   23.4907
   23.9503   23.9504   24.0885   24.0886   24.2880   24.2880   25.3460   25.4845   26.9288   26.9288
   27.0140   27.0140   28.1928   28.6057   28.7545   28.7546   30.6035   30.7735   30.8701   31.4208
   31.4213   32.5267   32.5268   32.8939   32.8946   33.3121   34.0746   34.0746   34.2060   34.2097
   34.2097   34.4772   34.4773   36.1505   36.2212   37.8488   37.8496   37.8706   37.8707   38.0172
   38.2071   38.2079   38.7456   39.0640   39.0640   39.1559   40.6147   40.6148   41.4369   41.5719
   42.1924   42.1929   42.6182   42.9204   42.9212   42.9397   42.9398   43.1058   43.1068   43.1469
   43.4637   43.7770   43.7777   43.8809   43.8809   44.0851   44.0851   44.3685   44.5861   44.7134
   44.7135   45.0758   45.1880   45.1974   45.2478   45.3667   45.6816   45.6816   45.7732   45.7733
   46.3119   46.3123   46.4828   46.7078   46.7682   47.3305   47.3305   48.2987   48.2995   48.9017
   48.9885   48.9886   49.0239   49.1901   49.1903   49.3026   49.5366   50.2578   50.2581   51.0241
   51.0241   51.3944   52.2531   52.2533   52.8181   52.8182   53.3529   53.3531   53.4477   53.4478
   53.9538   53.9540   54.4816   54.4816   54.7252   54.9253   55.5837   58.5682   59.5495   60.0952
   60.0954   60.1053   60.1111   60.1114   60.9534   60.9707   61.7159   61.7161   61.7256   61.7407
   61.7412   61.8947   61.8956   61.9516   61.9555   62.1494   62.1501   63.2058   63.2064   63.7840
   63.7845   64.9317   64.9323   66.5884   66.5895   66.7495   66.7496   66.7840   66.7841   68.1688
   69.7681   69.7684   69.7950   69.7953   71.3842   71.3843   72.4560   72.8938   72.9065   73.2221
   73.2242   73.9606   73.9753   75.4344   75.4354   75.8511   76.0575   76.3497   77.8506   77.8515
   79.6743   80.7816   83.3563   83.7617   83.7649   88.3353   88.3372   88.9246   88.9251   90.4706
   90.4730   97.0096   97.0118   97.3125   97.3412   98.3545   98.3557   99.4116   99.4118  100.5303
  103.5631  104.2787  104.2805  104.5384  104.6262  104.9116  105.4093  105.4122  106.6588  106.6593
  106.8833  106.8858  107.0303  107.8560  107.8563  111.6289  111.6296  112.3814  112.3815  112.8598
  113.4284  113.4720  113.4758  114.0324  114.0327  114.5914  114.5930  115.7998  115.8015  115.8454
  115.8478  116.2723  116.9534  117.5877  119.9182  121.0635  123.7396  123.8238
   5  1  -25.3225  -25.3204  -24.0316  -24.0261  -23.3926  -23.3926  -23.3874  -23.3874  -22.1381  -22.1380
         -22.1335  -22.1334  -21.5281  -21.5240  -19.8087  -19.8086  -19.8066  -19.8066  -17.9552  -17.9551
  -17.9542  -17.9541  -17.7394  -17.7379  -16.6441  -16.6439  -16.6415  -16.6413  -15.6556  -15.6554
  -15.6534  -15.6532  -14.5328  -14.5326  -14.5279  -14.5277  -13.4591  -13.4533  -13.3860  -13.2240
  -12.5954  -12.5951  -12.5921  -12.5918  -12.2809  -12.2788  -11.9673  -11.9670  -11.9638  -11.9635
  -11.8619  -11.7147  -11.1252  -11.1252  -11.0873  -11.0866  -10.9866  -10.9866   -9.7557   -9.7550
   -9.7506   -9.7506   -9.6340   -9.6340   -9.4430   -9.4414   -9.1805   -9.0814   -7.3351   -7.3351
   -7.2652   -7.2652   -4.6751   -4.6751   -4.6418   -4.6418   -3.1957   -3.1181   -2.2487   -2.2487
   -2.1877   -2.1877   -1.3468   -0.0060   -0.0060    0.0296    0.0297    0.2609    1.3122    1.3467
    1.4173    1.4173    1.6275    1.6423    2.1423    2.1961    2.2126    2.3615    2.4006    2.4227
    2.4228    2.4380    2.4381    2.6852    2.6855    2.7655    2.7657    2.9920    2.9925    3.4052
    3.5793    3.8271    3.8272    4.2269    4.2269    4.9217    4.9274    4.9290    5.0671    5.6542
    5.6542    5.9880    5.9880    6.2338    6.2339    6.3827    6.3828    6.4404    6.4404    6.5174
    7.0456    7.0467    7.1056    7.1056    7.2838    7.2839    7.4247    7.4257    7.6231    7.6232
    7.6337    7.6339    7.6763    7.6766    7.8987    7.8988    7.9775    8.3273    8.8061    8.8062
    8.9960    9.3044    9.3044    9.3160    9.3642    9.3643    9.4044    9.7312    9.7314    9.7736
    9.7736    9.8042    9.8045    9.8764   10.1671   11.0633   11.1240   11.1241   11.2698   11.2698
   11.8839   11.8839   12.5667   12.5670   12.6346   12.8708   12.8722   12.9803   12.9805   13.7771
   13.7771   13.9895   13.9897   14.5211   14.5211   15.0928   15.0929   15.1036   15.3973   15.3973
   15.5311   15.5313   16.3129   16.3129   16.9433   16.9434   17.0068   17.0068   17.4869   17.6925
   17.6931   17.7352   17.7352   18.1768   18.1768   18.3365   18.6360   18.6361   18.7798   18.7800
   18.8150   18.8157   18.9488   19.1374   19.1378   19.2127   19.3846   19.3846   19.3942   20.0947
   20.0947   20.2312   20.2550   20.4559   20.4564   20.9727   21.0640   21.1419   21.3172   21.4045
   21.4045   21.5170   22.1068   22.1068   23.2148   23.4225   23.4227   23.6854   23.6855   24.1487
   24.1491   24.8071   24.8072   25.2433   25.3299   25.7532   25.8594   26.8181   27.0356   27.0357
   27.7011   28.2534   28.4612   28.4613   28.7806   28.7807   28.9200   28.9963   29.2741   29.2742
   32.8245   32.8250   32.9878   32.9883   33.9226   34.1362   34.3486   34.6232   34.6922   35.6998
   35.6999   36.3680   36.6801   36.6802   38.0296   38.5680   38.7940   38.8569   38.8569   39.0347
   39.0359   39.1428   39.1428   39.2195   39.2207   40.2564   40.2565   40.9840   40.9852   41.1018
   41.1030   41.1291   41.5984   41.6152   42.0417   42.0421   42.1006   42.1487   42.1488   42.1935
   42.7372   42.9508   42.9960   43.2301   43.2307   44.7021   44.7590   44.7595   44.9109   45.2121
   45.2121   45.5094   45.5494   45.5502   45.6449   45.7336   45.7431   45.7432   46.0226   46.0229
   46.0371   46.0856   46.0972   46.1710   46.1711   47.1945   47.2286   47.2287   47.3817   47.6791
   47.9412   47.9413   48.0483   48.0483   48.1265   48.1267   48.3539   48.8961   49.4755   49.4755
   49.7116   49.7117   50.8962   51.0589   51.0591   51.5430   51.5433   52.9019   53.9505   53.9720
   54.5721   54.5789   54.9088   55.5282   55.5283   57.5126   57.5128   57.6235   57.6235   58.2547
   58.2547   59.6200   59.9031   59.9032   59.9369   59.9371   60.4870   60.4870   61.4414   61.4415
   62.3988   62.8085   62.8090   63.1362   63.2437   63.4304   63.4311   63.5193   64.3458   64.3471
   65.3422   65.4942   65.7818   65.7820   66.0280   66.0283   66.0673   66.0676   66.4093   66.4258
   66.9406   67.2906   67.2919   70.3975   70.4880   70.6873   70.7577   70.9637   71.0089   71.4332
   71.4362   72.1124   73.5318   76.2653   76.2658   76.5914   76.5915   76.6027   76.6028   77.4413
   77.4433   77.6135   82.6237   87.2447   88.3544   88.6278   92.3581   92.3606   92.5473   93.4247
   93.4251   95.3506   95.3527   95.5620   96.2183   96.2203   97.9949   97.9978  101.9410  101.9423
  103.1612  105.0155  105.0161  105.8243  105.8256  106.3342  106.6009  106.6011  107.8245  107.8254
  108.1048  108.1054  108.3978  108.3994  109.6125  110.6599  110.8414  112.0940  112.1982  112.2008
  112.2157  112.6238  112.6263  112.7592  112.7636  113.3633  113.3645  113.6837  113.8831  113.8873
  120.4600  122.7971  122.7985  128.1313  136.0428  136.0443  136.7185  136.7198
   6  1  -25.4814  -25.4758  -22.9177  -22.9177  -22.9177  -22.9177  -22.9177  -22.9177  -22.9127  -22.9127
         -22.9127  -22.9127  -22.9126  -22.9126  -18.5975  -18.5975  -18.5969  -18.5969  -18.5969  -18.5969
  -18.5962  -18.5962  -16.5402  -16.5402  -16.5402  -16.5402  -15.6497  -15.6497  -15.6497  -15.6497
  -15.6495  -15.6495  -15.6456  -15.6456  -15.6456  -15.6456  -15.6454  -15.6454  -13.5804  -13.4168
  -11.8129  -11.8129  -11.8125  -11.8125  -11.8125  -11.8125  -11.8113  -11.8113  -11.8109  -11.8109
  -11.8109  -11.8109  -10.5987  -10.5987  -10.5987  -10.5987  -10.5987  -10.5987  -10.4682  -10.4682
  -10.4682  -10.4682  -10.4682  -10.4682   -9.1115   -9.1110   -9.1104   -9.1099   -5.9987   -5.9987
   -5.9562   -5.9562   -5.9562   -5.9562   -5.9148   -5.9148   -1.1303   -1.0437   -1.0437   -1.0437
   -1.0437   -1.0437   -1.0437   -0.9889   -0.9889   -0.9889   -0.9889   -0.9889   -0.9889    1.7827
    1.7827    1.7827    1.7827    1.7830    1.7830    1.8541    1.8541    1.8541    1.8541    1.8544
    1.8544    2.0442    2.2930    2.2934    2.2937    2.2941    2.3947    2.3947    2.3947    2.3947
    2.3947    2.3947    3.3145    4.8440    4.8440    4.8440    4.8440    4.8440    4.8440    5.4642
    5.4663    6.3286    6.3286    6.3286    6.3286    6.6485    6.6485    6.6485    6.6485    6.6486
    6.6486    6.7370    6.7392    7.3637    7.3637    7.6463    7.6463    7.6465    7.6465    7.8426
    8.0388    8.0388    9.3604    9.3604    9.3606    9.3606    9.7561    9.7561    9.7561    9.7561
    9.7561    9.7561   10.2484   10.2484   10.2484   10.2484   10.2488   10.2489   10.2988   10.2988
   10.2996   10.2996   10.2996   10.2997   10.3008   10.3008   10.3017   10.3017   10.3017   10.3017
   10.6770   10.6770   10.6770   10.6771   10.6775   10.6775   12.5759   12.5759   13.6819   13.6819
   14.7088   14.7088   14.7089   14.7089   14.8437   14.8437   14.8437   14.8437   15.7599   15.7599
   15.8621   15.8621   15.8621   15.8621   15.8621   15.8621   17.5802   17.5802   17.5802   17.5802
   17.5802   17.5802   17.6382   17.6382   18.1904   18.1904   18.1905   18.1905   18.1909   18.1910
   18.8155   18.8155   18.8155   18.8155   19.0400   19.5793   19.5793   19.5794   19.5794   19.5799
   19.5800   19.8497   19.8497   19.8498   19.8498   19.8498   19.8498   20.0891   20.0891   20.0892
   20.0892   20.0892   20.0892   20.7602   24.5364   24.5364   24.5364   24.5364   24.5368   24.5368
   26.2527   26.2529   26.2887   26.2888   28.0288   28.0288   28.0288   28.0288   28.0296   28.0296
   28.2739   28.2739   28.2740   28.2740   31.0506   31.0506   31.0507   31.0508   31.0508   31.0508
   31.1553   31.1553   31.1554   31.1554   31.1554   31.1555   34.3588   34.3588   34.3588   34.3588
   34.3591   34.3591   37.2870   37.2870   37.2870   37.2870   37.2871   37.2871   38.9000   38.9000
   38.9000   38.9000   38.9001   38.9001   40.0335   40.0336   40.0348   40.0348   40.0348   40.0348
   40.0859   40.0859   40.0872   40.0872   40.0872   40.0872   40.9028   40.9030   40.9544   40.9547
   41.9494   41.9494   42.1044   42.1044   42.1044   42.1044   42.5938   42.5938   44.0273   44.0273
   44.0273   44.0273   44.0276   44.0276   46.8650   46.8650   46.8650   46.8650   46.8658   46.8658
   46.9301   46.9326   47.0440   47.0465   49.4273   49.4273   49.4273   49.4273   49.4275   49.4275
   49.4497   49.4497   50.9384   50.9384   50.9385   50.9385   51.1165   51.1165   51.1165   51.1165
   51.1168   51.1168   52.1289   52.1289   54.1170   54.1170   54.1170   54.1171   54.1174   54.1174
   54.5375   54.5379   55.9600   55.9604   57.1543   57.8339   57.8671   57.8671   59.0373   59.0373
   59.0374   59.0374   60.4931   60.4931   61.2642   61.2642   61.2645   61.2646   61.2646   61.2646
   61.2783   61.2783   61.2786   61.2786   61.2786   61.2787   63.7142   63.8974   63.8974   63.8974
   63.8974   63.8981   63.8981   67.1101   67.1102   67.1124   67.1125   67.1125   67.1126   67.5052
   67.5052   67.5076   67.5076   67.5076   67.5077   69.5286   70.5041   70.5077   70.5411   70.5452
   71.5496   71.5516   71.6577   71.6577   71.6578   71.6578   71.6589   71.6590   73.6129   73.6144
   78.3405   78.3405   78.3405   78.3405   94.7335   94.7335   94.7335   94.7336   94.7361   94.7361
   96.2787   96.2787   96.2787   96.2788   96.2809   96.2810  102.5824  102.5825  102.5825  102.5826
  102.5831  102.5832  105.6662  105.6662  105.6663  105.6663  105.6672  105.6673  106.2090  106.2091
  108.7632  108.7633  108.7635  108.7635  111.6619  111.6619  111.6654  111.6655  111.6658  111.6661
  113.2891  113.2892  113.2926  113.2927  113.2930  113.2933  114.9224  114.9225  114.9231  114.9231
  123.5814  128.5032  128.5034  133.6282  163.3339  163.3340  163.3362  163.3362
   7  1  -24.8389  -24.8389  -24.8335  -24.8335  -23.5519  -23.5519  -23.5468  -23.5468  -21.0789  -21.0789
         -21.0789  -21.0789  -21.0752  -21.0752  -21.0752  -21.0752  -20.2683  -20.2672  -19.2393  -19.2382
  -17.4117  -17.4117  -17.4116  -17.4116  -17.4102  -17.4102  -17.4100  -17.4100  -14.0549  -14.0549
  -14.0547  -14.0547  -14.0508  -14.0508  -14.0505  -14.0505  -13.7951  -13.7951  -13.7928  -13.7928
  -12.8074  -12.8074  -12.6505  -12.6505  -12.4416  -12.4395  -12.4374  -12.4374  -12.4310  -12.4310
  -11.3774  -11.3774  -11.3739  -11.3739  -11.3034  -11.3034  -11.1621  -11.1621  -10.2208  -10.2208
  -10.2197  -10.2197   -8.6331   -8.6331   -8.6331   -8.6331   -8.5368   -8.5368   -8.5368   -8.5367
   -8.3287   -8.2823   -4.2779   -4.1973   -3.4549   -3.4549   -3.4549   -3.4548   -3.4040   -3.4040
   -3.4040   -3.4040   -0.9662   -0.9662    0.4439    0.4439    0.4668    0.4668    1.1949    1.1949
    1.5467    1.5637    2.3540    2.3540    2.4251    2.4251    2.6486    2.6486    3.4500    3.4500
    3.4884    3.4884    3.9493    3.9493    3.9729    3.9729    4.0390    4.0390    4.1299    4.1300
    4.1300    4.1300    4.1558    4.1558    4.1626    4.1627    4.1627    4.1627    4.8484    4.8484
    4.8485    4.8485    5.6395    5.6395    5.6481    5.6481    5.7193    5.7193    5.7194    5.7194
    5.8408    5.8408    6.3797    6.3797    6.3797    6.3797    7.3005    7.9327    7.9977    7.9977
    8.0105    8.0105    8.1749    8.1749    8.1749    8.1749    8.3335    8.3717    8.3717    8.6343
    8.6343    8.6343    8.6343    8.7894    8.9475    8.9475    8.9475    8.9475    9.0657    9.0657
    9.3194    9.3194    9.3194    9.3194    9.9841   10.4288   11.5111   11.5111   11.5574   11.5574
   12.1142   12.1847   12.1847   12.1847   12.1847   13.8273   13.8273   13.8277   13.8277   14.0144
   14.0145   14.0930   14.3441   14.3441   14.3441   14.3441   14.7239   14.7240   14.7242   14.7242
   16.8641   16.8641   17.4991   17.5725   17.5725   17.7096   17.7096   17.7102   17.7102   17.9769
   17.9769   17.9776   17.9776   17.9777   18.1016   18.1017   18.1017   18.1017   18.6462   18.9183
   19.2097   19.2097   19.2097   19.2097   19.4677   19.4677   19.4678   19.4678   20.2301   20.2301
   20.4773   20.4773   20.4773   20.4774   20.5043   20.5043   20.6959   20.6959   21.8226   21.8226
   22.4036   22.4036   22.9139   22.9139   23.2403   23.2403   23.3882   23.3882   23.7171   23.7171
   23.8399   23.8399   23.8479   23.8479   24.1779   24.1779   24.7016   24.7016   25.9888   25.9888
   27.8007   27.9938   28.0992   28.1223   29.5046   29.5046   29.5047   29.5047   30.8182   30.8182
   31.6772   31.6772   31.6773   31.6773   32.6498   32.6498   33.0567   33.4672   36.4385   36.4385
   36.4386   36.4386   36.8795   36.8795   36.8796   36.8796   37.7537   37.7537   38.0544   38.3790
   39.1652   39.1652   40.0977   40.0977   40.5749   40.5749   40.5755   40.5755   41.8340   41.8340
   42.4518   42.4518   42.7891   42.7891   42.8068   42.8068   42.8072   42.8072   42.9318   42.9318
   43.3291   43.3291   43.4223   43.4223   43.7669   43.7669   43.7676   43.7676   43.7959   43.7959
   43.8751   43.8751   44.3988   44.3988   44.6128   44.6128   44.8039   44.9993   45.8601   45.8601
   46.2626   46.2626   46.2627   46.2627   47.0539   47.0539   47.9244   47.9244   47.9244   47.9245
   48.0057   48.0057   48.0353   48.0353   48.8288   48.8288   48.8289   48.8289   50.0639   50.0639
   50.0641   50.0641   50.2787   51.1899   51.1899   52.0289   54.5396   54.8103   55.9034   55.9034
   55.9036   55.9036   56.0727   56.0727   56.7612   56.7612   57.4293   57.4293   57.4294   57.4294
   58.9370   58.9370   59.9374   59.9374   60.0635   60.0635   61.5502   61.8208   61.9145   61.9145
   61.9145   61.9145   62.0138   62.0138   62.4066   62.4066   62.4546   62.4546   62.4548   62.4548
   63.4649   63.4964   63.4964   65.3544   66.6218   66.6218   68.3652   68.3711   70.5980   70.5980
   71.2141   71.2142   71.4627   71.4627   71.9635   71.9635   71.9637   71.9637   71.9932   71.9932
   71.9934   71.9934   73.4113   73.4113   73.4119   73.4119   75.9202   75.9202   81.0868   81.0868
   85.0636   85.5143   85.5144   88.5032   88.5033   88.5034   88.5035   89.3372   89.3373   89.6896
   89.6896   90.4389   90.4390   93.8115  100.2516  100.2516  102.2745  102.2745  102.2752  102.2753
  103.7345  103.7346  103.7373  103.7373  105.1625  105.1626  105.1643  105.1643  105.2441  105.2441
  105.4753  105.4753  105.9657  107.3645  107.3646  111.0401  111.0403  112.4099  112.4102  112.8361
  112.9033  112.9033  113.5043  113.5044  113.5046  113.5047  113.7002  113.8602  116.6695  116.6696
  116.6726  116.6728  117.8815  117.8816  117.8845  117.8847  117.9887  117.9887
   8  1  -25.0007  -24.9958  -24.3535  -24.3535  -24.3480  -24.3480  -22.4491  -22.4491  -22.4443  -22.4442
         -21.2256  -21.2218  -20.6644  -20.6644  -20.6614  -20.6614  -19.8491  -19.8482  -18.8390  -18.8378
  -18.5765  -18.5763  -18.5751  -18.5750  -16.5436  -16.5424  -15.5121  -15.5121  -15.5091  -15.5091
  -14.9523  -14.9494  -14.2372  -14.2334  -13.4845  -13.4844  -13.4789  -13.4789  -12.9994  -12.9201
  -12.9198  -12.9170  -12.9167  -12.8407  -12.4740  -12.4737  -12.4700  -12.4697  -12.2362  -12.2362
  -12.0848  -12.0848  -11.0908  -11.0904  -11.0880  -11.0876  -10.7797  -10.7784  -10.1069  -10.1061
  -10.0549  -10.0549   -9.9300   -9.9300   -8.7174   -8.6127   -8.4418   -8.4418   -8.3711   -8.3711
   -7.7341   -7.6886   -4.5039   -4.4615   -4.0092   -4.0092   -3.9362   -3.9362   -3.1603   -3.1264
   -1.5337   -1.5337   -1.4989   -1.4989   -1.1498   -0.2323   -0.2323    2.1779    2.1779    2.1907
    2.1907    2.2756    2.2757    2.2935    2.2936    2.5089    2.6593    2.7428    2.8631    2.8634
    2.9442    2.9445    3.1839    3.1839    3.2264    3.2264    3.7671    3.9010    3.9019    3.9329
    3.9373    4.0507    4.0925    4.3164    4.3165    4.4310    4.4312    4.6265    4.6265    5.0898
    5.0898    5.3477    5.4763    5.4769    5.4842    5.4847    5.9461    6.2405    6.4359    6.4360
    6.5679    6.7554    6.8115    6.9131    6.9132    7.1539    7.1541    7.3470    7.3801    7.3801
    7.4886    7.4887    7.4984    7.7722    7.7778    7.9512    8.0821    8.1379    8.2344    8.5268
    8.5270    8.7056    8.7056    8.7563    9.1371    9.1371    9.2487    9.2487    9.3106    9.3107
    9.3360    9.3362    9.6240    9.6242    9.6442   10.2064   10.4897   10.4901   11.5381   11.9525
   11.9525   12.1565   13.4397   13.4399   13.7040   13.7050   13.7080   13.7082   13.8311   13.9362
   13.9753   13.9763   14.0578   14.0578   14.1529   14.1529   14.3117   14.8300   14.8353   15.3220
   15.4401   15.4401   16.8204   17.2162   17.6552   17.6560   17.7704   17.8796   18.1052   18.1390
   18.1398   18.1687   18.1688   18.2910   18.3079   18.3919   18.5830   18.5830   18.8459   18.9142
   18.9143   19.2211   19.2215   19.4995   19.6931   19.7869   19.9970   20.1839   20.1839   20.2293
   20.2293   20.4641   20.4641   20.5322   20.5322   20.8376   20.8382   21.6247   21.6247   21.6503
   21.6509   21.7459   21.7461   21.7503   22.4458   22.4459   23.2115   23.2850   23.4907   23.4907
   23.9503   23.9504   24.0885   24.0886   24.2880   24.2880   25.3460   25.4845   26.9288   26.9288
   27.0140   27.0140   28.1928   28.6057   28.7545   28.7546   30.6035   30.7735   30.8701   31.4208
   31.4213   32.5267   32.5268   32.8939   32.8946   33.3121   34.0746   34.0746   34.2060   34.2097
   34.2097   34.4772   34.4773   36.1505   36.2212   37.8488   37.8496   37.8706   37.8707   38.0172
   38.2071   38.2079   38.7456   39.0640   39.0640   39.1559   40.6147   40.6148   41.4369   41.5719
   42.1924   42.1929   42.6182   42.9204   42.9212   42.9397   42.9398   43.1058   43.1068   43.1469
   43.4637   43.7770   43.7777   43.8809   43.8809   44.0851   44.0851   44.3685   44.5861   44.7134
   44.7135   45.0758   45.1880   45.1974   45.2478   45.3667   45.6816   45.6816   45.7732   45.7733
   46.3119   46.3123   46.4828   46.7078   46.7682   47.3305   47.3305   48.2987   48.2995   48.9017
   48.9885   48.9886   49.0239   49.1901   49.1903   49.3026   49.5366   50.2578   50.2581   51.0241
   51.0241   51.3944   52.2531   52.2533   52.8181   52.8182   53.3529   53.3531   53.4477   53.4478
   53.9538   53.9540   54.4816   54.4816   54.7252   54.9253   55.5837   58.5682   59.5495   60.0952
   60.0954   60.1053   60.1111   60.1114   60.9534   60.9707   61.7159   61.7161   61.7256   61.7407
   61.7412   61.8947   61.8956   61.9516   61.9555   62.1494   62.1501   63.2058   63.2064   63.7840
   63.7845   64.9317   64.9323   66.5884   66.5895   66.7495   66.7496   66.7840   66.7841   68.1688
   69.7681   69.7684   69.7950   69.7953   71.3842   71.3843   72.4560   72.8938   72.9065   73.2221
   73.2242   73.9606   73.9753   75.4344   75.4354   75.8511   76.0575   76.3497   77.8506   77.8515
   79.6743   80.7816   83.3563   83.7617   83.7649   88.3353   88.3372   88.9246   88.9251   90.4706
   90.4730   97.0096   97.0118   97.3125   97.3412   98.3545   98.3557   99.4116   99.4118  100.5303
  103.5631  104.2787  104.2805  104.5384  104.6262  104.9116  105.4093  105.4122  106.6588  106.6593
  106.8833  106.8858  107.0303  107.8560  107.8563  111.6289  111.6296  112.3814  112.3815  112.8598
  113.4284  113.4720  113.4758  114.0324  114.0327  114.5914  114.5930  115.7998  115.8015  115.8454
  115.8478  116.2723  116.9534  117.5877  119.9182  121.0635  123.7396  123.8238
   9  1  -25.0007  -24.9958  -24.3535  -24.3535  -24.3480  -24.3480  -22.4491  -22.4491  -22.4443  -22.4442
         -21.2256  -21.2218  -20.6644  -20.6644  -20.6614  -20.6614  -19.8491  -19.8482  -18.8390  -18.8378
  -18.5765  -18.5763  -18.5751  -18.5750  -16.5436  -16.5424  -15.5121  -15.5121  -15.5091  -15.5091
  -14.9523  -14.9494  -14.2372  -14.2334  -13.4845  -13.4844  -13.4789  -13.4789  -12.9994  -12.9201
  -12.9198  -12.9170  -12.9167  -12.8407  -12.4740  -12.4737  -12.4700  -12.4697  -12.2362  -12.2362
  -12.0848  -12.0848  -11.0908  -11.0904  -11.0880  -11.0876  -10.7797  -10.7784  -10.1069  -10.1061
  -10.0549  -10.0549   -9.9300   -9.9300   -8.7174   -8.6127   -8.4418   -8.4418   -8.3711   -8.3711
   -7.7341   -7.6886   -4.5039   -4.4615   -4.0092   -4.0092   -3.9362   -3.9362   -3.1603   -3.1264
   -1.5337   -1.5337   -1.4989   -1.4989   -1.1498   -0.2323   -0.2323    2.1779    2.1779    2.1907
    2.1907    2.2756    2.2757    2.2935    2.2936    2.5089    2.6593    2.7428    2.8631    2.8634
    2.9442    2.9445    3.1839    3.1839    3.2264    3.2264    3.7671    3.9010    3.9019    3.9329
    3.9373    4.0507    4.0925    4.3164    4.3165    4.4310    4.4312    4.6265    4.6265    5.0898
    5.0898    5.3477    5.4763    5.4769    5.4842    5.4847    5.9461    6.2405    6.4359    6.4360
    6.5679    6.7554    6.8115    6.9131    6.9132    7.1539    7.1541    7.3470    7.3801    7.3801
    7.4886    7.4887    7.4984    7.7722    7.7778    7.9512    8.0821    8.1379    8.2344    8.5268
    8.5270    8.7056    8.7056    8.7563    9.1371    9.1371    9.2487    9.2487    9.3106    9.3107
    9.3360    9.3362    9.6240    9.6242    9.6442   10.2064   10.4897   10.4901   11.5381   11.9525
   11.9525   12.1565   13.4397   13.4399   13.7040   13.7050   13.7080   13.7082   13.8311   13.9362
   13.9753   13.9763   14.0578   14.0578   14.1529   14.1529   14.3117   14.8300   14.8353   15.3220
   15.4401   15.4401   16.8204   17.2162   17.6552   17.6560   17.7704   17.8796   18.1052   18.1390
   18.1398   18.1687   18.1688   18.2910   18.3079   18.3919   18.5830   18.5830   18.8459   18.9142
   18.9143   19.2211   19.2215   19.4995   19.6931   19.7869   19.9970   20.1839   20.1839   20.2293
   20.2293   20.4641   20.4641   20.5322   20.5322   20.8376   20.8382   21.6247   21.6247   21.6503
   21.6509   21.7459   21.7461   21.7503   22.4458   22.4459   23.2115   23.2850   23.4907   23.4907
   23.9503   23.9504   24.0885   24.0886   24.2880   24.2880   25.3460   25.4845   26.9288   26.9288
   27.0140   27.0140   28.1928   28.6057   28.7545   28.7546   30.6035   30.7735   30.8701   31.4208
   31.4213   32.5267   32.5268   32.8939   32.8946   33.3121   34.0746   34.0746   34.2060   34.2097
   34.2097   34.4772   34.4773   36.1505   36.2212   37.8488   37.8496   37.8706   37.8707   38.0172
   38.2071   38.2079   38.7456   39.0640   39.0640   39.1559   40.6147   40.6148   41.4369   41.5719
   42.1924   42.1929   42.6182   42.9204   42.9213   42.9397   42.9398   43.1058   43.1069   43.1469
   43.4637   43.7770   43.7777   43.8809   43.8809   44.0851   44.0851   44.3685   44.5861   44.7134
   44.7135   45.0758   45.1880   45.1974   45.2478   45.3667   45.6816   45.6816   45.7732   45.7733
   46.3119   46.3123   46.4828   46.7078   46.7682   47.3305   47.3305   48.2987   48.2995   48.9017
   48.9885   48.9886   49.0239   49.1901   49.1903   49.3026   49.5366   50.2578   50.2581   51.0241
   51.0241   51.3944   52.2531   52.2533   52.8181   52.8182   53.3529   53.3531   53.4477   53.4478
   53.9538   53.9540   54.4815   54.4816   54.7252   54.9252   55.5837   58.5682   59.5494   60.0952
   60.0954   60.1053   60.1111   60.1114   60.9534   60.9706   61.7159   61.7160   61.7256   61.7407
   61.7412   61.8947   61.8956   61.9516   61.9556   62.1494   62.1502   63.2058   63.2064   63.7840
   63.7845   64.9317   64.9323   66.5884   66.5895   66.7495   66.7496   66.7840   66.7841   68.1688
   69.7681   69.7684   69.7950   69.7953   71.3842   71.3843   72.4560   72.8938   72.9065   73.2221
   73.2242   73.9606   73.9753   75.4344   75.4354   75.8512   76.0575   76.3497   77.8507   77.8515
   79.6742   80.7815   83.3564   83.7617   83.7648   88.3353   88.3372   88.9248   88.9251   90.4705
   90.4728   97.0098   97.0118   97.3131   97.3417   98.3545   98.3556   99.4117   99.4118  100.5301
  103.5632  104.2784  104.2807  104.5383  104.6260  104.9116  105.4091  105.4122  106.6587  106.6592
  106.8829  106.8860  107.0305  107.8559  107.8563  111.6285  111.6297  112.3815  112.3816  112.8599
  113.4285  113.4721  113.4763  114.0324  114.0325  114.5904  114.5928  115.7987  115.8013  115.8454
  115.8481  116.2725  116.9528  117.5871  119.9181  121.0636  123.7409  123.8250
  10  1  -24.8389  -24.8389  -24.8335  -24.8335  -23.5519  -23.5519  -23.5468  -23.5468  -21.0789  -21.0789
         -21.0789  -21.0789  -21.0752  -21.0752  -21.0752  -21.0752  -20.2683  -20.2672  -19.2393  -19.2382
  -17.4117  -17.4117  -17.4116  -17.4116  -17.4102  -17.4102  -17.4100  -17.4100  -14.0549  -14.0549
  -14.0547  -14.0547  -14.0508  -14.0508  -14.0505  -14.0505  -13.7951  -13.7951  -13.7928  -13.7928
  -12.8074  -12.8074  -12.6505  -12.6505  -12.4416  -12.4395  -12.4374  -12.4374  -12.4310  -12.4310
  -11.3774  -11.3774  -11.3739  -11.3739  -11.3034  -11.3034  -11.1621  -11.1621  -10.2208  -10.2208
  -10.2197  -10.2197   -8.6331   -8.6331   -8.6331   -8.6331   -8.5368   -8.5368   -8.5368   -8.5367
   -8.3287   -8.2823   -4.2779   -4.1973   -3.4549   -3.4549   -3.4548   -3.4548   -3.4040   -3.4040
   -3.4040   -3.4040   -0.9662   -0.9662    0.4439    0.4439    0.4668    0.4668    1.1949    1.1949
    1.5467    1.5637    2.3540    2.3540    2.4251    2.4251    2.6486    2.6486    3.4500    3.4500
    3.4884    3.4884    3.9493    3.9493    3.9729    3.9729    4.0390    4.0390    4.1300    4.1300
    4.1300    4.1300    4.1558    4.1558    4.1626    4.1627    4.1627    4.1627    4.8484    4.8484
    4.8485    4.8485    5.6395    5.6395    5.6481    5.6481    5.7193    5.7193    5.7194    5.7194
    5.8408    5.8408    6.3797    6.3797    6.3797    6.3797    7.3005    7.9327    7.9977    7.9977
    8.0105    8.0105    8.1749    8.1749    8.1749    8.1749    8.3335    8.3717    8.3717    8.6343
    8.6343    8.6343    8.6343    8.7894    8.9475    8.9475    8.9475    8.9475    9.0657    9.0657
    9.3194    9.3194    9.3194    9.3194    9.9841   10.4288   11.5111   11.5111   11.5574   11.5574
   12.1142   12.1847   12.1847   12.1847   12.1847   13.8273   13.8273   13.8277   13.8277   14.0144
   14.0145   14.0930   14.3441   14.3441   14.3441   14.3441   14.7240   14.7240   14.7242   14.7242
   16.8641   16.8641   17.4991   17.5725   17.5725   17.7096   17.7096   17.7102   17.7102   17.9769
   17.9769   17.9776   17.9776   17.9777   18.1016   18.1017   18.1017   18.1017   18.6462   18.9183
   19.2097   19.2097   19.2097   19.2097   19.4677   19.4677   19.4678   19.4678   20.2301   20.2301
   20.4773   20.4773   20.4773   20.4774   20.5043   20.5043   20.6959   20.6959   21.8226   21.8226
   22.4036   22.4036   22.9139   22.9139   23.2403   23.2403   23.3882   23.3882   23.7171   23.7171
   23.8399   23.8399   23.8479   23.8479   24.1779   24.1779   24.7016   24.7016   25.9888   25.9888
   27.8007   27.9938   28.0992   28.1223   29.5046   29.5046   29.5047   29.5047   30.8182   30.8182
   31.6772   31.6772   31.6773   31.6773   32.6498   32.6498   33.0567   33.4672   36.4385   36.4385
   36.4385   36.4386   36.8795   36.8795   36.8796   36.8796   37.7537   37.7537   38.0544   38.3790
   39.1652   39.1652   40.0977   40.0977   40.5749   40.5749   40.5755   40.5755   41.8340   41.8340
   42.4518   42.4518   42.7890   42.7891   42.8068   42.8068   42.8072   42.8072   42.9318   42.9318
   43.3291   43.3291   43.4223   43.4223   43.7669   43.7669   43.7676   43.7676   43.7959   43.7959
   43.8751   43.8751   44.3988   44.3988   44.6128   44.6128   44.8039   44.9993   45.8601   45.8601
   46.2626   46.2626   46.2627   46.2627   47.0539   47.0539   47.9244   47.9244   47.9244   47.9245
   48.0057   48.0057   48.0353   48.0353   48.8288   48.8288   48.8289   48.8289   50.0639   50.0639
   50.0641   50.0641   50.2787   51.1899   51.1899   52.0289   54.5396   54.8103   55.9034   55.9034
   55.9036   55.9036   56.0726   56.0727   56.7612   56.7612   57.4293   57.4293   57.4294   57.4294
   58.9369   58.9370   59.9374   59.9374   60.0635   60.0635   61.5503   61.8209   61.9144   61.9145
   61.9145   61.9145   62.0138   62.0138   62.4066   62.4066   62.4546   62.4546   62.4548   62.4548
   63.4649   63.4964   63.4964   65.3544   66.6218   66.6218   68.3652   68.3711   70.5980   70.5980
   71.2141   71.2142   71.4627   71.4627   71.9635   71.9635   71.9637   71.9637   71.9932   71.9932
   71.9934   71.9934   73.4114   73.4114   73.4119   73.4119   75.9202   75.9202   81.0868   81.0868
   85.0638   85.5143   85.5143   88.5033   88.5033   88.5034   88.5034   89.3371   89.3372   89.6895
   89.6895   90.4389   90.4390   93.8116  100.2521  100.2521  102.2743  102.2743  102.2753  102.2754
  103.7345  103.7345  103.7374  103.7374  105.1626  105.1627  105.1643  105.1643  105.2447  105.2448
  105.4752  105.4753  105.9656  107.3644  107.3644  111.0391  111.0393  112.4091  112.4094  112.8365
  112.9033  112.9034  113.5044  113.5044  113.5045  113.5047  113.7001  113.8606  116.6699  116.6700
  116.6722  116.6723  117.8818  117.8819  117.8841  117.8843  117.9887  117.9888
  11  1  -25.0007  -24.9958  -24.3535  -24.3535  -24.3480  -24.3480  -22.4491  -22.4491  -22.4443  -22.4442
         -21.2256  -21.2218  -20.6644  -20.6644  -20.6614  -20.6614  -19.8491  -19.8482  -18.8390  -18.8378
  -18.5765  -18.5763  -18.5751  -18.5750  -16.5436  -16.5424  -15.5121  -15.5121  -15.5091  -15.5091
  -14.9523  -14.9494  -14.2372  -14.2334  -13.4845  -13.4844  -13.4789  -13.4789  -12.9994  -12.9201
  -12.9198  -12.9170  -12.9167  -12.8407  -12.4740  -12.4737  -12.4700  -12.4697  -12.2362  -12.2362
  -12.0848  -12.0848  -11.0908  -11.0904  -11.0880  -11.0876  -10.7797  -10.7784  -10.1069  -10.1061
  -10.0549  -10.0549   -9.9300   -9.9300   -8.7174   -8.6127   -8.4418   -8.4418   -8.3711   -8.3711
   -7.7341   -7.6886   -4.5039   -4.4615   -4.0092   -4.0092   -3.9362   -3.9362   -3.1603   -3.1264
   -1.5337   -1.5337   -1.4989   -1.4989   -1.1498   -0.2323   -0.2323    2.1779    2.1779    2.1907
    2.1907    2.2756    2.2757    2.2935    2.2936    2.5089    2.6593    2.7428    2.8631    2.8634
    2.9442    2.9445    3.1839    3.1839    3.2264    3.2264    3.7671    3.9010    3.9019    3.9329
    3.9373    4.0507    4.0925    4.3164    4.3165    4.4310    4.4312    4.6265    4.6265    5.0898
    5.0898    5.3477    5.4763    5.4769    5.4842    5.4847    5.9461    6.2405    6.4359    6.4360
    6.5679    6.7554    6.8115    6.9131    6.9132    7.1539    7.1541    7.3470    7.3801    7.3801
    7.4886    7.4887    7.4984    7.7722    7.7778    7.9512    8.0821    8.1379    8.2344    8.5268
    8.5270    8.7056    8.7056    8.7563    9.1371    9.1371    9.2487    9.2487    9.3106    9.3107
    9.3360    9.3362    9.6240    9.6242    9.6442   10.2064   10.4897   10.4901   11.5381   11.9525
   11.9525   12.1565   13.4397   13.4399   13.7040   13.7050   13.7080   13.7082   13.8311   13.9362
   13.9753   13.9763   14.0578   14.0578   14.1529   14.1529   14.3117   14.8300   14.8353   15.3220
   15.4401   15.4401   16.8204   17.2162   17.6552   17.6560   17.7704   17.8796   18.1052   18.1390
   18.1398   18.1687   18.1688   18.2910   18.3079   18.3919   18.5830   18.5830   18.8459   18.9142
   18.9143   19.2211   19.2215   19.4995   19.6931   19.7869   19.9970   20.1839   20.1839   20.2293
   20.2293   20.4641   20.4641   20.5322   20.5322   20.8376   20.8382   21.6247   21.6247   21.6503
   21.6509   21.7459   21.7461   21.7503   22.4458   22.4459   23.2115   23.2850   23.4907   23.4907
   23.9503   23.9504   24.0885   24.0886   24.2880   24.2880   25.3460   25.4845   26.9288   26.9288
   27.0140   27.0140   28.1928   28.6057   28.7545   28.7546   30.6035   30.7735   30.8701   31.4208
   31.4213   32.5267   32.5268   32.8939   32.8946   33.3121   34.0746   34.0746   34.2060   34.2097
   34.2097   34.4772   34.4773   36.1505   36.2212   37.8488   37.8496   37.8706   37.8707   38.0172
   38.2071   38.2079   38.7456   39.0640   39.0640   39.1559   40.6147   40.6148   41.4369   41.5719
   42.1924   42.1929   42.6182   42.9204   42.9213   42.9397   42.9398   43.1058   43.1069   43.1469
   43.4637   43.7770   43.7777   43.8809   43.8809   44.0851   44.0851   44.3685   44.5861   44.7134
   44.7135   45.0758   45.1880   45.1974   45.2478   45.3667   45.6816   45.6816   45.7732   45.7733
   46.3119   46.3123   46.4828   46.7078   46.7682   47.3305   47.3305   48.2987   48.2995   48.9017
   48.9885   48.9886   49.0239   49.1901   49.1903   49.3026   49.5366   50.2578   50.2581   51.0241
[...]
    5.4744    5.4744    5.5763    5.5763    6.4661    6.4661    6.4698    6.4698    6.7663    6.7663
    6.7663    6.7663    6.7698    6.7698    7.0670    7.0670    7.0670    7.0670    7.1067    7.1067
    7.1069    7.1069    7.2046    7.2046    7.7751    7.7751    8.4346    8.4346    8.4346    8.4346
    8.4464    8.4464    8.4745    8.4745    9.0363    9.0363    9.0364    9.0364    9.3238    9.3238
    9.3240    9.3240    9.4124    9.4124    9.9754    9.9754    9.9755    9.9755   12.8088   12.8088
   12.8088   12.8088   12.8404   12.8404   13.2177   13.2177   13.5146   13.5146   13.5148   13.5148
   14.0066   14.0066   14.0075   14.0075   14.2827   14.2827   14.4983   14.4983   14.4983   14.4983
   15.2443   15.2443   16.6642   16.6642   17.3378   17.3378   17.7937   17.7937   17.7943   17.7943
   18.4984   18.4984   18.5198   18.5198   18.5961   18.5961   18.5963   18.5963   18.7777   18.7777
   18.7779   18.7779   19.1907   19.1907   19.6896   19.6896   20.1359   20.1359   20.1359   20.1359
   20.5787   20.5787   20.5789   20.5789   21.1855   21.1856   21.5834   21.5834   21.5835   21.5835
   21.6715   21.6715   21.6721   21.6721   23.0680   23.0680   23.0680   23.0680   23.2526   23.2526
   24.0247   24.0247   24.0248   24.0248   25.4109   25.4109   26.7418   26.7418   26.7418   26.7418
   29.8478   29.8478   29.8479   29.8479   30.4441   30.4441   30.4787   30.4787   30.4787   30.4787
   31.0680   31.0680   32.1886   32.1886   32.1890   32.1890   32.5132   32.5132   33.7109   33.7109
   33.7112   33.7112   33.7633   33.7633   35.6994   35.6994   38.0322   38.0322   38.0330   38.0330
   38.4162   38.4162   38.4162   38.4162   38.4164   38.4164   41.5962   41.5962   41.5965   41.5965
   42.4355   42.4355   42.9321   42.9321   42.9330   42.9330   43.5909   43.5909   43.6605   43.6605
   43.7753   43.7753   43.7756   43.7756   44.1110   44.1110   44.1114   44.1114   44.2640   44.2640
   44.2645   44.2645   44.4439   44.4439   45.1931   45.1931   45.2226   45.2226   46.7386   46.7386
   47.4691   47.4691   47.4693   47.4693   47.9883   47.9883   48.7734   48.7734   49.5976   49.5976
   49.5978   49.5978   49.8452   49.8452   49.8453   49.8453   50.6763   50.6763   50.6765   50.6765
   51.7640   51.7640   52.4610   52.4610   52.4613   52.4613   53.4329   53.4329   53.4330   53.4330
   53.7994   53.7994   53.7995   53.7995   55.2951   55.2951   56.8354   56.8354   56.8355   56.8355
   58.7958   58.7958   59.7847   59.7847   59.9826   59.9826   60.9830   60.9830   61.3395   61.3395
   61.8169   61.8169   61.8170   61.8170   62.0588   62.0588   62.1331   62.1331   62.1342   62.1342
   63.8939   63.8939   63.8943   63.8943   66.7660   66.7660   66.7661   66.7661   69.6273   69.6273
   69.6276   69.6276   70.5233   70.5233   70.5234   70.5234   72.8988   72.8988   73.1237   73.1237
   73.9542   73.9542   73.9560   73.9560   73.9570   73.9570   75.9738   75.9738   79.0884   79.0885
   79.0898   79.0898   82.5300   82.5300   84.1816   84.1816   84.1846   84.1847   90.3653   90.3653
   91.7270   91.7270   91.7277   91.7278   97.3940   97.3940   98.3478   98.3478   98.3488   98.3488
  102.1404  102.1404  104.6944  104.6944  105.5846  105.5846  105.5874  105.5874  106.8590  106.8590
  106.8594  106.8595  107.1763  107.1764  107.1790  107.1791  109.0321  109.0321  112.5780  112.5781
  112.5786  112.5786  112.8861  112.8861  114.0842  114.0843  114.0885  114.0885  115.0868  115.0869
  115.0893  115.0894  117.7426  117.7427  118.5648  118.5648  123.6526  123.6527
  42  1  -24.8361  -24.8361  -24.8361  -24.8361  -23.5494  -23.5494  -23.5494  -23.5494  -21.0771  -21.0771
         -21.0771  -21.0771  -21.0770  -21.0770  -21.0770  -21.0770  -20.2677  -20.2677  -19.2387  -19.2387
  -17.4109  -17.4109  -17.4109  -17.4109  -17.4108  -17.4108  -17.4108  -17.4108  -14.0527  -14.0527
  -14.0527  -14.0527  -14.0525  -14.0525  -14.0525  -14.0525  -13.7939  -13.7939  -13.7939  -13.7939
  -12.7322  -12.7322  -12.7322  -12.7322  -12.4406  -12.4406  -12.4336  -12.4336  -12.4336  -12.4336
  -11.3756  -11.3756  -11.3756  -11.3756  -11.2355  -11.2355  -11.2355  -11.2355  -10.2202  -10.2202
  -10.2202  -10.2202   -8.5859   -8.5859   -8.5859   -8.5859   -8.5859   -8.5859   -8.5859   -8.5859
   -8.3051   -8.3051   -4.2404   -4.2404   -3.4299   -3.4299   -3.4299   -3.4299   -3.4299   -3.4299
   -3.4299   -3.4299    0.1434    0.1434    0.1434    0.1434    0.4550    0.4550    0.4550    0.4550
    1.5553    1.5553    2.1458    2.1458    2.1458    2.1458    2.4237    2.4237    2.4237    2.4237
    3.4556    3.4556    3.4556    3.4556    4.1457    4.1457    4.1457    4.1457    4.1474    4.1474
    4.1474    4.1474    4.1474    4.1474    4.1475    4.1475    4.8485    4.8485    4.8485    4.8485
    5.6437    5.6437    5.6437    5.6437    5.9908    5.9908    5.9908    5.9908    5.9909    5.9909
    5.9909    5.9909    6.6247    6.6247    6.6247    6.6247    7.5025    7.5025    7.7198    7.7198
    7.7198    7.7198    8.0052    8.0052    8.0052    8.0052    8.4987    8.4987    8.5228    8.5228
    8.5228    8.5228    8.5228    8.5228    8.5228    8.5228    9.0569    9.0569    9.0569    9.0569
    9.0569    9.0569    9.0569    9.0569   10.4874   10.4874   11.5345   11.5345   11.5345   11.5345
   12.7427   12.7427   12.9259   12.9259   12.9259   12.9259   12.9260   12.9260   12.9260   12.9260
   14.0144   14.0144   14.5012   14.5012   14.5012   14.5012   14.5014   14.5014   14.5014   14.5014
   16.9460   16.9460   16.9460   16.9460   17.5241   17.5241   17.5241   17.5241   17.5245   17.5245
   17.5245   17.5245   17.8773   17.8773   18.7804   18.7804   18.7974   18.7974   18.7974   18.7974
   18.7976   18.7976   18.7976   18.7976   20.0325   20.0325   20.0325   20.0325   20.0325   20.0325
   20.0325   20.0325   20.7745   20.7745   20.7745   20.7745   21.3805   21.3805   21.3805   21.3805
   22.7838   22.7838   22.7838   22.7838   23.3136   23.3136   23.3136   23.3136   23.6880   23.6880
   23.6880   23.6880   23.9064   23.9064   23.9064   23.9064   28.0518   28.0518   28.2796   28.2796
   28.7579   28.7579   28.7579   28.7579   28.8775   28.8775   28.8775   28.8775   31.1652   31.1652
   31.1652   31.1652   31.1653   31.1653   31.1653   31.1653   31.9594   31.9594   36.3049   36.3049
   36.3049   36.3049   36.3049   36.3049   36.3049   36.3049   38.2097   38.2097   39.2314   39.2314
   39.2314   39.2314   39.6681   39.6682   39.6682   39.6682   42.1960   42.1960   42.1960   42.1960
   42.1965   42.1965   42.1965   42.1965   42.8245   42.8245   42.8245   42.8245   43.0203   43.0203
   43.0203   43.0203   43.2511   43.2511   43.2511   43.2511   43.6944   43.6944   43.6944   43.6944
   44.5003   44.5003   44.5003   44.5003   45.1898   45.1898   45.1898   45.1898   46.1398   46.1398
   47.1681   47.1681   47.1681   47.1681   47.1681   47.1681   47.1681   47.1681   48.0214   48.0214
   48.0215   48.0215   48.8652   48.8652   48.8653   48.8653   49.9879   49.9879   49.9879   49.9879
   49.9880   49.9880   49.9880   49.9880   52.3434   52.3434   54.7597   54.7597   55.3386   55.3387
   55.3387   55.3387   56.5091   56.5091   56.5091   56.5091   56.5092   56.5092   56.5092   56.5092
   57.5431   57.5431   57.5431   57.5432   59.9989   59.9989   59.9989   59.9989   61.6859   61.6859
   62.1459   62.1459   62.1459   62.1459   62.1459   62.1459   62.1460   62.1460   62.2079   62.2079
   62.2079   62.2079   67.0150   67.0150   67.0150   67.0150   68.3684   68.3684   68.9917   68.9917
   71.3360   71.3360   71.3361   71.3361   71.9680   71.9680   71.9680   71.9680   71.9682   71.9682
   71.9682   71.9682   78.2474   78.2474   78.2475   78.2475   79.8157   79.8157   79.8157   79.8157
   79.8159   79.8159   79.8160   79.8160   81.6582   81.6582   81.6582   81.6582   86.2198   86.2198
   89.5299   89.5300   89.5300   89.5300  102.6132  102.6132  102.6133  102.6133  103.4602  103.4602
  103.4602  103.4602  103.4626  103.4626  103.4627  103.4627  106.3562  106.3562  106.3562  106.3562
  107.4314  107.4315  107.4315  107.4316  107.4319  107.4319  107.4320  107.4320  107.7659  107.7659
  111.6381  111.6382  111.6385  111.6387  113.3446  113.3446  115.3059  115.3059  115.3060  115.3060
  117.1209  117.1210  117.1211  117.1212  117.1233  117.1235  117.1235  117.1236
  43  1  -24.9981  -24.9981  -24.3507  -24.3507  -24.3507  -24.3507  -22.4468  -22.4468  -22.4467  -22.4467
         -21.2237  -21.2237  -20.6629  -20.6629  -20.6629  -20.6629  -19.8487  -19.8487  -18.8384  -18.8384
  -18.5758  -18.5758  -18.5756  -18.5756  -16.5430  -16.5430  -15.5105  -15.5105  -15.5105  -15.5105
  -14.9507  -14.9507  -14.2352  -14.2352  -13.4813  -13.4813  -13.4813  -13.4813  -12.9233  -12.9233
  -12.9186  -12.9185  -12.9182  -12.9182  -12.4719  -12.4719  -12.4717  -12.4717  -12.1636  -12.1636
  -12.1636  -12.1636  -11.0891  -11.0891  -11.0888  -11.0888  -10.7791  -10.7791  -10.1064  -10.1064
   -9.9946   -9.9946   -9.9946   -9.9946   -8.6663   -8.6663   -8.4066   -8.4066   -8.4066   -8.4066
   -7.7108   -7.7108   -4.4842   -4.4842   -3.9746   -3.9746   -3.9746   -3.9746   -3.1432   -3.1432
   -1.5166   -1.5166   -1.5166   -1.5166   -0.0259   -0.0259    0.8279    0.8279    0.8279    0.8279
    2.1970    2.1970    2.1970    2.1970    2.2846    2.2846    2.2847    2.2847    2.7401    2.7401
    2.9423    2.9423    2.9426    2.9426    3.8880    3.8880    3.8880    3.8880    3.9015    3.9015
    3.9350    3.9350    4.0715    4.0715    4.4614    4.4614    4.4615    4.4615    5.4739    5.4739
    5.4744    5.4744    5.5763    5.5763    6.4661    6.4661    6.4698    6.4698    6.7663    6.7663
    6.7663    6.7663    6.7698    6.7698    7.0670    7.0670    7.0670    7.0670    7.1067    7.1067
    7.1069    7.1069    7.2046    7.2046    7.7751    7.7751    8.4346    8.4346    8.4346    8.4346
    8.4464    8.4464    8.4745    8.4745    9.0363    9.0363    9.0364    9.0364    9.3238    9.3238
    9.3240    9.3240    9.4124    9.4124    9.9754    9.9754    9.9755    9.9755   12.8088   12.8088
   12.8088   12.8088   12.8404   12.8404   13.2177   13.2177   13.5146   13.5146   13.5148   13.5148
   14.0066   14.0066   14.0075   14.0075   14.2827   14.2827   14.4983   14.4983   14.4983   14.4983
   15.2443   15.2443   16.6642   16.6642   17.3378   17.3378   17.7937   17.7937   17.7943   17.7943
   18.4984   18.4984   18.5198   18.5198   18.5961   18.5961   18.5963   18.5963   18.7777   18.7777
   18.7779   18.7779   19.1907   19.1907   19.6896   19.6896   20.1359   20.1359   20.1359   20.1359
   20.5787   20.5787   20.5789   20.5789   21.1855   21.1856   21.5834   21.5834   21.5835   21.5835
   21.6715   21.6715   21.6721   21.6721   23.0680   23.0680   23.0680   23.0680   23.2526   23.2526
   24.0247   24.0247   24.0248   24.0248   25.4109   25.4109   26.7418   26.7418   26.7418   26.7418
   29.8478   29.8478   29.8479   29.8479   30.4441   30.4441   30.4787   30.4787   30.4787   30.4787
   31.0680   31.0680   32.1886   32.1886   32.1890   32.1890   32.5132   32.5132   33.7109   33.7109
   33.7112   33.7112   33.7633   33.7633   35.6994   35.6994   38.0322   38.0322   38.0330   38.0330
   38.4162   38.4162   38.4162   38.4162   38.4164   38.4164   41.5962   41.5962   41.5965   41.5965
   42.4355   42.4355   42.9321   42.9321   42.9330   42.9330   43.5909   43.5909   43.6605   43.6605
   43.7753   43.7753   43.7756   43.7756   44.1110   44.1110   44.1114   44.1114   44.2640   44.2640
   44.2645   44.2645   44.4439   44.4439   45.1931   45.1931   45.2226   45.2226   46.7386   46.7386
   47.4691   47.4691   47.4693   47.4693   47.9883   47.9883   48.7734   48.7734   49.5976   49.5976
   49.5978   49.5978   49.8452   49.8452   49.8453   49.8453   50.6763   50.6763   50.6765   50.6765
   51.7640   51.7640   52.4610   52.4610   52.4613   52.4613   53.4329   53.4329   53.4330   53.4330
   53.7994   53.7994   53.7995   53.7995   55.2951   55.2951   56.8354   56.8354   56.8355   56.8355
   58.7958   58.7958   59.7847   59.7847   59.9826   59.9826   60.9830   60.9830   61.3395   61.3395
   61.8169   61.8169   61.8170   61.8170   62.0588   62.0588   62.1331   62.1331   62.1342   62.1342
   63.8939   63.8939   63.8943   63.8943   66.7660   66.7660   66.7661   66.7661   69.6273   69.6273
   69.6276   69.6276   70.5233   70.5233   70.5234   70.5234   72.8988   72.8988   73.1237   73.1237
   73.9542   73.9542   73.9560   73.9560   73.9570   73.9570   75.9738   75.9738   79.0884   79.0885
   79.0898   79.0898   82.5300   82.5300   84.1816   84.1816   84.1846   84.1847   90.3653   90.3653
   91.7270   91.7270   91.7277   91.7278   97.3940   97.3940   98.3478   98.3478   98.3488   98.3488
  102.1404  102.1404  104.6944  104.6944  105.5846  105.5846  105.5874  105.5874  106.8590  106.8590
  106.8594  106.8595  107.1763  107.1764  107.1790  107.1791  109.0321  109.0321  112.5780  112.5781
  112.5786  112.5786  112.8861  112.8861  114.0842  114.0843  114.0885  114.0885  115.0868  115.0869
  115.0893  115.0894  117.7426  117.7427  118.5648  118.5648  123.6526  123.6527
  44  1  -24.8361  -24.8361  -24.8361  -24.8361  -23.5494  -23.5494  -23.5494  -23.5494  -21.0771  -21.0771
         -21.0770  -21.0770  -21.0770  -21.0770  -21.0770  -21.0770  -20.2677  -20.2677  -19.2386  -19.2386
  -17.4110  -17.4110  -17.4110  -17.4110  -17.4110  -17.4110  -17.4110  -17.4110  -14.0525  -14.0525
  -14.0525  -14.0525  -14.0525  -14.0525  -14.0525  -14.0525  -13.7941  -13.7941  -13.7941  -13.7941
  -12.7322  -12.7322  -12.7322  -12.7322  -12.4409  -12.4409  -12.4334  -12.4334  -12.4334  -12.4334
  -11.3753  -11.3753  -11.3753  -11.3752  -11.2355  -11.2355  -11.2355  -11.2355  -10.2206  -10.2206
  -10.2206  -10.2206   -8.5859   -8.5859   -8.5859   -8.5859   -8.5859   -8.5859   -8.5859   -8.5859
   -8.3051   -8.3051   -4.2404   -4.2404   -3.4299   -3.4299   -3.4299   -3.4299   -3.4299   -3.4299
   -3.4299   -3.4299    0.1435    0.1435    0.1435    0.1435    0.4550    0.4550    0.4550    0.4550
    1.5555    1.5555    2.1458    2.1458    2.1458    2.1458    2.4242    2.4242    2.4242    2.4242
    3.4556    3.4556    3.4556    3.4556    4.1457    4.1457    4.1457    4.1457    4.1473    4.1473
    4.1473    4.1473    4.1473    4.1473    4.1473    4.1474    4.8479    4.8479    4.8479    4.8479
    5.6440    5.6440    5.6440    5.6440    5.9909    5.9909    5.9909    5.9909    5.9909    5.9909
    5.9909    5.9909    6.6247    6.6247    6.6247    6.6247    7.5026    7.5026    7.7198    7.7198
    7.7198    7.7198    8.0053    8.0053    8.0053    8.0053    8.4989    8.4989    8.5227    8.5227
    8.5227    8.5227    8.5228    8.5228    8.5228    8.5228    9.0567    9.0567    9.0567    9.0567
    9.0567    9.0567    9.0567    9.0567   10.4876   10.4876   11.5344   11.5344   11.5344   11.5344
   12.7428   12.7428   12.9260   12.9260   12.9260   12.9260   12.9260   12.9260   12.9260   12.9260
   14.0133   14.0133   14.5017   14.5018   14.5018   14.5018   14.5018   14.5018   14.5018   14.5018
   16.9460   16.9460   16.9460   16.9460   17.5240   17.5240   17.5240   17.5240   17.5240   17.5240
   17.5241   17.5241   17.8781   17.8781   18.7803   18.7803   18.7974   18.7974   18.7974   18.7974
   18.7974   18.7974   18.7974   18.7974   20.0326   20.0326   20.0326   20.0326   20.0326   20.0326
   20.0326   20.0326   20.7738   20.7739   20.7739   20.7739   21.3808   21.3809   21.3809   21.3809
   22.7838   22.7838   22.7838   22.7838   23.3135   23.3135   23.3135   23.3135   23.6880   23.6880
   23.6880   23.6880   23.9064   23.9064   23.9065   23.9065   28.0517   28.0517   28.2804   28.2804
   28.7578   28.7578   28.7578   28.7578   28.8775   28.8775   28.8775   28.8775   31.1652   31.1652
   31.1652   31.1652   31.1652   31.1652   31.1652   31.1652   31.9595   31.9595   36.3048   36.3049
   36.3049   36.3049   36.3049   36.3049   36.3049   36.3049   38.2086   38.2086   39.2315   39.2316
   39.2316   39.2316   39.6679   39.6679   39.6679   39.6679   42.1961   42.1961   42.1961   42.1961
   42.1961   42.1961   42.1961   42.1961   42.8251   42.8251   42.8251   42.8251   43.0204   43.0204
   43.0204   43.0204   43.2512   43.2512   43.2512   43.2512   43.6947   43.6947   43.6948   43.6948
   44.4988   44.4988   44.4988   44.4988   45.1898   45.1898   45.1898   45.1898   46.1402   46.1402
   47.1680   47.1680   47.1680   47.1680   47.1680   47.1680   47.1680   47.1680   48.0212   48.0212
   48.0212   48.0212   48.8670   48.8670   48.8670   48.8670   49.9879   49.9879   49.9879   49.9879
   49.9879   49.9879   49.9879   49.9879   52.3436   52.3436   54.7599   54.7599   55.3390   55.3390
   55.3390   55.3390   56.5091   56.5091   56.5091   56.5091   56.5091   56.5091   56.5091   56.5091
   57.5431   57.5432   57.5432   57.5432   59.9990   59.9990   59.9991   59.9991   61.6844   61.6844
   62.1458   62.1458   62.1458   62.1458   62.1458   62.1458   62.1458   62.1458   62.2075   62.2075
   62.2075   62.2075   67.0162   67.0162   67.0162   67.0163   68.3680   68.3680   68.9920   68.9920
   71.3328   71.3328   71.3329   71.3329   71.9682   71.9682   71.9682   71.9682   71.9682   71.9682
   71.9682   71.9682   78.2475   78.2475   78.2475   78.2475   79.8171   79.8171   79.8172   79.8172
   79.8173   79.8173   79.8174   79.8174   81.6601   81.6601   81.6601   81.6601   86.2208   86.2208
   89.5274   89.5274   89.5274   89.5274  102.6103  102.6105  102.6106  102.6106  103.4606  103.4606
  103.4606  103.4607  103.4607  103.4607  103.4608  103.4608  106.3564  106.3564  106.3565  106.3565
  107.4311  107.4311  107.4312  107.4313  107.4313  107.4314  107.4314  107.4314  107.7686  107.7687
  111.6412  111.6412  111.6417  111.6417  113.3400  113.3400  115.3066  115.3066  115.3066  115.3067
  117.1225  117.1225  117.1226  117.1227  117.1232  117.1233  117.1236  117.1236
siesta: Fermi energy =      -5.956313 eV

siesta: Program's energy decomposition (eV):
siesta: Ebs     =     -2178.251639
siesta: Eions   =      9434.507561
siesta: Ena     =      2224.382601
siesta: Ekin    =      3906.306029
siesta: Enl     =      -379.904703
siesta: Eso     =         0.000000
siesta: Edftu   =         0.000000
siesta: DEna    =      -202.505154
siesta: DUscf   =        18.015852
siesta: DUext   =         0.000000
siesta: Exc     =     -1709.241159
siesta: eta*DQ  =         0.000000
siesta: Emadel  =         0.000000
siesta: Emeta   =         0.000000
siesta: Emolmec =        -2.494651
siesta: Ekinion =         0.000000
siesta: Eharris =     -5579.948752
siesta: Etot    =     -5579.948747
siesta: FreeEng =     -5579.964957

siesta: Final energy (eV):
siesta:  Band Struct. =   -2178.251639
siesta:       Kinetic =    3906.306029
siesta:       Hartree =    3610.293067
siesta:       Edftu   =       0.000000
siesta:       Eso     =       0.000000
siesta:    Ext. field =       0.000000
siesta:   Exch.-corr. =   -1709.241159
siesta:  Ion-electron =  -11079.708233
siesta:       Ion-ion =    -305.103800
siesta:       Ekinion =       0.000000
siesta:         Total =   -5579.948747
siesta:         Fermi =      -5.956313

siesta: Stress tensor (static) (eV/Ang**3):
siesta:    -0.062970   -0.000046    0.000000
siesta:    -0.000046   -0.063023   -0.000000
siesta:     0.000000   -0.000000    0.006288

siesta: Cell volume =        460.478958 Ang**3

siesta: Pressure (static):
siesta:                Solid            Molecule  Units
siesta:           0.00043458          0.00043461  Ry/Bohr**3
siesta:           0.03990195          0.03990445  eV/Ang**3
siesta:          63.93066702         63.93466218  kBar
(Free)E+ p_basis*V_orbitals  =       -5546.435152
(Free)Eharris+ p_basis*V_orbitals  =       -5546.435156

cite: Please see "graphite_scf.bib" for an exhaustive BiBTeX file.
cite: Please clearly indicate Siesta version in published work: 4.1.5
cite: This calculation has made use of the following articles
cite: which are encouraged to be cited in a published work.
        Primary SIESTA paper
          DOI: www.doi.org/10.1088/0953-8984/14/11/302

>> End of run:   1-NOV-2022  19:09:33
Job completed
