Siesta Version  : 4.1.5
Architecture    : x86_64-unknown-linux-gnu--unknown
Compiler version: GNU Fortran (GCC) 11.3.0
Compiler flags  : mpif90 -g -O2 -fallow-argument-mismatch
PP flags        : -DMPI -DFC_HAVE_FLUSH -DFC_HAVE_ABORT
Libraries       :  -I/global/software/sl-7.x86_64/modules/intel/2020.4.304/mkl/include  /globall/software/sl-7.x86_64/modules/intel/2020.4.304/mkl/lib/intel64/libmkl_scalapack_lp64.a -Wl,--start-group /global/software/sl-7.x86_64/modules/intel/2020.4.304/mkl/lib/intel64/libmkl_intel_lp64.a /global/software/sl-7.x86_64/modules/intel/2020.4.304/mkl/lib/intel64/libmkl_sequential.a /global/software/sl-7.x86_64/modules/intel/2020.4.304/mkl/lib/intel64/libmkl_core.a /global/software/sl-7.x86_64/modules/intel/2020.4.304/mkl/lib/intel64/libmkl_blacs_openmpi_lp64.a -Wl,--end-group -lpthread -lm -ldl
PARALLEL version

* Running on 20 nodes in parallel
>> Start of run:   1-NOV-2022  16:46:51

                           ***********************       
                           *  WELCOME TO SIESTA  *       
                           ***********************       

reinit: Reading from standard input
reinit: Dumped input in INPUT_TMP.96541
************************** Dump of input data file ****************************
SystemName graphite_scf
SystemLabel graphite_scf
NumberOfAtoms   36
NumberOfSpecies 1
%block ChemicalSpeciesLabel
1  6   C-gga
%endblock ChemicalSpeciesLabel
PAO.BasisSize  DZP
PAO.EnergyShift  10 meV
%block PS.Lmax
C-gga   2
%endblock PS.Lmax
LatticeConstant 1.000000 Ang
%block LatticeVectors
	7.3920000000	0.0000000000	0.0000000000
	-3.6960000000	6.4016597848	0.0000000000
	0.0000000000	0.0000000000	5.5701300000
%endblock LatticeVectors
AtomicCoordinatesFormat Ang
%block AtomicCoordinatesAndAtomicSpecies
	0.00000000	0.00000000	1.39253250	1
	0.00000000	0.00000000	4.17759750	1
	-1.23200000	2.13388659	1.39253250	1
	-2.46400000	4.26777319	4.17759750	1
	2.46400000	4.26777319	1.39253250	1
	1.23200000	2.13388659	4.17759750	1
	2.46400000	0.00000000	1.39253250	1
	4.92800000	0.00000000	4.17759750	1
	2.46400000	0.00000000	4.17759750	1
	4.92800000	0.00000000	1.39253250	1
	2.46400000	4.26777319	4.17759750	1
	1.23200000	2.13388659	1.39253250	1
	-1.23200000	2.13388659	4.17759750	1
	-2.46400000	4.26777319	1.39253250	1
	0.00000000	4.26777319	1.39253250	1
	3.69600000	2.13388659	4.17759750	1
	3.69600000	2.13388659	1.39253250	1
	0.00000000	4.26777319	4.17759750	1
	0.00000000	1.42258964	1.39253250	1
	3.69600000	4.97907014	4.17759750	1
	2.46400123	5.69036496	1.39253250	1
	1.23199877	0.71129482	4.17759750	1
	-2.46400123	5.69036496	1.39253250	1
	6.16000123	0.71129482	4.17759750	1
	-1.23200000	3.55647624	1.39253250	1
	4.92800000	2.84518355	4.17759750	1
	1.23200123	3.55647837	1.39253250	1
	2.46399877	2.84518142	4.17759750	1
	-0.00000123	5.69036496	1.39253250	1
	3.69600123	0.71129482	4.17759750	1
	2.46400000	1.42258964	1.39253250	1
	1.23200000	4.97907014	4.17759750	1
	4.92800123	1.42259177	1.39253250	1
	-1.23200123	4.97906801	4.17759750	1
	3.69599877	3.55647837	1.39253250	1
	0.00000123	2.84518142	4.17759750	1
%endblock AtomicCoordinatesAndAtomicSpecies
Kgrid_NoTRS  T
%block kgrid_MonkhorstPack
4       0       0       0.0
0       4       0       0.0
0       0       4       0.0
%endblock kgrid_MonkhorstPack
AtomCoorFormatOut Ang
BlockSize 1
#ProcessorY 12
Diag.ParallelOverK   T
Diag.DivideAndConquer F
MeshCutoff   300 Ry
SCF.FreeE.Tolerance 1E-3 eV
SCF.EDM.Tolerance   5E-3 eV
DM.Tolerance  1E-3
DM.Require.Energy.Convergence T
DM.NumberPulay 4
XC.Functional GGA
XC.Authors    PBE
UseSaveData        F
SolutionMethod     diagon
MD.TypeOfRun       CG
MD.VariableCell    F
MD.NumCGsteps      00
MD.MaxCGDispl      0.200000 Bohr
#MD.MaxStressTol    1.000000 GPa
#MD.MaxForceTol     0.010000 eV/Ang
WriteMDHistory T
WriteCoorStep T
WriteForces T
WriteCoorStep    T
WriteEigenValues T
WriteDM    F
MM.UnitsDistance Ang  # what this program prints out DO NOT CHANGE
MM.UnitsEnergy    eV  # what this program prints out DO NOT CHANGE
MM.Grimme.S6     0.75 # Grimme-paper for PBE (correct for your functional)
MM.Grimme.D     20.   # Grimme-paper (correct for your functional)
%block MM.Potentials
  1   1 Grimme     18.14      2.904 # C, 10.1002/jcc.20495
%endblock MM.Potentials
#%block ProjectedDensityOfStates
# -200.0  120.0  0.4  12800  eV
#%endblock ProjectedDensityOfStates
************************** End of input data file *****************************

reinit: -----------------------------------------------------------------------
reinit: System Name: graphite_scf
reinit: -----------------------------------------------------------------------
reinit: System Label: graphite_scf
reinit: -----------------------------------------------------------------------
Reading two-body potentials
Grimme - two-body potential between 1 and 1

initatom: Reading input for the pseudopotentials and atomic orbitals ----------
Species number:   1 Atomic number:    6 Label: C-gga

Ground state valence configuration:   2s02  2p02
Reading pseudopotential information in formatted form from C-gga.psf

Valence configuration for pseudopotential generation:
2s( 2.00) rc: 1.56
2p( 2.00) rc: 1.56
3d( 0.00) rc: 1.56
4f( 0.00) rc: 1.56
relmxkb: Read Max KB Ang. Momentum=    2 for species C-gga

<basis_specs>
===============================================================================
C-gga                Z=   6    Mass=  12.010        Charge= 0.17977+309
Lmxo=1 Lmxkb= 2    BasisType=split      Semic=F
L=0  Nsemic=0  Cnfigmx=2
          i=1  nzeta=2  polorb=0  (2s)
            splnorm:   0.15000    
               vcte:    0.0000    
               rinn:    0.0000    
               qcoe:    0.0000    
               qyuk:    0.0000    
               qwid:   0.10000E-01
                rcs:    0.0000      0.0000    
            lambdas:    1.0000      1.0000    
L=1  Nsemic=0  Cnfigmx=2
          i=1  nzeta=2  polorb=1  (2p)
            splnorm:   0.15000    
               vcte:    0.0000    
               rinn:    0.0000    
               qcoe:    0.0000    
               qyuk:    0.0000    
               qwid:   0.10000E-01
                rcs:    0.0000      0.0000    
            lambdas:    1.0000      1.0000    
-------------------------------------------------------------------------------
L=0  Nkbl=1  erefs: 0.17977+309
L=1  Nkbl=1  erefs: 0.17977+309
L=2  Nkbl=1  erefs: 0.17977+309
===============================================================================
</basis_specs>

atom: Called for C-gga                 (Z =   6)

read_vps: Pseudopotential generation method:
read_vps: ATM 3.2.2 Troullier-Martins                       
Valence charge for ps generation:    4.00000

xc_check: Exchange-correlation functional:
xc_check: GGA Perdew, Burke & Ernzerhof 1996
V l=0 = -2*Zval/r beyond r=  1.5227
V l=1 = -2*Zval/r beyond r=  1.5227
V l=2 = -2*Zval/r beyond r=  1.5227
All V_l potentials equal beyond r=  1.4851
This should be close to max(r_c) in ps generation
All pots = -2*Zval/r beyond r=  1.5227

VLOCAL1: 99.0% of the norm of Vloc inside     19.682 Ry
VLOCAL1: 99.9% of the norm of Vloc inside     44.856 Ry
atom: Maximum radius for 4*pi*r*r*local-pseudopot. charge    1.79142
atom: Maximum radius for r*vlocal+2*Zval:    1.54183
GHOST: No ghost state for L =  0
GHOST: No ghost state for L =  1
GHOST: No ghost state for L =  2

KBgen: Kleinman-Bylander projectors: 
   l= 0   rc=  1.661951   el= -1.010689   Ekb=  5.289847   kbcos=  0.316429
   l= 1   rc=  1.661951   el= -0.388490   Ekb= -4.102504   kbcos= -0.351025
   l= 2   rc=  1.747182   el=  0.001971   Ekb= -1.006005   kbcos= -0.008530

KBgen: Total number of Kleinman-Bylander projectors:    9
atom: -------------------------------------------------------------------------

atom: SANKEY-TYPE ORBITALS:
atom: Selected multiple-zeta basis: split     

SPLIT: Orbitals with angular momentum L= 0

SPLIT: Basis orbitals for state 2s

SPLIT: PAO cut-off radius determined from an
SPLIT: energy shift=  0.000735 Ry

   izeta = 1
                 lambda =    1.000000
                     rc =    5.948690
                 energy =   -1.010099
                kinetic =    0.827121
    potential(screened) =   -1.837220
       potential(ionic) =   -5.392783

   izeta = 2
                 rmatch =    3.518811
              splitnorm =    0.150000
                 energy =   -0.877891
                kinetic =    1.289227
    potential(screened) =   -2.167118
       potential(ionic) =   -5.982073

SPLIT: Orbitals with angular momentum L= 1

SPLIT: Basis orbitals for state 2p

SPLIT: PAO cut-off radius determined from an
SPLIT: energy shift=  0.000735 Ry

   izeta = 1
                 lambda =    1.000000
                     rc =    7.638387
                 energy =   -0.387843
                kinetic =    2.314739
    potential(screened) =   -2.702582
       potential(ionic) =   -6.092371

   izeta = 2
                 rmatch =    3.840617
              splitnorm =    0.150000
                 energy =   -0.270479
                kinetic =    3.438347
    potential(screened) =   -3.708826
       potential(ionic) =   -7.497707

POLgen: Perturbative polarization orbital with L=  2

POLgen: Polarization orbital for state 2p

   izeta = 1
                     rc =    7.638387
                 energy =    0.921402
                kinetic =    1.955040
    potential(screened) =   -1.033637
       potential(ionic) =   -3.679558
atom: Total number of Sankey-type orbitals: 13

atm_pop: Valence configuration (for local Pseudopot. screening):
 2s( 2.00)                                                            
 2p( 2.00)                                                            
Vna: chval, zval:    4.00000   4.00000

Vna:  Cut-off radius for the neutral-atom potential:   7.638387

atom: _________________________________________________________________________

prinput: Basis input ----------------------------------------------------------

PAO.BasisType split     

%block ChemicalSpeciesLabel
    1    6 C-gga                   # Species index, atomic number, species label
%endblock ChemicalSpeciesLabel

%block PAO.Basis                 # Define Basis set
C-gga                 2                    # Species label, number of l-shells
 n=2   0   2                         # n, l, Nzeta 
   5.949      3.519   
   1.000      1.000   
 n=2   1   2 P   1                   # n, l, Nzeta, Polarization, NzetaPol
   7.638      3.841   
   1.000      1.000   
%endblock PAO.Basis

prinput: ----------------------------------------------------------------------

coor:   Atomic-coordinates input format  =     Cartesian coordinates
coor:                                          (in Angstroms)

siesta: Atomic coordinates (Bohr) and species
siesta:      0.00000   0.00000   2.63151  1        1
siesta:      0.00000   0.00000   7.89452  1        2
siesta:     -2.32814   4.03246   2.63151  1        3
siesta:     -4.65629   8.06493   7.89452  1        4
siesta:      4.65629   8.06493   2.63151  1        5
siesta:      2.32814   4.03246   7.89452  1        6
siesta:      4.65629   0.00000   2.63151  1        7
siesta:      9.31257   0.00000   7.89452  1        8
siesta:      4.65629   0.00000   7.89452  1        9
siesta:      9.31257   0.00000   2.63151  1       10
siesta:      4.65629   8.06493   7.89452  1       11
siesta:      2.32814   4.03246   2.63151  1       12
siesta:     -2.32814   4.03246   7.89452  1       13
siesta:     -4.65629   8.06493   2.63151  1       14
siesta:      0.00000   8.06493   2.63151  1       15
siesta:      6.98443   4.03246   7.89452  1       16
siesta:      6.98443   4.03246   2.63151  1       17
siesta:      0.00000   8.06493   7.89452  1       18
siesta:      0.00000   2.68831   2.63151  1       19
siesta:      6.98443   9.40908   7.89452  1       20
siesta:      4.65629  10.75324   2.63151  1       21
siesta:      2.32814   1.34415   7.89452  1       22
siesta:     -4.65629  10.75324   2.63151  1       23
siesta:     11.64072   1.34415   7.89452  1       24
siesta:     -2.32814   6.72077   2.63151  1       25
siesta:      9.31257   5.37662   7.89452  1       26
siesta:      2.32815   6.72077   2.63151  1       27
siesta:      4.65628   5.37662   7.89452  1       28
siesta:     -0.00000  10.75324   2.63151  1       29
siesta:      6.98443   1.34415   7.89452  1       30
siesta:      4.65629   2.68831   2.63151  1       31
siesta:      2.32814   9.40908   7.89452  1       32
siesta:      9.31258   2.68831   2.63151  1       33
siesta:     -2.32815   9.40908   7.89452  1       34
siesta:      6.98443   6.72077   2.63151  1       35
siesta:      0.00000   5.37662   7.89452  1       36

siesta: System type = bulk      

initatomlists: Number of atoms, orbitals, and projectors:     36   468   324

siesta: ******************** Simulation parameters ****************************
siesta:
siesta: The following are some of the parameters of the simulation.
siesta: A complete list of the parameters used, including default values,
siesta: can be found in file out.fdf
siesta:
redata: Spin configuration                          = none
redata: Number of spin components                   = 1
redata: Time-Reversal Symmetry                      = T
redata: Spin spiral                                 = F
redata: Long output                                 =   F
redata: Number of Atomic Species                    =        1
redata: Charge density info will appear in .RHO file
redata: Write Mulliken Pop.                         = NO
redata: Matel table size (NRTAB)                    =     1024
redata: Mesh Cutoff                                 =   300.0000 Ry
redata: Net charge of the system                    =     0.0000 |e|
redata: Min. number of SCF Iter                     =        0
redata: Max. number of SCF Iter                     =     1000
redata: SCF convergence failure will abort job
redata: SCF mix quantity                            = Hamiltonian
redata: Mix DM or H after convergence               =   F
redata: Recompute H after scf cycle                 =   F
redata: Mix DM in first SCF step                    =   T
redata: Write Pulay info on disk                    =   F
redata: New DM Occupancy tolerance                  = 0.000000000001
redata: No kicks to SCF
redata: DM Mixing Weight for Kicks                  =     0.5000
redata: Require Harris convergence for SCF          =   F
redata: Harris energy tolerance for SCF             =     0.000100 eV
redata: Require DM convergence for SCF              =   T
redata: DM tolerance for SCF                        =     0.001000
redata: Require EDM convergence for SCF             =   F
redata: EDM tolerance for SCF                       =     0.005000 eV
redata: Require H convergence for SCF               =   T
redata: Hamiltonian tolerance for SCF               =     0.001000 eV
redata: Require (free) Energy convergence for SCF   =   T
redata: (free) Energy tolerance for SCF             =     0.001000 eV
redata: Using Saved Data (generic)                  =   F
redata: Use continuation files for DM               =   F
redata: Neglect nonoverlap interactions             =   F
redata: Method of Calculation                       = Diagonalization
redata: Electronic Temperature                      =   299.9869 K
redata: Fix the spin of the system                  =   F
redata: Dynamics option                             = Single-point calculation
mix.SCF: Pulay mixing                            = Pulay
mix.SCF:    Variant                              = stable
mix.SCF:    History steps                        = 4
mix.SCF:    Linear mixing weight                 =     0.250000
mix.SCF:    Mixing weight                        =     0.250000
mix.SCF:    SVD condition                        = 0.1000E-07
redata: ***********************************************************************

%block SCF.Mixers
  Pulay
%endblock SCF.Mixers

%block SCF.Mixer.Pulay
  # Mixing method
  method pulay
  variant stable

  # Mixing options
  weight 0.2500
  weight.linear 0.2500
  history 4
%endblock SCF.Mixer.Pulay

DM_history_depth set to one: no extrapolation allowed by default for geometry relaxation
Size of DM history Fstack: 1
Total number of electrons:   144.000000
Total ionic charge:   144.000000

* ProcessorY, Blocksize:    4   1


* Orbital distribution balance (max,min):    24    23

k-point displ. along   1 input, could be:     0.00    0.50
k-point displ. along   2 input, could be:     0.00    0.50
k-point displ. along   3 input, could be:     0.00    0.50
 Kpoints in:           48 . Kpoints trimmed:           44

siesta: k-grid: Number of k-points =    44
siesta: k-grid: Cutoff (effective) =    11.140 Ang
siesta: k-grid: Supercell and displacements
siesta: k-grid:    4   0   0      0.000
siesta: k-grid:    0   4   0      0.000
siesta: k-grid:    0   0   4      0.000

diag: Algorithm                                     = Expert
diag: Parallel over k                               =   T
diag: Use parallel 2D distribution                  =   T
diag: Parallel block-size                           = 1
diag: Parallel distribution                         =     4 x     5
diag: Used triangular part                          = Lower
diag: Absolute tolerance                            =  0.100E-15
diag: Orthogonalization factor                      =  0.100E-05
diag: Memory factor                                 =  1.0000

superc: Internal auxiliary supercell:     5 x     5 x     3  =      75
superc: Number of atoms, orbitals, and projectors:   2700  35100  24300


ts: **************************************************************
ts: Save H and S matrices                           =    F
ts: Save DM and EDM matrices                        =    F
ts: Only save the overlap matrix S                  =    F
ts: **************************************************************

************************ Begin: TS CHECKS AND WARNINGS ************************
************************ End: TS CHECKS AND WARNINGS **************************


                     ====================================
                        Single-point calculation
                     ====================================

outcoor: Atomic coordinates (Ang):                          
    0.00000000    0.00000000    1.39253250   1       1  C-gga
    0.00000000    0.00000000    4.17759750   1       2  C-gga
   -1.23200000    2.13388659    1.39253250   1       3  C-gga
   -2.46400000    4.26777319    4.17759750   1       4  C-gga
    2.46400000    4.26777319    1.39253250   1       5  C-gga
    1.23200000    2.13388659    4.17759750   1       6  C-gga
    2.46400000    0.00000000    1.39253250   1       7  C-gga
    4.92800000    0.00000000    4.17759750   1       8  C-gga
    2.46400000    0.00000000    4.17759750   1       9  C-gga
    4.92800000    0.00000000    1.39253250   1      10  C-gga
    2.46400000    4.26777319    4.17759750   1      11  C-gga
    1.23200000    2.13388659    1.39253250   1      12  C-gga
   -1.23200000    2.13388659    4.17759750   1      13  C-gga
   -2.46400000    4.26777319    1.39253250   1      14  C-gga
    0.00000000    4.26777319    1.39253250   1      15  C-gga
    3.69600000    2.13388659    4.17759750   1      16  C-gga
    3.69600000    2.13388659    1.39253250   1      17  C-gga
    0.00000000    4.26777319    4.17759750   1      18  C-gga
    0.00000000    1.42258964    1.39253250   1      19  C-gga
    3.69600000    4.97907014    4.17759750   1      20  C-gga
    2.46400123    5.69036496    1.39253250   1      21  C-gga
    1.23199877    0.71129482    4.17759750   1      22  C-gga
   -2.46400123    5.69036496    1.39253250   1      23  C-gga
    6.16000123    0.71129482    4.17759750   1      24  C-gga
   -1.23200000    3.55647624    1.39253250   1      25  C-gga
    4.92800000    2.84518355    4.17759750   1      26  C-gga
    1.23200123    3.55647837    1.39253250   1      27  C-gga
    2.46399877    2.84518142    4.17759750   1      28  C-gga
   -0.00000123    5.69036496    1.39253250   1      29  C-gga
    3.69600123    0.71129482    4.17759750   1      30  C-gga
    2.46400000    1.42258964    1.39253250   1      31  C-gga
    1.23200000    4.97907014    4.17759750   1      32  C-gga
    4.92800123    1.42259177    1.39253250   1      33  C-gga
   -1.23200123    4.97906801    4.17759750   1      34  C-gga
    3.69599877    3.55647837    1.39253250   1      35  C-gga
    0.00000123    2.84518142    4.17759750   1      36  C-gga

superc: Internal auxiliary supercell:     5 x     5 x     3  =      75
superc: Number of atoms, orbitals, and projectors:   2700  35100  24300

outcell: Unit cell vectors (Ang):
        7.392000    0.000000    0.000000
       -3.696000    6.401660    0.000000
        0.000000    0.000000    5.570130

outcell: Cell vector modules (Ang)   :    7.392000    7.392000    5.570130
outcell: Cell angles (23,13,12) (deg):     90.0000     90.0000    120.0000
outcell: Cell volume (Ang**3)        :    263.5845
<dSpData1D:S at geom step 0
  <sparsity:sparsity for geom step 0
    nrows_g=468 nrows=24 sparsity=.4103 nnzs=89862, refcount: 7>
  <dData1D:(new from dSpData1D) n=89862, refcount: 1>
refcount: 1>
new_DM -- step:     1
Initializing Density Matrix...
DM filled with atomic data:
<dSpData2D:DM initialized from atoms
  <sparsity:sparsity for geom step 0
    nrows_g=468 nrows=24 sparsity=.4103 nnzs=89862, refcount: 8>
  <dData2D:DM n=89862 m=1, refcount: 1>
refcount: 1>
No. of atoms with KB's overlaping orbs in proc 0. Max # of overlaps:     258     724
New grid distribution:   1
           1       1:   36    1:    9    1:    6
           2       1:   36    1:    9    7:   12
           3       1:   36    1:    9   13:   18
           4       1:   36    1:    9   19:   24
           5       1:   36    1:    9   25:   30
           6       1:   36   10:   18    1:    6
           7       1:   36   10:   18    7:   12
           8       1:   36   10:   18   13:   18
           9       1:   36   10:   18   19:   24
          10       1:   36   10:   18   25:   30
          11       1:   36   19:   27    1:    6
          12       1:   36   19:   27    7:   12
          13       1:   36   19:   27   13:   18
          14       1:   36   19:   27   19:   24
          15       1:   36   19:   27   25:   30
          16       1:   36   28:   36    1:    6
          17       1:   36   28:   36    7:   12
          18       1:   36   28:   36   13:   18
          19       1:   36   28:   36   19:   24
          20       1:   36   28:   36   25:   30

InitMesh: MESH =    72 x    72 x    60 =      311040
InitMesh: (bp) =    36 x    36 x    30 =       38880
InitMesh: Mesh cutoff (required, used) =   300.000   320.681 Ry
ExtMesh (bp) on 0 =   128 x   101 x    94 =     1215232
New grid distribution:   2
           1      10:   18   25:   36   13:   30
           2      28:   36   25:   36   13:   30
           3       1:   18    1:    6   13:   30
           4      19:   36    1:    6   13:   30
           5       1:   18   28:   36    1:   12
           6      19:   36   28:   36    1:   12
           7      28:   36    7:   18   13:   30
           8       1:    9    7:   18   13:   30
           9      10:   18    7:   18   13:   30
          10      19:   27    7:   18   13:   30
          11       1:   18   19:   27    1:   12
          12      19:   36   19:   27    1:   12
          13       1:   18   19:   24   13:   30
          14      19:   36   19:   24   13:   30
          15       1:   18    1:    9    1:   12
          16      19:   36    1:    9    1:   12
          17       1:   18   10:   18    1:   12
          18       1:    9   25:   36   13:   30
          19      19:   27   25:   36   13:   30
          20      19:   36   10:   18    1:   12
New grid distribution:   3
           1      10:   18   25:   36   13:   30
           2      28:   36   25:   36   13:   30
           3       1:   18    1:    6   13:   30
           4      19:   36    1:    6   13:   30
           5       1:   18   28:   36    1:   12
           6      19:   36   28:   36    1:   12
           7      28:   36    7:   18   13:   30
           8       1:    9    7:   18   13:   30
           9      10:   18    7:   18   13:   30
          10      19:   27    7:   18   13:   30
          11       1:   18   19:   27    1:   12
          12      19:   36   19:   27    1:   12
          13       1:   18   19:   24   13:   30
          14      19:   36   19:   24   13:   30
          15       1:   18    1:    9    1:   12
          16      19:   36    1:    9    1:   12
          17       1:   18   10:   18    1:   12
          18       1:    9   25:   36   13:   30
          19      19:   27   25:   36   13:   30
          20      19:   36   10:   18    1:   12
Setting up quadratic distribution...
ExtMesh (bp) on 0 =   101 x   104 x   106 =     1113424
PhiOnMesh: Number of (b)points on node 0 =                 1944
PhiOnMesh: nlist on node 0 =               693739

stepf: Fermi-Dirac step function

siesta: Program's energy decomposition (eV):
siesta: Ebs     =     -2271.168096
siesta: Eions   =      9434.507561
siesta: Ena     =      2212.992825
siesta: Ekin    =      4052.473538
siesta: Enl     =      -409.856149
siesta: Eso     =         0.000000
siesta: Edftu   =         0.000000
siesta: DEna    =      -280.481928
siesta: DUscf   =        27.452284
siesta: DUext   =         0.000000
siesta: Exc     =     -1738.691750
siesta: eta*DQ  =         0.000000
siesta: Emadel  =         0.000000
siesta: Emeta   =         0.000000
siesta: Emolmec =        -6.377890
siesta: Ekinion =         0.000000
siesta: Eharris =     -5456.760477
siesta: Etot    =     -5576.996632
siesta: FreeEng =     -5577.004149

        iscf     Eharris(eV)        E_KS(eV)     FreeEng(eV)     dDmax    Ef(eV) dHmax(eV)
   scf:    1    -5456.760477    -5576.996632    -5577.004149  1.588333 -8.120599  2.565129
timer: Routine,Calls,Time,% = IterSCF        1      13.140  73.92
   scf:    2    -5580.566749    -5578.821163    -5578.828801  0.102555 -7.810295  1.713736
   scf:    3    -5581.674879    -5580.430018    -5580.437249  0.187666 -7.190493  0.030999
   scf:    4    -5580.431445    -5580.431037    -5580.438162  0.001748 -7.202033  0.010902
   scf:    5    -5580.431195    -5580.431269    -5580.438310  0.004078 -7.201801  0.019040
   scf:    6    -5580.431637    -5580.431505    -5580.438604  0.001871 -7.205717  0.000300
   scf:    7    -5580.431505    -5580.431505    -5580.438604  0.000022 -7.205757  0.000249

SCF Convergence by FreeE+DM+H criterion
|FreeE_i-FreeE_(i-1)| (eV) <     0.00100000
max |DM_out - DM_in|         :     0.0000224860
max |H_out - H_in|      (eV) :     0.0002493364
SCF cycle converged after 7 iterations

Using DM_out to compute the final energy and forces
No. of atoms with KB's overlaping orbs in proc 0. Max # of overlaps:     258     724

MM-Stress (kbar):       26.16       26.16       52.27        0.00        0.00       -0.00

siesta: E_KS(eV) =            -5580.4315

siesta: E_KS - E_eggbox =     -5580.4315

siesta: Atomic forces (eV/Ang):
     1   -0.000070    0.000040   -0.000000
     2    0.000070   -0.000040   -0.000000
     3   -0.000021   -0.000003   -0.000000
     4    0.000021    0.000003   -0.000000
     5   -0.000057    0.000105   -0.000000
     6    0.000057   -0.000105   -0.000000
     7   -0.000133    0.000019   -0.000000
     8    0.000133   -0.000019   -0.000000
     9    0.000055   -0.000059   -0.000000
    10   -0.000055    0.000059   -0.000000
    11    0.000062   -0.000018   -0.000000
    12   -0.000062    0.000018   -0.000000
    13    0.000094   -0.000044   -0.000000
    14   -0.000094    0.000044   -0.000000
    15   -0.000070    0.000041   -0.000000
    16    0.000070   -0.000040   -0.000000
    17   -0.000070    0.000041   -0.000000
    18    0.000070   -0.000041   -0.000000
    19    0.000081    0.000067    0.000000
    20   -0.000081   -0.000067    0.000000
    21   -0.000027   -0.000087    0.000000
    22    0.000027    0.000087    0.000000
    23    0.000160   -0.000104    0.000000
    24   -0.000160    0.000104    0.000000
    25    0.000079    0.000053    0.000000
    26   -0.000079   -0.000054    0.000000
    27   -0.000015   -0.000083    0.000000
    28    0.000014    0.000082    0.000000
    29    0.000150   -0.000095    0.000000
    30   -0.000150    0.000095    0.000000
    31    0.000079    0.000054    0.000000
    32   -0.000079   -0.000054    0.000000
    33   -0.000015   -0.000082    0.000000
    34    0.000015    0.000082    0.000000
    35    0.000150   -0.000096    0.000000
    36   -0.000150    0.000095    0.000000
----------------------------------------
   Tot   -0.000000   -0.000000   -0.000000
----------------------------------------
   Max    0.000160
   Res    0.000065    sqrt( Sum f_i^2 / 3N )
----------------------------------------
   Max    0.000160    constrained

Stress tensor Voigt[x,y,z,yz,xz,xy] (kbar):     -126.45     -126.60     -173.46        0.00        0.00       -0.13
(Free)E + p*V (eV/cell)    -5557.0490
Target enthalpy (eV/cell)    -5580.4386

siesta: Eigenvalues (eV):
  ik is       eps
   1  1  -26.6567  -25.9896  -25.9896  -25.6268  -24.9935  -24.9935  -24.0295  -24.0295  -23.1369  -23.1369
         -22.7676  -22.1739  -22.1738  -21.9506  -21.4443  -21.4443  -21.2598  -20.8903  -19.9930  -19.9930
  -19.9928  -19.7622  -19.3965  -19.3965  -17.8465  -17.5509  -16.8477  -16.8477  -16.4424  -16.4424
  -16.1536  -15.9851  -15.9402  -15.5515  -15.1851  -15.1851  -15.1603  -14.7444  -14.7444  -14.4442
  -14.4442  -14.1935  -14.1935  -13.8720  -13.8720  -13.7431  -13.7431  -13.4426  -13.4426  -12.8667
  -12.8667  -12.3066  -12.3066  -12.0864  -12.0864  -11.9824  -11.8318  -11.5947  -11.4109  -11.2626
  -11.1583  -10.9240  -10.9240  -10.9174  -10.9174  -10.0678   -9.1070   -9.1070   -8.8012   -8.8012
   -8.6157   -8.0964   -5.2539   -5.2539   -5.1799   -5.0774   -5.0691   -3.9698   -3.9698   -3.5509
   -3.5403   -3.5403   -1.9326   -1.9326    0.3809    0.3809    0.5066    0.5067    0.6033    1.2212
    1.2213    1.4233    1.5359    1.5359    1.6028    1.6028    1.7675    1.7675    1.8142    2.2352
    2.2352    2.2599    2.2973    2.6236    2.6236    2.6808    2.9059    3.2236    3.4236    3.4236
    3.6276    4.0201    4.0201    4.1368    4.1368    4.5205    4.5272    4.5734    4.5735    5.0761
    5.3764    5.3764    5.5877    5.5878    6.1122    6.2581    6.3544    6.4486    6.5045    6.7004
    6.7004    6.9587    6.9941    6.9941    7.5908    7.6347    7.7916    7.7916    7.8297    8.0178
    8.5917    8.5917    8.7267    8.7267    9.3935    9.3935    9.6782    9.7239    9.7239    9.8481
    9.8481   10.4652   10.4652   11.1295   11.7631   11.7631   12.0392   12.0392   12.0920   12.5351
   12.5351   13.1660   13.1660   13.6824   14.0249   14.8574   14.8574   15.2710   15.7402   15.7402
   15.8262   15.8262   15.8311   15.8547   15.8547   16.2808   16.4506   16.4506   16.9327   16.9327
   16.9791   17.2049   17.2398   17.2853   18.3321   18.3321   18.5188   18.5188   18.6867   18.6867
   18.7149   18.7149   19.1121   19.2730   19.3026   19.6993   19.9251   20.5595   20.9371   21.0341
   21.1848   21.1848   21.3536   21.3536   21.9324   21.9324   22.5108   22.5108   22.6125   22.6125
   23.7556   23.7556   23.9451   23.9451   23.9977   24.1134   24.9941   24.9941   25.1658   25.1658
   25.5225   25.5225   25.7157   26.2342   26.2811   26.2811   26.6521   27.2126   27.2126   27.2278
   27.2278   27.3413   27.7500   27.9312   29.7653   29.7653   30.4429   30.9843   30.9843   32.9077
   32.9077   33.1753   33.1753   33.1808   33.3535   33.3535   33.4443   33.4443   33.5401   33.7248
   34.7816   35.4529   35.7674   35.7675   37.3498   37.3499   38.7730   40.3185   40.3185   40.7503
   40.7503   40.8134   40.8134   40.9346   41.2943   41.9009   41.9009   42.1997   42.1998   42.4097
   42.4773   42.9278   42.9278   43.0925   43.0925   43.3217   43.5529   43.5529   43.6208   43.8164
   43.8164   43.8258   44.0236   44.0270   44.0965   44.0965   44.3863   44.4172   44.6482   44.8148
   45.1667   45.3627   45.9182   45.9795   45.9795   46.5646   46.5646   46.7377   48.1709   48.1709
   48.3891   48.4689   49.2845   49.2845   49.3612   49.3651   49.3651   49.5945   49.5945   50.1404
   50.1404   50.5371   50.5371   50.5768   50.7534   50.7534   51.0632   51.1621   51.7555   51.7555
   52.0272   52.1375   52.1375   52.6384   53.2504   53.2504   53.7134   54.1551   54.1551   54.7379
   54.8683   54.8683   55.9703   55.9703   56.4208   56.4208   57.7084   58.7403   58.7403   59.4432
   60.8088   60.8089   61.7578   61.9460   61.9460   62.2520   62.5411   62.5411   63.8252   63.8252
   64.2906   64.2907   64.9331   64.9331   65.0591   65.1647   65.4370   65.4370   66.0103   66.0103
   66.1006   67.6656   67.6656   67.9275   67.9428   68.6494   68.6494   69.0454   69.0454   69.3901
   69.4198   69.7602   69.8181   69.8181   69.8294   69.8294   70.0248   70.0249   70.1964   71.0783
   71.4157   71.4157   71.5038   72.5588   72.5588   72.6950   73.9286   74.1561   74.4894   75.7942
   75.7943   75.8807   75.8808   80.3208   80.3209   80.4965   82.0519   82.0520   87.3203   88.0649
   90.7937   91.4343   91.4343   94.2339   94.2343   96.1892   96.1894   97.0393   97.3944   97.3946
   97.8053   97.8054   99.1084   99.1085  100.1848  100.1848  100.2019  100.2020  101.0438  102.2969
  102.2970  103.5426  103.5428  103.5601  103.7005  104.1212  104.2612  104.3301  106.0426  106.0428
  106.4444  106.4448  107.6904  109.7764  109.7767  111.6890  112.0974  112.0983  113.8272  113.9381
  115.5352  115.5357  116.9725  116.9728  118.4815  118.4819  120.7652  120.7653  122.0865  122.0867
  123.5619  125.3678  127.4333  129.0281  129.0285  129.0720  129.5362  132.0347  132.0350  132.0748
  133.7184  133.7192  135.8190  136.2783  141.3849  142.9691  142.9693  144.0318
   2  1  -26.9902  -25.9448  -25.6581  -25.0008  -25.0008  -24.6787  -24.0556  -24.0556  -23.7089  -23.7089
         -23.0782  -22.8351  -22.8350  -22.2470  -21.2886  -21.2885  -20.6146  -20.6145  -19.3144  -19.3143
  -19.1738  -18.8598  -18.8597  -18.5604  -18.0495  -18.0494  -17.4937  -17.4935  -16.9502  -16.9500
  -16.5861  -16.5859  -16.3889  -15.8751  -15.8749  -15.4378  -15.4376  -14.7904  -14.7822  -14.3729
  -14.0101  -14.0101  -13.8641  -13.8638  -13.5497  -13.5494  -13.5334  -13.2469  -13.2220  -13.2217
  -12.9313  -12.9310  -12.5153  -12.5153  -12.3277  -12.0634  -11.9390  -11.8381  -10.9543  -10.7964
  -10.6318  -10.6044  -10.4991   -9.9830   -9.9830   -9.8216   -9.8216   -8.9811   -8.9811   -8.8367
   -7.7007   -7.7007   -6.2617   -6.2616   -5.0110   -4.8462   -4.8462   -4.2972   -4.2972   -2.9858
   -2.2361   -2.2361   -2.0246   -2.0246   -0.6270   -0.3002   -0.3002   -0.1295    0.2899    0.5648
    0.7076    0.7077    0.9664    1.0536    1.0539    1.0971    1.1274    1.2889    1.4370    1.7690
    1.8627    1.8629    1.9260    1.9263    1.9804    2.0442    2.7525    2.7525    3.3669    4.0584
    4.0585    4.1692    4.3767    4.3768    4.7247    5.5303    5.7491    5.7492    6.0131    6.0132
    6.0572    6.0573    6.2068    6.2089    6.4119    6.4120    6.4139    6.5740    6.5740    6.8688
    6.8688    6.9477    6.9481    7.3503    7.3503    7.4969    7.7175    8.9953    9.0707    9.0709
    9.4843    9.4843    9.5444    9.5449    9.5656    9.5658    9.5899    9.6361    9.6361    9.8603
   10.0103   10.7976   10.7978   11.2333   11.2338   11.3072   11.3072   11.7080   11.8301   11.9667
   11.9670   12.7575   13.0844   13.0844   13.0931   13.0962   13.0965   13.9460   13.9460   14.7828
   15.9036   16.0803   16.0804   16.1642   16.4123   16.4131   16.8282   16.8282   16.9477   16.9478
   17.1457   17.1458   17.2526   17.3620   17.3625   17.6351   17.6351   18.0715   18.2398   18.2399
   18.7156   18.7158   19.1270   19.3960   19.3966   19.8244   20.2615   20.4873   20.4875   21.5691
   21.8180   21.9464   21.9575   22.5354   22.5355   23.0059   23.0059   23.4201   23.4201   23.8223
   23.9155   23.9156   23.9247   24.2320   24.2923   24.2929   24.5157   24.5442   24.6253   25.1797
   25.5646   25.5646   25.8363   25.8363   25.8628   25.8628   25.8833   25.8838   26.2853   27.0113
   27.0982   28.0062   28.0063   28.6793   29.1941   31.1329   31.6311   31.8550   31.8552   32.4090
   32.4091   33.0064   33.0925   33.0925   33.4043   33.6246   33.6246   33.7637   33.7638   35.5336
   36.5760   36.5766   36.5798   36.5798   36.9149   37.7278   38.2133   38.2145   38.9267   39.0788
   39.0798   40.1725   40.1738   40.2070   40.2840   40.3154   40.7303   40.8739   40.8746   41.0750
   41.5246   41.5247   42.0411   42.0412   42.2767   42.2768   43.1368   43.5423   43.5425   44.5875
   44.5919   44.8291   44.8910   44.9834   45.0524   45.0524   45.0699   45.1878   45.1886   45.4218
   45.4219   45.4410   46.3125   46.3128   46.9259   46.9259   47.1522   47.5527   47.5527   47.6605
   47.6614   47.8470   48.0812   48.0814   49.5567   49.5569   49.6683   49.6687   49.7094   49.7860
   50.3863   50.3864   50.9731   50.9837   51.0261   51.0261   51.4746   51.4748   51.9100   52.2286
   52.2286   53.9625   56.1321   56.1324   56.3894   56.4367   56.4368   56.4731   56.9089   56.9089
   57.5374   57.5376   58.4291   58.4291   58.6959   58.6961   59.3588   60.2081   60.2084   61.1406
   61.7816   61.9810   61.9810   62.0548   62.0550   62.1411   62.2767   62.5234   62.5236   62.9668
   63.1267   63.1277   63.5658   63.8696   63.8710   63.9740   64.9082   66.1931   66.1933   66.4423
   66.4434   66.5442   66.5459   66.6554   66.6606   67.4266   67.4281   68.5071   68.5838   68.8162
   69.1833   69.7574   69.8025   69.8027   69.8572   69.8581   71.0171   72.2444   72.2444   72.2577
   72.2946   72.7975   72.7976   73.0402   73.4089   74.3096   74.3096   74.9337   75.2639   75.2640
   75.3798   75.3799   77.2490   80.7662   80.7666   80.8606   81.5701   82.3438   82.3448   83.2149
   83.2152   84.7833   84.7834   87.0767   93.2221   96.5520   96.5550   96.7013   97.5417   97.5427
   98.3239   98.4894   98.7215   99.0319   99.0342   99.8922   99.8928  100.4701  100.4723  101.7202
  104.6668  105.3133  105.3138  105.8913  105.8918  106.9979  106.9984  108.7722  108.7733  109.5069
  109.5102  109.7239  109.7615  110.0656  110.0659  110.9632  110.9638  111.7321  111.7335  115.1292
  115.9372  116.7725  116.7734  118.2895  119.1860  119.1865  121.0083  121.6539  121.6546  124.0141
  126.4109  126.4133  128.7794  131.9179  136.2182  136.2198  136.6736  136.6738  136.8234  138.4658
  138.4664  139.1695  139.1717  139.3027  141.2432  146.0075  150.0194  150.0199
   3  1  -26.9902  -25.9448  -25.6581  -25.0008  -25.0008  -24.6787  -24.0556  -24.0556  -23.7089  -23.7089
         -23.0782  -22.8350  -22.8350  -22.2470  -21.2885  -21.2885  -20.6145  -20.6145  -19.3144  -19.3144
  -19.1737  -18.8598  -18.8598  -18.5602  -18.0495  -18.0495  -17.4937  -17.4937  -16.9501  -16.9501
  -16.5859  -16.5859  -16.3889  -15.8751  -15.8751  -15.4378  -15.4378  -14.7904  -14.7820  -14.3727
  -14.0101  -14.0101  -13.8638  -13.8638  -13.5494  -13.5494  -13.5338  -13.2473  -13.2217  -13.2217
  -12.9310  -12.9310  -12.5153  -12.5153  -12.3280  -12.0638  -11.9390  -11.8381  -10.9540  -10.7960
  -10.6322  -10.6044  -10.4995   -9.9830   -9.9830   -9.8216   -9.8216   -8.9811   -8.9811   -8.8368
   -7.7007   -7.7007   -6.2617   -6.2617   -5.0110   -4.8462   -4.8462   -4.2972   -4.2972   -2.9858
   -2.2361   -2.2361   -2.0246   -2.0246   -0.6270   -0.3002   -0.3002   -0.1293    0.2899    0.5651
    0.7075    0.7075    0.9664    1.0537    1.0537    1.0974    1.1279    1.2893    1.4375    1.7685
    1.8626    1.8626    1.9260    1.9260    1.9799    2.0442    2.7525    2.7525    3.3669    4.0584
    4.0584    4.1692    4.3768    4.3768    4.7248    5.5304    5.7491    5.7491    6.0130    6.0130
    6.0575    6.0575    6.2068    6.2082    6.4120    6.4120    6.4132    6.5740    6.5740    6.8688
    6.8688    6.9482    6.9482    7.3500    7.3500    7.4972    7.7179    8.9956    9.0706    9.0706
    9.4843    9.4843    9.5447    9.5447    9.5656    9.5656    9.5899    9.6361    9.6361    9.8603
   10.0103   10.7975   10.7975   11.2341   11.2341   11.3072   11.3072   11.7070   11.8291   11.9672
   11.9672   12.7575   13.0844   13.0844   13.0939   13.0965   13.0965   13.9460   13.9460   14.7827
   15.9036   16.0804   16.0804   16.1651   16.4123   16.4123   16.8284   16.8284   16.9478   16.9478
   17.1457   17.1457   17.2526   17.3618   17.3618   17.6351   17.6351   18.0720   18.2399   18.2399
   18.7156   18.7156   19.1272   19.3964   19.3964   19.8250   20.2617   20.4869   20.4869   21.5696
   21.8179   21.9463   21.9576   22.5355   22.5355   23.0059   23.0059   23.4200   23.4200   23.8223
   23.9156   23.9156   23.9246   24.2328   24.2924   24.2924   24.5161   24.5441   24.6254   25.1798
   25.5646   25.5646   25.8362   25.8362   25.8628   25.8628   25.8832   25.8832   26.2852   27.0114
   27.0983   28.0062   28.0062   28.6792   29.1943   31.1331   31.6311   31.8550   31.8550   32.4090
   32.4090   33.0065   33.0925   33.0925   33.4035   33.6246   33.6246   33.7638   33.7638   35.5337
   36.5763   36.5763   36.5798   36.5798   36.9137   37.7274   38.2143   38.2143   38.9272   39.0800
   39.0800   40.1739   40.1739   40.2068   40.2825   40.3156   40.7305   40.8745   40.8745   41.0736
   41.5245   41.5245   42.0412   42.0412   42.2768   42.2768   43.1370   43.5421   43.5421   44.5858
   44.5933   44.8300   44.8908   44.9852   45.0523   45.0523   45.0685   45.1882   45.1882   45.4218
   45.4218   45.4411   46.3123   46.3123   46.9258   46.9258   47.1533   47.5527   47.5527   47.6609
   47.6609   47.8475   48.0810   48.0810   49.5567   49.5567   49.6679   49.6679   49.7096   49.7861
   50.3863   50.3863   50.9733   50.9834   51.0261   51.0261   51.4746   51.4746   51.9108   52.2286
   52.2286   53.9627   56.1323   56.1323   56.3899   56.4366   56.4367   56.4728   56.9090   56.9090
   57.5375   57.5375   58.4291   58.4291   58.6958   58.6958   59.3593   60.2083   60.2083   61.1389
   61.7819   61.9810   61.9810   62.0550   62.0550   62.1418   62.2768   62.5237   62.5237   62.9650
   63.1272   63.1272   63.5649   63.8709   63.8710   63.9736   64.9084   66.1932   66.1932   66.4432
   66.4433   66.5453   66.5453   66.6550   66.6606   67.4286   67.4286   68.5042   68.5863   68.8164
   69.1803   69.7543   69.8027   69.8027   69.8583   69.8583   71.0140   72.2443   72.2443   72.2577
   72.2971   72.7975   72.7975   73.0402   73.4112   74.3096   74.3096   74.9348   75.2644   75.2645
   75.3798   75.3798   77.2483   80.7653   80.7654   80.8613   81.5719   82.3446   82.3447   83.2133
   83.2134   84.7834   84.7834   87.0783   93.2243   96.5524   96.5526   96.7038   97.5411   97.5412
   98.3243   98.4868   98.7185   99.0324   99.0325   99.8927   99.8928  100.4708  100.4709  101.7227
  104.6675  105.3154  105.3154  105.8929  105.8931  106.9977  106.9977  108.7722  108.7722  109.5086
  109.5091  109.7260  109.7572  110.0637  110.0638  110.9633  110.9635  111.7339  111.7342  115.1300
  115.9324  116.7725  116.7730  118.2905  119.1867  119.1869  121.0075  121.6549  121.6552  124.0149
  126.4126  126.4128  128.7806  131.9156  136.2193  136.2200  136.6733  136.6741  136.8242  138.4691
  138.4698  139.1701  139.1716  139.3025  141.2437  146.0027  150.0199  150.0206
   4  1  -26.6567  -25.9896  -25.9896  -25.6268  -24.9935  -24.9935  -24.0296  -24.0295  -23.1369  -23.1369
         -22.7675  -22.1738  -22.1738  -21.9506  -21.4443  -21.4443  -21.2598  -20.8903  -19.9930  -19.9930
  -19.9929  -19.7624  -19.3965  -19.3963  -17.8465  -17.5508  -16.8478  -16.8478  -16.4425  -16.4425
  -16.1538  -15.9851  -15.9404  -15.5513  -15.1851  -15.1851  -15.1600  -14.7442  -14.7442  -14.4440
  -14.4439  -14.1938  -14.1935  -13.8723  -13.8720  -13.7432  -13.7429  -13.4427  -13.4424  -12.8667
  -12.8667  -12.3068  -12.3064  -12.0867  -12.0864  -11.9822  -11.8315  -11.5947  -11.4109  -11.2629
  -11.1587  -10.9240  -10.9240  -10.9174  -10.9174  -10.0678   -9.1070   -9.1070   -8.8012   -8.8012
   -8.6157   -8.0964   -5.2539   -5.2539   -5.1798   -5.0774   -5.0691   -3.9698   -3.9698   -3.5509
   -3.5403   -3.5403   -1.9326   -1.9326    0.3809    0.3809    0.5066    0.5068    0.6033    1.2212
    1.2214    1.4237    1.5360    1.5362    1.6028    1.6028    1.7675    1.7677    1.8145    2.2353
    2.2355    2.2598    2.2973    2.6234    2.6235    2.6804    2.9055    3.2237    3.4235    3.4235
    3.6275    4.0201    4.0201    4.1365    4.1370    4.5205    4.5270    4.5730    4.5735    5.0761
    5.3764    5.3766    5.5878    5.5879    6.1121    6.2581    6.3542    6.4485    6.5043    6.7005
    6.7007    6.9587    6.9940    6.9943    7.5908    7.6347    7.7916    7.7917    7.8297    8.0178
    8.5917    8.5918    8.7267    8.7267    9.3935    9.3935    9.6782    9.7239    9.7239    9.8481
    9.8481   10.4652   10.4652   11.1297   11.7625   11.7628   12.0393   12.0396   12.0924   12.5344
   12.5354   13.1658   13.1659   13.6824   14.0253   14.8577   14.8579   15.2709   15.7402   15.7402
   15.8262   15.8263   15.8313   15.8545   15.8554   16.2806   16.4498   16.4502   16.9327   16.9327
   16.9792   17.2046   17.2400   17.2853   18.3319   18.3322   18.5187   18.5188   18.6868   18.6872
   18.7145   18.7152   19.1121   19.2733   19.3027   19.6992   19.9248   20.5595   20.9374   21.0344
   21.1847   21.1848   21.3533   21.3538   21.9324   21.9325   22.5108   22.5108   22.6125   22.6129
   23.7550   23.7554   23.9451   23.9451   23.9977   24.1134   24.9942   24.9942   25.1657   25.1658
   25.5225   25.5225   25.7157   26.2341   26.2811   26.2811   26.6521   27.2126   27.2126   27.2278
   27.2279   27.3413   27.7500   27.9312   29.7654   29.7654   30.4428   30.9843   30.9844   32.9073
   32.9076   33.1753   33.1753   33.1807   33.3534   33.3535   33.4443   33.4443   33.5402   33.7247
   34.7816   35.4529   35.7672   35.7673   37.3491   37.3498   38.7739   40.3192   40.3195   40.7502
   40.7506   40.8134   40.8140   40.9346   41.2938   41.8997   41.9011   42.1984   42.1997   42.4097
   42.4770   42.9281   42.9287   43.0925   43.0926   43.3217   43.5526   43.5531   43.6208   43.8164
   43.8164   43.8247   44.0236   44.0267   44.0967   44.0975   44.3873   44.4172   44.6476   44.8145
   45.1662   45.3626   45.9182   45.9791   45.9797   46.5646   46.5646   46.7374   48.1709   48.1712
   48.3891   48.4689   49.2841   49.2842   49.3612   49.3650   49.3651   49.5947   49.5950   50.1404
   50.1405   50.5372   50.5372   50.5767   50.7533   50.7537   51.0632   51.1621   51.7554   51.7555
   52.0273   52.1375   52.1376   52.6387   53.2502   53.2504   53.7134   54.1549   54.1552   54.7375
   54.8682   54.8684   55.9703   55.9704   56.4210   56.4211   57.7085   58.7403   58.7405   59.4434
   60.8079   60.8088   61.7582   61.9459   61.9461   62.2523   62.5412   62.5412   63.8252   63.8253
   64.2898   64.2907   64.9331   64.9334   65.0596   65.1638   65.4370   65.4371   66.0103   66.0104
   66.1007   67.6656   67.6664   67.9275   67.9428   68.6492   68.6493   69.0436   69.0462   69.3880
   69.4205   69.7586   69.8180   69.8181   69.8285   69.8308   70.0246   70.0248   70.1962   71.0782
   71.4159   71.4163   71.5037   72.5583   72.5590   72.6951   73.9311   74.1580   74.4896   75.7942
   75.7942   75.8784   75.8810   80.3196   80.3228   80.4965   82.0521   82.0522   87.3200   88.0653
   90.7931   91.4338   91.4363   94.2346   94.2347   96.1876   96.1878   97.0375   97.3946   97.3975
   97.8027   97.8031   99.1085   99.1114  100.1844  100.1855  100.2017  100.2024  101.0441  102.2962
  102.2972  103.5407  103.5428  103.5598  103.6980  104.1188  104.2621  104.3311  106.0433  106.0440
  106.4437  106.4453  107.6911  109.7730  109.7758  111.6890  112.0970  112.0975  113.8283  113.9400
  115.5366  115.5370  116.9730  116.9737  118.4787  118.4814  120.7653  120.7657  122.0874  122.0894
  123.5638  125.3669  127.4319  129.0276  129.0281  129.0722  129.5370  132.0349  132.0353  132.0754
  133.7196  133.7206  135.8187  136.2796  141.3858  142.9688  142.9690  144.0313
   5  1  -26.9902  -25.9448  -25.6581  -25.0008  -25.0008  -24.6787  -24.0556  -24.0556  -23.7089  -23.7089
         -23.0782  -22.8351  -22.8350  -22.2470  -21.2886  -21.2885  -20.6146  -20.6145  -19.3144  -19.3143
  -19.1738  -18.8598  -18.8597  -18.5604  -18.0495  -18.0494  -17.4937  -17.4935  -16.9502  -16.9500
  -16.5861  -16.5859  -16.3889  -15.8751  -15.8749  -15.4378  -15.4376  -14.7904  -14.7822  -14.3729
  -14.0101  -14.0101  -13.8641  -13.8638  -13.5497  -13.5494  -13.5334  -13.2469  -13.2220  -13.2217
  -12.9313  -12.9310  -12.5153  -12.5153  -12.3277  -12.0634  -11.9390  -11.8381  -10.9543  -10.7964
  -10.6318  -10.6044  -10.4991   -9.9830   -9.9830   -9.8216   -9.8216   -8.9811   -8.9811   -8.8367
   -7.7007   -7.7007   -6.2617   -6.2616   -5.0110   -4.8462   -4.8462   -4.2972   -4.2972   -2.9858
   -2.2361   -2.2361   -2.0246   -2.0246   -0.6270   -0.3002   -0.3002   -0.1295    0.2899    0.5648
    0.7076    0.7077    0.9664    1.0536    1.0539    1.0971    1.1274    1.2889    1.4370    1.7690
    1.8627    1.8629    1.9260    1.9263    1.9804    2.0442    2.7525    2.7525    3.3669    4.0584
    4.0585    4.1692    4.3767    4.3768    4.7247    5.5303    5.7491    5.7492    6.0131    6.0132
    6.0572    6.0573    6.2068    6.2089    6.4119    6.4120    6.4139    6.5740    6.5740    6.8688
    6.8688    6.9477    6.9481    7.3503    7.3503    7.4969    7.7175    8.9953    9.0707    9.0709
    9.4843    9.4843    9.5444    9.5449    9.5656    9.5658    9.5899    9.6361    9.6361    9.8603
   10.0103   10.7976   10.7978   11.2333   11.2338   11.3072   11.3072   11.7080   11.8301   11.9667
   11.9670   12.7575   13.0844   13.0844   13.0931   13.0962   13.0965   13.9460   13.9460   14.7828
   15.9036   16.0803   16.0804   16.1642   16.4123   16.4131   16.8282   16.8282   16.9477   16.9478
   17.1457   17.1458   17.2526   17.3620   17.3625   17.6351   17.6351   18.0715   18.2398   18.2399
   18.7156   18.7158   19.1270   19.3960   19.3966   19.8244   20.2615   20.4873   20.4875   21.5691
   21.8180   21.9464   21.9575   22.5354   22.5355   23.0059   23.0059   23.4201   23.4201   23.8223
   23.9155   23.9156   23.9247   24.2320   24.2923   24.2929   24.5157   24.5442   24.6253   25.1797
   25.5646   25.5646   25.8363   25.8363   25.8628   25.8628   25.8833   25.8838   26.2853   27.0113
   27.0982   28.0062   28.0063   28.6793   29.1941   31.1329   31.6311   31.8550   31.8552   32.4090
   32.4091   33.0064   33.0925   33.0925   33.4043   33.6246   33.6246   33.7637   33.7638   35.5336
   36.5760   36.5766   36.5798   36.5798   36.9149   37.7278   38.2133   38.2145   38.9267   39.0788
   39.0798   40.1726   40.1738   40.2070   40.2840   40.3154   40.7303   40.8739   40.8746   41.0750
   41.5246   41.5247   42.0411   42.0412   42.2767   42.2768   43.1368   43.5423   43.5425   44.5875
   44.5919   44.8291   44.8910   44.9834   45.0524   45.0524   45.0699   45.1878   45.1887   45.4218
   45.4219   45.4410   46.3125   46.3129   46.9259   46.9259   47.1522   47.5527   47.5527   47.6605
   47.6614   47.8470   48.0812   48.0814   49.5567   49.5569   49.6683   49.6687   49.7094   49.7860
   50.3863   50.3864   50.9731   50.9837   51.0261   51.0261   51.4746   51.4748   51.9100   52.2286
   52.2286   53.9625   56.1321   56.1324   56.3894   56.4367   56.4368   56.4731   56.9089   56.9089
   57.5374   57.5376   58.4291   58.4291   58.6959   58.6961   59.3588   60.2081   60.2084   61.1405
   61.7816   61.9810   61.9810   62.0548   62.0550   62.1411   62.2767   62.5234   62.5236   62.9667
   63.1266   63.1277   63.5656   63.8696   63.8711   63.9740   64.9082   66.1931   66.1933   66.4423
   66.4434   66.5442   66.5459   66.6554   66.6606   67.4266   67.4281   68.5071   68.5839   68.8162
   69.1833   69.7573   69.8025   69.8027   69.8573   69.8582   71.0171   72.2444   72.2444   72.2576
   72.2946   72.7975   72.7976   73.0402   73.4090   74.3096   74.3096   74.9337   75.2639   75.2640
   75.3798   75.3799   77.2492   80.7664   80.7666   80.8605   81.5700   82.3439   82.3448   83.2150
   83.2153   84.7833   84.7834   87.0765   93.2219   96.5521   96.5549   96.7012   97.5418   97.5429
   98.3239   98.4889   98.7212   99.0320   99.0342   99.8923   99.8930  100.4702  100.4725  101.7204
  104.6667  105.3134  105.3138  105.8914  105.8920  106.9979  106.9984  108.7723  108.7734  109.5066
  109.5104  109.7238  109.7612  110.0655  110.0659  110.9632  110.9636  111.7325  111.7336  115.1293
  115.9367  116.7722  116.7736  118.2895  119.1859  119.1863  121.0078  121.6539  121.6546  124.0140
  126.4110  126.4135  128.7794  131.9175  136.2182  136.2204  136.6731  136.6738  136.8234  138.4667
  138.4679  139.1696  139.1710  139.3024  141.2435  146.0070  150.0196  150.0207
   6  1  -27.1562  -26.1042  -24.5120  -24.5120  -24.5120  -24.5120  -24.5120  -24.5120  -23.5927  -23.5927
         -23.5927  -23.5927  -23.5927  -23.5927  -20.1104  -20.1104  -19.7513  -19.7513  -19.7513  -19.7513
  -19.3783  -19.3783  -17.6306  -17.6306  -17.6305  -17.6305  -17.0334  -17.0334  -17.0334  -17.0334
  -17.0332  -17.0332  -16.5917  -16.5172  -16.5172  -16.5172  -16.5172  -16.5170  -16.5170  -13.4416
  -13.4416  -13.4416  -13.4416  -13.4416  -13.4416  -13.0620  -13.0620  -13.0617  -13.0617  -13.0617
  -13.0617  -12.7773  -12.7773  -12.7770  -12.7770  -12.7770  -12.7770  -12.1130  -10.2713  -10.2707
  -10.2000  -10.1994   -9.5847   -9.5847   -9.5847   -9.5847   -9.5847   -9.5847   -8.7644   -8.7644
   -7.3166   -7.3166   -7.3166   -7.3166   -5.2566   -5.2566   -3.1603   -3.1603   -3.1603   -3.1603
   -3.1603   -3.1603   -1.0443   -1.0443   -1.0443   -1.0443   -1.0443   -1.0443    0.1613    0.1613
    0.1613    0.1613    0.1616    0.1616    0.1636    1.0715    1.0722    1.2299    1.2299    1.2299
    1.2299    1.2302    1.2302    1.2769    1.2776    3.2093    3.2093    3.2093    3.2093    3.2093
    3.2093    3.9407    4.6777    5.2417    5.5260    5.5260    5.8843    5.9705    5.9705    5.9708
    5.9708    6.1730    6.1730    6.1730    6.1730    8.1533    8.1533    8.1533    8.1533    8.1537
    8.1537    8.3867    8.3867    9.0954    9.0954    9.0962    9.0962    9.0962    9.0962    9.2760
    9.2760    9.2768    9.2768    9.2769    9.2769    9.5259    9.5790    9.5790    9.5793    9.5793
    9.9529    9.9529    9.9529    9.9529    9.9529    9.9529   11.0324   11.0324   11.0324   11.0324
   11.0329   11.0330   13.3105   13.3105   13.8308   13.8308   13.8308   13.8308   13.8308   13.8308
   15.7108   15.7108   15.7109   15.7109   15.7109   15.7109   16.8537   16.8537   16.8537   16.8537
   16.8543   16.8543   17.1791   17.1791   17.1791   17.1791   17.7350   17.7350   17.7350   17.7350
   17.9155   17.9155   18.9229   19.7408   20.6670   20.6670   20.6670   20.6670   20.6675   20.6675
   22.7141   22.7141   22.7142   22.7142   22.7142   22.7142   23.4096   23.4097   23.8149   24.7023
   24.7023   24.7023   24.7023   24.7023   24.7023   24.8795   24.8796   24.8796   24.8796   24.8803
   24.8803   26.1211   26.1212   26.1842   26.1842   26.1844   26.1844   26.1844   26.1844   27.2001
   27.2001   27.2001   27.2001   27.5849   30.2767   30.2767   30.2767   30.2767   30.2770   30.2770
   33.3711   33.3711   33.3711   33.3712   33.3712   33.3712   33.7808   33.7808   36.8470   36.8470
   36.8482   36.8482   36.8482   36.8483   37.5045   37.5045   38.7334   38.7334   38.7347   38.7347
   38.7347   38.7347   39.0385   39.0388   39.3635   39.3635   39.3635   39.3635   39.3638   39.3638
   42.2885   42.2885   42.2889   42.2889   42.4969   42.4971   42.9719   42.9734   44.1789   44.1789
   44.1790   44.1790   44.3416   44.3431   44.3431   44.3440   46.1450   46.1450   46.1450   46.1450
   46.1457   46.1457   47.0708   47.0708   47.0708   47.0708   47.0709   47.0709   47.8556   47.8565
   49.3506   49.3506   49.3506   49.3506   49.3515   49.3515   50.1280   50.1280   50.1364   50.1367
   51.0690   51.0690   51.0690   51.0690   51.9546   51.9547   51.9751   51.9751   51.9751   51.9751
   51.9754   51.9754   51.9807   57.8518   57.9020   57.9020   58.0589   58.0589   58.0592   58.0593
   58.0593   58.0593   59.9177   59.9177   59.9177   59.9177   59.9182   59.9183   62.2522   62.2522
   62.2531   62.2531   62.5129   62.5129   62.5132   62.5132   62.5133   62.5133   64.5784   64.5784
   64.5785   64.5785   64.5791   64.5791   64.8089   65.4063   65.4063   65.4085   65.4086   65.4086
   65.4086   65.7818   66.6787   66.6787   66.6811   66.6812   66.6812   66.6813   68.6029   68.6070
   68.6304   68.6304   68.6304   68.6305   68.6307   68.6307   69.5750   69.5751   70.1633   70.1674
   74.2582   74.2582   74.2583   74.2583   74.2583   74.2584   77.1931   77.1931   77.1931   77.1931
   80.3027   80.3027   80.3028   80.3028   80.3043   80.3043   90.0908   90.0908   90.0910   90.0910
   90.0935   90.0936   90.2848   90.2849   90.2850   90.2851   90.2851   90.2852   94.4447   94.4448
   97.0575   97.0576   97.0576   97.0576   97.0590   97.0590  100.9591  100.9622  105.0542  105.0543
  105.0576  105.0577  105.0578  105.0580  107.6428  107.6428  107.6430  107.6430  108.9076  108.9077
  108.9077  108.9078  108.9087  108.9087  113.2364  113.2365  113.2366  113.2368  113.2376  113.2379
  125.0145  125.0146  125.1133  125.1133  125.1134  125.1135  125.1135  125.1136  125.9225  125.9259
  126.2863  126.2865  126.2873  126.2874  129.3958  129.3958  129.4003  129.4006  129.4010  129.4016
  132.3807  140.3801  154.7095  154.7099  165.8724  165.8732  165.8746  165.8758
   7  1  -26.4894  -26.4894  -25.4678  -25.4678  -25.1648  -25.1648  -24.2112  -24.2112  -22.6145  -22.6145
         -22.6145  -22.6145  -21.8119  -21.8119  -21.8118  -21.8118  -21.6906  -21.3130  -20.4001  -20.1394
  -18.8199  -18.8199  -18.8198  -18.8198  -18.2620  -18.2620  -18.2619  -18.2619  -15.7841  -15.7841
  -15.3589  -15.3589  -15.3587  -15.3587  -15.0482  -15.0482  -14.9846  -14.9846  -14.9844  -14.9844
  -14.8171  -14.8171  -14.2015  -14.2015  -13.6950  -13.6214  -13.6214  -13.4492  -13.4492  -13.4089
  -12.6384  -12.6384  -12.3391  -12.3391  -11.4422  -11.4422  -11.4251  -11.4251  -11.2738  -11.2738
  -11.2738  -11.2738  -11.2331  -11.2330  -10.6498  -10.1211  -10.1211   -9.1603   -8.2895   -8.2895
   -8.2895   -8.2895   -5.2731   -5.2731   -5.2731   -5.2731   -5.1191   -4.2407   -3.6386   -3.6386
   -3.6386   -3.6386   -1.4492   -1.4492   -0.2329   -0.1157   -0.1157    0.6994    0.6994    1.0428
    1.0494    1.0494    1.6527    1.6527    1.7459    1.7459    2.2362    2.2362    2.3655    2.3655
    2.3655    2.3655    2.6422    2.6422    2.8069    2.8069    3.2854    3.2854    3.6280    3.6280
    3.6638    3.6638    3.6639    3.6639    3.8411    3.8411    4.4061    4.4061    4.8338    4.8338
    5.0941    5.0941    5.0942    5.0942    6.2161    6.4017    6.4017    6.4952    6.5431    6.5431
    6.5431    6.5431    7.2766    7.2766    8.1360    8.1360    8.1360    8.1360    8.3960    8.3960
    8.3960    8.3960    9.2376    9.2376    9.2379    9.2379    9.3749    9.3749    9.7301    9.7301
   10.0248   10.1045   10.1045   10.7709   10.7709   12.4178   12.4178   12.4572   12.6228   12.6228
   12.6231   12.6231   12.8891   12.9568   14.4737   14.4978   15.2422   15.2422   15.2425   15.2425
   15.4948   15.7184   15.7184   15.7189   15.7189   16.9197   16.9197   16.9197   16.9197   17.4199
   17.4199   17.4717   17.4717   17.4720   17.4720   17.7817   17.7817   18.9070   18.9070   19.1123
   19.1123   19.3626   19.3626   19.6093   19.7367   19.7367   19.9317   19.9317   19.9318   19.9318
   21.3775   21.3775   21.3779   21.3779   21.4039   21.4039   21.6859   22.6606   22.6606   23.6454
   23.8560   24.0960   24.0960   24.4025   24.4025   24.4025   24.4025   24.6512   25.3500   25.3500
   25.4238   25.4238   25.6724   25.6724   26.0942   26.0942   26.9174   26.9174   27.2822   27.2822
   27.2823   27.2823   29.0684   29.0684   29.6420   29.6420   30.9800   30.9800   31.5425   31.8040
   32.0999   32.0999   32.4008   32.4008   32.4024   33.6236   33.6236   33.6238   33.6238   34.7150
   34.7150   34.7150   34.7150   36.2376   38.7757   39.1722   39.1722   39.1732   39.1732   41.3167
   41.3167   41.4021   41.4021   42.1008   42.1008   42.1008   42.1008   42.3540   42.3540   42.4816
   42.4816   43.0627   43.0627   43.2050   43.2050   43.2174   43.2174   43.5825   43.5825   43.8427
   43.8427   43.8427   43.8427   44.1082   44.1082   44.3608   44.3608   44.5176   44.5176   45.0548
   45.0548   45.0549   45.0549   46.6600   46.6600   46.6600   46.6600   47.0589   47.0589   47.0593
   47.0594   47.5057   47.5057   47.5840   47.5840   49.3051   49.4171   49.4172   49.5029   49.5029
   49.5031   49.5031   50.1348   50.1348   50.7231   50.7232   50.7232   50.7233   51.4392   52.6758
   52.8118   52.8118   53.1327   53.1327   53.1328   53.1328   53.5984   53.5984   54.8675   54.8675
   55.1239   55.3547   57.3038   57.3038   57.3041   57.3042   57.4103   57.4103   57.6095   59.1261
   59.1261   59.3131   61.4762   62.8792   62.8792   63.1224   63.1224   63.1228   63.1228   64.5466
   65.8820   65.8821   65.8826   65.8826   66.1167   66.1167   66.5973   67.3211   67.3211   67.3211
   67.3211   67.4843   67.4843   67.7777   67.7777   67.8394   69.2393   69.2394   69.3070   69.3071
   70.0750   70.0750   70.0755   70.0755   70.7449   70.7449   70.7537   70.7537   70.7539   70.7539
   71.6909   72.0874   72.0874   72.8844   72.8845   74.1307   74.1307   74.3603   74.3603   74.5543
   76.6738   76.6738   76.6738   76.6739   78.0680   78.0680   81.2225   88.8103   88.8103   89.2622
   89.2623   89.2623   89.2623   93.2068   93.2068   95.0895   95.0896   96.0655   96.1332   96.3859
   96.3860   97.4356   97.4357   99.8507  101.2994  101.2995  101.8739  101.8739  101.8769  101.8770
  103.5753  103.5753  103.5769  103.5769  104.0182  104.0182  104.2965  104.2967  105.6581  105.6582
  105.7597  105.7597  105.7604  105.7604  108.6478  113.9355  113.9357  114.1553  114.1557  114.7943
  114.7944  114.7967  114.7968  116.5943  117.8563  117.8563  117.8565  117.8565  118.1734  118.1735
  119.9712  119.9712  119.9720  119.9722  121.6921  122.9388  129.4306  129.4309  138.2848  138.2849
  140.9078  140.9081  143.0503  143.0504  143.0518  143.0521  146.0049  146.0050
   8  1  -26.6567  -25.9896  -25.9896  -25.6268  -24.9935  -24.9935  -24.0296  -24.0295  -23.1369  -23.1369
         -22.7675  -22.1738  -22.1738  -21.9506  -21.4443  -21.4443  -21.2598  -20.8903  -19.9930  -19.9930
  -19.9929  -19.7624  -19.3965  -19.3963  -17.8465  -17.5508  -16.8478  -16.8478  -16.4425  -16.4425
  -16.1538  -15.9851  -15.9404  -15.5513  -15.1851  -15.1851  -15.1600  -14.7442  -14.7442  -14.4440
  -14.4439  -14.1938  -14.1935  -13.8723  -13.8720  -13.7432  -13.7429  -13.4427  -13.4424  -12.8667
  -12.8667  -12.3068  -12.3064  -12.0867  -12.0864  -11.9822  -11.8315  -11.5947  -11.4109  -11.2629
  -11.1587  -10.9240  -10.9240  -10.9174  -10.9174  -10.0678   -9.1070   -9.1070   -8.8012   -8.8012
   -8.6157   -8.0964   -5.2539   -5.2539   -5.1798   -5.0774   -5.0691   -3.9698   -3.9698   -3.5509
   -3.5403   -3.5403   -1.9326   -1.9326    0.3809    0.3809    0.5066    0.5068    0.6033    1.2212
    1.2214    1.4237    1.5360    1.5362    1.6028    1.6028    1.7675    1.7677    1.8145    2.2353
    2.2355    2.2598    2.2973    2.6234    2.6235    2.6804    2.9055    3.2237    3.4235    3.4235
    3.6275    4.0201    4.0201    4.1365    4.1370    4.5205    4.5270    4.5730    4.5735    5.0761
    5.3764    5.3766    5.5878    5.5879    6.1121    6.2581    6.3542    6.4485    6.5043    6.7005
    6.7007    6.9587    6.9940    6.9943    7.5908    7.6347    7.7916    7.7917    7.8297    8.0178
    8.5917    8.5918    8.7267    8.7267    9.3935    9.3935    9.6782    9.7239    9.7239    9.8481
    9.8481   10.4652   10.4652   11.1297   11.7625   11.7628   12.0393   12.0396   12.0924   12.5344
   12.5354   13.1658   13.1659   13.6824   14.0253   14.8577   14.8579   15.2709   15.7402   15.7402
   15.8262   15.8263   15.8313   15.8545   15.8554   16.2806   16.4498   16.4502   16.9327   16.9327
   16.9792   17.2046   17.2400   17.2853   18.3319   18.3322   18.5187   18.5188   18.6868   18.6872
   18.7145   18.7152   19.1121   19.2733   19.3027   19.6992   19.9248   20.5595   20.9374   21.0344
   21.1847   21.1848   21.3533   21.3538   21.9324   21.9325   22.5108   22.5108   22.6125   22.6129
   23.7550   23.7554   23.9451   23.9451   23.9977   24.1134   24.9942   24.9942   25.1657   25.1658
   25.5225   25.5225   25.7157   26.2341   26.2811   26.2811   26.6521   27.2126   27.2126   27.2278
   27.2279   27.3413   27.7500   27.9312   29.7654   29.7654   30.4428   30.9843   30.9844   32.9073
   32.9076   33.1753   33.1753   33.1807   33.3534   33.3535   33.4443   33.4443   33.5402   33.7247
   34.7816   35.4529   35.7672   35.7673   37.3491   37.3498   38.7739   40.3192   40.3195   40.7502
   40.7506   40.8134   40.8140   40.9346   41.2938   41.8997   41.9011   42.1984   42.1997   42.4097
   42.4770   42.9281   42.9287   43.0925   43.0926   43.3217   43.5526   43.5531   43.6208   43.8164
   43.8164   43.8247   44.0236   44.0267   44.0967   44.0975   44.3873   44.4172   44.6476   44.8145
   45.1662   45.3626   45.9182   45.9791   45.9797   46.5646   46.5646   46.7374   48.1709   48.1712
   48.3891   48.4689   49.2841   49.2842   49.3612   49.3650   49.3651   49.5947   49.5950   50.1404
   50.1405   50.5372   50.5372   50.5767   50.7533   50.7537   51.0632   51.1621   51.7554   51.7555
   52.0273   52.1375   52.1376   52.6387   53.2502   53.2504   53.7134   54.1549   54.1552   54.7375
   54.8682   54.8684   55.9703   55.9704   56.4210   56.4211   57.7085   58.7403   58.7405   59.4434
   60.8079   60.8088   61.7582   61.9459   61.9461   62.2523   62.5412   62.5412   63.8252   63.8253
   64.2898   64.2907   64.9331   64.9334   65.0596   65.1638   65.4370   65.4371   66.0103   66.0104
   66.1007   67.6656   67.6664   67.9275   67.9428   68.6492   68.6493   69.0436   69.0462   69.3880
   69.4205   69.7586   69.8180   69.8181   69.8285   69.8308   70.0246   70.0248   70.1962   71.0782
   71.4159   71.4163   71.5037   72.5583   72.5590   72.6951   73.9311   74.1580   74.4896   75.7942
   75.7942   75.8784   75.8810   80.3196   80.3228   80.4965   82.0521   82.0522   87.3200   88.0653
   90.7931   91.4338   91.4363   94.2346   94.2347   96.1876   96.1878   97.0375   97.3946   97.3975
   97.8027   97.8031   99.1085   99.1114  100.1844  100.1855  100.2017  100.2024  101.0441  102.2962
  102.2972  103.5407  103.5428  103.5598  103.6980  104.1188  104.2621  104.3311  106.0433  106.0440
  106.4437  106.4453  107.6911  109.7730  109.7758  111.6890  112.0970  112.0975  113.8283  113.9400
  115.5366  115.5370  116.9730  116.9737  118.4787  118.4814  120.7653  120.7657  122.0874  122.0894
  123.5638  125.3669  127.4319  129.0276  129.0281  129.0722  129.5370  132.0349  132.0353  132.0754
  133.7196  133.7206  135.8187  136.2796  141.3858  142.9688  142.9690  144.0313
   9  1  -26.6567  -25.9896  -25.9896  -25.6268  -24.9935  -24.9935  -24.0296  -24.0295  -23.1369  -23.1369
         -22.7675  -22.1738  -22.1738  -21.9506  -21.4443  -21.4443  -21.2598  -20.8903  -19.9930  -19.9930
  -19.9929  -19.7624  -19.3965  -19.3963  -17.8465  -17.5508  -16.8478  -16.8478  -16.4425  -16.4425
  -16.1538  -15.9851  -15.9404  -15.5513  -15.1851  -15.1851  -15.1600  -14.7442  -14.7442  -14.4440
  -14.4439  -14.1938  -14.1935  -13.8723  -13.8720  -13.7432  -13.7429  -13.4427  -13.4424  -12.8667
  -12.8667  -12.3068  -12.3064  -12.0867  -12.0864  -11.9822  -11.8315  -11.5947  -11.4109  -11.2629
  -11.1587  -10.9240  -10.9240  -10.9174  -10.9174  -10.0678   -9.1070   -9.1070   -8.8012   -8.8012
   -8.6157   -8.0964   -5.2539   -5.2539   -5.1798   -5.0774   -5.0691   -3.9698   -3.9698   -3.5509
   -3.5403   -3.5403   -1.9326   -1.9326    0.3809    0.3809    0.5066    0.5068    0.6033    1.2212
    1.2214    1.4237    1.5360    1.5362    1.6028    1.6028    1.7675    1.7677    1.8145    2.2353
    2.2355    2.2598    2.2973    2.6234    2.6235    2.6804    2.9055    3.2237    3.4235    3.4235
    3.6275    4.0201    4.0201    4.1365    4.1370    4.5205    4.5270    4.5730    4.5735    5.0761
    5.3764    5.3766    5.5878    5.5879    6.1121    6.2581    6.3542    6.4485    6.5043    6.7005
    6.7007    6.9587    6.9940    6.9943    7.5908    7.6347    7.7916    7.7917    7.8297    8.0178
    8.5917    8.5918    8.7267    8.7267    9.3935    9.3935    9.6782    9.7239    9.7239    9.8481
    9.8481   10.4652   10.4652   11.1297   11.7625   11.7628   12.0393   12.0396   12.0924   12.5344
   12.5354   13.1658   13.1659   13.6824   14.0253   14.8577   14.8579   15.2709   15.7402   15.7402
   15.8262   15.8263   15.8313   15.8545   15.8554   16.2806   16.4498   16.4502   16.9327   16.9327
   16.9792   17.2046   17.2400   17.2853   18.3319   18.3322   18.5187   18.5188   18.6868   18.6872
   18.7145   18.7152   19.1121   19.2733   19.3027   19.6992   19.9248   20.5595   20.9374   21.0344
   21.1847   21.1848   21.3533   21.3538   21.9324   21.9325   22.5108   22.5108   22.6125   22.6129
   23.7550   23.7554   23.9451   23.9451   23.9977   24.1134   24.9942   24.9942   25.1657   25.1658
   25.5225   25.5225   25.7157   26.2341   26.2811   26.2811   26.6521   27.2126   27.2126   27.2278
   27.2279   27.3413   27.7500   27.9312   29.7654   29.7654   30.4428   30.9843   30.9844   32.9073
   32.9076   33.1753   33.1753   33.1807   33.3534   33.3535   33.4443   33.4443   33.5402   33.7247
   34.7816   35.4529   35.7672   35.7673   37.3491   37.3498   38.7739   40.3192   40.3195   40.7502
   40.7506   40.8134   40.8139   40.9346   41.2938   41.8996   41.9011   42.1984   42.1997   42.4097
   42.4770   42.9281   42.9287   43.0925   43.0926   43.3217   43.5526   43.5531   43.6208   43.8164
   43.8164   43.8247   44.0236   44.0267   44.0967   44.0975   44.3873   44.4172   44.6476   44.8145
   45.1662   45.3626   45.9182   45.9791   45.9797   46.5646   46.5646   46.7374   48.1709   48.1712
   48.3891   48.4689   49.2841   49.2842   49.3612   49.3650   49.3651   49.5947   49.5950   50.1404
   50.1405   50.5372   50.5372   50.5767   50.7533   50.7537   51.0632   51.1621   51.7554   51.7555
   52.0273   52.1375   52.1376   52.6387   53.2502   53.2504   53.7134   54.1549   54.1552   54.7375
   54.8682   54.8684   55.9703   55.9704   56.4210   56.4211   57.7085   58.7403   58.7405   59.4434
   60.8079   60.8089   61.7582   61.9459   61.9461   62.2523   62.5412   62.5412   63.8252   63.8253
   64.2898   64.2908   64.9331   64.9334   65.0596   65.1638   65.4370   65.4371   66.0103   66.0104
   66.1007   67.6656   67.6664   67.9275   67.9428   68.6492   68.6493   69.0436   69.0462   69.3880
   69.4205   69.7585   69.8180   69.8181   69.8285   69.8308   70.0246   70.0248   70.1962   71.0782
   71.4159   71.4163   71.5037   72.5583   72.5590   72.6951   73.9311   74.1580   74.4896   75.7942
   75.7942   75.8784   75.8810   80.3196   80.3228   80.4965   82.0521   82.0522   87.3199   88.0652
   90.7932   91.4337   91.4362   94.2342   94.2347   96.1877   96.1878   97.0382   97.3948   97.3975
   97.8028   97.8031   99.1087   99.1114  100.1844  100.1854  100.2018  100.2024  101.0439  102.2963
  102.2973  103.5407  103.5425  103.5600  103.6979  104.1187  104.2622  104.3311  106.0432  106.0441
  106.4434  106.4454  107.6910  109.7730  109.7762  111.6891  112.0965  112.0979  113.8287  113.9395
  115.5363  115.5363  116.9725  116.9736  118.4790  118.4820  120.7653  120.7657  122.0871  122.0893
  123.5636  125.3675  127.4328  129.0274  129.0283  129.0730  129.5371  132.0351  132.0353  132.0749
  133.7185  133.7203  135.8185  136.2794  141.3857  142.9681  142.9686  144.0320
  10  1  -26.4894  -26.4894  -25.4678  -25.4678  -25.1648  -25.1648  -24.2112  -24.2112  -22.6146  -22.6145
         -22.6145  -22.6145  -21.8119  -21.8119  -21.8118  -21.8118  -21.6906  -21.3130  -20.4001  -20.1394
  -18.8199  -18.8199  -18.8198  -18.8198  -18.2620  -18.2620  -18.2619  -18.2619  -15.7841  -15.7841
  -15.3589  -15.3589  -15.3587  -15.3587  -15.0482  -15.0482  -14.9846  -14.9846  -14.9844  -14.9844
  -14.8171  -14.8171  -14.2015  -14.2015  -13.6950  -13.6214  -13.6214  -13.4492  -13.4492  -13.4089
  -12.6384  -12.6384  -12.3391  -12.3391  -11.4422  -11.4422  -11.4251  -11.4251  -11.2738  -11.2738
  -11.2738  -11.2738  -11.2331  -11.2330  -10.6498  -10.1211  -10.1211   -9.1603   -8.2895   -8.2895
   -8.2895   -8.2895   -5.2731   -5.2731   -5.2731   -5.2731   -5.1191   -4.2407   -3.6387   -3.6386
   -3.6386   -3.6386   -1.4492   -1.4492   -0.2329   -0.1157   -0.1157    0.6994    0.6994    1.0428
    1.0494    1.0494    1.6527    1.6527    1.7459    1.7459    2.2362    2.2362    2.3655    2.3655
    2.3655    2.3655    2.6422    2.6422    2.8069    2.8069    3.2854    3.2854    3.6280    3.6280
    3.6638    3.6638    3.6639    3.6639    3.8411    3.8411    4.4061    4.4061    4.8338    4.8338
    5.0941    5.0941    5.0942    5.0942    6.2161    6.4017    6.4017    6.4952    6.5431    6.5431
    6.5431    6.5431    7.2766    7.2766    8.1360    8.1360    8.1360    8.1360    8.3960    8.3960
    8.3960    8.3960    9.2376    9.2376    9.2379    9.2379    9.3749    9.3749    9.7301    9.7301
   10.0248   10.1045   10.1045   10.7709   10.7709   12.4178   12.4178   12.4572   12.6228   12.6228
   12.6231   12.6232   12.8891   12.9568   14.4737   14.4978   15.2422   15.2422   15.2425   15.2425
   15.4948   15.7184   15.7184   15.7189   15.7189   16.9197   16.9197   16.9197   16.9197   17.4199
   17.4199   17.4717   17.4717   17.4720   17.4720   17.7817   17.7817   18.9070   18.9070   19.1123
   19.1123   19.3626   19.3626   19.6093   19.7367   19.7367   19.9317   19.9317   19.9318   19.9318
   21.3775   21.3775   21.3779   21.3779   21.4039   21.4039   21.6859   22.6606   22.6606   23.6454
   23.8560   24.0960   24.0960   24.4025   24.4025   24.4025   24.4025   24.6512   25.3500   25.3500
   25.4238   25.4238   25.6724   25.6724   26.0942   26.0942   26.9174   26.9174   27.2822   27.2822
   27.2823   27.2823   29.0684   29.0684   29.6420   29.6420   30.9800   30.9800   31.5425   31.8040
   32.0999   32.0999   32.4008   32.4008   32.4024   33.6236   33.6236   33.6238   33.6238   34.7150
   34.7150   34.7150   34.7150   36.2376   38.7757   39.1722   39.1722   39.1732   39.1732   41.3167
   41.3167   41.4020   41.4021   42.1008   42.1008   42.1008   42.1008   42.3540   42.3540   42.4816
   42.4816   43.0627   43.0627   43.2050   43.2051   43.2174   43.2174   43.5825   43.5825   43.8427
   43.8427   43.8427   43.8427   44.1082   44.1082   44.3608   44.3608   44.5176   44.5176   45.0548
   45.0548   45.0549   45.0549   46.6600   46.6600   46.6600   46.6600   47.0588   47.0589   47.0593
   47.0593   47.5057   47.5057   47.5840   47.5840   49.3051   49.4171   49.4172   49.5029   49.5029
   49.5031   49.5031   50.1348   50.1348   50.7231   50.7232   50.7232   50.7233   51.4392   52.6758
   52.8118   52.8118   53.1327   53.1327   53.1328   53.1328   53.5984   53.5984   54.8675   54.8675
   55.1239   55.3547   57.3038   57.3038   57.3042   57.3042   57.4103   57.4103   57.6095   59.1261
   59.1261   59.3132   61.4763   62.8791   62.8792   63.1224   63.1224   63.1228   63.1228   64.5466
   65.8821   65.8821   65.8826   65.8826   66.1167   66.1167   66.5973   67.3211   67.3211   67.3211
   67.3211   67.4843   67.4844   67.7777   67.7778   67.8394   69.2394   69.2394   69.3071   69.3071
   70.0750   70.0750   70.0755   70.0755   70.7449   70.7449   70.7537   70.7537   70.7538   70.7539
   71.6909   72.0874   72.0874   72.8844   72.8845   74.1306   74.1306   74.3603   74.3603   74.5541
   76.6738   76.6738   76.6738   76.6738   78.0680   78.0680   81.2225   88.8102   88.8102   89.2622
   89.2622   89.2623   89.2623   93.2067   93.2068   95.0895   95.0896   96.0655   96.1334   96.3857
   96.3858   97.4353   97.4355   99.8509  101.3003  101.3003  101.8739  101.8739  101.8770  101.8770
  103.5752  103.5752  103.5770  103.5770  104.0182  104.0182  104.2967  104.2968  105.6581  105.6582
  105.7597  105.7597  105.7604  105.7604  108.6481  113.9347  113.9349  114.1548  114.1550  114.7946
  114.7947  114.7964  114.7965  116.5948  117.8563  117.8565  117.8568  117.8568  118.1736  118.1736
  119.9717  119.9717  119.9720  119.9720  121.6921  122.9389  129.4301  129.4303  138.2851  138.2851
  140.9079  140.9083  143.0501  143.0502  143.0513  143.0516  146.0050  146.0051
  11  1  -26.6567  -25.9896  -25.9896  -25.6268  -24.9935  -24.9935  -24.0296  -24.0295  -23.1369  -23.1369
         -22.7675  -22.1738  -22.1738  -21.9506  -21.4443  -21.4443  -21.2598  -20.8903  -19.9930  -19.9930
  -19.9929  -19.7624  -19.3965  -19.3963  -17.8465  -17.5508  -16.8478  -16.8478  -16.4425  -16.4425
  -16.1538  -15.9851  -15.9404  -15.5513  -15.1851  -15.1851  -15.1600  -14.7442  -14.7442  -14.4440
  -14.4439  -14.1938  -14.1935  -13.8723  -13.8720  -13.7432  -13.7429  -13.4427  -13.4424  -12.8667
  -12.8667  -12.3068  -12.3064  -12.0867  -12.0864  -11.9822  -11.8315  -11.5947  -11.4109  -11.2629
  -11.1587  -10.9240  -10.9240  -10.9174  -10.9174  -10.0678   -9.1070   -9.1070   -8.8012   -8.8012
   -8.6157   -8.0964   -5.2539   -5.2539   -5.1798   -5.0774   -5.0691   -3.9698   -3.9698   -3.5509
   -3.5403   -3.5403   -1.9326   -1.9326    0.3809    0.3809    0.5066    0.5068    0.6033    1.2212
    1.2214    1.4237    1.5360    1.5362    1.6028    1.6028    1.7675    1.7677    1.8145    2.2353
    2.2355    2.2598    2.2973    2.6234    2.6235    2.6804    2.9055    3.2237    3.4235    3.4235
    3.6275    4.0201    4.0201    4.1365    4.1370    4.5205    4.5270    4.5730    4.5735    5.0761
    5.3764    5.3766    5.5878    5.5879    6.1121    6.2581    6.3542    6.4485    6.5043    6.7005
    6.7007    6.9587    6.9940    6.9943    7.5908    7.6347    7.7916    7.7917    7.8297    8.0178
    8.5917    8.5918    8.7267    8.7267    9.3935    9.3935    9.6782    9.7239    9.7239    9.8481
    9.8481   10.4652   10.4652   11.1297   11.7625   11.7628   12.0393   12.0396   12.0924   12.5344
   12.5354   13.1658   13.1659   13.6824   14.0253   14.8577   14.8579   15.2709   15.7402   15.7402
   15.8262   15.8263   15.8313   15.8545   15.8554   16.2806   16.4498   16.4502   16.9327   16.9327
   16.9792   17.2046   17.2400   17.2853   18.3319   18.3322   18.5187   18.5188   18.6868   18.6872
   18.7145   18.7152   19.1121   19.2733   19.3027   19.6992   19.9248   20.5595   20.9374   21.0344
   21.1847   21.1848   21.3533   21.3538   21.9324   21.9325   22.5108   22.5108   22.6125   22.6129
   23.7550   23.7554   23.9451   23.9451   23.9977   24.1134   24.9942   24.9942   25.1657   25.1658
   25.5225   25.5225   25.7157   26.2341   26.2811   26.2811   26.6521   27.2126   27.2126   27.2278
   27.2279   27.3413   27.7500   27.9312   29.7654   29.7654   30.4428   30.9843   30.9844   32.9073
   32.9076   33.1753   33.1753   33.1807   33.3534   33.3535   33.4443   33.4443   33.5402   33.7247
   34.7816   35.4529   35.7672   35.7673   37.3491   37.3498   38.7739   40.3192   40.3195   40.7502
   40.7506   40.8134   40.8139   40.9346   41.2938   41.8996   41.9011   42.1984   42.1997   42.4097
   42.4770   42.9281   42.9287   43.0925   43.0926   43.3217   43.5526   43.5531   43.6208   43.8164
   43.8164   43.8247   44.0236   44.0267   44.0967   44.0975   44.3873   44.4172   44.6476   44.8145
   45.1662   45.3626   45.9182   45.9791   45.9797   46.5646   46.5646   46.7374   48.1709   48.1712
   48.3891   48.4689   49.2841   49.2842   49.3612   49.3650   49.3651   49.5947   49.5950   50.1404
   50.1405   50.5372   50.5372   50.5767   50.7533   50.7537   51.0632   51.1621   51.7554   51.7555
   52.0273   52.1375   52.1376   52.6387   53.2502   53.2504   53.7134   54.1549   54.1552   54.7375
   54.8682   54.8684   55.9703   55.9704   56.4210   56.4211   57.7085   58.7403   58.7405   59.4434
[...]
    5.6187    5.6187    5.6188    5.6188    5.6501    5.6501    5.9067    5.9067    6.6917    6.6917
    6.6926    6.6926    6.6927    6.6927    6.8045    6.8045    6.9962    6.9962    6.9963    6.9963
    8.2099    8.2099    8.2101    8.2101    9.5843    9.5843    9.9162    9.9162    9.9164    9.9164
   11.0061   11.0061   11.2352   11.2352   11.3387   11.3387   11.3389   11.3389   12.1890   12.1890
   12.1896   12.1896   13.8327   13.8327   13.8328   13.8328   14.4729   14.4729   14.4729   14.4729
   14.9524   14.9524   15.3084   15.3084   16.6338   16.6338   16.6339   16.6339   16.9477   16.9477
   16.9480   16.9480   17.2756   17.2756   17.3191   17.3191   18.2897   18.2897   18.2899   18.2899
   19.2857   19.2857   19.8411   19.8411   20.0530   20.0530   20.0533   20.0533   20.4844   20.4844
   20.4848   20.4848   20.8189   20.8189   21.0990   21.0990   22.5329   22.5329   22.5332   22.5332
   23.0929   23.0929   23.0932   23.0932   23.1272   23.1272   24.3756   24.3756   24.4855   24.4855
   25.9537   25.9537   25.9538   25.9538   26.4130   26.4130   26.4130   26.4130   28.4611   28.4611
   28.9613   28.9613   28.9613   28.9613   30.9379   30.9379   30.9380   30.9380   31.0516   31.0516
   31.4883   31.4883   31.4883   31.4883   32.5125   32.5125   33.4650   33.4650   33.4651   33.4651
   36.1720   36.1720   37.2305   37.2305   37.2312   37.2312   39.6955   39.6955   39.7272   39.7272
   40.0381   40.0381   40.0382   40.0382   41.5676   41.5676   41.6989   41.6989   41.6998   41.6998
   41.9756   41.9756   41.9762   41.9762   42.6032   42.6032   42.6034   42.6034   43.7779   43.7779
   43.8552   43.8552   43.8558   43.8558   44.3618   44.3618   44.3859   44.3859   44.6439   44.6439
   44.6442   44.6442   45.5224   45.5224   46.7286   46.7286   46.7289   46.7289   47.6675   47.6675
   48.2004   48.2004   48.6608   48.6608   48.6608   48.6608   49.8541   49.8541   49.8544   49.8544
   51.7479   51.7479   52.1106   52.1106   52.3040   52.3040   52.3042   52.3042   52.8284   52.8284
   52.8285   52.8285   54.4732   54.4732   54.4734   54.4734   55.3239   55.3239   56.0971   56.0971
   57.4878   57.4878   58.9598   58.9598   58.9600   58.9600   60.4822   60.4822   60.8646   60.8646
   60.8649   60.8649   61.1300   61.1300   61.7481   61.7481   61.7485   61.7485   62.5463   62.5463
   62.5464   62.5464   63.6546   63.6547   64.7399   64.7399   64.7400   64.7400   64.9017   64.9017
   67.1818   67.1818   67.1819   67.1819   67.6516   67.6516   67.6517   67.6517   68.9319   68.9319
   68.9321   68.9321   69.7634   69.7634   69.7659   69.7659   70.0452   70.0452   70.9888   70.9888
   71.6665   71.6665   71.9111   71.9111   72.8482   72.8482   74.8525   74.8525   74.8533   74.8533
   76.0588   76.0588   81.4533   81.4533   81.4542   81.4543   81.6119   81.6120   81.8828   81.8828
   81.8829   81.8829   81.9237   81.9237   81.9259   81.9259   94.0371   94.0371   95.7656   95.7656
   95.7678   95.7679   98.3928   98.3928   98.5285   98.5285   98.5288   98.5288   99.5358   99.5358
   99.5386   99.5386  103.8956  103.8956  103.8963  103.8963  103.9508  103.9508  104.2203  104.2203
  108.1038  108.1038  111.1830  111.1831  111.1849  111.1849  111.2666  111.2666  111.2667  111.2667
  112.2572  112.2572  112.2609  112.2610  112.4612  112.4613  116.3437  116.3438  117.8729  117.8730
  117.8762  117.8762  118.8072  118.8073  120.1237  120.1237  123.0754  123.0754  123.0756  123.0757
  130.8063  130.8063  134.9637  134.9639  134.9647  134.9647  142.8216  142.8216
  42  1  -26.0289  -26.0289  -26.0288  -26.0288  -24.7318  -24.7318  -24.7318  -24.7318  -22.2445  -22.2445
         -22.2445  -22.2445  -22.2444  -22.2444  -22.2444  -22.2444  -21.4296  -21.4296  -20.3993  -20.3993
  -18.5591  -18.5591  -18.5590  -18.5590  -18.5589  -18.5589  -18.5589  -18.5589  -15.1808  -15.1808
  -15.1808  -15.1808  -15.1805  -15.1805  -15.1805  -15.1805  -14.9181  -14.9181  -14.9181  -14.9181
  -13.8525  -13.8525  -13.8525  -13.8525  -13.5572  -13.5572  -13.5572  -13.5572  -13.5513  -13.5513
  -12.4903  -12.4903  -12.4903  -12.4903  -12.3689  -12.3689  -12.3689  -12.3689  -11.3289  -11.3289
  -11.3289  -11.3289   -9.7511   -9.7511   -9.7511   -9.7511   -9.7511   -9.7511   -9.7511   -9.7511
   -9.4695   -9.4695   -5.4695   -5.4695   -4.6579   -4.6579   -4.6579   -4.6579   -4.6579   -4.6579
   -4.6579   -4.6579   -0.8604   -0.8604   -0.8604   -0.8604    0.3984    0.3984    1.1078    1.1078
    1.1079    1.1079    2.3449    2.3449    2.3449    2.3449    2.9120    2.9120    2.9120    2.9120
    2.9120    2.9120    2.9120    2.9120    3.0120    3.0120    3.0120    3.0120    3.7276    3.7276
    3.7276    3.7276    4.5065    4.5065    4.5065    4.5065    5.0885    5.0885    5.0885    5.0885
    5.9296    5.9296    5.9296    5.9296    5.9296    5.9296    5.9296    5.9296    5.9514    5.9514
    5.9514    5.9514    6.9306    6.9306    6.9306    6.9306    7.6446    7.6446    8.5178    8.5178
    8.5178    8.5178    8.5180    8.5180    8.5180    8.5180   10.1033   10.1033   10.2615   10.2615
   10.2615   10.2615   11.2130   11.2130   11.2130   11.2130   11.2131   11.2131   11.2131   11.2131
   12.9226   12.9226   14.1844   14.1844   14.1844   14.1844   14.9033   14.9033   14.9034   14.9034
   14.9034   14.9034   14.9034   14.9034   15.0078   15.0078   15.8953   15.8953   17.3653   17.3653
   17.3653   17.3653   17.3656   17.3656   17.3656   17.3656   19.0629   19.0629   19.0629   19.0629
   19.3806   19.3806   19.3806   19.3806   20.2632   20.2632   20.7059   20.7059   20.7059   20.7059
   20.7261   20.7261   20.7261   20.7261   20.7264   20.7264   20.7264   20.7264   22.3174   22.3174
   22.3174   22.3174   23.5820   23.5820   23.5820   23.5820   25.0236   25.0236   25.0236   25.0236
   25.0236   25.0236   25.0236   25.0236   26.6009   26.6009   28.3083   28.3083   28.3083   28.3083
   28.8216   28.8216   28.8216   28.8216   31.1201   31.1201   31.2724   31.2724   31.2724   31.2724
   31.2724   31.2724   31.2724   31.2724   31.2878   31.2878   31.2878   31.2878   36.4110   36.4110
   36.4110   36.4110   37.5211   37.5211   39.6729   39.6729   39.6729   39.6729   39.6736   39.6736
   39.6736   39.6736   40.4658   40.4658   40.9788   40.9788   40.9788   40.9788   41.4987   41.4987
   41.4987   41.4987   41.9815   41.9815   41.9816   41.9816   43.3117   43.3117   43.3117   43.3117
   43.9221   43.9221   43.9221   43.9221   43.9223   43.9223   43.9223   43.9223   43.9884   43.9884
   43.9884   43.9884   44.1181   44.1181   44.1181   44.1181   47.5663   47.5663   48.0426   48.0426
   48.0427   48.0427   50.0373   50.0373   50.0373   50.0373   50.0376   50.0376   50.0376   50.0376
   51.9309   51.9309   51.9309   51.9309   52.5384   52.5384   52.5384   52.5384   53.4607   53.4607
   55.9004   55.9005   55.9005   55.9005   55.9007   55.9007   55.9007   55.9007   57.9196   57.9196
   57.9196   57.9196   57.9199   57.9199   57.9199   57.9199   58.0702   58.0702   58.0702   58.0702
   59.5757   59.5757   59.5757   59.5757   60.1909   60.1909   62.3352   62.3352   63.4138   63.4138
   63.4139   63.4139   63.9493   63.9493   64.6013   64.6014   64.6014   64.6014   64.6021   64.6021
   64.6021   64.6021   67.3770   67.3770   68.5544   68.5545   68.5545   68.5545   70.1493   70.1493
   70.1494   70.1494   70.1496   70.1496   70.1496   70.1496   70.5290   70.5290   70.5290   70.5290
   72.6249   72.6249   72.6250   72.6250   75.8908   75.8908   75.8908   75.8908   75.8915   75.8915
   75.8915   75.8915   77.6046   77.6046   77.6046   77.6046   79.9962   79.9963   80.2278   80.2278
   80.2279   80.2279   90.0141   90.0141   90.0141   90.0141   95.6357   95.6357   95.6358   95.6358
   95.6358   95.6359   95.6359   95.6359   97.3755   97.3755   97.3755   97.3755   98.2254   98.2254
  103.4162  103.4162  103.4163  103.4163  103.4188  103.4188  103.4188  103.4188  103.6232  103.6232
  103.6235  103.6235  106.7113  106.7113  106.7113  106.7113  111.7853  111.7854  113.5831  113.5831
  113.5832  113.5832  115.8013  115.8014  115.8016  115.8016  115.8028  115.8029  115.8030  115.8031
  118.5942  118.5942  118.5942  118.5942  122.1404  122.1405  125.9015  125.9015  125.9015  125.9016
  125.9017  125.9018  125.9019  125.9020  127.2604  127.2604  127.2609  127.2609
  43  1  -26.1929  -26.1929  -25.5392  -25.5392  -25.5392  -25.5392  -23.6219  -23.6219  -23.6218  -23.6218
         -22.3921  -22.3921  -21.8277  -21.8277  -21.8276  -21.8276  -21.0095  -21.0095  -19.9951  -19.9951
  -19.7320  -19.7320  -19.7319  -19.7319  -17.6793  -17.6793  -16.6441  -16.6441  -16.6441  -16.6441
  -16.0927  -16.0927  -15.3631  -15.3631  -14.6089  -14.6089  -14.6088  -14.6088  -14.0401  -14.0401
  -14.0343  -14.0343  -14.0340  -14.0340  -13.6073  -13.6073  -13.6070  -13.6070  -13.2726  -13.2726
  -13.2726  -13.2726  -12.2031  -12.2031  -12.2027  -12.2027  -11.8918  -11.8918  -11.2174  -11.2174
  -11.1447  -11.1447  -11.1447  -11.1447   -9.8319   -9.8319   -9.5712   -9.5712   -9.5712   -9.5712
   -8.8823   -8.8823   -5.7039   -5.7039   -5.2032   -5.2032   -5.2032   -5.2032   -4.3713   -4.3713
   -2.7730   -2.7730   -2.7730   -2.7730    0.7199    0.7199    0.7199    0.7199    1.1176    1.1176
    1.1177    1.1177    1.4598    1.4598    1.9762    1.9762    1.9764    1.9764    2.6932    2.6932
    2.7994    2.7994    2.8990    2.8990    3.1689    3.1689    3.1690    3.1690    4.3579    4.3579
    4.3584    4.3584    4.3954    4.3954    4.9471    4.9471    5.4740    5.4740    5.4740    5.4740
    5.6187    5.6187    5.6188    5.6188    5.6501    5.6501    5.9067    5.9067    6.6917    6.6917
    6.6926    6.6926    6.6927    6.6927    6.8045    6.8045    6.9962    6.9962    6.9963    6.9963
    8.2099    8.2099    8.2101    8.2101    9.5843    9.5843    9.9162    9.9162    9.9164    9.9164
   11.0061   11.0061   11.2352   11.2352   11.3387   11.3387   11.3389   11.3389   12.1890   12.1890
   12.1896   12.1896   13.8327   13.8327   13.8328   13.8328   14.4729   14.4729   14.4729   14.4729
   14.9524   14.9524   15.3084   15.3084   16.6338   16.6338   16.6339   16.6339   16.9477   16.9477
   16.9480   16.9480   17.2756   17.2756   17.3191   17.3191   18.2897   18.2897   18.2899   18.2899
   19.2857   19.2857   19.8411   19.8411   20.0530   20.0530   20.0533   20.0533   20.4844   20.4844
   20.4848   20.4848   20.8189   20.8189   21.0990   21.0990   22.5329   22.5329   22.5332   22.5332
   23.0929   23.0929   23.0932   23.0932   23.1272   23.1272   24.3756   24.3756   24.4855   24.4855
   25.9537   25.9537   25.9538   25.9538   26.4130   26.4130   26.4130   26.4130   28.4611   28.4611
   28.9613   28.9613   28.9613   28.9613   30.9379   30.9379   30.9380   30.9380   31.0516   31.0516
   31.4883   31.4883   31.4883   31.4883   32.5125   32.5125   33.4650   33.4650   33.4651   33.4651
   36.1720   36.1720   37.2305   37.2305   37.2312   37.2312   39.6955   39.6955   39.7272   39.7272
   40.0381   40.0381   40.0382   40.0382   41.5676   41.5676   41.6989   41.6989   41.6998   41.6998
   41.9756   41.9756   41.9762   41.9762   42.6032   42.6032   42.6034   42.6034   43.7779   43.7779
   43.8552   43.8552   43.8558   43.8558   44.3618   44.3618   44.3859   44.3859   44.6439   44.6439
   44.6442   44.6442   45.5224   45.5224   46.7286   46.7286   46.7289   46.7289   47.6675   47.6675
   48.2004   48.2004   48.6608   48.6608   48.6608   48.6608   49.8541   49.8541   49.8544   49.8544
   51.7479   51.7479   52.1106   52.1106   52.3040   52.3040   52.3042   52.3042   52.8284   52.8284
   52.8285   52.8285   54.4732   54.4732   54.4734   54.4734   55.3239   55.3239   56.0971   56.0971
   57.4878   57.4878   58.9598   58.9598   58.9600   58.9600   60.4822   60.4822   60.8646   60.8646
   60.8649   60.8649   61.1300   61.1300   61.7481   61.7481   61.7485   61.7485   62.5463   62.5463
   62.5464   62.5464   63.6546   63.6547   64.7399   64.7399   64.7400   64.7400   64.9017   64.9017
   67.1818   67.1818   67.1819   67.1819   67.6516   67.6516   67.6517   67.6517   68.9319   68.9319
   68.9321   68.9321   69.7634   69.7634   69.7659   69.7659   70.0452   70.0452   70.9888   70.9888
   71.6665   71.6665   71.9111   71.9111   72.8482   72.8482   74.8525   74.8525   74.8533   74.8533
   76.0588   76.0588   81.4533   81.4533   81.4542   81.4543   81.6119   81.6120   81.8828   81.8828
   81.8829   81.8829   81.9237   81.9237   81.9259   81.9259   94.0371   94.0371   95.7656   95.7656
   95.7678   95.7679   98.3928   98.3928   98.5285   98.5285   98.5288   98.5288   99.5358   99.5358
   99.5386   99.5386  103.8956  103.8956  103.8963  103.8963  103.9508  103.9508  104.2203  104.2203
  108.1038  108.1038  111.1830  111.1831  111.1849  111.1849  111.2666  111.2666  111.2667  111.2667
  112.2572  112.2572  112.2609  112.2610  112.4612  112.4613  116.3437  116.3438  117.8729  117.8730
  117.8762  117.8762  118.8072  118.8073  120.1237  120.1237  123.0754  123.0754  123.0756  123.0757
  130.8063  130.8063  134.9637  134.9639  134.9647  134.9647  142.8216  142.8216
  44  1  -26.0288  -26.0288  -26.0288  -26.0288  -24.7319  -24.7319  -24.7319  -24.7319  -22.2444  -22.2444
         -22.2444  -22.2444  -22.2444  -22.2444  -22.2444  -22.2444  -21.4296  -21.4296  -20.3991  -20.3991
  -18.5591  -18.5591  -18.5591  -18.5591  -18.5591  -18.5591  -18.5591  -18.5591  -15.1805  -15.1805
  -15.1805  -15.1805  -15.1805  -15.1805  -15.1805  -15.1805  -14.9183  -14.9183  -14.9183  -14.9183
  -13.8525  -13.8525  -13.8525  -13.8525  -13.5570  -13.5570  -13.5570  -13.5570  -13.5516  -13.5516
  -12.4900  -12.4900  -12.4900  -12.4900  -12.3689  -12.3689  -12.3689  -12.3689  -11.3293  -11.3293
  -11.3293  -11.3293   -9.7511   -9.7511   -9.7511   -9.7511   -9.7511   -9.7511   -9.7511   -9.7511
   -9.4695   -9.4695   -5.4695   -5.4695   -4.6579   -4.6579   -4.6579   -4.6579   -4.6579   -4.6579
   -4.6579   -4.6579   -0.8604   -0.8604   -0.8604   -0.8604    0.3986    0.3986    1.1082    1.1082
    1.1082    1.1082    2.3449    2.3449    2.3449    2.3449    2.9119    2.9119    2.9119    2.9119
    2.9119    2.9119    2.9119    2.9119    3.0119    3.0119    3.0119    3.0119    3.7270    3.7270
    3.7270    3.7270    4.5067    4.5067    4.5067    4.5067    5.0885    5.0885    5.0885    5.0885
    5.9296    5.9296    5.9296    5.9296    5.9296    5.9296    5.9296    5.9296    5.9515    5.9515
    5.9515    5.9515    6.9308    6.9308    6.9308    6.9308    7.6447    7.6447    8.5177    8.5177
    8.5177    8.5177    8.5177    8.5177    8.5177    8.5177   10.1035   10.1035   10.2614   10.2614
   10.2614   10.2614   11.2132   11.2132   11.2132   11.2132   11.2132   11.2132   11.2132   11.2132
   12.9215   12.9215   14.1843   14.1843   14.1843   14.1843   14.9036   14.9036   14.9036   14.9036
   14.9036   14.9036   14.9036   14.9036   15.0086   15.0086   15.8953   15.8953   17.3653   17.3653
   17.3653   17.3653   17.3653   17.3653   17.3653   17.3653   19.0631   19.0631   19.0632   19.0632
   19.3802   19.3802   19.3802   19.3802   20.2637   20.2637   20.7058   20.7058   20.7058   20.7058
   20.7263   20.7263   20.7263   20.7263   20.7263   20.7263   20.7263   20.7263   22.3176   22.3176
   22.3176   22.3176   23.5817   23.5817   23.5817   23.5817   25.0236   25.0236   25.0236   25.0236
   25.0236   25.0236   25.0236   25.0236   26.6011   26.6011   28.3083   28.3083   28.3083   28.3083
   28.8216   28.8216   28.8216   28.8216   31.1196   31.1196   31.2723   31.2723   31.2724   31.2724
   31.2724   31.2724   31.2724   31.2724   31.2878   31.2878   31.2878   31.2878   36.4111   36.4111
   36.4111   36.4111   37.5212   37.5212   39.6734   39.6734   39.6735   39.6735   39.6735   39.6735
   39.6735   39.6735   40.4650   40.4650   40.9789   40.9789   40.9789   40.9789   41.4982   41.4982
   41.4982   41.4982   41.9822   41.9822   41.9822   41.9822   43.3103   43.3103   43.3104   43.3104
   43.9218   43.9218   43.9218   43.9218   43.9218   43.9218   43.9218   43.9218   43.9885   43.9885
   43.9886   43.9886   44.1193   44.1193   44.1193   44.1193   47.5668   47.5668   48.0431   48.0431
   48.0431   48.0431   50.0374   50.0374   50.0374   50.0374   50.0374   50.0374   50.0374   50.0374
   51.9307   51.9307   51.9307   51.9307   52.5384   52.5384   52.5384   52.5384   53.4610   53.4610
   55.9005   55.9005   55.9005   55.9005   55.9005   55.9005   55.9005   55.9005   57.9196   57.9196
   57.9196   57.9196   57.9196   57.9196   57.9197   57.9197   58.0704   58.0704   58.0704   58.0704
   59.5760   59.5760   59.5760   59.5760   60.1895   60.1895   62.3360   62.3360   63.4134   63.4134
   63.4134   63.4134   63.9496   63.9496   64.6019   64.6019   64.6019   64.6019   64.6019   64.6019
   64.6019   64.6019   67.3766   67.3766   68.5555   68.5555   68.5555   68.5556   70.1495   70.1495
   70.1495   70.1495   70.1495   70.1495   70.1495   70.1495   70.5258   70.5258   70.5258   70.5258
   72.6264   72.6264   72.6265   72.6265   75.8908   75.8908   75.8908   75.8908   75.8909   75.8909
   75.8909   75.8909   77.6065   77.6065   77.6065   77.6065   79.9966   79.9966   80.2282   80.2282
   80.2282   80.2283   90.0119   90.0119   90.0120   90.0120   95.6370   95.6371   95.6371   95.6371
   95.6372   95.6372   95.6372   95.6372   97.3757   97.3758   97.3758   97.3758   98.2283   98.2283
  103.4162  103.4162  103.4163  103.4163  103.4163  103.4163  103.4164  103.4164  103.6231  103.6231
  103.6232  103.6233  106.7110  106.7111  106.7111  106.7111  111.7807  111.7807  113.5797  113.5799
  113.5800  113.5800  115.8017  115.8018  115.8018  115.8018  115.8026  115.8027  115.8030  115.8031
  118.5950  118.5951  118.5951  118.5951  122.1410  122.1410  125.9027  125.9027  125.9027  125.9028
  125.9030  125.9030  125.9030  125.9031  127.2627  127.2629  127.2633  127.2633
siesta: Fermi energy =      -7.205757 eV

siesta: Program's energy decomposition (eV):
siesta: Ebs     =     -2341.835332
siesta: Eions   =      9434.507561
siesta: Ena     =      2212.992825
siesta: Ekin    =      3934.021620
siesta: Enl     =      -382.662699
siesta: Eso     =         0.000000
siesta: Edftu   =         0.000000
siesta: DEna    =      -203.200443
siesta: DUscf   =        17.669584
siesta: DUext   =         0.000000
siesta: Exc     =     -1718.366942
siesta: eta*DQ  =         0.000000
siesta: Emadel  =         0.000000
siesta: Emeta   =         0.000000
siesta: Emolmec =        -6.377890
siesta: Ekinion =         0.000000
siesta: Eharris =     -5580.431505
siesta: Etot    =     -5580.431505
siesta: FreeEng =     -5580.438604

siesta: Final energy (eV):
siesta:  Band Struct. =   -2341.835332
siesta:       Kinetic =    3934.021620
siesta:       Hartree =    1013.787760
siesta:       Edftu   =       0.000000
siesta:       Eso     =       0.000000
siesta:    Ext. field =       0.000000
siesta:   Exch.-corr. =   -1718.366942
siesta:  Ion-electron =   -6064.775885
siesta:       Ion-ion =   -2738.720169
siesta:       Ekinion =       0.000000
siesta:         Total =   -5580.431505
siesta:         Fermi =      -7.205757

siesta: Stress tensor (static) (eV/Ang**3):
siesta:    -0.078925   -0.000082    0.000000
siesta:    -0.000082   -0.079019    0.000000
siesta:     0.000000    0.000000   -0.108266

siesta: Cell volume =        263.584507 Ang**3

siesta: Pressure (static):
siesta:                Solid            Molecule  Units
siesta:           0.00096646          0.00096650  Ry/Bohr**3
siesta:           0.08873667          0.08874078  eV/Ang**3
siesta:         142.17335003        142.17993322  kBar
(Free)E+ p_basis*V_orbitals  =       -5546.908799
(Free)Eharris+ p_basis*V_orbitals  =       -5546.908799

cite: Please see "graphite_scf.bib" for an exhaustive BiBTeX file.
cite: Please clearly indicate Siesta version in published work: 4.1.5
cite: This calculation has made use of the following articles
cite: which are encouraged to be cited in a published work.
        Primary SIESTA paper
          DOI: www.doi.org/10.1088/0953-8984/14/11/302

>> End of run:   1-NOV-2022  16:48:37
Job completed
