Siesta Version  : 4.1.5
Architecture    : x86_64-unknown-linux-gnu--unknown
Compiler version: GNU Fortran (GCC) 11.3.0
Compiler flags  : mpif90 -g -O2 -fallow-argument-mismatch
PP flags        : -DMPI -DFC_HAVE_FLUSH -DFC_HAVE_ABORT
Libraries       :  -I/global/software/sl-7.x86_64/modules/intel/2020.4.304/mkl/include  /globall/software/sl-7.x86_64/modules/intel/2020.4.304/mkl/lib/intel64/libmkl_scalapack_lp64.a -Wl,--start-group /global/software/sl-7.x86_64/modules/intel/2020.4.304/mkl/lib/intel64/libmkl_intel_lp64.a /global/software/sl-7.x86_64/modules/intel/2020.4.304/mkl/lib/intel64/libmkl_sequential.a /global/software/sl-7.x86_64/modules/intel/2020.4.304/mkl/lib/intel64/libmkl_core.a /global/software/sl-7.x86_64/modules/intel/2020.4.304/mkl/lib/intel64/libmkl_blacs_openmpi_lp64.a -Wl,--end-group -lpthread -lm -ldl
PARALLEL version

* Running on 20 nodes in parallel
>> Start of run:   1-NOV-2022  19:04:09

                           ***********************       
                           *  WELCOME TO SIESTA  *       
                           ***********************       

reinit: Reading from standard input
reinit: Dumped input in INPUT_TMP.34854
************************** Dump of input data file ****************************
SystemName graphite_scf
SystemLabel graphite_scf
NumberOfAtoms   36
NumberOfSpecies 1
%block ChemicalSpeciesLabel
1  6   C-gga
%endblock ChemicalSpeciesLabel
PAO.BasisSize  DZP
PAO.EnergyShift  10 meV
%block PS.Lmax
C-gga   2
%endblock PS.Lmax
LatticeConstant 1.000000 Ang
%block LatticeVectors
	7.3920000000	0.0000000000	0.0000000000
	-3.6960000000	6.4016597848	0.0000000000
	0.0000000000	0.0000000000	8.7243000000
%endblock LatticeVectors
AtomicCoordinatesFormat Ang
%block AtomicCoordinatesAndAtomicSpecies
	0.00000000	0.00000000	2.18107500	1
	0.00000000	0.00000000	6.54322500	1
	-1.23200000	2.13388659	2.18107500	1
	-2.46400000	4.26777319	6.54322500	1
	2.46400000	4.26777319	2.18107500	1
	1.23200000	2.13388659	6.54322500	1
	2.46400000	0.00000000	2.18107500	1
	4.92800000	0.00000000	6.54322500	1
	2.46400000	0.00000000	6.54322500	1
	4.92800000	0.00000000	2.18107500	1
	2.46400000	4.26777319	6.54322500	1
	1.23200000	2.13388659	2.18107500	1
	-1.23200000	2.13388659	6.54322500	1
	-2.46400000	4.26777319	2.18107500	1
	0.00000000	4.26777319	2.18107500	1
	3.69600000	2.13388659	6.54322500	1
	3.69600000	2.13388659	2.18107500	1
	0.00000000	4.26777319	6.54322500	1
	0.00000000	1.42258964	2.18107500	1
	3.69600000	4.97907014	6.54322500	1
	2.46400123	5.69036496	2.18107500	1
	1.23199877	0.71129482	6.54322500	1
	-2.46400123	5.69036496	2.18107500	1
	6.16000123	0.71129482	6.54322500	1
	-1.23200000	3.55647624	2.18107500	1
	4.92800000	2.84518355	6.54322500	1
	1.23200123	3.55647837	2.18107500	1
	2.46399877	2.84518142	6.54322500	1
	-0.00000123	5.69036496	2.18107500	1
	3.69600123	0.71129482	6.54322500	1
	2.46400000	1.42258964	2.18107500	1
	1.23200000	4.97907014	6.54322500	1
	4.92800123	1.42259177	2.18107500	1
	-1.23200123	4.97906801	6.54322500	1
	3.69599877	3.55647837	2.18107500	1
	0.00000123	2.84518142	6.54322500	1
%endblock AtomicCoordinatesAndAtomicSpecies
Kgrid_NoTRS  T
%block kgrid_MonkhorstPack
4       0       0       0.0
0       4       0       0.0
0       0       4       0.0
%endblock kgrid_MonkhorstPack
AtomCoorFormatOut Ang
BlockSize 1
#ProcessorY 12
Diag.ParallelOverK   T
Diag.DivideAndConquer F
MeshCutoff   300 Ry
SCF.FreeE.Tolerance 1E-3 eV
SCF.EDM.Tolerance   5E-3 eV
DM.Tolerance  1E-3
DM.Require.Energy.Convergence T
DM.NumberPulay 4
XC.Functional GGA
XC.Authors    PBE
UseSaveData        F
SolutionMethod     diagon
MD.TypeOfRun       CG
MD.VariableCell    F
MD.NumCGsteps      00
MD.MaxCGDispl      0.200000 Bohr
#MD.MaxStressTol    1.000000 GPa
#MD.MaxForceTol     0.010000 eV/Ang
WriteMDHistory T
WriteCoorStep T
WriteForces T
WriteCoorStep    T
WriteEigenValues T
WriteDM    F
MM.UnitsDistance Ang  # what this program prints out DO NOT CHANGE
MM.UnitsEnergy    eV  # what this program prints out DO NOT CHANGE
MM.Grimme.S6     0.75 # Grimme-paper for PBE (correct for your functional)
MM.Grimme.D     20.   # Grimme-paper (correct for your functional)
%block MM.Potentials
  1   1 Grimme     18.14      2.904 # C, 10.1002/jcc.20495
%endblock MM.Potentials
#%block ProjectedDensityOfStates
# -200.0  120.0  0.4  12800  eV
#%endblock ProjectedDensityOfStates
************************** End of input data file *****************************

reinit: -----------------------------------------------------------------------
reinit: System Name: graphite_scf
reinit: -----------------------------------------------------------------------
reinit: System Label: graphite_scf
reinit: -----------------------------------------------------------------------
Reading two-body potentials
Grimme - two-body potential between 1 and 1

initatom: Reading input for the pseudopotentials and atomic orbitals ----------
Species number:   1 Atomic number:    6 Label: C-gga

Ground state valence configuration:   2s02  2p02
Reading pseudopotential information in formatted form from C-gga.psf

Valence configuration for pseudopotential generation:
2s( 2.00) rc: 1.56
2p( 2.00) rc: 1.56
3d( 0.00) rc: 1.56
4f( 0.00) rc: 1.56
relmxkb: Read Max KB Ang. Momentum=    2 for species C-gga

<basis_specs>
===============================================================================
C-gga                Z=   6    Mass=  12.010        Charge= 0.17977+309
Lmxo=1 Lmxkb= 2    BasisType=split      Semic=F
L=0  Nsemic=0  Cnfigmx=2
          i=1  nzeta=2  polorb=0  (2s)
            splnorm:   0.15000    
               vcte:    0.0000    
               rinn:    0.0000    
               qcoe:    0.0000    
               qyuk:    0.0000    
               qwid:   0.10000E-01
                rcs:    0.0000      0.0000    
            lambdas:    1.0000      1.0000    
L=1  Nsemic=0  Cnfigmx=2
          i=1  nzeta=2  polorb=1  (2p)
            splnorm:   0.15000    
               vcte:    0.0000    
               rinn:    0.0000    
               qcoe:    0.0000    
               qyuk:    0.0000    
               qwid:   0.10000E-01
                rcs:    0.0000      0.0000    
            lambdas:    1.0000      1.0000    
-------------------------------------------------------------------------------
L=0  Nkbl=1  erefs: 0.17977+309
L=1  Nkbl=1  erefs: 0.17977+309
L=2  Nkbl=1  erefs: 0.17977+309
===============================================================================
</basis_specs>

atom: Called for C-gga                 (Z =   6)

read_vps: Pseudopotential generation method:
read_vps: ATM 3.2.2 Troullier-Martins                       
Valence charge for ps generation:    4.00000

xc_check: Exchange-correlation functional:
xc_check: GGA Perdew, Burke & Ernzerhof 1996
V l=0 = -2*Zval/r beyond r=  1.5227
V l=1 = -2*Zval/r beyond r=  1.5227
V l=2 = -2*Zval/r beyond r=  1.5227
All V_l potentials equal beyond r=  1.4851
This should be close to max(r_c) in ps generation
All pots = -2*Zval/r beyond r=  1.5227

VLOCAL1: 99.0% of the norm of Vloc inside     19.682 Ry
VLOCAL1: 99.9% of the norm of Vloc inside     44.856 Ry
atom: Maximum radius for 4*pi*r*r*local-pseudopot. charge    1.79142
atom: Maximum radius for r*vlocal+2*Zval:    1.54183
GHOST: No ghost state for L =  0
GHOST: No ghost state for L =  1
GHOST: No ghost state for L =  2

KBgen: Kleinman-Bylander projectors: 
   l= 0   rc=  1.661951   el= -1.010689   Ekb=  5.289847   kbcos=  0.316429
   l= 1   rc=  1.661951   el= -0.388490   Ekb= -4.102504   kbcos= -0.351025
   l= 2   rc=  1.747182   el=  0.001971   Ekb= -1.006005   kbcos= -0.008530

KBgen: Total number of Kleinman-Bylander projectors:    9
atom: -------------------------------------------------------------------------

atom: SANKEY-TYPE ORBITALS:
atom: Selected multiple-zeta basis: split     

SPLIT: Orbitals with angular momentum L= 0

SPLIT: Basis orbitals for state 2s

SPLIT: PAO cut-off radius determined from an
SPLIT: energy shift=  0.000735 Ry

   izeta = 1
                 lambda =    1.000000
                     rc =    5.948690
                 energy =   -1.010099
                kinetic =    0.827121
    potential(screened) =   -1.837220
       potential(ionic) =   -5.392783

   izeta = 2
                 rmatch =    3.518811
              splitnorm =    0.150000
                 energy =   -0.877891
                kinetic =    1.289227
    potential(screened) =   -2.167118
       potential(ionic) =   -5.982073

SPLIT: Orbitals with angular momentum L= 1

SPLIT: Basis orbitals for state 2p

SPLIT: PAO cut-off radius determined from an
SPLIT: energy shift=  0.000735 Ry

   izeta = 1
                 lambda =    1.000000
                     rc =    7.638387
                 energy =   -0.387843
                kinetic =    2.314739
    potential(screened) =   -2.702582
       potential(ionic) =   -6.092371

   izeta = 2
                 rmatch =    3.840617
              splitnorm =    0.150000
                 energy =   -0.270479
                kinetic =    3.438347
    potential(screened) =   -3.708826
       potential(ionic) =   -7.497707

POLgen: Perturbative polarization orbital with L=  2

POLgen: Polarization orbital for state 2p

   izeta = 1
                     rc =    7.638387
                 energy =    0.921402
                kinetic =    1.955040
    potential(screened) =   -1.033637
       potential(ionic) =   -3.679558
atom: Total number of Sankey-type orbitals: 13

atm_pop: Valence configuration (for local Pseudopot. screening):
 2s( 2.00)                                                            
 2p( 2.00)                                                            
Vna: chval, zval:    4.00000   4.00000

Vna:  Cut-off radius for the neutral-atom potential:   7.638387

atom: _________________________________________________________________________

prinput: Basis input ----------------------------------------------------------

PAO.BasisType split     

%block ChemicalSpeciesLabel
    1    6 C-gga                   # Species index, atomic number, species label
%endblock ChemicalSpeciesLabel

%block PAO.Basis                 # Define Basis set
C-gga                 2                    # Species label, number of l-shells
 n=2   0   2                         # n, l, Nzeta 
   5.949      3.519   
   1.000      1.000   
 n=2   1   2 P   1                   # n, l, Nzeta, Polarization, NzetaPol
   7.638      3.841   
   1.000      1.000   
%endblock PAO.Basis

prinput: ----------------------------------------------------------------------

coor:   Atomic-coordinates input format  =     Cartesian coordinates
coor:                                          (in Angstroms)

siesta: Atomic coordinates (Bohr) and species
siesta:      0.00000   0.00000   4.12164  1        1
siesta:      0.00000   0.00000  12.36491  1        2
siesta:     -2.32814   4.03246   4.12164  1        3
siesta:     -4.65629   8.06493  12.36491  1        4
siesta:      4.65629   8.06493   4.12164  1        5
siesta:      2.32814   4.03246  12.36491  1        6
siesta:      4.65629   0.00000   4.12164  1        7
siesta:      9.31257   0.00000  12.36491  1        8
siesta:      4.65629   0.00000  12.36491  1        9
siesta:      9.31257   0.00000   4.12164  1       10
siesta:      4.65629   8.06493  12.36491  1       11
siesta:      2.32814   4.03246   4.12164  1       12
siesta:     -2.32814   4.03246  12.36491  1       13
siesta:     -4.65629   8.06493   4.12164  1       14
siesta:      0.00000   8.06493   4.12164  1       15
siesta:      6.98443   4.03246  12.36491  1       16
siesta:      6.98443   4.03246   4.12164  1       17
siesta:      0.00000   8.06493  12.36491  1       18
siesta:      0.00000   2.68831   4.12164  1       19
siesta:      6.98443   9.40908  12.36491  1       20
siesta:      4.65629  10.75324   4.12164  1       21
siesta:      2.32814   1.34415  12.36491  1       22
siesta:     -4.65629  10.75324   4.12164  1       23
siesta:     11.64072   1.34415  12.36491  1       24
siesta:     -2.32814   6.72077   4.12164  1       25
siesta:      9.31257   5.37662  12.36491  1       26
siesta:      2.32815   6.72077   4.12164  1       27
siesta:      4.65628   5.37662  12.36491  1       28
siesta:     -0.00000  10.75324   4.12164  1       29
siesta:      6.98443   1.34415  12.36491  1       30
siesta:      4.65629   2.68831   4.12164  1       31
siesta:      2.32814   9.40908  12.36491  1       32
siesta:      9.31258   2.68831   4.12164  1       33
siesta:     -2.32815   9.40908  12.36491  1       34
siesta:      6.98443   6.72077   4.12164  1       35
siesta:      0.00000   5.37662  12.36491  1       36

siesta: System type = bulk      

initatomlists: Number of atoms, orbitals, and projectors:     36   468   324

siesta: ******************** Simulation parameters ****************************
siesta:
siesta: The following are some of the parameters of the simulation.
siesta: A complete list of the parameters used, including default values,
siesta: can be found in file out.fdf
siesta:
redata: Spin configuration                          = none
redata: Number of spin components                   = 1
redata: Time-Reversal Symmetry                      = T
redata: Spin spiral                                 = F
redata: Long output                                 =   F
redata: Number of Atomic Species                    =        1
redata: Charge density info will appear in .RHO file
redata: Write Mulliken Pop.                         = NO
redata: Matel table size (NRTAB)                    =     1024
redata: Mesh Cutoff                                 =   300.0000 Ry
redata: Net charge of the system                    =     0.0000 |e|
redata: Min. number of SCF Iter                     =        0
redata: Max. number of SCF Iter                     =     1000
redata: SCF convergence failure will abort job
redata: SCF mix quantity                            = Hamiltonian
redata: Mix DM or H after convergence               =   F
redata: Recompute H after scf cycle                 =   F
redata: Mix DM in first SCF step                    =   T
redata: Write Pulay info on disk                    =   F
redata: New DM Occupancy tolerance                  = 0.000000000001
redata: No kicks to SCF
redata: DM Mixing Weight for Kicks                  =     0.5000
redata: Require Harris convergence for SCF          =   F
redata: Harris energy tolerance for SCF             =     0.000100 eV
redata: Require DM convergence for SCF              =   T
redata: DM tolerance for SCF                        =     0.001000
redata: Require EDM convergence for SCF             =   F
redata: EDM tolerance for SCF                       =     0.005000 eV
redata: Require H convergence for SCF               =   T
redata: Hamiltonian tolerance for SCF               =     0.001000 eV
redata: Require (free) Energy convergence for SCF   =   T
redata: (free) Energy tolerance for SCF             =     0.001000 eV
redata: Using Saved Data (generic)                  =   F
redata: Use continuation files for DM               =   F
redata: Neglect nonoverlap interactions             =   F
redata: Method of Calculation                       = Diagonalization
redata: Electronic Temperature                      =   299.9869 K
redata: Fix the spin of the system                  =   F
redata: Dynamics option                             = Single-point calculation
mix.SCF: Pulay mixing                            = Pulay
mix.SCF:    Variant                              = stable
mix.SCF:    History steps                        = 4
mix.SCF:    Linear mixing weight                 =     0.250000
mix.SCF:    Mixing weight                        =     0.250000
mix.SCF:    SVD condition                        = 0.1000E-07
redata: ***********************************************************************

%block SCF.Mixers
  Pulay
%endblock SCF.Mixers

%block SCF.Mixer.Pulay
  # Mixing method
  method pulay
  variant stable

  # Mixing options
  weight 0.2500
  weight.linear 0.2500
  history 4
%endblock SCF.Mixer.Pulay

DM_history_depth set to one: no extrapolation allowed by default for geometry relaxation
Size of DM history Fstack: 1
Total number of electrons:   144.000000
Total ionic charge:   144.000000

* ProcessorY, Blocksize:    4   1


* Orbital distribution balance (max,min):    24    23

k-point displ. along   1 input, could be:     0.00    0.50
k-point displ. along   2 input, could be:     0.00    0.50
k-point displ. along   3 input, could be:     0.00    0.50
 Kpoints in:           48 . Kpoints trimmed:           44

siesta: k-grid: Number of k-points =    44
siesta: k-grid: Cutoff (effective) =    14.784 Ang
siesta: k-grid: Supercell and displacements
siesta: k-grid:    4   0   0      0.000
siesta: k-grid:    0   4   0      0.000
siesta: k-grid:    0   0   4      0.000

diag: Algorithm                                     = Expert
diag: Parallel over k                               =   T
diag: Use parallel 2D distribution                  =   T
diag: Parallel block-size                           = 1
diag: Parallel distribution                         =     4 x     5
diag: Used triangular part                          = Lower
diag: Absolute tolerance                            =  0.100E-15
diag: Orthogonalization factor                      =  0.100E-05
diag: Memory factor                                 =  1.0000

superc: Internal auxiliary supercell:     5 x     5 x     3  =      75
superc: Number of atoms, orbitals, and projectors:   2700  35100  24300


ts: **************************************************************
ts: Save H and S matrices                           =    F
ts: Save DM and EDM matrices                        =    F
ts: Only save the overlap matrix S                  =    F
ts: **************************************************************

************************ Begin: TS CHECKS AND WARNINGS ************************
************************ End: TS CHECKS AND WARNINGS **************************


                     ====================================
                        Single-point calculation
                     ====================================

outcoor: Atomic coordinates (Ang):                          
    0.00000000    0.00000000    2.18107500   1       1  C-gga
    0.00000000    0.00000000    6.54322500   1       2  C-gga
   -1.23200000    2.13388659    2.18107500   1       3  C-gga
   -2.46400000    4.26777319    6.54322500   1       4  C-gga
    2.46400000    4.26777319    2.18107500   1       5  C-gga
    1.23200000    2.13388659    6.54322500   1       6  C-gga
    2.46400000    0.00000000    2.18107500   1       7  C-gga
    4.92800000    0.00000000    6.54322500   1       8  C-gga
    2.46400000    0.00000000    6.54322500   1       9  C-gga
    4.92800000    0.00000000    2.18107500   1      10  C-gga
    2.46400000    4.26777319    6.54322500   1      11  C-gga
    1.23200000    2.13388659    2.18107500   1      12  C-gga
   -1.23200000    2.13388659    6.54322500   1      13  C-gga
   -2.46400000    4.26777319    2.18107500   1      14  C-gga
    0.00000000    4.26777319    2.18107500   1      15  C-gga
    3.69600000    2.13388659    6.54322500   1      16  C-gga
    3.69600000    2.13388659    2.18107500   1      17  C-gga
    0.00000000    4.26777319    6.54322500   1      18  C-gga
    0.00000000    1.42258964    2.18107500   1      19  C-gga
    3.69600000    4.97907014    6.54322500   1      20  C-gga
    2.46400123    5.69036496    2.18107500   1      21  C-gga
    1.23199877    0.71129482    6.54322500   1      22  C-gga
   -2.46400123    5.69036496    2.18107500   1      23  C-gga
    6.16000123    0.71129482    6.54322500   1      24  C-gga
   -1.23200000    3.55647624    2.18107500   1      25  C-gga
    4.92800000    2.84518355    6.54322500   1      26  C-gga
    1.23200123    3.55647837    2.18107500   1      27  C-gga
    2.46399877    2.84518142    6.54322500   1      28  C-gga
   -0.00000123    5.69036496    2.18107500   1      29  C-gga
    3.69600123    0.71129482    6.54322500   1      30  C-gga
    2.46400000    1.42258964    2.18107500   1      31  C-gga
    1.23200000    4.97907014    6.54322500   1      32  C-gga
    4.92800123    1.42259177    2.18107500   1      33  C-gga
   -1.23200123    4.97906801    6.54322500   1      34  C-gga
    3.69599877    3.55647837    2.18107500   1      35  C-gga
    0.00000123    2.84518142    6.54322500   1      36  C-gga

superc: Internal auxiliary supercell:     5 x     5 x     3  =      75
superc: Number of atoms, orbitals, and projectors:   2700  35100  24300

outcell: Unit cell vectors (Ang):
        7.392000    0.000000    0.000000
       -3.696000    6.401660    0.000000
        0.000000    0.000000    8.724300

outcell: Cell vector modules (Ang)   :    7.392000    7.392000    8.724300
outcell: Cell angles (23,13,12) (deg):     90.0000     90.0000    120.0000
outcell: Cell volume (Ang**3)        :    412.8432
<dSpData1D:S at geom step 0
  <sparsity:sparsity for geom step 0
    nrows_g=468 nrows=24 sparsity=.2307 nnzs=50526, refcount: 7>
  <dData1D:(new from dSpData1D) n=50526, refcount: 1>
refcount: 1>
new_DM -- step:     1
Initializing Density Matrix...
DM filled with atomic data:
<dSpData2D:DM initialized from atoms
  <sparsity:sparsity for geom step 0
    nrows_g=468 nrows=24 sparsity=.2307 nnzs=50526, refcount: 8>
  <dData2D:DM n=50526 m=1, refcount: 1>
refcount: 1>
No. of atoms with KB's overlaping orbs in proc 0. Max # of overlaps:     191     412
New grid distribution:   1
           1       1:   36    1:    9    1:   10
           2       1:   36    1:    9   11:   20
           3       1:   36    1:    9   21:   30
           4       1:   36    1:    9   31:   39
           5       1:   36    1:    9   40:   48
           6       1:   36   10:   18    1:   10
           7       1:   36   10:   18   11:   20
           8       1:   36   10:   18   21:   30
           9       1:   36   10:   18   31:   39
          10       1:   36   10:   18   40:   48
          11       1:   36   19:   27    1:   10
          12       1:   36   19:   27   11:   20
          13       1:   36   19:   27   21:   30
          14       1:   36   19:   27   31:   39
          15       1:   36   19:   27   40:   48
          16       1:   36   28:   36    1:   10
          17       1:   36   28:   36   11:   20
          18       1:   36   28:   36   21:   30
          19       1:   36   28:   36   31:   39
          20       1:   36   28:   36   40:   48

InitMesh: MESH =    72 x    72 x    96 =      497664
InitMesh: (bp) =    36 x    36 x    48 =       62208
InitMesh: Mesh cutoff (required, used) =   300.000   334.644 Ry
ExtMesh (bp) on 0 =   128 x   101 x   102 =     1318656
New grid distribution:   2
           1       1:   15   19:   36   37:   48
           2       1:   15    1:   18   13:   24
           3       1:   14    1:   18   25:   36
           4       1:   14    1:   18   37:   48
           5      15:   36    1:    9   32:   48
           6       1:   15    1:   18    1:   12
           7      16:   36   10:   18    8:   24
           8      15:   36    1:   18   25:   31
           9      16:   36    1:    9    8:   24
          10      15:   36   10:   18   32:   48
          11      16:   36   19:   36    1:    7
          12      16:   36   19:   27    8:   24
          13       1:   15   19:   36   25:   36
          14      16:   36    1:   18    1:    7
          15      16:   36   19:   27   32:   48
          16       1:   15   19:   36    1:   12
          17       1:   15   19:   36   13:   24
          18      16:   36   28:   36    8:   24
          19      16:   36   19:   36   25:   31
          20      16:   36   28:   36   32:   48
New grid distribution:   3
           1      16:   36   19:   36   25:   32
           2       1:   15    1:   18   13:   24
           3       1:   15    1:   18   25:   36
           4      16:   36   19:   36    1:    8
           5       1:   15   19:   36   37:   48
           6       1:   15    1:   18    1:   12
           7      16:   36   28:   36    9:   24
           8      16:   36   10:   18    9:   24
           9      16:   36    1:   18    1:    8
          10       1:   15    1:   18   37:   48
          11      16:   36   19:   27    9:   24
          12       1:   15   19:   36   13:   24
          13      16:   36    1:    9   33:   48
          14      16:   36    1:   18   25:   32
          15      16:   36   19:   27   33:   48
          16       1:   15   19:   36    1:   12
          17      16:   36   10:   18   33:   48
          18       1:   15   19:   36   25:   36
          19      16:   36    1:    9    9:   24
          20      16:   36   28:   36   33:   48
Setting up quadratic distribution...
ExtMesh (bp) on 0 =   107 x   110 x   104 =     1224080
PhiOnMesh: Number of (b)points on node 0 =                 3240
PhiOnMesh: nlist on node 0 =               743240

stepf: Fermi-Dirac step function

siesta: Program's energy decomposition (eV):
siesta: Ebs     =     -2062.888178
siesta: Eions   =      9434.507561
siesta: Ena     =      2224.318459
siesta: Ekin    =      4045.296837
siesta: Enl     =      -410.076683
siesta: Eso     =         0.000000
siesta: Edftu   =         0.000000
siesta: DEna    =      -292.022128
siesta: DUscf   =        30.157430
siesta: DUext   =         0.000000
siesta: Exc     =     -1735.902682
siesta: eta*DQ  =         0.000000
siesta: Emadel  =         0.000000
siesta: Emeta   =         0.000000
siesta: Emolmec =        -2.801932
siesta: Ekinion =         0.000000
siesta: Eharris =     -5478.280398
siesta: Etot    =     -5575.538260
siesta: FreeEng =     -5575.552857

        iscf     Eharris(eV)        E_KS(eV)     FreeEng(eV)     dDmax    Ef(eV) dHmax(eV)
   scf:    1    -5478.280398    -5575.538260    -5575.552857  1.821456 -7.872333  3.898544
timer: Routine,Calls,Time,% = IterSCF        1       7.463  69.21
   scf:    2    -5580.671989    -5578.174129    -5578.188123  0.073313 -7.248989  2.570733
   scf:    3    -5581.922721    -5580.369645    -5580.382470  0.128354 -6.075251  0.080988
   scf:    4    -5580.366805    -5580.368923    -5580.381801  0.005158 -6.139218  0.051210
   scf:    5    -5580.372647    -5580.371026    -5580.383884  0.005028 -6.130422  0.003047
   scf:    6    -5580.371027    -5580.371027    -5580.383885  0.000035 -6.130453  0.002758
   scf:    7    -5580.371033    -5580.371030    -5580.383887  0.000110 -6.129279  0.000273

SCF Convergence by FreeE+DM+H criterion
|FreeE_i-FreeE_(i-1)| (eV) <     0.00100000
max |DM_out - DM_in|         :     0.0001097437
max |H_out - H_in|      (eV) :     0.0002728951
SCF cycle converged after 7 iterations

Using DM_out to compute the final energy and forces
No. of atoms with KB's overlaping orbs in proc 0. Max # of overlaps:     191     412

MM-Stress (kbar):        3.64        3.64       13.41        0.00        0.00        0.00

siesta: E_KS(eV) =            -5580.3710

siesta: E_KS - E_eggbox =     -5580.3710

siesta: Atomic forces (eV/Ang):
     1   -0.000078    0.000045    0.000000
     2    0.000078   -0.000045    0.000000
     3   -0.000026    0.000001   -0.000000
     4    0.000026   -0.000000    0.000000
     5   -0.000065    0.000112    0.000000
     6    0.000065   -0.000112   -0.000000
     7   -0.000142    0.000022    0.000000
     8    0.000142   -0.000023    0.000000
     9    0.000062   -0.000063    0.000000
    10   -0.000062    0.000062    0.000000
    11    0.000070   -0.000022   -0.000000
    12   -0.000070    0.000023    0.000000
    13    0.000101   -0.000049    0.000000
    14   -0.000101    0.000050    0.000000
    15   -0.000078    0.000045    0.000000
    16    0.000078   -0.000044    0.000000
    17   -0.000078    0.000045    0.000000
    18    0.000078   -0.000045   -0.000000
    19    0.000087    0.000051    0.000000
    20   -0.000087   -0.000051    0.000000
    21   -0.000010   -0.000084   -0.000000
    22    0.000010    0.000085   -0.000000
    23    0.000156   -0.000101   -0.000000
    24   -0.000156    0.000101    0.000000
    25    0.000086    0.000036    0.000000
    26   -0.000086   -0.000037    0.000000
    27    0.000003   -0.000079    0.000000
    28   -0.000003    0.000078   -0.000000
    29    0.000144   -0.000093    0.000000
    30   -0.000144    0.000093    0.000000
    31    0.000086    0.000037    0.000000
    32   -0.000086   -0.000036    0.000000
    33    0.000003   -0.000078    0.000000
    34   -0.000003    0.000078   -0.000000
    35    0.000144   -0.000093   -0.000000
    36   -0.000144    0.000092    0.000000
----------------------------------------
   Tot   -0.000000    0.000001    0.000000
----------------------------------------
   Max    0.000156
   Res    0.000065    sqrt( Sum f_i^2 / 3N )
----------------------------------------
   Max    0.000156    constrained

Stress tensor Voigt[x,y,z,yz,xz,xy] (kbar):     -111.36     -111.45       18.98        0.00       -0.00       -0.08
(Free)E + p*V (eV/cell)    -5562.8765
Target enthalpy (eV/cell)    -5580.3839

siesta: Eigenvalues (eV):
  ik is       eps
   1  1  -25.1780  -25.1580  -24.5301  -24.5301  -24.5104  -24.5104  -22.6243  -22.6242  -22.6074  -22.6074
         -21.4004  -21.3851  -20.8388  -20.8388  -20.8251  -20.8251  -20.0214  -20.0141  -19.0102  -19.0041
  -18.7513  -18.7513  -18.7383  -18.7383  -16.7157  -16.7086  -15.6851  -15.6851  -15.6739  -15.6739
  -15.1237  -15.1158  -14.4092  -14.3995  -13.6551  -13.6551  -13.6466  -13.6466  -13.2817  -13.0886
  -13.0886  -13.0855  -13.0855  -12.9012  -12.6435  -12.6435  -12.6386  -12.6386  -12.5152  -12.5152
  -12.1490  -12.1490  -11.2594  -11.2594  -11.2570  -11.2570  -10.9488  -10.9478  -10.3205  -10.3205
  -10.2758  -10.2747  -10.0102  -10.0102   -8.9698   -8.7072   -8.6703   -8.6703   -8.4919   -8.4919
   -7.9427   -7.8305   -4.6996   -4.6064   -4.2252   -4.2252   -4.0606   -4.0606   -3.3599   -3.2695
   -1.7355   -1.7355   -1.6384   -1.6384   -1.5709   -0.6736   -0.6736    1.9950    1.9950    2.0251
    2.0251    2.0911    2.0911    2.1171    2.1389    2.1389    2.5319    2.5735    2.6123    2.6123
    2.7187    2.7188    2.7756    2.7756    2.8261    2.8261    3.7330    3.7332    3.7577    3.7730
    3.8552    3.9477    4.1406    4.1406    4.2535    4.2535    4.6884    4.7058    4.7058    5.2930
    5.2930    5.3112    5.3112    5.5488    5.6023    5.7124    5.7124    6.0443    6.3157    6.4356
    6.4356    6.5922    6.6852    6.8117    6.8117    6.8634    6.9146    6.9146    6.9374    7.0354
    7.0354    7.4629    7.5948    7.6151    7.7261    8.0260    8.0260    8.2811    8.7552    8.7553
    8.9271    8.9271    9.1224    9.1224    9.1844    9.1844    9.8361    9.9977   10.0236   10.0236
   10.3385   10.3386   10.6964   10.7521   10.9847   10.9847   10.9993   10.9993   11.5043   12.0217
   12.6098   12.6098   13.1169   13.1169   13.5150   13.5150   13.6249   13.6249   13.7398   13.9999
   13.9999   14.0231   14.0231   14.2479   14.5941   14.8843   15.0384   15.6957   15.6957   16.2390
   16.4272   16.4272   16.6911   17.1770   17.4274   17.4684   17.4684   17.5226   17.5509   17.5509
   18.0951   18.3460   18.3460   18.3509   18.4409   18.6985   18.6985   18.7930   18.9476   18.9476
   19.5754   19.5754   19.6950   19.6950   20.0594   20.1222   20.1222   20.1434   20.2751   20.4238
   20.4238   20.5130   20.5130   20.9623   21.0333   21.0333   21.5468   21.6845   21.6845   21.7572
   21.7572   21.7650   22.4620   22.4620   22.7320   22.7320   23.1057   23.1170   23.5591   23.5591
   23.9516   23.9516   24.4857   24.4857   25.0983   25.4294   25.6216   25.6216   27.6530   27.6530
   29.3878   29.3878   29.6444   29.7219   29.7219   30.6334   30.8116   31.2223   31.3456   31.9741
   31.9741   33.0058   33.0058   33.3648   33.5109   33.5110   34.0971   34.7139   34.7139   34.9222
   34.9222   35.8993   35.8993   36.3956   36.9695   36.9977   36.9977   37.5016   37.5477   37.5477
   38.2717   38.2717   39.6104   39.6483   40.7527   40.7527   41.6474   41.6600   41.6600   42.1373
   42.1373   42.6213   42.8033   42.8033   42.9770   42.9770   43.1425   43.2240   43.2240   43.5697
   43.8063   43.8063   44.0699   44.0699   44.4924   44.5925   44.6769   44.6769   45.0300   45.0416
   45.1445   45.1563   45.2096   45.2224   45.2224   45.6083   46.0169   46.0169   46.1891   46.1891
   46.4930   46.5547   46.5849   47.2149   47.2149   47.4159   47.4159   48.6020   48.6020   48.9738
   49.0646   49.2184   49.2184   49.3171   50.4122   50.4122   52.0449   52.0449   52.0664   52.0664
   52.1739   52.3772   52.4100   52.4100   52.7120   52.7120   53.0545   53.0545   53.8280   53.8280
   54.1031   54.1031   54.6319   55.6569   55.6569   55.8300   56.9085   57.0498   59.2540   59.8860
   59.9424   59.9424   60.0542   60.7793   60.7794   61.0220   61.1058   61.6226   61.6227   61.6407
   61.6407   61.7366   61.8829   61.9605   61.9605   63.2307   63.5346   63.5346   63.9617   65.2579
   65.2579   66.5817   66.5817   66.6287   66.6287   67.7256   67.7257   69.0326   69.0327   69.5994
   69.5994   69.6301   69.6301   70.0183   72.7239   72.7417   72.8655   73.6930   73.6930   73.7984
   73.7994   75.6727   75.6727   75.7691   75.7945   78.3550   78.3551   79.5913   79.5914   82.8475
   83.9050   83.9051   84.4020   85.4073   89.2138   90.0797   90.0798   91.4947   91.4947   92.0599
   92.0601   95.7002   97.8538   97.8539   98.0169   98.0170   98.9494   98.9495   99.6361  100.4937
  102.1984  103.4280  103.4286  104.4484  104.6739  105.0166  106.5060  106.5061  107.2615  107.2616
  108.3934  108.3939  108.6645  108.8690  108.8692  111.5126  111.5130  112.5415  112.5418  113.9827
  113.9830  114.2093  114.5854  114.5863  114.6330  114.6335  115.9315  116.1171  116.1179  116.6482
  116.9391  117.2647  118.5785  118.5787  121.1536  123.5806  123.8696  124.6348
   2  1  -25.5002  -25.4833  -24.2080  -24.1886  -23.5685  -23.5685  -23.5503  -23.5502  -22.3131  -22.3131
         -22.2967  -22.2966  -21.7029  -21.6874  -19.9831  -19.9830  -19.9703  -19.9702  -18.1289  -18.1288
  -18.1187  -18.1186  -17.9151  -17.9005  -16.8194  -16.8192  -16.8045  -16.8044  -15.8288  -15.8286
  -15.8182  -15.8180  -14.7057  -14.7054  -14.6932  -14.6930  -13.6698  -13.6306  -13.6201  -13.2830
  -12.7640  -12.7636  -12.7613  -12.7609  -12.4492  -12.4481  -12.1391  -12.1357  -12.1354  -12.1333
  -12.1330  -11.7811  -11.3982  -11.3982  -11.2571  -11.2544  -11.0579  -11.0579  -10.0111  -10.0111
   -9.9254   -9.9234   -9.7196   -9.7196   -9.6129   -9.6097   -9.4296   -9.1797   -7.5617   -7.5617
   -7.3866   -7.3866   -4.8724   -4.8724   -4.7873   -4.7873   -3.4191   -3.2346   -2.4670   -2.4669
   -2.3094   -2.3094   -1.8273   -0.2107   -0.2107   -0.1988   -0.1075   -0.1075    0.8955    0.8956
    1.1165    1.1939    1.4443    1.4867    1.7817    1.9803    2.0421    2.2121    2.2314    2.2372
    2.2374    2.2748    2.2750    2.5175    2.5178    2.5901    2.5904    2.8222    2.8250    3.1852
    3.1852    3.2303    3.8678    3.8678    4.2280    4.7545    4.7630    5.2345    5.2605    5.2605
    5.9814    5.9815    6.0912    6.1096    6.1096    6.2505    6.2505    6.7185    6.7185    6.8181
    6.8711    6.8811    6.9657    6.9657    7.2525    7.2603    7.2950    7.2952    7.5047    7.5050
    7.5319    7.5319    7.7764    7.7764    8.5884    8.5885    8.7524    8.7525    8.8484    9.1024
    9.2869    9.3212    9.3212    9.7527    9.7530    9.9009   10.2203   10.3148   10.3152   10.5476
   10.5476   10.5796   10.8847   10.8848   11.1103   11.1103   11.1621   11.1621   11.2026   11.4521
   11.4521   11.4528   12.2292   12.2296   12.6988   12.7057   12.9967   12.9968   13.3720   13.5277
   13.5279   13.7283   13.7283   15.0185   15.0186   15.1532   15.1532   15.4993   15.4994   16.5039
   16.5039   16.6549   16.6549   16.8167   16.8167   16.9537   17.1256   17.1712   17.1718   17.5013
   17.5015   18.1877   18.1877   18.3835   18.3839   18.4578   18.4579   18.6495   18.7890   18.9071
   18.9072   19.1788   19.2459   19.2460   19.3261   19.3268   19.4905   19.5863   20.3767   20.5823
   20.5823   20.8034   20.8034   20.8604   20.8610   20.9853   20.9854   21.0484   21.1520   21.4492
   21.4672   21.9149   22.6822   22.6823   22.7478   22.7480   24.1819   24.1820   24.6958   24.6962
   25.0285   25.2046   25.3475   25.3475   25.5091   25.6750   25.7799   27.3330   27.5608   28.1159
   28.3555   29.2338   29.2339   29.3606   29.3607   29.5877   29.5877   30.0575   30.5258   30.5260
   32.4686   33.4787   33.4793   33.6671   33.6676   34.1774   35.3443   35.3444   35.6789   36.0337
   37.0434   38.0440   38.1473   38.6289   38.6290   38.7583   38.7584   38.7879   38.7890   39.0261
   39.0278   39.0279   39.2287   39.2299   39.6877   39.6877   40.7802   40.7814   40.9752   40.9763
   41.1347   41.5002   41.5590   41.7204   41.8772   42.1346   42.7686   42.7945   42.8390   44.0440
   44.0643   44.0643   44.7869   44.8022   44.8022   44.8929   44.8936   45.0995   45.3005   45.3005
   45.5031   45.5031   45.8208   45.8208   45.9046   45.9353   46.0094   46.1558   46.1635   46.7866
   46.7867   47.1350   47.1363   47.2233   47.2234   47.3525   47.4530   47.5890   47.5891   48.1924
   48.1924   48.2006   48.2007   48.7379   48.7382   50.0671   50.1190   50.1192   50.4349   50.4351
   50.9445   50.9447   51.0014   51.0329   52.0103   52.0105   52.4774   53.2073   53.4219   53.8086
   54.3704   54.4411   55.1533   55.1535   55.9776   57.5624   57.5624   57.8698   57.8701   58.4827
   58.4828   59.7513   59.7514   59.7841   59.7843   60.1793   60.5492   60.5493   60.8769   60.8769
   61.6353   62.4929   62.4932   62.8059   63.2061   63.2069   63.4892   63.7515   64.9053   64.9066
   65.1247   65.8645   65.8647   65.9067   65.9070   65.9793   66.2218   66.2732   67.6094   67.6101
   68.1903   68.1911   68.4446   70.2292   70.5903   70.6777   70.7357   71.7991   72.0497   72.0527
   73.7598   74.5183   75.0183   76.4253   76.4254   76.4298   76.4299   77.8164   77.8169   79.6496
   79.6505   80.3620   82.4293   86.7109   88.8267   92.6566   92.6592   93.0922   93.5730   94.5064
   94.5081   96.7015   97.0447   97.0478   98.9211   98.9241  100.9517  100.9518  103.5246  103.5250
  104.0163  106.6522  106.6527  106.7986  107.4188  107.4198  107.6890  107.6898  107.7268  107.7276
  108.7201  110.7121  110.7127  110.7234  110.7240  111.0392  111.4328  111.4340  111.7412  111.8410
  111.8441  113.7230  114.8468  115.0576  115.0599  115.5456  115.5477  116.0851  116.0876  116.4722
  122.0664  127.5232  128.4391  128.4402  134.9151  134.9173  137.7359  137.7377
   3  1  -25.5002  -25.4833  -24.2080  -24.1886  -23.5685  -23.5685  -23.5503  -23.5503  -22.3131  -22.3131
         -22.2967  -22.2967  -21.7029  -21.6873  -19.9830  -19.9830  -19.9702  -19.9702  -18.1289  -18.1289
  -18.1187  -18.1187  -17.9150  -17.9003  -16.8194  -16.8194  -16.8045  -16.8045  -15.8286  -15.8286
  -15.8181  -15.8181  -14.7057  -14.7057  -14.6932  -14.6932  -13.6698  -13.6303  -13.6199  -13.2830
  -12.7636  -12.7636  -12.7609  -12.7609  -12.4496  -12.4485  -12.1391  -12.1354  -12.1354  -12.1330
  -12.1330  -11.7811  -11.3982  -11.3982  -11.2575  -11.2548  -11.0579  -11.0579  -10.0111  -10.0111
   -9.9250   -9.9230   -9.7196   -9.7196   -9.6133   -9.6101   -9.4296   -9.1797   -7.5617   -7.5617
   -7.3866   -7.3866   -4.8724   -4.8724   -4.7873   -4.7873   -3.4190   -3.2346   -2.4670   -2.4670
   -2.3094   -2.3094   -1.8273   -0.2107   -0.2107   -0.1988   -0.1075   -0.1075    0.8955    0.8955
    1.1165    1.1939    1.4445    1.4869    1.7817    1.9807    2.0425    2.2126    2.2319    2.2371
    2.2371    2.2748    2.2748    2.5176    2.5176    2.5902    2.5902    2.8217    2.8245    3.1852
    3.1852    3.2303    3.8678    3.8678    4.2281    4.7545    4.7630    5.2345    5.2605    5.2605
    5.9814    5.9814    6.0912    6.1096    6.1096    6.2504    6.2504    6.7186    6.7186    6.8181
    6.8711    6.8811    6.9657    6.9657    7.2518    7.2596    7.2952    7.2952    7.5051    7.5051
    7.5317    7.5317    7.7766    7.7766    8.5884    8.5884    8.7522    8.7522    8.8487    9.1027
    9.2873    9.3211    9.3211    9.7527    9.7527    9.9011   10.2203   10.3151   10.3151   10.5476
   10.5476   10.5796   10.8846   10.8846   11.1103   11.1103   11.1620   11.1620   11.2026   11.4521
   11.4521   11.4533   12.2300   12.2300   12.6978   12.7047   12.9971   12.9971   13.3720   13.5279
   13.5279   13.7283   13.7283   15.0186   15.0186   15.1532   15.1532   15.4996   15.4996   16.5039
   16.5039   16.6549   16.6549   16.8167   16.8167   16.9537   17.1263   17.1712   17.1712   17.5012
   17.5012   18.1877   18.1877   18.3834   18.3834   18.4578   18.4578   18.6494   18.7898   18.9071
   18.9071   19.1787   19.2460   19.2460   19.3261   19.3261   19.4905   19.5867   20.3768   20.5823
   20.5823   20.8034   20.8034   20.8601   20.8601   20.9854   20.9854   21.0483   21.1521   21.4491
   21.4679   21.9149   22.6822   22.6822   22.7480   22.7480   24.1818   24.1818   24.6962   24.6962
   25.0284   25.2045   25.3472   25.3472   25.5092   25.6752   25.7800   27.3337   27.5606   28.1167
   28.3558   29.2339   29.2339   29.3607   29.3607   29.5877   29.5877   30.0573   30.5257   30.5257
   32.4685   33.4785   33.4786   33.6672   33.6672   34.1775   35.3444   35.3444   35.6789   36.0334
   37.0434   38.0440   38.1461   38.6289   38.6289   38.7583   38.7583   38.7888   38.7888   39.0250
   39.0278   39.0278   39.2297   39.2297   39.6877   39.6877   40.7815   40.7816   40.9765   40.9765
   41.1349   41.5003   41.5590   41.7205   41.8758   42.1333   42.7684   42.7945   42.8388   44.0447
   44.0644   44.0644   44.7878   44.8021   44.8021   44.8933   44.8933   45.0988   45.3005   45.3005
   45.5030   45.5030   45.8208   45.8208   45.9062   45.9337   46.0096   46.1563   46.1618   46.7866
   46.7866   47.1356   47.1356   47.2231   47.2231   47.3539   47.4532   47.5889   47.5889   48.1923
   48.1923   48.2006   48.2006   48.7376   48.7376   50.0670   50.1190   50.1190   50.4349   50.4349
   50.9446   50.9446   51.0019   51.0330   52.0103   52.0104   52.4791   53.2075   53.4222   53.8088
   54.3701   54.4408   55.1533   55.1533   55.9780   57.5625   57.5625   57.8698   57.8698   58.4827
   58.4827   59.7515   59.7515   59.7844   59.7844   60.1798   60.5493   60.5493   60.8770   60.8770
   61.6353   62.4927   62.4927   62.8042   63.2064   63.2064   63.4875   63.7522   64.9065   64.9066
   65.1257   65.8647   65.8647   65.9070   65.9070   65.9802   66.2214   66.2729   67.6111   67.6112
   68.1923   68.1924   68.4446   70.2262   70.5873   70.6745   70.7326   71.8023   72.0512   72.0513
   73.7621   74.5188   75.0205   76.4254   76.4254   76.4299   76.4299   77.8172   77.8173   79.6484
   79.6485   80.3628   82.4274   86.7093   88.8291   92.6562   92.6562   93.0933   93.5745   94.5059
   94.5060   96.7036   97.0454   97.0455   98.9215   98.9215  100.9526  100.9527  103.5244  103.5245
  104.0186  106.6519  106.6520  106.7951  107.4202  107.4203  107.6897  107.6899  107.7267  107.7268
  108.7212  110.7146  110.7149  110.7224  110.7225  111.0399  111.4337  111.4341  111.7368  111.8425
  111.8431  113.7185  114.8478  115.0614  115.0619  115.5465  115.5466  116.0876  116.0881  116.4686
  122.0668  127.5235  128.4397  128.4400  134.9156  134.9171  137.7365  137.7381
   4  1  -25.1780  -25.1580  -24.5301  -24.5301  -24.5104  -24.5104  -22.6243  -22.6243  -22.6074  -22.6074
         -21.4003  -21.3851  -20.8388  -20.8387  -20.8251  -20.8251  -20.0214  -20.0142  -19.0104  -19.0042
  -18.7513  -18.7512  -18.7383  -18.7382  -16.7157  -16.7085  -15.6852  -15.6852  -15.6741  -15.6741
  -15.1238  -15.1159  -14.4089  -14.3993  -13.6549  -13.6548  -13.6464  -13.6463  -13.2817  -13.0889
  -13.0886  -13.0858  -13.0855  -12.9012  -12.6435  -12.6433  -12.6386  -12.6384  -12.5152  -12.5152
  -12.1490  -12.1490  -11.2597  -11.2593  -11.2572  -11.2569  -10.9485  -10.9476  -10.3205  -10.3205
  -10.2762  -10.2750  -10.0102  -10.0102   -8.9698   -8.7072   -8.6703   -8.6703   -8.4919   -8.4919
   -7.9427   -7.8305   -4.6996   -4.6064   -4.2252   -4.2252   -4.0606   -4.0606   -3.3599   -3.2694
   -1.7356   -1.7355   -1.6384   -1.6384   -1.5709   -0.6736   -0.6736    1.9950    1.9950    2.0251
    2.0251    2.0911    2.0913    2.1171    2.1389    2.1391    2.5322    2.5739    2.6123    2.6123
    2.7188    2.7191    2.7756    2.7759    2.8261    2.8261    3.7326    3.7328    3.7577    3.7730
    3.8551    3.9477    4.1405    4.1406    4.2533    4.2535    4.6885    4.7058    4.7058    5.2926
    5.2931    5.3107    5.3113    5.5488    5.6023    5.7125    5.7125    6.0441    6.3155    6.4356
    6.4356    6.5921    6.6851    6.8118    6.8119    6.8633    6.9146    6.9146    6.9374    7.0355
    7.0356    7.4628    7.5949    7.6151    7.7261    8.0259    8.0262    8.2811    8.7552    8.7552
    8.9271    8.9271    9.1223    9.1224    9.1843    9.1845    9.8363    9.9976   10.0236   10.0236
   10.3386   10.3388   10.6961   10.7521   10.9844   10.9848   10.9993   10.9993   11.5044   12.0217
   12.6098   12.6098   13.1169   13.1172   13.5141   13.5150   13.6248   13.6250   13.7404   13.9999
   13.9999   14.0225   14.0235   14.2480   14.5947   14.8843   15.0386   15.6957   15.6957   16.2390
   16.4272   16.4272   16.6914   17.1774   17.4274   17.4684   17.4692   17.5225   17.5504   17.5504
   18.0947   18.3459   18.3467   18.3504   18.4409   18.6985   18.6985   18.7932   18.9472   18.9477
   19.5754   19.5754   19.6950   19.6950   20.0594   20.1222   20.1222   20.1434   20.2750   20.4235
   20.4235   20.5130   20.5130   20.9626   21.0330   21.0336   21.5468   21.6841   21.6848   21.7573
   21.7573   21.7653   22.4620   22.4622   22.7320   22.7320   23.1057   23.1169   23.5590   23.5591
   23.9518   23.9519   24.4857   24.4857   25.0983   25.4294   25.6215   25.6216   27.6529   27.6530
   29.3877   29.3877   29.6444   29.7219   29.7219   30.6334   30.8116   31.2223   31.3456   31.9740
   31.9746   33.0057   33.0063   33.3647   33.5107   33.5108   34.0970   34.7139   34.7139   34.9223
   34.9223   35.8993   35.8994   36.3956   36.9694   36.9977   36.9977   37.5017   37.5468   37.5476
   38.2707   38.2716   39.6104   39.6483   40.7526   40.7526   41.6475   41.6607   41.6610   42.1375
   42.1381   42.6214   42.8021   42.8030   42.9755   42.9767   43.1426   43.2240   43.2241   43.5696
   43.8069   43.8070   44.0706   44.0710   44.4928   44.5935   44.6769   44.6770   45.0295   45.0408
   45.1441   45.1550   45.2092   45.2219   45.2225   45.6083   46.0168   46.0171   46.1890   46.1890
   46.4930   46.5546   46.5848   47.2148   47.2149   47.4159   47.4159   48.6019   48.6020   48.9736
   49.0645   49.2183   49.2185   49.3171   50.4126   50.4132   52.0448   52.0449   52.0662   52.0665
   52.1741   52.3773   52.4100   52.4102   52.7120   52.7121   53.0544   53.0547   53.8280   53.8282
   54.1031   54.1032   54.6318   55.6569   55.6569   55.8299   56.9085   57.0498   59.2543   59.8863
   59.9421   59.9423   60.0542   60.7792   60.7796   61.0222   61.1064   61.6218   61.6226   61.6401
   61.6403   61.7368   61.8831   61.9596   61.9605   63.2305   63.5349   63.5353   63.9617   65.2580
   65.2586   66.5818   66.5819   66.6288   66.6289   67.7257   67.7262   69.0325   69.0346   69.5991
   69.5994   69.6298   69.6301   70.0158   72.7238   72.7416   72.8639   73.6898   73.6917   73.7986
   73.7996   75.6728   75.6729   75.7719   75.7973   78.3557   78.3571   79.5886   79.5910   82.8480
   83.9041   83.9072   84.4023   85.4082   89.2141   90.0801   90.0819   91.4941   91.4950   92.0601
   92.0610   95.6973   97.8506   97.8515   98.0172   98.0197   98.9464   98.9472   99.6334  100.4936
  102.1984  103.4277  103.4300  104.4497  104.6716  105.0174  106.5060  106.5086  107.2611  107.2617
  108.3936  108.3956  108.6625  108.8688  108.8691  111.5128  111.5129  112.5384  112.5408  113.9789
  113.9825  114.2089  114.5874  114.5892  114.6329  114.6331  115.9318  116.1194  116.1208  116.6488
  116.9409  117.2674  118.5782  118.5789  121.1542  123.5794  123.8708  124.6339
   5  1  -25.5002  -25.4833  -24.2080  -24.1886  -23.5685  -23.5685  -23.5503  -23.5502  -22.3131  -22.3131
         -22.2967  -22.2966  -21.7029  -21.6874  -19.9831  -19.9830  -19.9703  -19.9702  -18.1289  -18.1288
  -18.1187  -18.1186  -17.9151  -17.9005  -16.8194  -16.8192  -16.8045  -16.8044  -15.8288  -15.8286
  -15.8182  -15.8180  -14.7057  -14.7054  -14.6932  -14.6930  -13.6698  -13.6306  -13.6201  -13.2830
  -12.7640  -12.7636  -12.7613  -12.7609  -12.4492  -12.4481  -12.1391  -12.1357  -12.1354  -12.1333
  -12.1330  -11.7811  -11.3982  -11.3982  -11.2571  -11.2544  -11.0579  -11.0579  -10.0111  -10.0111
   -9.9254   -9.9234   -9.7196   -9.7196   -9.6129   -9.6097   -9.4296   -9.1797   -7.5617   -7.5617
   -7.3866   -7.3866   -4.8724   -4.8724   -4.7873   -4.7873   -3.4191   -3.2346   -2.4670   -2.4669
   -2.3094   -2.3094   -1.8273   -0.2107   -0.2107   -0.1988   -0.1075   -0.1075    0.8955    0.8956
    1.1165    1.1939    1.4443    1.4867    1.7817    1.9803    2.0421    2.2121    2.2314    2.2372
    2.2374    2.2748    2.2750    2.5175    2.5178    2.5901    2.5904    2.8222    2.8250    3.1852
    3.1852    3.2303    3.8678    3.8678    4.2280    4.7545    4.7630    5.2345    5.2605    5.2605
    5.9814    5.9815    6.0912    6.1096    6.1096    6.2505    6.2505    6.7185    6.7185    6.8181
    6.8711    6.8811    6.9657    6.9657    7.2525    7.2603    7.2950    7.2952    7.5047    7.5050
    7.5319    7.5319    7.7764    7.7764    8.5884    8.5885    8.7524    8.7525    8.8484    9.1024
    9.2869    9.3212    9.3212    9.7527    9.7530    9.9009   10.2203   10.3148   10.3152   10.5476
   10.5476   10.5796   10.8847   10.8848   11.1103   11.1103   11.1621   11.1621   11.2026   11.4521
   11.4521   11.4528   12.2292   12.2296   12.6988   12.7057   12.9967   12.9968   13.3720   13.5277
   13.5279   13.7283   13.7283   15.0185   15.0186   15.1532   15.1532   15.4993   15.4994   16.5039
   16.5039   16.6549   16.6549   16.8167   16.8167   16.9537   17.1256   17.1712   17.1718   17.5013
   17.5015   18.1877   18.1877   18.3835   18.3839   18.4578   18.4579   18.6495   18.7890   18.9071
   18.9072   19.1788   19.2459   19.2460   19.3261   19.3268   19.4905   19.5863   20.3767   20.5823
   20.5823   20.8034   20.8034   20.8604   20.8610   20.9853   20.9854   21.0484   21.1520   21.4492
   21.4672   21.9149   22.6822   22.6823   22.7478   22.7480   24.1819   24.1820   24.6958   24.6962
   25.0285   25.2046   25.3475   25.3475   25.5091   25.6750   25.7799   27.3330   27.5608   28.1159
   28.3555   29.2338   29.2339   29.3606   29.3607   29.5877   29.5877   30.0575   30.5258   30.5260
   32.4686   33.4787   33.4793   33.6671   33.6676   34.1774   35.3443   35.3444   35.6789   36.0337
   37.0434   38.0440   38.1473   38.6289   38.6290   38.7583   38.7584   38.7879   38.7891   39.0261
   39.0278   39.0279   39.2287   39.2299   39.6877   39.6877   40.7802   40.7814   40.9752   40.9763
   41.1347   41.5002   41.5589   41.7204   41.8772   42.1346   42.7686   42.7945   42.8390   44.0439
   44.0643   44.0643   44.7869   44.8022   44.8022   44.8929   44.8936   45.0995   45.3005   45.3005
   45.5031   45.5031   45.8208   45.8208   45.9046   45.9352   46.0094   46.1558   46.1634   46.7866
   46.7867   47.1350   47.1363   47.2233   47.2234   47.3525   47.4530   47.5890   47.5891   48.1924
   48.1924   48.2006   48.2007   48.7380   48.7382   50.0671   50.1190   50.1192   50.4349   50.4351
   50.9445   50.9447   51.0014   51.0329   52.0103   52.0105   52.4774   53.2073   53.4219   53.8086
   54.3704   54.4411   55.1533   55.1535   55.9775   57.5624   57.5624   57.8698   57.8701   58.4827
   58.4828   59.7513   59.7514   59.7841   59.7843   60.1794   60.5492   60.5493   60.8769   60.8769
   61.6353   62.4929   62.4932   62.8058   63.2061   63.2069   63.4891   63.7515   64.9052   64.9067
   65.1247   65.8645   65.8647   65.9067   65.9070   65.9793   66.2218   66.2732   67.6093   67.6101
   68.1902   68.1911   68.4446   70.2292   70.5903   70.6777   70.7357   71.7991   72.0497   72.0528
   73.7598   74.5182   75.0183   76.4253   76.4254   76.4298   76.4299   77.8164   77.8169   79.6497
   79.6506   80.3621   82.4289   86.7105   88.8267   92.6566   92.6592   93.0922   93.5729   94.5064
   94.5081   96.7014   97.0448   97.0478   98.9211   98.9241  100.9515  100.9518  103.5247  103.5250
  104.0164  106.6523  106.6527  106.7980  107.4188  107.4199  107.6892  107.6901  107.7268  107.7276
  108.7201  110.7124  110.7133  110.7233  110.7239  111.0391  111.4326  111.4341  111.7408  111.8407
  111.8445  113.7226  114.8468  115.0580  115.0607  115.5456  115.5478  116.0850  116.0880  116.4715
  122.0664  127.5232  128.4390  128.4403  134.9155  134.9170  137.7361  137.7373
   6  1  -25.6545  -25.6455  -23.0932  -23.0932  -23.0932  -23.0932  -23.0932  -23.0932  -23.0757  -23.0757
         -23.0757  -23.0757  -23.0757  -23.0756  -18.7733  -18.7733  -18.7659  -18.7659  -18.7659  -18.7659
  -18.7590  -18.7590  -16.7092  -16.7092  -16.7092  -16.7092  -15.8244  -15.8243  -15.8243  -15.8243
  -15.8242  -15.8242  -15.8093  -15.8093  -15.8093  -15.8093  -15.8091  -15.8091  -13.8649  -13.4751
  -11.9818  -11.9818  -11.9814  -11.9814  -11.9814  -11.9814  -11.9801  -11.9801  -11.9797  -11.9797
  -11.9797  -11.9797  -10.8675  -10.8675  -10.8675  -10.8675  -10.8675  -10.8675  -10.5445  -10.5445
  -10.5445  -10.5445  -10.5445  -10.5445   -9.2811   -9.2805   -9.2795   -9.2789   -6.2328   -6.2328
   -6.1292   -6.1292   -6.1292   -6.1292   -6.0246   -6.0246   -1.7320   -1.2609   -1.2609   -1.2609
   -1.2609   -1.2609   -1.2609   -1.1115   -1.1115   -1.1115   -1.1115   -1.1115   -1.1115    1.5046
    1.5046    1.5046    1.5046    1.5048    1.5048    1.6151    1.6830    1.6830    1.6830    1.6830
    1.6833    1.6833    1.9315    1.9315    1.9315    1.9315    1.9316    1.9316    2.1243    2.1249
    2.1250    2.1256    4.4785    4.4785    4.4785    4.4785    4.4785    4.4785    5.1049    5.2926
    5.2988    6.0998    6.0998    6.0998    6.0998    6.5671    6.5696    6.9403    6.9403    7.3307
    7.3307    7.3309    7.3309    8.0821    8.0821    8.1407    8.1407    8.1407    8.1407    8.1408
    8.1408    9.2759    9.2759    9.2761    9.2761    9.9007    9.9007    9.9007    9.9007    9.9011
    9.9011   10.1260   10.1260   10.1268   10.1268   10.1268   10.1269   10.1355   10.1356   10.1364
   10.1364   10.1364   10.1364   10.4803   10.6967   10.6967   10.6968   10.6968   10.6972   10.6973
   11.3716   11.3716   11.3716   11.3716   11.3716   11.3716   11.7146   11.7146   12.9882   12.9882
   14.7328   14.7328   14.7328   14.7328   15.2072   15.2072   15.2072   15.2072   15.2072   15.2072
   15.3922   15.3922   15.3922   15.3922   16.9263   16.9263   17.4609   17.4609   17.4609   17.4609
   17.4613   17.4614   18.6459   18.6459   18.6460   18.6460   19.0638   19.0638   19.0638   19.0638
   19.0639   19.0639   19.5623   19.5623   19.5624   19.5624   19.5624   19.5624   20.0313   20.0419
   20.0419   20.0420   20.0420   20.0420   20.0420   20.1788   20.1788   20.1788   20.1788   20.1795
   20.1795   20.5145   20.5145   20.7189   26.0654   26.0655   26.1351   26.1352   26.2997   26.2998
   26.2998   26.2998   26.3003   26.3003   28.2842   28.2842   28.2842   28.2842   28.2849   28.2849
   28.6317   28.6317   28.6317   28.6317   29.4685   29.4685   29.4686   29.4686   29.4686   29.4686
   32.4868   32.4868   32.4871   32.4871   32.4871   32.4871   36.3313   36.3313   36.3313   36.3313
   36.3314   36.3314   37.1180   37.1180   37.1180   37.1180   37.1181   37.1181   39.6958   39.6958
   39.6970   39.6970   39.6971   39.6971   40.1748   40.1748   40.1760   40.1760   40.1760   40.1760
   40.7114   40.7116   40.8068   40.8071   41.7452   41.7452   42.0836   42.0836   42.0836   42.0836
   42.1553   42.1553   42.1553   42.1554   42.1554   42.1554   43.1477   43.1477   45.1065   45.1065
   45.1065   45.1065   45.1070   45.1070   46.6701   46.6725   46.8816   46.8840   48.4945   48.4945
   48.4945   48.4945   48.4953   48.4954   49.9071   49.9071   49.9071   49.9071   49.9073   49.9073
   50.4303   50.4303   51.0621   51.0621   51.0621   51.0621   51.0623   51.0623   51.6013   51.6013
   51.6015   51.6015   52.5421   52.5421   52.9321   52.9326   53.7992   53.7992   53.7992   53.7992
   53.7995   53.7995   56.4284   56.4289   57.0211   57.6538   58.8140   58.8140   58.8779   58.8779
   58.8780   58.8780   59.0274   59.0274   61.0653   61.0653   61.0656   61.0656   61.0657   61.0657
   61.1374   61.1374   61.1377   61.1377   61.1377   61.1378   63.6837   63.8856   63.8856   63.8856
   63.8856   63.8864   63.8864   67.0775   67.0776   67.0798   67.0799   67.0799   67.0800   67.2001
   67.2001   67.2024   67.2025   67.2025   67.2026   70.3827   70.3869   70.4512   70.4551   70.4715
   71.2078   71.2097   73.5203   73.5217   74.8191   74.8191   74.8192   74.8192   74.8202   74.8202
   78.1706   78.1706   78.1706   78.1706   94.5639   94.5640   94.5640   94.5640   94.5663   94.5664
   96.0441   96.0441   96.0441   96.0442   96.0469   96.0469  104.7340  104.7341  104.7341  104.7342
  104.7345  104.7346  108.5906  108.5906  108.5908  108.5908  109.5601  109.5601  109.5634  109.5636
  109.5639  109.5642  110.9640  110.9640  110.9640  110.9641  110.9648  110.9650  114.2708  114.2710
  115.4435  115.4436  115.4471  115.4473  115.4476  115.4480  121.0725  121.0726  121.0728  121.0729
  125.5709  132.0250  137.0122  137.0125  163.1006  163.1007  163.1029  163.1030
   7  1  -25.0159  -25.0159  -24.9957  -24.9957  -23.7279  -23.7279  -23.7095  -23.7095  -21.2536  -21.2536
         -21.2535  -21.2535  -21.2386  -21.2386  -21.2385  -21.2385  -20.4406  -20.4331  -19.4109  -19.4044
  -17.5868  -17.5868  -17.5866  -17.5866  -17.5734  -17.5734  -17.5733  -17.5733  -14.2263  -14.2263
  -14.2261  -14.2261  -14.2171  -14.2171  -14.2168  -14.2168  -13.9653  -13.9653  -13.9606  -13.9606
  -13.0889  -13.0889  -12.7118  -12.7118  -12.6098  -12.6089  -12.6071  -12.6071  -12.5996  -12.5996
  -11.5777  -11.5777  -11.5459  -11.5459  -11.5436  -11.5436  -11.2319  -11.2319  -10.3910  -10.3910
  -10.3873  -10.3873   -8.8798   -8.8798   -8.8798   -8.8798   -8.6374   -8.6374   -8.6374   -8.6374
   -8.5386   -8.4236   -4.4915   -4.3224   -3.6651   -3.6651   -3.6651   -3.6651   -3.5359   -3.5359
   -3.5359   -3.5359   -1.3816   -1.3816    0.2533    0.2533    0.3160    0.3160    0.6744    0.6744
    1.3627    1.4092    2.2109    2.2109    2.2557    2.2557    2.2677    2.2677    3.2733    3.2733
    3.3248    3.3248    3.6095    3.6095    3.8981    3.8981    3.9344    3.9344    3.9344    3.9344
    3.9864    3.9864    4.0109    4.0109    4.0109    4.0109    4.6771    4.6771    4.6824    4.6824
    5.0126    5.0126    5.0127    5.0127    5.4650    5.4650    5.4841    5.4841    5.7954    5.7954
    5.9654    5.9654    5.9654    5.9654    6.5927    7.2018    7.4612    7.4612    7.7789    7.8116
    7.8116    7.8593    7.8594    7.9730    7.9730    7.9730    7.9730    8.3348    8.7097    8.7097
    8.7097    8.7097    9.0290    9.0291    9.0292    9.0292   10.1089   10.1089   10.1091   10.1091
   10.7949   10.8471   10.8471   10.8647   10.8647   11.2455   11.3112   11.3112   11.4092   11.4092
   12.1264   12.1264   12.1264   12.1264   13.2679   13.3499   13.3500   13.3504   13.3504   13.8447
   13.8457   14.9583   14.9583   14.9585   14.9585   15.4500   15.4500   15.4500   15.4500   16.1865
   16.8495   16.8495   17.3875   17.4870   17.4870   17.4875   17.4875   17.7395   17.7395   17.7400
   17.7400   17.8985   17.8985   18.1751   18.3428   18.3583   18.3583   18.3583   18.3583   18.8891
   18.9710   18.9710   18.9711   18.9711   19.8831   19.8831   20.3161   20.3161   20.9729   20.9729
   20.9729   20.9729   21.0648   21.0648   21.0649   21.0649   21.1034   21.1034   21.8164   21.8164
   22.3379   22.3379   22.3535   22.3535   22.9956   22.9956   23.2944   23.2944   23.4557   23.4557
   24.2158   24.2158   24.4018   24.4018   24.5391   24.5391   26.7584   27.6634   27.9838   27.9838
   28.1172   28.1172   28.1474   29.0153   30.4599   30.4599   30.4600   30.4600   31.2653   31.2653
   32.0897   32.0897   32.0897   32.0897   33.9699   33.9699   34.2178   34.9357   36.2688   36.2688
   36.2688   36.2688   37.4014   37.4014   37.5773   38.0169   38.0169   38.0170   38.0170   38.3456
   38.3456   38.6893   40.1033   40.1033   41.3963   41.3963   41.7014   41.7014   41.7020   41.7020
   42.6852   42.6852   42.7059   42.7059   42.7318   42.7318   42.8361   42.8361   42.8364   42.8364
   43.4958   43.4958   43.7873   43.7873   44.1127   44.1127   44.2399   44.2399   44.3824   44.3824
   44.4045   44.4045   44.5507   44.5507   44.8834   44.8834   45.4263   45.6194   47.3955   47.3955
   47.8241   47.8241   47.8775   47.8775   48.1975   48.1975   48.1976   48.1976   48.2122   48.2122
   48.7543   48.7543   48.7543   48.7543   48.9074   48.9074   48.9076   48.9077   49.9412   49.9412
   49.9414   49.9414   51.9105   51.9105   53.2401   54.0255   54.2216   54.2216   54.6081   54.7511
   55.8388   55.8388   55.8389   55.8389   57.2393   57.2394   57.2396   57.2396   58.7109   58.7109
   59.7724   59.7724   59.9367   59.9367   61.0548   61.3273   61.3273   61.3275   61.3275   61.4423
   61.4423   61.9176   61.9176   61.9510   62.2505   62.2505   63.0252   63.0252   63.0257   63.0257
   66.3805   66.3805   66.7269   66.7416   66.7416   68.1831   68.2131   70.9777   71.0988   71.0988
   71.2292   71.2292   71.8046   71.8046   71.8048   71.8048   71.8201   71.8201   71.8203   71.8203
   74.0370   74.0370   77.6097   77.6097   77.6101   77.6101   77.9202   77.9203   81.1974   81.1974
   86.3152   88.7589   88.7590   88.7592   88.7592   89.2705   89.2706   89.2799   89.2800   89.6764
   89.6764   92.4385   92.4386   95.9538   98.7685   98.7686  103.3173  103.3173  103.3202  103.3202
  103.7094  103.7095  103.7121  103.7121  104.4047  104.4047  106.1195  106.1195  107.0844  107.5122
  107.5122  107.5124  107.5125  108.2349  108.2349  111.3113  111.3116  111.9377  111.9379  112.5641
  113.5429  113.5430  113.7558  114.5307  114.5307  114.5323  114.5325  116.4406  116.4407  116.4433
  116.4434  116.7571  118.9736  118.9737  121.2351  121.2351  121.2370  121.2372
   8  1  -25.1780  -25.1580  -24.5301  -24.5301  -24.5104  -24.5104  -22.6243  -22.6243  -22.6074  -22.6074
         -21.4003  -21.3851  -20.8388  -20.8387  -20.8251  -20.8251  -20.0214  -20.0142  -19.0104  -19.0042
  -18.7513  -18.7512  -18.7383  -18.7382  -16.7157  -16.7085  -15.6852  -15.6852  -15.6741  -15.6741
  -15.1238  -15.1159  -14.4089  -14.3993  -13.6549  -13.6548  -13.6464  -13.6463  -13.2817  -13.0889
  -13.0886  -13.0858  -13.0855  -12.9012  -12.6435  -12.6433  -12.6386  -12.6384  -12.5152  -12.5152
  -12.1490  -12.1490  -11.2597  -11.2593  -11.2572  -11.2569  -10.9485  -10.9476  -10.3205  -10.3205
  -10.2762  -10.2750  -10.0102  -10.0102   -8.9698   -8.7072   -8.6703   -8.6703   -8.4919   -8.4919
   -7.9427   -7.8305   -4.6996   -4.6064   -4.2252   -4.2252   -4.0606   -4.0606   -3.3599   -3.2694
   -1.7356   -1.7355   -1.6384   -1.6384   -1.5709   -0.6736   -0.6736    1.9950    1.9950    2.0251
    2.0251    2.0911    2.0913    2.1171    2.1389    2.1391    2.5322    2.5739    2.6123    2.6123
    2.7188    2.7191    2.7756    2.7759    2.8261    2.8261    3.7326    3.7328    3.7577    3.7730
    3.8551    3.9477    4.1405    4.1406    4.2533    4.2535    4.6885    4.7058    4.7058    5.2926
    5.2931    5.3107    5.3113    5.5488    5.6023    5.7125    5.7125    6.0441    6.3155    6.4356
    6.4356    6.5921    6.6851    6.8118    6.8119    6.8633    6.9146    6.9146    6.9374    7.0355
    7.0356    7.4628    7.5949    7.6151    7.7261    8.0259    8.0262    8.2811    8.7552    8.7552
    8.9271    8.9271    9.1223    9.1224    9.1843    9.1845    9.8363    9.9976   10.0236   10.0236
   10.3386   10.3388   10.6961   10.7521   10.9844   10.9848   10.9993   10.9993   11.5044   12.0217
   12.6098   12.6098   13.1169   13.1172   13.5141   13.5150   13.6248   13.6250   13.7404   13.9999
   13.9999   14.0225   14.0235   14.2480   14.5947   14.8843   15.0386   15.6957   15.6957   16.2390
   16.4272   16.4272   16.6914   17.1774   17.4274   17.4684   17.4692   17.5225   17.5504   17.5504
   18.0947   18.3459   18.3467   18.3504   18.4409   18.6985   18.6985   18.7932   18.9472   18.9477
   19.5754   19.5754   19.6950   19.6950   20.0594   20.1222   20.1222   20.1434   20.2750   20.4235
   20.4235   20.5130   20.5130   20.9626   21.0330   21.0336   21.5468   21.6841   21.6848   21.7573
   21.7573   21.7653   22.4620   22.4622   22.7320   22.7320   23.1057   23.1169   23.5590   23.5591
   23.9518   23.9519   24.4857   24.4857   25.0983   25.4294   25.6215   25.6216   27.6529   27.6530
   29.3877   29.3877   29.6444   29.7219   29.7219   30.6334   30.8116   31.2223   31.3456   31.9740
   31.9746   33.0057   33.0063   33.3647   33.5107   33.5108   34.0970   34.7139   34.7139   34.9223
   34.9223   35.8993   35.8994   36.3956   36.9694   36.9977   36.9977   37.5017   37.5468   37.5476
   38.2707   38.2716   39.6104   39.6483   40.7526   40.7526   41.6475   41.6607   41.6610   42.1375
   42.1381   42.6214   42.8021   42.8030   42.9755   42.9767   43.1426   43.2240   43.2241   43.5696
   43.8069   43.8070   44.0706   44.0710   44.4928   44.5935   44.6769   44.6770   45.0295   45.0408
   45.1441   45.1550   45.2092   45.2219   45.2225   45.6083   46.0168   46.0171   46.1890   46.1890
   46.4930   46.5546   46.5848   47.2148   47.2149   47.4159   47.4159   48.6019   48.6020   48.9736
   49.0645   49.2183   49.2185   49.3171   50.4126   50.4132   52.0448   52.0449   52.0662   52.0665
   52.1741   52.3773   52.4100   52.4102   52.7120   52.7121   53.0544   53.0547   53.8280   53.8282
   54.1031   54.1032   54.6318   55.6569   55.6569   55.8299   56.9085   57.0498   59.2543   59.8863
   59.9421   59.9423   60.0542   60.7792   60.7796   61.0222   61.1064   61.6218   61.6226   61.6401
   61.6403   61.7368   61.8831   61.9596   61.9605   63.2305   63.5349   63.5353   63.9617   65.2580
   65.2586   66.5818   66.5819   66.6288   66.6289   67.7257   67.7262   69.0325   69.0346   69.5991
   69.5994   69.6298   69.6301   70.0158   72.7238   72.7416   72.8639   73.6898   73.6917   73.7986
   73.7996   75.6728   75.6729   75.7719   75.7973   78.3557   78.3571   79.5886   79.5910   82.8480
   83.9041   83.9072   84.4023   85.4082   89.2141   90.0801   90.0819   91.4941   91.4950   92.0601
   92.0610   95.6973   97.8506   97.8515   98.0172   98.0197   98.9464   98.9472   99.6334  100.4936
  102.1984  103.4277  103.4300  104.4497  104.6716  105.0174  106.5060  106.5086  107.2611  107.2617
  108.3936  108.3956  108.6625  108.8688  108.8691  111.5128  111.5129  112.5384  112.5408  113.9789
  113.9825  114.2089  114.5874  114.5892  114.6329  114.6331  115.9318  116.1194  116.1208  116.6488
  116.9409  117.2674  118.5782  118.5789  121.1542  123.5794  123.8708  124.6339
   9  1  -25.1780  -25.1580  -24.5301  -24.5301  -24.5104  -24.5104  -22.6243  -22.6243  -22.6074  -22.6074
         -21.4003  -21.3851  -20.8388  -20.8387  -20.8251  -20.8251  -20.0214  -20.0142  -19.0104  -19.0042
  -18.7513  -18.7512  -18.7383  -18.7382  -16.7157  -16.7085  -15.6852  -15.6852  -15.6741  -15.6741
  -15.1238  -15.1159  -14.4089  -14.3993  -13.6549  -13.6548  -13.6464  -13.6463  -13.2817  -13.0889
  -13.0886  -13.0858  -13.0855  -12.9012  -12.6435  -12.6433  -12.6386  -12.6384  -12.5152  -12.5152
  -12.1490  -12.1490  -11.2597  -11.2593  -11.2572  -11.2569  -10.9485  -10.9476  -10.3205  -10.3205
  -10.2762  -10.2750  -10.0102  -10.0102   -8.9698   -8.7072   -8.6703   -8.6703   -8.4919   -8.4919
   -7.9427   -7.8305   -4.6996   -4.6064   -4.2252   -4.2252   -4.0606   -4.0606   -3.3599   -3.2694
   -1.7356   -1.7355   -1.6384   -1.6384   -1.5709   -0.6736   -0.6736    1.9950    1.9950    2.0251
    2.0251    2.0911    2.0913    2.1171    2.1389    2.1391    2.5322    2.5739    2.6123    2.6123
    2.7188    2.7191    2.7756    2.7759    2.8261    2.8261    3.7326    3.7328    3.7577    3.7730
    3.8551    3.9477    4.1405    4.1406    4.2533    4.2535    4.6885    4.7058    4.7058    5.2926
    5.2931    5.3107    5.3113    5.5488    5.6023    5.7125    5.7125    6.0441    6.3155    6.4356
    6.4356    6.5921    6.6851    6.8118    6.8119    6.8633    6.9146    6.9146    6.9374    7.0355
    7.0356    7.4628    7.5949    7.6151    7.7261    8.0259    8.0262    8.2811    8.7552    8.7552
    8.9271    8.9271    9.1223    9.1224    9.1843    9.1845    9.8363    9.9976   10.0236   10.0236
   10.3386   10.3388   10.6961   10.7521   10.9844   10.9848   10.9993   10.9993   11.5044   12.0217
   12.6098   12.6098   13.1169   13.1172   13.5141   13.5150   13.6248   13.6250   13.7404   13.9999
   13.9999   14.0225   14.0235   14.2480   14.5947   14.8843   15.0386   15.6957   15.6957   16.2390
   16.4272   16.4272   16.6914   17.1774   17.4274   17.4684   17.4692   17.5225   17.5504   17.5504
   18.0947   18.3459   18.3467   18.3504   18.4409   18.6985   18.6985   18.7932   18.9472   18.9477
   19.5754   19.5754   19.6950   19.6950   20.0594   20.1222   20.1222   20.1434   20.2750   20.4235
   20.4235   20.5130   20.5130   20.9626   21.0330   21.0336   21.5468   21.6841   21.6848   21.7573
   21.7573   21.7653   22.4620   22.4622   22.7320   22.7320   23.1057   23.1169   23.5590   23.5591
   23.9518   23.9519   24.4857   24.4857   25.0983   25.4294   25.6215   25.6216   27.6529   27.6530
   29.3877   29.3877   29.6444   29.7219   29.7219   30.6334   30.8116   31.2223   31.3456   31.9740
   31.9746   33.0057   33.0063   33.3647   33.5107   33.5108   34.0970   34.7139   34.7139   34.9222
   34.9223   35.8993   35.8994   36.3956   36.9694   36.9977   36.9977   37.5017   37.5468   37.5476
   38.2707   38.2716   39.6104   39.6483   40.7526   40.7526   41.6475   41.6607   41.6610   42.1375
   42.1380   42.6214   42.8021   42.8030   42.9755   42.9767   43.1426   43.2240   43.2241   43.5696
   43.8069   43.8070   44.0706   44.0709   44.4928   44.5935   44.6769   44.6770   45.0295   45.0408
   45.1441   45.1550   45.2092   45.2219   45.2225   45.6083   46.0168   46.0171   46.1890   46.1890
   46.4930   46.5546   46.5848   47.2148   47.2149   47.4159   47.4159   48.6019   48.6020   48.9736
   49.0645   49.2183   49.2185   49.3171   50.4126   50.4132   52.0448   52.0449   52.0662   52.0665
   52.1741   52.3773   52.4100   52.4102   52.7120   52.7121   53.0544   53.0547   53.8280   53.8282
   54.1031   54.1032   54.6318   55.6569   55.6569   55.8299   56.9085   57.0497   59.2543   59.8863
   59.9421   59.9423   60.0542   60.7792   60.7796   61.0222   61.1064   61.6218   61.6227   61.6401
   61.6403   61.7369   61.8831   61.9596   61.9606   63.2305   63.5349   63.5353   63.9617   65.2580
   65.2586   66.5818   66.5819   66.6288   66.6289   67.7257   67.7263   69.0325   69.0346   69.5991
   69.5994   69.6298   69.6301   70.0157   72.7238   72.7416   72.8639   73.6898   73.6917   73.7986
   73.7996   75.6728   75.6729   75.7720   75.7973   78.3557   78.3570   79.5886   79.5909   82.8479
   83.9041   83.9071   84.4023   85.4081   89.2141   90.0801   90.0818   91.4941   91.4950   92.0603
   92.0610   95.6978   97.8506   97.8515   98.0173   98.0197   98.9464   98.9472   99.6339  100.4937
  102.1982  103.4274  103.4302  104.4496  104.6715  105.0174  106.5058  106.5086  107.2610  107.2616
  108.3933  108.3957  108.6626  108.8688  108.8690  111.5126  111.5129  112.5385  112.5412  113.9790
  113.9830  114.2089  114.5863  114.5890  114.6325  114.6331  115.9320  116.1184  116.1206  116.6489
  116.9402  117.2668  118.5781  118.5790  121.1543  123.5805  123.8707  124.6352
  10  1  -25.0159  -25.0159  -24.9957  -24.9957  -23.7279  -23.7279  -23.7095  -23.7095  -21.2536  -21.2536
         -21.2535  -21.2535  -21.2386  -21.2386  -21.2385  -21.2385  -20.4406  -20.4331  -19.4109  -19.4044
  -17.5868  -17.5868  -17.5866  -17.5866  -17.5734  -17.5734  -17.5733  -17.5733  -14.2263  -14.2263
  -14.2261  -14.2261  -14.2171  -14.2171  -14.2168  -14.2168  -13.9653  -13.9653  -13.9606  -13.9606
  -13.0889  -13.0889  -12.7118  -12.7118  -12.6098  -12.6089  -12.6071  -12.6071  -12.5996  -12.5996
  -11.5777  -11.5777  -11.5459  -11.5459  -11.5436  -11.5436  -11.2319  -11.2319  -10.3910  -10.3910
  -10.3873  -10.3873   -8.8798   -8.8798   -8.8798   -8.8798   -8.6374   -8.6374   -8.6374   -8.6374
   -8.5386   -8.4236   -4.4915   -4.3224   -3.6651   -3.6651   -3.6651   -3.6651   -3.5359   -3.5359
   -3.5359   -3.5359   -1.3816   -1.3816    0.2533    0.2533    0.3160    0.3160    0.6744    0.6744
    1.3627    1.4092    2.2109    2.2109    2.2557    2.2557    2.2677    2.2677    3.2733    3.2733
    3.3248    3.3248    3.6095    3.6095    3.8981    3.8981    3.9344    3.9344    3.9344    3.9344
    3.9864    3.9864    4.0109    4.0109    4.0109    4.0109    4.6771    4.6771    4.6824    4.6824
    5.0126    5.0126    5.0127    5.0127    5.4650    5.4650    5.4841    5.4841    5.7954    5.7954
    5.9654    5.9654    5.9654    5.9654    6.5927    7.2018    7.4612    7.4612    7.7789    7.8116
    7.8116    7.8593    7.8594    7.9730    7.9730    7.9730    7.9730    8.3348    8.7097    8.7097
    8.7097    8.7097    9.0290    9.0290    9.0292    9.0292   10.1089   10.1089   10.1091   10.1091
   10.7949   10.8471   10.8471   10.8647   10.8647   11.2455   11.3112   11.3112   11.4092   11.4092
   12.1264   12.1264   12.1264   12.1264   13.2679   13.3500   13.3500   13.3503   13.3504   13.8447
   13.8457   14.9583   14.9583   14.9585   14.9585   15.4500   15.4500   15.4500   15.4500   16.1865
   16.8495   16.8495   17.3875   17.4870   17.4870   17.4875   17.4875   17.7395   17.7395   17.7400
   17.7400   17.8985   17.8985   18.1751   18.3428   18.3583   18.3583   18.3583   18.3583   18.8891
   18.9710   18.9710   18.9711   18.9711   19.8831   19.8831   20.3161   20.3161   20.9729   20.9729
   20.9729   20.9729   21.0648   21.0648   21.0649   21.0649   21.1034   21.1034   21.8164   21.8164
   22.3379   22.3379   22.3535   22.3535   22.9956   22.9956   23.2944   23.2944   23.4557   23.4557
   24.2158   24.2158   24.4018   24.4018   24.5391   24.5391   26.7584   27.6634   27.9838   27.9839
   28.1172   28.1172   28.1474   29.0153   30.4599   30.4599   30.4600   30.4600   31.2653   31.2653
   32.0897   32.0897   32.0897   32.0897   33.9699   33.9699   34.2178   34.9357   36.2688   36.2688
   36.2688   36.2689   37.4014   37.4014   37.5773   38.0169   38.0169   38.0170   38.0170   38.3456
   38.3456   38.6893   40.1033   40.1033   41.3963   41.3963   41.7014   41.7014   41.7020   41.7020
   42.6852   42.6852   42.7059   42.7059   42.7318   42.7318   42.8361   42.8361   42.8364   42.8364
   43.4958   43.4958   43.7873   43.7873   44.1127   44.1127   44.2399   44.2399   44.3824   44.3824
   44.4045   44.4045   44.5507   44.5508   44.8834   44.8834   45.4263   45.6194   47.3955   47.3955
   47.8241   47.8241   47.8775   47.8775   48.1975   48.1975   48.1976   48.1976   48.2122   48.2122
   48.7543   48.7543   48.7543   48.7543   48.9074   48.9074   48.9076   48.9076   49.9412   49.9412
   49.9414   49.9414   51.9105   51.9105   53.2401   54.0255   54.2216   54.2216   54.6081   54.7511
   55.8388   55.8388   55.8389   55.8389   57.2394   57.2394   57.2396   57.2396   58.7109   58.7109
   59.7724   59.7724   59.9367   59.9367   61.0549   61.3273   61.3273   61.3275   61.3275   61.4423
   61.4424   61.9176   61.9176   61.9511   62.2505   62.2505   63.0252   63.0252   63.0257   63.0257
   66.3805   66.3805   66.7270   66.7416   66.7416   68.1831   68.2131   70.9777   71.0988   71.0988
   71.2292   71.2292   71.8046   71.8046   71.8048   71.8048   71.8201   71.8201   71.8203   71.8203
   74.0370   74.0370   77.6098   77.6099   77.6101   77.6101   77.9202   77.9202   81.1974   81.1974
   86.3153   88.7590   88.7590   88.7592   88.7592   89.2704   89.2705   89.2798   89.2799   89.6763
   89.6764   92.4385   92.4386   95.9540   98.7691   98.7692  103.3173  103.3173  103.3203  103.3203
  103.7094  103.7094  103.7121  103.7122  104.4046  104.4046  106.1200  106.1201  107.0843  107.5121
  107.5122  107.5123  107.5124  108.2348  108.2348  111.3104  111.3107  111.9367  111.9370  112.5645
  113.5430  113.5430  113.7562  114.5309  114.5312  114.5322  114.5323  116.4410  116.4413  116.4428
  116.4430  116.7571  118.9737  118.9737  121.2351  121.2352  121.2367  121.2368
  11  1  -25.1780  -25.1580  -24.5301  -24.5301  -24.5104  -24.5104  -22.6243  -22.6243  -22.6074  -22.6074
         -21.4003  -21.3851  -20.8388  -20.8387  -20.8251  -20.8251  -20.0214  -20.0142  -19.0104  -19.0042
  -18.7513  -18.7512  -18.7383  -18.7382  -16.7157  -16.7085  -15.6852  -15.6852  -15.6741  -15.6741
  -15.1238  -15.1159  -14.4089  -14.3993  -13.6549  -13.6548  -13.6464  -13.6463  -13.2817  -13.0889
  -13.0886  -13.0858  -13.0855  -12.9012  -12.6435  -12.6433  -12.6386  -12.6384  -12.5152  -12.5152
  -12.1490  -12.1490  -11.2597  -11.2593  -11.2572  -11.2569  -10.9485  -10.9476  -10.3205  -10.3205
  -10.2762  -10.2750  -10.0102  -10.0102   -8.9698   -8.7072   -8.6703   -8.6703   -8.4919   -8.4919
   -7.9427   -7.8305   -4.6996   -4.6064   -4.2252   -4.2252   -4.0606   -4.0606   -3.3599   -3.2694
   -1.7356   -1.7355   -1.6384   -1.6384   -1.5709   -0.6736   -0.6736    1.9950    1.9950    2.0251
    2.0251    2.0911    2.0913    2.1171    2.1389    2.1391    2.5322    2.5739    2.6123    2.6123
    2.7188    2.7191    2.7756    2.7759    2.8261    2.8261    3.7326    3.7328    3.7577    3.7730
    3.8551    3.9477    4.1405    4.1406    4.2533    4.2535    4.6885    4.7058    4.7058    5.2926
    5.2931    5.3107    5.3113    5.5488    5.6023    5.7125    5.7125    6.0441    6.3155    6.4356
    6.4356    6.5921    6.6851    6.8118    6.8119    6.8633    6.9146    6.9146    6.9374    7.0355
    7.0356    7.4628    7.5949    7.6151    7.7261    8.0259    8.0262    8.2811    8.7552    8.7552
    8.9271    8.9271    9.1223    9.1224    9.1843    9.1845    9.8363    9.9976   10.0236   10.0236
   10.3386   10.3388   10.6961   10.7521   10.9844   10.9848   10.9993   10.9993   11.5044   12.0217
   12.6098   12.6098   13.1169   13.1172   13.5141   13.5150   13.6248   13.6250   13.7404   13.9999
   13.9999   14.0225   14.0235   14.2480   14.5947   14.8843   15.0386   15.6957   15.6957   16.2390
   16.4272   16.4272   16.6914   17.1774   17.4274   17.4684   17.4692   17.5225   17.5504   17.5504
   18.0947   18.3459   18.3467   18.3504   18.4409   18.6985   18.6985   18.7932   18.9472   18.9477
   19.5754   19.5754   19.6950   19.6950   20.0594   20.1222   20.1222   20.1434   20.2750   20.4235
   20.4235   20.5130   20.5130   20.9626   21.0330   21.0336   21.5468   21.6841   21.6848   21.7573
   21.7573   21.7653   22.4620   22.4622   22.7320   22.7320   23.1057   23.1169   23.5590   23.5591
   23.9518   23.9519   24.4857   24.4857   25.0983   25.4294   25.6215   25.6216   27.6529   27.6530
   29.3877   29.3877   29.6444   29.7219   29.7219   30.6334   30.8116   31.2223   31.3456   31.9740
   31.9746   33.0057   33.0063   33.3647   33.5107   33.5108   34.0970   34.7139   34.7139   34.9222
   34.9223   35.8993   35.8994   36.3956   36.9694   36.9977   36.9977   37.5017   37.5468   37.5476
   38.2707   38.2716   39.6104   39.6483   40.7526   40.7526   41.6475   41.6607   41.6610   42.1375
   42.1380   42.6214   42.8021   42.8030   42.9755   42.9767   43.1426   43.2240   43.2241   43.5696
   43.8069   43.8070   44.0706   44.0709   44.4928   44.5935   44.6769   44.6770   45.0295   45.0408
   45.1441   45.1550   45.2092   45.2219   45.2225   45.6083   46.0168   46.0171   46.1890   46.1890
   46.4930   46.5546   46.5848   47.2148   47.2149   47.4159   47.4159   48.6019   48.6020   48.9736
   49.0645   49.2183   49.2185   49.3171   50.4126   50.4132   52.0448   52.0449   52.0662   52.0665
[...]
    5.3056    5.3056    5.3061    5.3061    6.2002    6.2002    6.2003    6.2003    6.2702    6.2702
    6.5894    6.5895    6.6466    6.6466    6.9389    6.9389    6.9390    6.9390    7.6052    7.6052
    8.0576    8.0576    8.3839    8.3839    8.5169    8.5169    8.5171    8.5171    8.8971    8.8971
    8.8971    8.8971    8.9652    8.9652    9.1607    9.1607    9.1608    9.1608    9.6616    9.6616
    9.6616    9.6616    9.6698    9.6698   10.7105   10.7105   10.7106   10.7106   13.1842   13.1842
   13.2748   13.2748   13.2750   13.2750   13.3271   13.3271   13.3276   13.3276   13.7666   13.7666
   14.5436   14.5436   14.5439   14.5440   14.9093   14.9093   14.9093   14.9093   14.9209   14.9209
   15.2379   15.2379   16.1337   16.1337   17.2821   17.2821   17.6891   17.6891   17.6895   17.6895
   17.9708   17.9708   17.9710   17.9710   18.4860   18.4860   18.5178   18.5179   19.0587   19.0587
   19.0589   19.0589   19.8684   19.8684   20.0185   20.0186   20.0186   20.0186   20.4240   20.4240
   20.4242   20.4242   20.7335   20.7335   21.5071   21.5071   21.5077   21.5077   21.5085   21.5085
   22.4327   22.4327   22.4328   22.4328   23.0539   23.0540   23.0915   23.0915   23.0915   23.0915
   23.8250   23.8250   23.8251   23.8251   25.1916   25.1916   27.3857   27.3857   27.3857   27.3857
   31.3691   31.3692   31.5107   31.5107   32.1037   32.1038   32.1038   32.1038   32.2054   32.2054
   32.2054   32.2054   32.5069   32.5069   32.5073   32.5073   33.4904   33.4904   34.6783   34.6783
   34.6785   34.6785   35.4112   35.4112   36.3675   36.3675   37.9009   37.9009   37.9017   37.9017
   38.7526   38.7527   39.1739   39.1739   39.1739   39.1739   41.9218   41.9218   41.9222   41.9222
   42.7475   42.7475   42.7484   42.7484   42.9226   42.9226   43.6480   43.6480   43.6878   43.6878
   43.6881   43.6881   44.3200   44.3201   44.3350   44.3350   44.3355   44.3355   44.6003   44.6003
   44.9205   44.9205   44.9208   44.9208   45.0248   45.0248   45.1372   45.1372   46.5811   46.5811
   48.0681   48.0681   48.0682   48.0682   48.9171   48.9172   49.5951   49.5951   49.5986   49.5986
   49.5988   49.5988   50.1766   50.1766   50.1766   50.1767   51.6378   51.6378   51.6379   51.6380
   52.8038   52.8038   53.2454   53.2454   53.2456   53.2456   54.3539   54.3540   54.3541   54.3541
   55.2302   55.2302   57.5412   57.5412   57.5413   57.5413   58.9714   58.9714   58.9715   58.9715
   59.2654   59.2654   59.6380   59.6381   61.1882   61.1882   61.4296   61.4297   61.7865   61.7865
   61.9840   61.9840   61.9851   61.9851   62.2448   62.2448   62.2452   62.2452   63.7749   63.7749
   64.5242   64.5242   64.5242   64.5242   66.6130   66.6130   66.6131   66.6131   69.5970   69.5970
   69.5973   69.5973   72.7324   72.7324   73.7977   73.7977   74.2163   74.2164   75.1777   75.1777
   75.1787   75.1787   75.8259   75.8259   76.6414   76.6414   76.6415   76.6415   84.3168   84.3168
   84.3184   84.3185   84.9427   84.9427   84.9454   84.9455   88.1575   88.1575   95.5318   95.5318
   95.5334   95.5334   96.2655   96.2655   97.3143   97.3144   98.4150   98.4150   98.4157   98.4157
  104.1178  104.1178  104.5430  104.5430  105.8640  105.8641  105.8670  105.8670  107.0191  107.0191
  107.0195  107.0195  110.6204  110.6205  110.6217  110.6217  112.5531  112.5531  112.5534  112.5534
  113.4364  113.4364  114.5839  114.5840  114.5876  114.5876  114.9461  114.9462  114.9487  114.9488
  115.2230  115.2230  118.2222  118.2222  119.0027  119.0027  123.4999  123.5000
  42  1  -25.0057  -25.0057  -25.0057  -25.0057  -23.7188  -23.7188  -23.7188  -23.7187  -21.2461  -21.2461
         -21.2461  -21.2461  -21.2460  -21.2460  -21.2460  -21.2460  -20.4368  -20.4368  -19.4077  -19.4077
  -17.5801  -17.5801  -17.5801  -17.5801  -17.5800  -17.5800  -17.5799  -17.5799  -14.2217  -14.2217
  -14.2217  -14.2217  -14.2215  -14.2215  -14.2215  -14.2215  -13.9629  -13.9629  -13.9629  -13.9629
  -12.9077  -12.9077  -12.9077  -12.9077  -12.6094  -12.6094  -12.6032  -12.6032  -12.6032  -12.6032
  -11.5447  -11.5446  -11.5446  -11.5446  -11.4102  -11.4102  -11.4102  -11.4102  -10.3892  -10.3891
  -10.3891  -10.3891   -8.7600   -8.7600   -8.7600   -8.7600   -8.7600   -8.7600   -8.7600   -8.7600
   -8.4789   -8.4789   -4.4169   -4.4169   -3.6034   -3.6034   -3.6034   -3.6034   -3.6033   -3.6033
   -3.6033   -3.6033    0.0088    0.0088    0.0088    0.0088    0.2846    0.2846    0.2846    0.2846
    1.3858    1.3858    1.9127    1.9127    1.9127    1.9127    2.2519    2.2519    2.2519    2.2520
    3.2883    3.2883    3.2883    3.2883    3.9745    3.9745    3.9745    3.9745    3.9748    3.9748
    3.9748    3.9748    3.9748    3.9748    3.9748    3.9749    4.6798    4.6798    4.6798    4.6799
    5.4347    5.4347    5.4347    5.4347    5.4347    5.4347    5.4347    5.4347    5.4741    5.4741
    5.4741    5.4741    6.9292    6.9292    7.8275    7.8276    7.8276    7.8276    7.8498    7.8498
    8.3905    8.3905    8.3905    8.3905    8.3905    8.3905    8.3905    8.3905    8.5325    8.5325
    8.5325    8.5325    9.3857    9.3857    9.3857    9.3857    9.4854    9.4854    9.4854    9.4854
    9.4854    9.4854    9.4854    9.4855   11.3594   11.3594   11.3594   11.3594   11.3831   11.3831
   13.1698   13.1698   13.1698   13.1698   13.1700   13.1700   13.1700   13.1700   13.8452   13.8453
   14.0886   14.0886   14.9671   14.9671   14.9671   14.9671   14.9672   14.9672   14.9672   14.9672
   16.9801   16.9801   16.9802   16.9802   17.1260   17.1260   17.1260   17.1260   17.1263   17.1263
   17.1263   17.1263   18.0868   18.0868   18.5916   18.5916   18.9805   18.9805   18.9805   18.9805
   18.9807   18.9807   18.9807   18.9807   20.2318   20.2318   20.2318   20.2318   20.7057   20.7057
   20.7057   20.7057   20.7057   20.7057   20.7057   20.7057   21.5910   21.5910   21.5910   21.5910
   22.3928   22.3928   22.3928   22.3928   23.1311   23.1311   23.1311   23.1311   23.6360   23.6360
   23.6360   23.6361   24.2707   24.2707   24.2707   24.2707   27.9268   27.9268   28.4397   28.4397
   30.4942   30.4942   30.4942   30.4943   31.4457   31.4457   31.4457   31.4457   31.8443   31.8443
   31.8444   31.8444   31.8444   31.8444   31.8444   31.8444   32.9274   32.9274   36.9965   36.9965
   36.9965   36.9965   36.9965   36.9965   36.9965   36.9965   38.0564   38.0564   39.5171   39.5171
   39.5171   39.5171   40.3940   40.3940   40.3940   40.3941   42.4979   42.4979   42.4979   42.4979
   42.4983   42.4983   42.4983   42.4983   42.6023   42.6023   42.6023   42.6023   43.3278   43.3278
   43.3278   43.3279   43.9240   43.9241   43.9241   43.9241   44.2284   44.2284   44.2284   44.2284
   44.3312   44.3312   44.3312   44.3312   45.6677   45.6677   45.6677   45.6677   46.4993   46.4993
   47.6522   47.6522   47.6522   47.6522   47.6522   47.6522   47.6522   47.6522   47.8583   47.8583
   47.8583   47.8583   50.9416   50.9416   50.9416   50.9416   50.9418   50.9418   50.9418   50.9418
   51.7300   51.7301   51.7301   51.7301   53.4840   53.4840   55.0017   55.0017   56.8799   56.8799
   56.8799   56.8799   56.8800   56.8800   56.8800   56.8800   58.4351   58.4351   58.4351   58.4351
   59.6997   59.6997   59.6997   59.6997   59.9157   59.9157   59.9157   59.9157   61.5093   61.5093
   62.0637   62.0637   62.0637   62.0637   62.2648   62.2648   62.2648   62.2648   62.2650   62.2650
   62.2650   62.2650   68.0864   68.0864   68.0864   68.0864   68.1992   68.1992   71.1664   71.1664
   71.1664   71.1665   71.8088   71.8088   71.8088   71.8088   71.8090   71.8090   71.8090   71.8090
   75.1291   75.1291   82.2829   82.2830   82.2830   82.2830   82.5233   82.5233   82.5233   82.5233
   86.2441   86.2441   86.2442   86.2442   86.2444   86.2444   86.2444   86.2444   89.4395   89.4396
   89.4396   89.4396   91.5115   91.5115  102.4384  102.4384  102.4385  102.4385  103.5251  103.5251
  103.5251  103.5251  103.5278  103.5279  103.5279  103.5279  106.4413  106.4413  106.4413  106.4413
  110.9718  110.9719  110.9719  110.9719  110.9721  110.9722  110.9723  110.9723  111.5169  111.5169
  111.5172  111.5174  111.6801  111.6801  113.1619  113.1619  115.9923  115.9923  115.9923  115.9923
  117.3315  117.3317  117.3318  117.3318  117.3341  117.3342  117.3342  117.3344
  43  1  -25.1679  -25.1679  -24.5203  -24.5202  -24.5202  -24.5202  -22.6159  -22.6159  -22.6159  -22.6159
         -21.3927  -21.3927  -20.8319  -20.8319  -20.8319  -20.8319  -20.0177  -20.0177  -19.0074  -19.0073
  -18.7449  -18.7448  -18.7447  -18.7447  -16.7121  -16.7120  -15.6797  -15.6797  -15.6796  -15.6796
  -15.1199  -15.1199  -14.4041  -14.4041  -13.6507  -13.6507  -13.6507  -13.6506  -13.0989  -13.0989
  -13.0874  -13.0874  -13.0871  -13.0870  -12.6410  -12.6410  -12.6407  -12.6407  -12.3387  -12.3387
  -12.3387  -12.3387  -11.2583  -11.2583  -11.2580  -11.2579  -10.9481  -10.9480  -10.2755  -10.2754
  -10.1690  -10.1690  -10.1690  -10.1690   -8.8405   -8.8405   -8.5805   -8.5805   -8.5805   -8.5805
   -7.8846   -7.8846   -4.6589   -4.6589   -4.1503   -4.1503   -4.1503   -4.1503   -3.3151   -3.3151
   -1.6881   -1.6881   -1.6881   -1.6881   -0.1746   -0.1746    0.6820    0.6820    0.6820    0.6820
    2.0292    2.0292    2.0292    2.0293    2.1149    2.1150    2.1151    2.1151    2.5686    2.5687
    2.7718    2.7718    2.7721    2.7721    3.5258    3.5258    3.5258    3.5258    3.7328    3.7328
    3.7650    3.7651    3.9006    3.9006    4.2545    4.2545    4.2546    4.2546    5.0460    5.0460
    5.3056    5.3056    5.3061    5.3061    6.2002    6.2002    6.2003    6.2003    6.2702    6.2702
    6.5894    6.5895    6.6466    6.6466    6.9389    6.9389    6.9390    6.9390    7.6052    7.6052
    8.0576    8.0576    8.3839    8.3839    8.5169    8.5169    8.5171    8.5171    8.8971    8.8971
    8.8971    8.8971    8.9652    8.9652    9.1607    9.1607    9.1608    9.1608    9.6616    9.6616
    9.6616    9.6616    9.6698    9.6698   10.7105   10.7105   10.7106   10.7106   13.1842   13.1842
   13.2748   13.2748   13.2750   13.2750   13.3271   13.3271   13.3276   13.3276   13.7666   13.7666
   14.5436   14.5436   14.5439   14.5440   14.9093   14.9093   14.9093   14.9093   14.9209   14.9209
   15.2379   15.2379   16.1337   16.1337   17.2821   17.2821   17.6891   17.6891   17.6895   17.6895
   17.9708   17.9708   17.9710   17.9710   18.4860   18.4860   18.5178   18.5179   19.0587   19.0587
   19.0589   19.0589   19.8684   19.8684   20.0185   20.0186   20.0186   20.0186   20.4240   20.4240
   20.4242   20.4242   20.7335   20.7335   21.5071   21.5071   21.5077   21.5077   21.5085   21.5085
   22.4327   22.4327   22.4328   22.4328   23.0539   23.0540   23.0915   23.0915   23.0915   23.0915
   23.8250   23.8250   23.8251   23.8251   25.1916   25.1916   27.3857   27.3857   27.3857   27.3857
   31.3691   31.3692   31.5107   31.5107   32.1037   32.1038   32.1038   32.1038   32.2054   32.2054
   32.2054   32.2054   32.5069   32.5069   32.5073   32.5073   33.4904   33.4904   34.6783   34.6783
   34.6785   34.6785   35.4112   35.4112   36.3675   36.3675   37.9009   37.9009   37.9017   37.9017
   38.7526   38.7527   39.1739   39.1739   39.1739   39.1739   41.9218   41.9218   41.9222   41.9222
   42.7475   42.7475   42.7484   42.7484   42.9226   42.9226   43.6480   43.6480   43.6878   43.6878
   43.6881   43.6881   44.3200   44.3201   44.3350   44.3350   44.3355   44.3355   44.6003   44.6003
   44.9205   44.9205   44.9208   44.9208   45.0248   45.0248   45.1372   45.1372   46.5811   46.5811
   48.0681   48.0681   48.0682   48.0682   48.9171   48.9172   49.5951   49.5951   49.5986   49.5986
   49.5988   49.5988   50.1766   50.1766   50.1766   50.1767   51.6378   51.6378   51.6379   51.6380
   52.8038   52.8038   53.2454   53.2454   53.2456   53.2456   54.3539   54.3540   54.3541   54.3541
   55.2302   55.2302   57.5412   57.5412   57.5413   57.5413   58.9714   58.9714   58.9715   58.9715
   59.2654   59.2654   59.6380   59.6381   61.1882   61.1882   61.4296   61.4297   61.7865   61.7865
   61.9840   61.9840   61.9851   61.9851   62.2448   62.2448   62.2452   62.2452   63.7749   63.7749
   64.5242   64.5242   64.5242   64.5242   66.6130   66.6130   66.6131   66.6131   69.5970   69.5970
   69.5973   69.5973   72.7324   72.7324   73.7977   73.7977   74.2163   74.2164   75.1777   75.1777
   75.1787   75.1787   75.8259   75.8259   76.6414   76.6414   76.6415   76.6415   84.3168   84.3168
   84.3184   84.3185   84.9427   84.9427   84.9454   84.9455   88.1575   88.1575   95.5318   95.5318
   95.5334   95.5334   96.2655   96.2655   97.3143   97.3144   98.4150   98.4150   98.4157   98.4157
  104.1178  104.1178  104.5430  104.5430  105.8640  105.8641  105.8670  105.8670  107.0191  107.0191
  107.0195  107.0195  110.6204  110.6205  110.6217  110.6217  112.5531  112.5531  112.5534  112.5534
  113.4364  113.4364  114.5839  114.5840  114.5876  114.5876  114.9461  114.9462  114.9487  114.9488
  115.2230  115.2230  118.2222  118.2222  119.0027  119.0027  123.4999  123.5000
  44  1  -25.0057  -25.0057  -25.0057  -25.0057  -23.7188  -23.7188  -23.7188  -23.7188  -21.2461  -21.2460
         -21.2460  -21.2460  -21.2460  -21.2460  -21.2460  -21.2460  -20.4368  -20.4367  -19.4075  -19.4075
  -17.5801  -17.5801  -17.5801  -17.5801  -17.5801  -17.5801  -17.5801  -17.5801  -14.2215  -14.2215
  -14.2215  -14.2215  -14.2215  -14.2215  -14.2215  -14.2215  -13.9631  -13.9631  -13.9630  -13.9630
  -12.9077  -12.9077  -12.9077  -12.9077  -12.6097  -12.6097  -12.6030  -12.6030  -12.6030  -12.6030
  -11.5443  -11.5443  -11.5443  -11.5443  -11.4102  -11.4102  -11.4102  -11.4102  -10.3895  -10.3895
  -10.3895  -10.3895   -8.7600   -8.7600   -8.7600   -8.7600   -8.7600   -8.7600   -8.7600   -8.7600
   -8.4789   -8.4789   -4.4169   -4.4169   -3.6034   -3.6034   -3.6034   -3.6034   -3.6033   -3.6033
   -3.6033   -3.6033    0.0088    0.0088    0.0088    0.0088    0.2846    0.2846    0.2846    0.2846
    1.3860    1.3860    1.9126    1.9126    1.9126    1.9126    2.2524    2.2524    2.2524    2.2524
    3.2883    3.2883    3.2883    3.2883    3.9745    3.9745    3.9745    3.9745    3.9747    3.9747
    3.9747    3.9747    3.9747    3.9747    3.9747    3.9748    4.6792    4.6792    4.6792    4.6792
    5.4348    5.4348    5.4348    5.4348    5.4348    5.4348    5.4348    5.4348    5.4744    5.4744
    5.4744    5.4744    6.9293    6.9293    7.8277    7.8277    7.8277    7.8277    7.8499    7.8499
    8.3903    8.3903    8.3903    8.3903    8.3903    8.3903    8.3903    8.3903    8.5325    8.5325
    8.5325    8.5325    9.3857    9.3857    9.3857    9.3857    9.4854    9.4854    9.4854    9.4854
    9.4854    9.4854    9.4854    9.4854   11.3593   11.3593   11.3593   11.3593   11.3833   11.3833
   13.1700   13.1700   13.1700   13.1700   13.1701   13.1701   13.1701   13.1701   13.8441   13.8441
   14.0888   14.0888   14.9674   14.9674   14.9674   14.9674   14.9674   14.9674   14.9674   14.9674
   16.9802   16.9802   16.9802   16.9802   17.1259   17.1260   17.1260   17.1260   17.1260   17.1260
   17.1260   17.1260   18.0876   18.0876   18.5915   18.5915   18.9805   18.9805   18.9805   18.9805
   18.9806   18.9806   18.9806   18.9806   20.2313   20.2313   20.2313   20.2313   20.7058   20.7058
   20.7058   20.7058   20.7058   20.7058   20.7058   20.7058   21.5914   21.5914   21.5914   21.5914
   22.3927   22.3927   22.3927   22.3927   23.1310   23.1310   23.1310   23.1310   23.6361   23.6361
   23.6361   23.6361   24.2706   24.2707   24.2707   24.2707   27.9267   27.9267   28.4404   28.4404
   30.4942   30.4943   30.4943   30.4943   31.4455   31.4455   31.4455   31.4456   31.8443   31.8443
   31.8443   31.8443   31.8443   31.8443   31.8443   31.8444   32.9275   32.9275   36.9965   36.9965
   36.9965   36.9965   36.9965   36.9965   36.9965   36.9965   38.0553   38.0553   39.5168   39.5168
   39.5168   39.5168   40.3942   40.3942   40.3942   40.3942   42.4978   42.4979   42.4979   42.4979
   42.4979   42.4979   42.4979   42.4979   42.6030   42.6030   42.6030   42.6030   43.3279   43.3279
   43.3280   43.3280   43.9241   43.9241   43.9241   43.9241   44.2291   44.2291   44.2291   44.2291
   44.3297   44.3297   44.3297   44.3297   45.6677   45.6677   45.6677   45.6677   46.4997   46.4997
   47.6521   47.6521   47.6521   47.6521   47.6522   47.6522   47.6522   47.6522   47.8580   47.8581
   47.8581   47.8581   50.9416   50.9416   50.9416   50.9416   50.9416   50.9416   50.9416   50.9416
   51.7313   51.7313   51.7313   51.7313   53.4843   53.4843   55.0020   55.0020   56.8800   56.8800
   56.8800   56.8800   56.8800   56.8800   56.8800   56.8800   58.4352   58.4352   58.4352   58.4353
   59.7003   59.7003   59.7003   59.7003   59.9160   59.9161   59.9161   59.9161   61.5078   61.5079
   62.0633   62.0633   62.0633   62.0633   62.2648   62.2649   62.2649   62.2649   62.2649   62.2649
   62.2649   62.2649   68.0880   68.0881   68.0881   68.0881   68.1988   68.1988   71.1632   71.1632
   71.1632   71.1632   71.8089   71.8089   71.8089   71.8090   71.8090   71.8090   71.8090   71.8090
   75.1293   75.1294   82.2826   82.2826   82.2827   82.2827   82.5250   82.5250   82.5250   82.5250
   86.2456   86.2456   86.2457   86.2457   86.2457   86.2458   86.2458   86.2459   89.4370   89.4370
   89.4370   89.4370   91.5131   91.5131  102.4355  102.4357  102.4358  102.4358  103.5253  103.5254
  103.5254  103.5254  103.5254  103.5255  103.5255  103.5255  106.4415  106.4415  106.4416  106.4416
  110.9716  110.9716  110.9717  110.9717  110.9719  110.9720  110.9720  110.9721  111.5199  111.5200
  111.5204  111.5205  111.6821  111.6821  113.1572  113.1573  115.9930  115.9930  115.9930  115.9930
  117.3333  117.3333  117.3334  117.3335  117.3340  117.3341  117.3343  117.3343
siesta: Fermi energy =      -6.129279 eV

siesta: Program's energy decomposition (eV):
siesta: Ebs     =     -2202.783688
siesta: Eions   =      9434.507561
siesta: Ena     =      2224.318459
siesta: Ekin    =      3905.675334
siesta: Enl     =      -379.516758
siesta: Eso     =         0.000000
siesta: Edftu   =         0.000000
siesta: DEna    =      -202.152160
siesta: DUscf   =        18.005267
siesta: DUext   =         0.000000
siesta: Exc     =     -1709.391680
siesta: eta*DQ  =         0.000000
siesta: Emadel  =         0.000000
siesta: Emeta   =         0.000000
siesta: Emolmec =        -2.801932
siesta: Ekinion =         0.000000
siesta: Eharris =     -5580.371033
siesta: Etot    =     -5580.371030
siesta: FreeEng =     -5580.383887

siesta: Final energy (eV):
siesta:  Band Struct. =   -2202.783688
siesta:       Kinetic =    3905.675334
siesta:       Hartree =    2909.635152
siesta:       Edftu   =       0.000000
siesta:       Eso     =       0.000000
siesta:    Ext. field =       0.000000
siesta:   Exch.-corr. =   -1709.391680
siesta:  Ion-electron =   -9702.067086
siesta:       Ion-ion =    -981.420819
siesta:       Ekinion =       0.000000
siesta:         Total =   -5580.371030
siesta:         Fermi =      -6.129279

siesta: Stress tensor (static) (eV/Ang**3):
siesta:    -0.069502   -0.000051    0.000000
siesta:    -0.000051   -0.069562    0.000000
siesta:    -0.000000    0.000000    0.011843

siesta: Cell volume =        412.843203 Ang**3

siesta: Pressure (static):
siesta:                Solid            Molecule  Units
siesta:           0.00046186          0.00046189  Ry/Bohr**3
siesta:           0.04240686          0.04240928  eV/Ang**3
siesta:          67.94400664         67.94789949  kBar
(Free)E+ p_basis*V_orbitals  =       -5546.854081
(Free)Eharris+ p_basis*V_orbitals  =       -5546.854084

cite: Please see "graphite_scf.bib" for an exhaustive BiBTeX file.
cite: Please clearly indicate Siesta version in published work: 4.1.5
cite: This calculation has made use of the following articles
cite: which are encouraged to be cited in a published work.
        Primary SIESTA paper
          DOI: www.doi.org/10.1088/0953-8984/14/11/302

>> End of run:   1-NOV-2022  19:05:07
Job completed
