Siesta Version  : 4.1.5
Architecture    : x86_64-unknown-linux-gnu--unknown
Compiler version: GNU Fortran (GCC) 11.3.0
Compiler flags  : mpif90 -g -O2 -fallow-argument-mismatch
PP flags        : -DMPI -DFC_HAVE_FLUSH -DFC_HAVE_ABORT
Libraries       :  -I/global/software/sl-7.x86_64/modules/intel/2020.4.304/mkl/include  /globall/software/sl-7.x86_64/modules/intel/2020.4.304/mkl/lib/intel64/libmkl_scalapack_lp64.a -Wl,--start-group /global/software/sl-7.x86_64/modules/intel/2020.4.304/mkl/lib/intel64/libmkl_intel_lp64.a /global/software/sl-7.x86_64/modules/intel/2020.4.304/mkl/lib/intel64/libmkl_sequential.a /global/software/sl-7.x86_64/modules/intel/2020.4.304/mkl/lib/intel64/libmkl_core.a /global/software/sl-7.x86_64/modules/intel/2020.4.304/mkl/lib/intel64/libmkl_blacs_openmpi_lp64.a -Wl,--end-group -lpthread -lm -ldl
PARALLEL version

* Running on 20 nodes in parallel
>> Start of run:   1-NOV-2022  17:49:21

                           ***********************       
                           *  WELCOME TO SIESTA  *       
                           ***********************       

reinit: Reading from standard input
reinit: Dumped input in INPUT_TMP.46309
************************** Dump of input data file ****************************
SystemName graphite_scf
SystemLabel graphite_scf
NumberOfAtoms   36
NumberOfSpecies 1
%block ChemicalSpeciesLabel
1  6   C-gga
%endblock ChemicalSpeciesLabel
PAO.BasisSize  DZP
PAO.EnergyShift  10 meV
%block PS.Lmax
C-gga   2
%endblock PS.Lmax
LatticeConstant 1.000000 Ang
%block LatticeVectors
	7.3920000000	0.0000000000	0.0000000000
	-3.6960000000	6.4016597848	0.0000000000
	0.0000000000	0.0000000000	3.8252700000
%endblock LatticeVectors
AtomicCoordinatesFormat Ang
%block AtomicCoordinatesAndAtomicSpecies
	0.00000000	0.00000000	0.95631750	1
	0.00000000	0.00000000	2.86895250	1
	-1.23200000	2.13388659	0.95631750	1
	-2.46400000	4.26777319	2.86895250	1
	2.46400000	4.26777319	0.95631750	1
	1.23200000	2.13388659	2.86895250	1
	2.46400000	0.00000000	0.95631750	1
	4.92800000	0.00000000	2.86895250	1
	2.46400000	0.00000000	2.86895250	1
	4.92800000	0.00000000	0.95631750	1
	2.46400000	4.26777319	2.86895250	1
	1.23200000	2.13388659	0.95631750	1
	-1.23200000	2.13388659	2.86895250	1
	-2.46400000	4.26777319	0.95631750	1
	0.00000000	4.26777319	0.95631750	1
	3.69600000	2.13388659	2.86895250	1
	3.69600000	2.13388659	0.95631750	1
	0.00000000	4.26777319	2.86895250	1
	0.00000000	1.42258964	0.95631750	1
	3.69600000	4.97907014	2.86895250	1
	2.46400123	5.69036496	0.95631750	1
	1.23199877	0.71129482	2.86895250	1
	-2.46400123	5.69036496	0.95631750	1
	6.16000123	0.71129482	2.86895250	1
	-1.23200000	3.55647624	0.95631750	1
	4.92800000	2.84518355	2.86895250	1
	1.23200123	3.55647837	0.95631750	1
	2.46399877	2.84518142	2.86895250	1
	-0.00000123	5.69036496	0.95631750	1
	3.69600123	0.71129482	2.86895250	1
	2.46400000	1.42258964	0.95631750	1
	1.23200000	4.97907014	2.86895250	1
	4.92800123	1.42259177	0.95631750	1
	-1.23200123	4.97906801	2.86895250	1
	3.69599877	3.55647837	0.95631750	1
	0.00000123	2.84518142	2.86895250	1
%endblock AtomicCoordinatesAndAtomicSpecies
Kgrid_NoTRS  T
%block kgrid_MonkhorstPack
4       0       0       0.0
0       4       0       0.0
0       0       4       0.0
%endblock kgrid_MonkhorstPack
AtomCoorFormatOut Ang
BlockSize 1
#ProcessorY 12
Diag.ParallelOverK   T
Diag.DivideAndConquer F
MeshCutoff   300 Ry
SCF.FreeE.Tolerance 1E-3 eV
SCF.EDM.Tolerance   5E-3 eV
DM.Tolerance  1E-3
DM.Require.Energy.Convergence T
DM.NumberPulay 4
XC.Functional GGA
XC.Authors    PBE
UseSaveData        F
SolutionMethod     diagon
MD.TypeOfRun       CG
MD.VariableCell    F
MD.NumCGsteps      00
MD.MaxCGDispl      0.200000 Bohr
#MD.MaxStressTol    1.000000 GPa
#MD.MaxForceTol     0.010000 eV/Ang
WriteMDHistory T
WriteCoorStep T
WriteForces T
WriteCoorStep    T
WriteEigenValues T
WriteDM    F
MM.UnitsDistance Ang  # what this program prints out DO NOT CHANGE
MM.UnitsEnergy    eV  # what this program prints out DO NOT CHANGE
MM.Grimme.S6     0.75 # Grimme-paper for PBE (correct for your functional)
MM.Grimme.D     20.   # Grimme-paper (correct for your functional)
%block MM.Potentials
  1   1 Grimme     18.14      2.904 # C, 10.1002/jcc.20495
%endblock MM.Potentials
#%block ProjectedDensityOfStates
# -200.0  120.0  0.4  12800  eV
#%endblock ProjectedDensityOfStates
************************** End of input data file *****************************

reinit: -----------------------------------------------------------------------
reinit: System Name: graphite_scf
reinit: -----------------------------------------------------------------------
reinit: System Label: graphite_scf
reinit: -----------------------------------------------------------------------
Reading two-body potentials
Grimme - two-body potential between 1 and 1

initatom: Reading input for the pseudopotentials and atomic orbitals ----------
Species number:   1 Atomic number:    6 Label: C-gga

Ground state valence configuration:   2s02  2p02
Reading pseudopotential information in formatted form from C-gga.psf

Valence configuration for pseudopotential generation:
2s( 2.00) rc: 1.56
2p( 2.00) rc: 1.56
3d( 0.00) rc: 1.56
4f( 0.00) rc: 1.56
relmxkb: Read Max KB Ang. Momentum=    2 for species C-gga

<basis_specs>
===============================================================================
C-gga                Z=   6    Mass=  12.010        Charge= 0.17977+309
Lmxo=1 Lmxkb= 2    BasisType=split      Semic=F
L=0  Nsemic=0  Cnfigmx=2
          i=1  nzeta=2  polorb=0  (2s)
            splnorm:   0.15000    
               vcte:    0.0000    
               rinn:    0.0000    
               qcoe:    0.0000    
               qyuk:    0.0000    
               qwid:   0.10000E-01
                rcs:    0.0000      0.0000    
            lambdas:    1.0000      1.0000    
L=1  Nsemic=0  Cnfigmx=2
          i=1  nzeta=2  polorb=1  (2p)
            splnorm:   0.15000    
               vcte:    0.0000    
               rinn:    0.0000    
               qcoe:    0.0000    
               qyuk:    0.0000    
               qwid:   0.10000E-01
                rcs:    0.0000      0.0000    
            lambdas:    1.0000      1.0000    
-------------------------------------------------------------------------------
L=0  Nkbl=1  erefs: 0.17977+309
L=1  Nkbl=1  erefs: 0.17977+309
L=2  Nkbl=1  erefs: 0.17977+309
===============================================================================
</basis_specs>

atom: Called for C-gga                 (Z =   6)

read_vps: Pseudopotential generation method:
read_vps: ATM 3.2.2 Troullier-Martins                       
Valence charge for ps generation:    4.00000

xc_check: Exchange-correlation functional:
xc_check: GGA Perdew, Burke & Ernzerhof 1996
V l=0 = -2*Zval/r beyond r=  1.5227
V l=1 = -2*Zval/r beyond r=  1.5227
V l=2 = -2*Zval/r beyond r=  1.5227
All V_l potentials equal beyond r=  1.4851
This should be close to max(r_c) in ps generation
All pots = -2*Zval/r beyond r=  1.5227

VLOCAL1: 99.0% of the norm of Vloc inside     19.682 Ry
VLOCAL1: 99.9% of the norm of Vloc inside     44.856 Ry
atom: Maximum radius for 4*pi*r*r*local-pseudopot. charge    1.79142
atom: Maximum radius for r*vlocal+2*Zval:    1.54183
GHOST: No ghost state for L =  0
GHOST: No ghost state for L =  1
GHOST: No ghost state for L =  2

KBgen: Kleinman-Bylander projectors: 
   l= 0   rc=  1.661951   el= -1.010689   Ekb=  5.289847   kbcos=  0.316429
   l= 1   rc=  1.661951   el= -0.388490   Ekb= -4.102504   kbcos= -0.351025
   l= 2   rc=  1.747182   el=  0.001971   Ekb= -1.006005   kbcos= -0.008530

KBgen: Total number of Kleinman-Bylander projectors:    9
atom: -------------------------------------------------------------------------

atom: SANKEY-TYPE ORBITALS:
atom: Selected multiple-zeta basis: split     

SPLIT: Orbitals with angular momentum L= 0

SPLIT: Basis orbitals for state 2s

SPLIT: PAO cut-off radius determined from an
SPLIT: energy shift=  0.000735 Ry

   izeta = 1
                 lambda =    1.000000
                     rc =    5.948690
                 energy =   -1.010099
                kinetic =    0.827121
    potential(screened) =   -1.837220
       potential(ionic) =   -5.392783

   izeta = 2
                 rmatch =    3.518811
              splitnorm =    0.150000
                 energy =   -0.877891
                kinetic =    1.289227
    potential(screened) =   -2.167118
       potential(ionic) =   -5.982073

SPLIT: Orbitals with angular momentum L= 1

SPLIT: Basis orbitals for state 2p

SPLIT: PAO cut-off radius determined from an
SPLIT: energy shift=  0.000735 Ry

   izeta = 1
                 lambda =    1.000000
                     rc =    7.638387
                 energy =   -0.387843
                kinetic =    2.314739
    potential(screened) =   -2.702582
       potential(ionic) =   -6.092371

   izeta = 2
                 rmatch =    3.840617
              splitnorm =    0.150000
                 energy =   -0.270479
                kinetic =    3.438347
    potential(screened) =   -3.708826
       potential(ionic) =   -7.497707

POLgen: Perturbative polarization orbital with L=  2

POLgen: Polarization orbital for state 2p

   izeta = 1
                     rc =    7.638387
                 energy =    0.921402
                kinetic =    1.955040
    potential(screened) =   -1.033637
       potential(ionic) =   -3.679558
atom: Total number of Sankey-type orbitals: 13

atm_pop: Valence configuration (for local Pseudopot. screening):
 2s( 2.00)                                                            
 2p( 2.00)                                                            
Vna: chval, zval:    4.00000   4.00000

Vna:  Cut-off radius for the neutral-atom potential:   7.638387

atom: _________________________________________________________________________

prinput: Basis input ----------------------------------------------------------

PAO.BasisType split     

%block ChemicalSpeciesLabel
    1    6 C-gga                   # Species index, atomic number, species label
%endblock ChemicalSpeciesLabel

%block PAO.Basis                 # Define Basis set
C-gga                 2                    # Species label, number of l-shells
 n=2   0   2                         # n, l, Nzeta 
   5.949      3.519   
   1.000      1.000   
 n=2   1   2 P   1                   # n, l, Nzeta, Polarization, NzetaPol
   7.638      3.841   
   1.000      1.000   
%endblock PAO.Basis

prinput: ----------------------------------------------------------------------

coor:   Atomic-coordinates input format  =     Cartesian coordinates
coor:                                          (in Angstroms)

siesta: Atomic coordinates (Bohr) and species
siesta:      0.00000   0.00000   1.80718  1        1
siesta:      0.00000   0.00000   5.42154  1        2
siesta:     -2.32814   4.03246   1.80718  1        3
siesta:     -4.65629   8.06493   5.42154  1        4
siesta:      4.65629   8.06493   1.80718  1        5
siesta:      2.32814   4.03246   5.42154  1        6
siesta:      4.65629   0.00000   1.80718  1        7
siesta:      9.31257   0.00000   5.42154  1        8
siesta:      4.65629   0.00000   5.42154  1        9
siesta:      9.31257   0.00000   1.80718  1       10
siesta:      4.65629   8.06493   5.42154  1       11
siesta:      2.32814   4.03246   1.80718  1       12
siesta:     -2.32814   4.03246   5.42154  1       13
siesta:     -4.65629   8.06493   1.80718  1       14
siesta:      0.00000   8.06493   1.80718  1       15
siesta:      6.98443   4.03246   5.42154  1       16
siesta:      6.98443   4.03246   1.80718  1       17
siesta:      0.00000   8.06493   5.42154  1       18
siesta:      0.00000   2.68831   1.80718  1       19
siesta:      6.98443   9.40908   5.42154  1       20
siesta:      4.65629  10.75324   1.80718  1       21
siesta:      2.32814   1.34415   5.42154  1       22
siesta:     -4.65629  10.75324   1.80718  1       23
siesta:     11.64072   1.34415   5.42154  1       24
siesta:     -2.32814   6.72077   1.80718  1       25
siesta:      9.31257   5.37662   5.42154  1       26
siesta:      2.32815   6.72077   1.80718  1       27
siesta:      4.65628   5.37662   5.42154  1       28
siesta:     -0.00000  10.75324   1.80718  1       29
siesta:      6.98443   1.34415   5.42154  1       30
siesta:      4.65629   2.68831   1.80718  1       31
siesta:      2.32814   9.40908   5.42154  1       32
siesta:      9.31258   2.68831   1.80718  1       33
siesta:     -2.32815   9.40908   5.42154  1       34
siesta:      6.98443   6.72077   1.80718  1       35
siesta:      0.00000   5.37662   5.42154  1       36

siesta: System type = bulk      

initatomlists: Number of atoms, orbitals, and projectors:     36   468   324

siesta: ******************** Simulation parameters ****************************
siesta:
siesta: The following are some of the parameters of the simulation.
siesta: A complete list of the parameters used, including default values,
siesta: can be found in file out.fdf
siesta:
redata: Spin configuration                          = none
redata: Number of spin components                   = 1
redata: Time-Reversal Symmetry                      = T
redata: Spin spiral                                 = F
redata: Long output                                 =   F
redata: Number of Atomic Species                    =        1
redata: Charge density info will appear in .RHO file
redata: Write Mulliken Pop.                         = NO
redata: Matel table size (NRTAB)                    =     1024
redata: Mesh Cutoff                                 =   300.0000 Ry
redata: Net charge of the system                    =     0.0000 |e|
redata: Min. number of SCF Iter                     =        0
redata: Max. number of SCF Iter                     =     1000
redata: SCF convergence failure will abort job
redata: SCF mix quantity                            = Hamiltonian
redata: Mix DM or H after convergence               =   F
redata: Recompute H after scf cycle                 =   F
redata: Mix DM in first SCF step                    =   T
redata: Write Pulay info on disk                    =   F
redata: New DM Occupancy tolerance                  = 0.000000000001
redata: No kicks to SCF
redata: DM Mixing Weight for Kicks                  =     0.5000
redata: Require Harris convergence for SCF          =   F
redata: Harris energy tolerance for SCF             =     0.000100 eV
redata: Require DM convergence for SCF              =   T
redata: DM tolerance for SCF                        =     0.001000
redata: Require EDM convergence for SCF             =   F
redata: EDM tolerance for SCF                       =     0.005000 eV
redata: Require H convergence for SCF               =   T
redata: Hamiltonian tolerance for SCF               =     0.001000 eV
redata: Require (free) Energy convergence for SCF   =   T
redata: (free) Energy tolerance for SCF             =     0.001000 eV
redata: Using Saved Data (generic)                  =   F
redata: Use continuation files for DM               =   F
redata: Neglect nonoverlap interactions             =   F
redata: Method of Calculation                       = Diagonalization
redata: Electronic Temperature                      =   299.9869 K
redata: Fix the spin of the system                  =   F
redata: Dynamics option                             = Single-point calculation
mix.SCF: Pulay mixing                            = Pulay
mix.SCF:    Variant                              = stable
mix.SCF:    History steps                        = 4
mix.SCF:    Linear mixing weight                 =     0.250000
mix.SCF:    Mixing weight                        =     0.250000
mix.SCF:    SVD condition                        = 0.1000E-07
redata: ***********************************************************************

%block SCF.Mixers
  Pulay
%endblock SCF.Mixers

%block SCF.Mixer.Pulay
  # Mixing method
  method pulay
  variant stable

  # Mixing options
  weight 0.2500
  weight.linear 0.2500
  history 4
%endblock SCF.Mixer.Pulay

DM_history_depth set to one: no extrapolation allowed by default for geometry relaxation
Size of DM history Fstack: 1
Total number of electrons:   144.000000
Total ionic charge:   144.000000

* ProcessorY, Blocksize:    4   1


* Orbital distribution balance (max,min):    24    23

k-point displ. along   1 input, could be:     0.00    0.50
k-point displ. along   2 input, could be:     0.00    0.50
k-point displ. along   3 input, could be:     0.00    0.50
 Kpoints in:           48 . Kpoints trimmed:           44

siesta: k-grid: Number of k-points =    44
siesta: k-grid: Cutoff (effective) =     7.651 Ang
siesta: k-grid: Supercell and displacements
siesta: k-grid:    4   0   0      0.000
siesta: k-grid:    0   4   0      0.000
siesta: k-grid:    0   0   4      0.000

diag: Algorithm                                     = Expert
diag: Parallel over k                               =   T
diag: Use parallel 2D distribution                  =   T
diag: Parallel block-size                           = 1
diag: Parallel distribution                         =     4 x     5
diag: Used triangular part                          = Lower
diag: Absolute tolerance                            =  0.100E-15
diag: Orthogonalization factor                      =  0.100E-05
diag: Memory factor                                 =  1.0000

superc: Internal auxiliary supercell:     5 x     5 x     5  =     125
superc: Number of atoms, orbitals, and projectors:   4500  58500  40500


ts: **************************************************************
ts: Save H and S matrices                           =    F
ts: Save DM and EDM matrices                        =    F
ts: Only save the overlap matrix S                  =    F
ts: **************************************************************

************************ Begin: TS CHECKS AND WARNINGS ************************
************************ End: TS CHECKS AND WARNINGS **************************


                     ====================================
                        Single-point calculation
                     ====================================

outcoor: Atomic coordinates (Ang):                          
    0.00000000    0.00000000    0.95631750   1       1  C-gga
    0.00000000    0.00000000    2.86895250   1       2  C-gga
   -1.23200000    2.13388659    0.95631750   1       3  C-gga
   -2.46400000    4.26777319    2.86895250   1       4  C-gga
    2.46400000    4.26777319    0.95631750   1       5  C-gga
    1.23200000    2.13388659    2.86895250   1       6  C-gga
    2.46400000    0.00000000    0.95631750   1       7  C-gga
    4.92800000    0.00000000    2.86895250   1       8  C-gga
    2.46400000    0.00000000    2.86895250   1       9  C-gga
    4.92800000    0.00000000    0.95631750   1      10  C-gga
    2.46400000    4.26777319    2.86895250   1      11  C-gga
    1.23200000    2.13388659    0.95631750   1      12  C-gga
   -1.23200000    2.13388659    2.86895250   1      13  C-gga
   -2.46400000    4.26777319    0.95631750   1      14  C-gga
    0.00000000    4.26777319    0.95631750   1      15  C-gga
    3.69600000    2.13388659    2.86895250   1      16  C-gga
    3.69600000    2.13388659    0.95631750   1      17  C-gga
    0.00000000    4.26777319    2.86895250   1      18  C-gga
    0.00000000    1.42258964    0.95631750   1      19  C-gga
    3.69600000    4.97907014    2.86895250   1      20  C-gga
    2.46400123    5.69036496    0.95631750   1      21  C-gga
    1.23199877    0.71129482    2.86895250   1      22  C-gga
   -2.46400123    5.69036496    0.95631750   1      23  C-gga
    6.16000123    0.71129482    2.86895250   1      24  C-gga
   -1.23200000    3.55647624    0.95631750   1      25  C-gga
    4.92800000    2.84518355    2.86895250   1      26  C-gga
    1.23200123    3.55647837    0.95631750   1      27  C-gga
    2.46399877    2.84518142    2.86895250   1      28  C-gga
   -0.00000123    5.69036496    0.95631750   1      29  C-gga
    3.69600123    0.71129482    2.86895250   1      30  C-gga
    2.46400000    1.42258964    0.95631750   1      31  C-gga
    1.23200000    4.97907014    2.86895250   1      32  C-gga
    4.92800123    1.42259177    0.95631750   1      33  C-gga
   -1.23200123    4.97906801    2.86895250   1      34  C-gga
    3.69599877    3.55647837    0.95631750   1      35  C-gga
    0.00000123    2.84518142    2.86895250   1      36  C-gga

superc: Internal auxiliary supercell:     5 x     5 x     5  =     125
superc: Number of atoms, orbitals, and projectors:   4500  58500  40500

outcell: Unit cell vectors (Ang):
        7.392000    0.000000    0.000000
       -3.696000    6.401660    0.000000
        0.000000    0.000000    3.825270

outcell: Cell vector modules (Ang)   :    7.392000    7.392000    3.825270
outcell: Cell angles (23,13,12) (deg):     90.0000     90.0000    120.0000
outcell: Cell volume (Ang**3)        :    181.0159
<dSpData1D:S at geom step 0
  <sparsity:sparsity for geom step 0
    nrows_g=468 nrows=24 sparsity=.6220 nnzs=136224, refcount: 7>
  <dData1D:(new from dSpData1D) n=136224, refcount: 1>
refcount: 1>
new_DM -- step:     1
Initializing Density Matrix...
DM filled with atomic data:
<dSpData2D:DM initialized from atoms
  <sparsity:sparsity for geom step 0
    nrows_g=468 nrows=24 sparsity=.6220 nnzs=136224, refcount: 8>
  <dData2D:DM n=136224 m=1, refcount: 1>
refcount: 1>
No. of atoms with KB's overlaping orbs in proc 0. Max # of overlaps:     353     984
New grid distribution:   1
           1       1:   36    1:    9    1:    4
           2       1:   36    1:    9    5:    8
           3       1:   36    1:    9    9:   12
           4       1:   36    1:    9   13:   16
           5       1:   36    1:    9   17:   20
           6       1:   36   10:   18    1:    4
           7       1:   36   10:   18    5:    8
           8       1:   36   10:   18    9:   12
           9       1:   36   10:   18   13:   16
          10       1:   36   10:   18   17:   20
          11       1:   36   19:   27    1:    4
          12       1:   36   19:   27    5:    8
          13       1:   36   19:   27    9:   12
          14       1:   36   19:   27   13:   16
          15       1:   36   19:   27   17:   20
          16       1:   36   28:   36    1:    4
          17       1:   36   28:   36    5:    8
          18       1:   36   28:   36    9:   12
          19       1:   36   28:   36   13:   16
          20       1:   36   28:   36   17:   20

InitMesh: MESH =    72 x    72 x    40 =      207360
InitMesh: (bp) =    36 x    36 x    20 =       25920
InitMesh: Mesh cutoff (required, used) =   300.000   302.202 Ry
ExtMesh (bp) on 0 =   128 x   101 x    92 =     1189376
New grid distribution:   2
           1      10:   18   25:   36    9:   20
           2      28:   36   25:   36    9:   20
           3       1:   18    1:    6    9:   20
           4      19:   36    1:    6    9:   20
           5       1:   18   28:   36    1:    8
           6      19:   36   28:   36    1:    8
           7      28:   36    7:   18    9:   20
           8       1:    9    7:   18    9:   20
           9      10:   18    7:   18    9:   20
          10      19:   27    7:   18    9:   20
          11       1:   18   19:   27    1:    8
          12      19:   36   19:   27    1:    8
          13       1:   18   19:   24    9:   20
          14      19:   36   19:   24    9:   20
          15       1:   18    1:    9    1:    8
          16      19:   36    1:    9    1:    8
          17       1:   18   10:   18    1:    8
          18       1:    9   25:   36    9:   20
          19      19:   27   25:   36    9:   20
          20      19:   36   10:   18    1:    8
New grid distribution:   3
           1      10:   18   25:   36    9:   20
           2      28:   36   25:   36    9:   20
           3       1:   18    1:    6    9:   20
           4      19:   36    1:    6    9:   20
           5       1:   18   28:   36    1:    8
           6      19:   36   28:   36    1:    8
           7      28:   36    7:   18    9:   20
           8       1:    9    7:   18    9:   20
           9      10:   18    7:   18    9:   20
          10      19:   27    7:   18    9:   20
          11       1:   18   19:   27    1:    8
          12      19:   36   19:   27    1:    8
          13       1:   18   19:   24    9:   20
          14      19:   36   19:   24    9:   20
          15       1:   18    1:    9    1:    8
          16      19:   36    1:    9    1:    8
          17       1:   18   10:   18    1:    8
          18       1:    9   25:   36    9:   20
          19      19:   27   25:   36    9:   20
          20      19:   36   10:   18    1:    8
Setting up quadratic distribution...
ExtMesh (bp) on 0 =   101 x   104 x   100 =     1050400
PhiOnMesh: Number of (b)points on node 0 =                 1296
PhiOnMesh: nlist on node 0 =               678174

stepf: Fermi-Dirac step function

siesta: Program's energy decomposition (eV):
siesta: Ebs     =     -2526.586440
siesta: Eions   =      9434.507561
siesta: Ena     =      2126.521505
siesta: Ekin    =      4252.942020
siesta: Enl     =      -435.855111
siesta: Eso     =         0.000000
siesta: Edftu   =         0.000000
siesta: DEna    =      -270.159932
siesta: DUscf   =        24.090068
siesta: DUext   =         0.000000
siesta: Exc     =     -1787.033521
siesta: eta*DQ  =         0.000000
siesta: Emadel  =         0.000000
siesta: Emeta   =         0.000000
siesta: Emolmec =        -8.049132
siesta: Ekinion =         0.000000
siesta: Eharris =     -5227.589067
siesta: Etot    =     -5532.051665
siesta: FreeEng =     -5532.064517

        iscf     Eharris(eV)        E_KS(eV)     FreeEng(eV)     dDmax    Ef(eV) dHmax(eV)
   scf:    1    -5227.589067    -5532.051665    -5532.064517  1.828475 -7.877977  1.626705
timer: Routine,Calls,Time,% = IterSCF        1      22.072  76.03
   scf:    2    -5534.066646    -5533.080846    -5533.092979  0.204962 -7.651706  1.102245
   scf:    3    -5534.830903    -5534.039796    -5534.054703  0.379576 -7.152667  0.071003
   scf:    4    -5534.052008    -5534.048588    -5534.064326  0.006348 -7.161984  0.005167
   scf:    5    -5534.047779    -5534.048266    -5534.064249  0.005102 -7.166151  0.011256
   scf:    6    -5534.048791    -5534.048580    -5534.064416  0.001687 -7.164683  0.002809
   scf:    7    -5534.048568    -5534.048574    -5534.064417  0.000315 -7.164849  0.000219

SCF Convergence by FreeE+DM+H criterion
|FreeE_i-FreeE_(i-1)| (eV) <     0.00100000
max |DM_out - DM_in|         :     0.0003145867
max |H_out - H_in|      (eV) :     0.0002190517
SCF cycle converged after 7 iterations

Using DM_out to compute the final energy and forces
No. of atoms with KB's overlaping orbs in proc 0. Max # of overlaps:     353     984

MM-Stress (kbar):       70.82       70.82       84.55        0.00       -0.00        0.00

siesta: E_KS(eV) =            -5534.0486

siesta: E_KS - E_eggbox =     -5534.0486

siesta: Atomic forces (eV/Ang):
     1   -0.000120    0.000069   -0.000000
     2    0.000120   -0.000069   -0.000000
     3   -0.000077    0.000035   -0.000000
     4    0.000077   -0.000035   -0.000000
     5   -0.000112    0.000124   -0.000000
     6    0.000112   -0.000124   -0.000000
     7   -0.000172    0.000049   -0.000000
     8    0.000172   -0.000049   -0.000000
     9    0.000111   -0.000089   -0.000000
    10   -0.000111    0.000089   -0.000000
    11    0.000108   -0.000052   -0.000000
    12   -0.000108    0.000052   -0.000000
    13    0.000142   -0.000067   -0.000000
    14   -0.000142    0.000067   -0.000000
    15   -0.000120    0.000069   -0.000000
    16    0.000120   -0.000069   -0.000000
    17   -0.000120    0.000070   -0.000000
    18    0.000120   -0.000069   -0.000000
    19    0.000130    0.000031    0.000000
    20   -0.000130   -0.000031    0.000000
    21    0.000031   -0.000116    0.000000
    22   -0.000031    0.000116    0.000000
    23    0.000208   -0.000128    0.000000
    24   -0.000208    0.000129    0.000000
    25    0.000135    0.000014    0.000000
    26   -0.000135   -0.000015    0.000000
    27    0.000043   -0.000103    0.000000
    28   -0.000043    0.000103    0.000000
    29    0.000191   -0.000124    0.000000
    30   -0.000191    0.000124    0.000000
    31    0.000130    0.000016    0.000000
    32   -0.000130   -0.000016    0.000000
    33    0.000045   -0.000108    0.000000
    34   -0.000045    0.000109    0.000000
    35    0.000195   -0.000120    0.000000
    36   -0.000194    0.000120    0.000000
----------------------------------------
   Tot    0.000000    0.000000    0.000000
----------------------------------------
   Max    0.000208
   Res    0.000090    sqrt( Sum f_i^2 / 3N )
----------------------------------------
   Max    0.000208    constrained

Stress tensor Voigt[x,y,z,yz,xz,xy] (kbar):     -213.54     -213.76    -2337.97        0.00        0.00       -0.19
(Free)E + p*V (eV/cell)    -5429.9242
Target enthalpy (eV/cell)    -5534.0644

siesta: Eigenvalues (eV):
  ik is       eps
   1  1  -30.7770  -30.0745  -30.0745  -28.0010  -28.0010  -26.6609  -26.0471  -26.0471  -25.1466  -24.1281
         -24.0425  -23.7888  -23.7888  -23.5604  -23.5604  -21.9419  -21.9419  -21.1878  -21.1231  -20.6820
  -20.2006  -20.2006  -20.1392  -20.1392  -19.8813  -19.8813  -19.7866  -19.6969  -19.1780  -18.6817
  -18.6817  -18.2558  -18.2558  -18.2181  -17.5883  -17.5883  -17.0917  -17.0917  -16.7114  -16.7114
  -16.3054  -16.2073  -15.8129  -15.8098  -15.8098  -15.5949  -15.5949  -15.3000  -15.3000  -15.1633
  -14.9965  -14.6325  -14.4225  -14.4225  -14.0446  -13.9353  -13.9353  -13.2887  -13.2886  -12.4412
  -12.4412  -12.0604  -11.7337  -11.4310  -11.4310  -11.3811   -9.0566   -7.9611   -7.9611   -7.5129
   -6.2751   -6.0276   -6.0276   -5.7871   -5.7871   -5.7869   -4.5966   -4.5966   -3.7393   -3.7393
   -3.6662   -3.6661   -1.9459   -1.9417   -1.9417   -1.4953   -1.2812   -0.9195   -0.9195   -0.6055
    0.5440    0.5440    0.6089    0.6561    0.6561    0.6681    0.8846    0.8846    1.6398    1.7451
    1.8012    2.2377    2.2377    2.5899    2.8811    2.8811    2.8844    2.8844    3.0354    3.4360
    3.4360    4.2608    4.5014    4.5014    4.9838    4.9838    5.0856    5.1483    5.1483    6.6465
    6.8453    7.1752    7.2989    7.2989    7.6056    8.0680    8.0680    8.0937    8.4019    8.4019
    9.9329    9.9329    9.9718    9.9718   10.7123   10.7471   10.7471   10.8364   11.7220   11.8231
   11.8231   12.0154   12.0154   12.2620   12.2620   12.2954   12.2954   12.3494   12.9178   12.9178
   12.9401   12.9846   12.9846   13.1860   13.1860   13.6797   13.8845   14.5447   14.6382   14.7924
   15.1740   15.1740   15.3816   15.4045   15.4045   15.6081   15.9063   15.9063   15.9737   15.9813
   16.6737   16.7385   16.7385   17.5759   17.7132   17.7132   18.4861   18.4861   18.6244   18.6244
   20.0549   20.0549   21.5706   22.7255   22.7255   23.0799   23.7758   24.0286   24.2397   24.5791
   24.5792   24.8431   24.8431   24.8674   24.8674   25.1767   25.1767   25.6440   28.0718   28.9966
   29.0292   29.0906   29.5498   29.5498   30.2574   30.2966   30.2966   30.9289   31.8435   31.8435
   33.0277   33.0277   33.5815   33.5815   35.1713   35.1713   36.4044   36.4044   36.7099   36.7099
   37.1939   37.1939   38.9051   38.9051   38.9555   38.9555   39.1352   39.3153   39.3154   39.3894
   39.6260   39.9104   39.9104   39.9462   40.4320   40.4320   40.6664   40.8022   40.8022   41.3221
   41.3221   41.8275   41.8529   41.8529   42.2288   42.2799   42.2980   42.6815   42.6815   42.7458
   43.0423   43.9268   43.9268   44.1219   44.1219   44.2792   44.9968   44.9968   45.0968   45.1163
   45.1163   45.1201   45.6470   45.8256   46.2387   46.2387   46.4754   47.2748   47.2748   47.9820
   48.3663   48.3664   48.4502   48.4503   49.0071   49.0071   49.2831   50.7120   50.7120   52.5534
   53.6432   54.8202   54.8566   54.8566   56.5013   56.6401   57.7381   57.7382   58.4763   58.4764
   59.5680   59.9302   60.4631   60.5666   60.5666   60.6488   60.6488   60.6671   61.0711   61.5623
   61.5623   61.7285   61.7285   62.0179   62.0179   62.6194   62.6194   62.7082   62.7083   62.9534
   63.7531   63.8480   64.0974   64.0974   64.1937   64.2300   64.2300   64.5335   64.5335   64.6349
   65.6297   65.7199   65.9684   66.0439   66.0440   66.9151   66.9151   67.5596   67.5596   67.9989
   68.5992   68.5992   68.9575   69.9546   70.0450   70.0451   70.8197   70.8198   71.0905   71.8102
   71.8102   71.8251   71.8251   71.8660   72.4100   72.9480   73.2743   73.2743   73.7639   73.7639
   73.8741   73.8774   74.0546   75.3976   75.3976   77.4827   77.4828   77.6654   77.7152   79.3439
   79.3440   80.1527   80.1527   80.4911   81.7165   81.9012   82.1398   82.1399   82.4413   82.9709
   82.9710   84.6426   84.6428   84.9182   84.9183   87.7244   87.9937   88.8211   88.8212   89.4204
   89.4206   89.6939   89.6939   90.2700   91.6647   91.6647   91.9336   91.9338   92.0648   92.1387
   92.1388   93.8069   93.8072   96.8226   96.8226   96.8446   96.8448   96.8756   99.1102   99.1102
   99.2845  101.1946  101.3350  101.3351  101.5192  101.7616  102.9076  102.9076  103.7037  104.8369
  105.2150  105.4825  105.4827  110.5742  112.1993  112.1997  112.5056  112.5057  113.4465  113.6292
  114.6758  119.3632  119.3635  119.8976  119.8978  122.8536  124.8288  124.8290  127.8157  127.8160
  128.7805  129.1585  129.1594  130.3453  131.0900  131.0908  132.3892  135.5773  135.5775  136.0302
  136.1413  136.1432  139.7907  140.0522  140.8251  140.8253  142.3074  142.3256  142.3274  144.5472
  144.8873  144.8876  145.9893  145.9896  147.2124  150.8335  150.8343  153.9658  154.9891  154.9899
  157.1255  157.1266  157.4206  162.6029  166.7093  170.0507  170.0510  185.0638
   2  1  -31.1289  -29.7243  -29.0295  -29.0295  -27.6615  -27.6615  -26.9953  -25.1093  -25.1092  -24.4149
         -23.2796  -22.8962  -22.8940  -22.8940  -22.7295  -22.7294  -21.9377  -21.9377  -21.2362  -21.2361
  -21.0872  -21.0725  -21.0724  -20.9617  -19.4874  -19.2023  -19.2022  -19.1399  -19.1397  -18.7121
  -18.7121  -17.9452  -17.8534  -17.6764  -17.6764  -17.2479  -17.2479  -17.2472  -17.2472  -16.6100
  -16.4580  -16.4578  -16.3705  -16.3177  -16.3174  -16.2931  -16.2929  -15.0365  -14.9218  -14.9215
  -14.9197  -14.9197  -14.2680  -13.6565  -13.6561  -13.4324  -13.3958  -13.1282  -13.1278  -12.9932
  -12.4030  -11.5230  -11.2537  -10.6822  -10.4255  -10.4255   -9.4443   -9.4443   -8.1774   -8.1774
   -7.0641   -7.0641   -6.2645   -5.8773   -4.7177   -4.7177   -4.6796   -4.6796   -4.4352   -4.0464
   -4.0051   -3.3613   -3.3612   -3.2141   -2.7653   -2.7652   -1.3705   -0.8336   -0.5083    0.7093
    0.7093    0.7117    0.7200    0.8818    0.8818    1.4038    1.4040    1.4910    1.6621    1.6621
    1.8306    2.2066    2.5654    2.6294    2.6295    2.7809    3.3232    3.3234    3.6909    3.6911
    3.7202    4.5470    4.5471    4.8017    5.1562    5.7012    5.7438    5.7440    5.9744    6.7640
    6.7643    6.9732    6.9738    7.5935    7.5937    8.0757    8.0757    8.5165    9.1848    9.3987
    9.3992    9.5757    9.7773   10.0654   10.0655   10.5560   10.5560   10.6696   10.6699   10.7375
   10.7376   11.0875   11.3985   11.5998   11.5999   11.6662   11.6662   11.9146   11.9641   11.9645
   12.8815   12.9153   12.9154   13.0069   13.5650   13.5655   13.6986   13.6990   13.8997   13.8997
   14.4287   15.7453   15.7455   16.0409   16.0999   16.1000   16.2190   16.2190   16.4286   16.4286
   16.5973   16.8053   16.8805   17.0221   18.8789   18.8799   18.9512   19.0824   19.2702   19.2707
   20.1830   21.3488   21.3488   22.9581   23.0446   23.0446   23.4532   23.4532   23.6813   23.6814
   23.8670   25.2237   25.4047   25.5593   25.5595   25.5740   25.5743   25.6478   26.2166   26.9660
   27.4224   27.4226   27.6028   29.0469   29.0470   30.9571   30.9576   32.6279   32.8316   32.8323
   33.2299   33.7235   33.7237   35.1998   35.2643   35.4744   35.7042   35.7043   36.0642   36.0649
   36.3952   36.3953   37.9819   38.0096   38.0097   38.6469   39.3697   39.3814   39.3814   39.6287
   39.6293   40.3929   40.3931   40.6171   40.6171   40.8835   41.3254   41.3255   41.3363   41.4241
   41.6261   42.2666   42.2667   42.6897   42.6897   42.8484   42.8484   43.1336   43.1337   43.3829
   43.5384   43.6629   43.8626   45.3237   45.3241   45.4712   45.8876   45.8878   46.1275   46.1279
   46.2150   46.2152   46.3436   46.8788   46.8789   47.0718   47.0721   47.2065   47.2065   47.6279
   47.6452   47.6453   47.7401   48.2526   48.5746   49.0639   50.3512   50.3516   50.3755   52.9550
   52.9551   55.9502   56.3299   56.3304   57.1565   57.1672   57.1673   57.7786   57.9139   58.3192
   58.3716   58.3718   59.1204   59.2731   59.2731   59.8135   60.2055   60.2057   60.8608   60.8614
   61.4060   61.4065   61.8788   61.8794   61.9910   62.1357   62.1359   63.2438   63.5364   63.9230
   63.9247   64.2404   64.3242   64.8499   64.8501   65.0276   65.5041   66.3493   66.4368   66.7850
   67.0658   67.0659   67.6742   67.6744   67.7175   67.7176   67.8492   67.8492   67.8832   67.9366
   68.1575   68.2007   68.2009   68.8677   69.6264   69.6269   69.6385   69.6388   70.2629   70.2632
   70.5384   70.8345   70.8348   70.8521   71.6725   71.7414   71.7418   71.8873   73.3965   73.3974
   73.6372   73.6372   73.7558   74.4293   74.4294   74.9836   74.9837   75.2079   77.2858   77.6298
   77.6299   80.6279   80.9025   80.9044   82.8818   84.1833   84.5414   84.7022   85.6609   85.6616
   85.7166   85.7168   87.1956   87.2221   87.2235   88.5731   88.5734   88.9437   88.9448   89.4079
   89.4464   89.7592   90.4801   91.2083   91.2086   93.3517   93.3525   94.1605   94.1607   94.7551
   94.9595   94.9620   95.0353   98.9937   98.9951   99.2784   99.8467   99.8475  101.5581  101.5583
  101.8371  102.8588  104.8726  104.9258  104.9267  104.9293  104.9297  105.6171  105.6171  108.0975
  110.9760  110.9767  112.4852  112.4857  113.1368  113.6466  113.9877  115.8212  115.8221  116.3370
  116.3844  116.3848  118.4084  118.4100  120.6265  120.6288  124.4258  125.3274  125.3279  127.3505
  128.2787  130.7455  130.7463  131.2103  131.5942  131.6699  133.3044  133.3054  133.4287  138.6398
  140.4259  140.4265  140.7279  140.9486  140.9524  141.2385  141.2399  141.7514  141.7544  142.5317
  142.9669  142.9674  143.3004  143.3013  145.2984  145.3007  148.3101  148.3117  150.0156  157.2082
  157.2097  158.8441  158.9239  158.9244  161.8608  162.3835  162.3841  192.5224
   3  1  -31.1289  -29.7243  -29.0295  -29.0295  -27.6615  -27.6615  -26.9953  -25.1092  -25.1092  -24.4149
         -23.2796  -22.8961  -22.8941  -22.8941  -22.7295  -22.7295  -21.9377  -21.9377  -21.2362  -21.2362
  -21.0872  -21.0724  -21.0724  -20.9616  -19.4874  -19.2022  -19.2022  -19.1399  -19.1399  -18.7121
  -18.7121  -17.9450  -17.8533  -17.6765  -17.6765  -17.2479  -17.2479  -17.2471  -17.2471  -16.6100
  -16.4579  -16.4579  -16.3708  -16.3176  -16.3176  -16.2929  -16.2929  -15.0369  -14.9216  -14.9216
  -14.9197  -14.9197  -14.2677  -13.6561  -13.6561  -13.4328  -13.3954  -13.1278  -13.1278  -12.9936
  -12.4034  -11.5225  -11.2542  -10.6822  -10.4255  -10.4255   -9.4443   -9.4443   -8.1774   -8.1774
   -7.0641   -7.0641   -6.2646   -5.8773   -4.7177   -4.7177   -4.6796   -4.6796   -4.4350   -4.0464
   -4.0051   -3.3614   -3.3614   -3.2139   -2.7653   -2.7653   -1.3701   -0.8336   -0.5088    0.7093
    0.7093    0.7117    0.7204    0.8818    0.8818    1.4039    1.4039    1.4904    1.6621    1.6621
    1.8308    2.2070    2.5654    2.6294    2.6294    2.7812    3.3232    3.3232    3.6912    3.6912
    3.7195    4.5468    4.5468    4.8020    5.1562    5.7013    5.7437    5.7437    5.9737    6.7642
    6.7642    6.9738    6.9738    7.5934    7.5934    8.0759    8.0759    8.5172    9.1852    9.3993
    9.3993    9.5748    9.7773   10.0659   10.0659   10.5560   10.5560   10.6695   10.6695   10.7374
   10.7374   11.0865   11.3992   11.5999   11.5999   11.6662   11.6662   11.9146   11.9639   11.9639
   12.8815   12.9152   12.9152   13.0070   13.5653   13.5653   13.6992   13.6992   13.8997   13.8997
   14.4293   15.7452   15.7452   16.0408   16.1001   16.1001   16.2190   16.2190   16.4286   16.4286
   16.5973   16.8054   16.8806   17.0221   18.8792   18.8792   18.9522   19.0832   19.2698   19.2698
   20.1831   21.3488   21.3488   22.9582   23.0446   23.0446   23.4532   23.4532   23.6813   23.6813
   23.8670   25.2236   25.4053   25.5589   25.5590   25.5743   25.5743   25.6479   26.2166   26.9665
   27.4225   27.4225   27.6022   29.0469   29.0469   30.9570   30.9570   32.6268   32.8322   32.8322
   33.2298   33.7243   33.7243   35.1986   35.2641   35.4749   35.7043   35.7043   36.0652   36.0652
   36.3954   36.3954   37.9805   38.0096   38.0096   38.6471   39.3701   39.3813   39.3813   39.6290
   39.6290   40.3932   40.3932   40.6171   40.6171   40.8840   41.3254   41.3254   41.3365   41.4225
   41.6276   42.2666   42.2666   42.6896   42.6896   42.8483   42.8483   43.1336   43.1336   43.3812
   43.5399   43.6614   43.8628   45.3240   45.3240   45.4713   45.8879   45.8879   46.1278   46.1278
   46.2150   46.2150   46.3447   46.8786   46.8786   47.0721   47.0721   47.2065   47.2065   47.6281
   47.6452   47.6452   47.7404   48.2524   48.5743   49.0627   50.3516   50.3516   50.3756   52.9552
   52.9552   55.9503   56.3304   56.3304   57.1570   57.1673   57.1673   57.7771   57.9141   58.3188
   58.3719   58.3719   59.1201   59.2729   59.2730   59.8138   60.2047   60.2047   60.8620   60.8621
   61.4064   61.4064   61.8799   61.8799   61.9924   62.1355   62.1355   63.2443   63.5367   63.9244
   63.9244   64.2406   64.3224   64.8497   64.8497   65.0250   65.5040   66.3489   66.4339   66.7879
   67.0659   67.0659   67.6744   67.6744   67.7169   67.7170   67.8491   67.8491   67.8802   67.9367
   68.1578   68.2007   68.2007   68.8706   69.6276   69.6277   69.6385   69.6385   70.2633   70.2633
   70.5367   70.8343   70.8344   70.8517   71.6725   71.7420   71.7420   71.8889   73.3962   73.3963
   73.6372   73.6372   73.7577   74.4293   74.4294   74.9837   74.9837   75.2051   77.2860   77.6297
   77.6298   80.6279   80.9040   80.9041   82.8818   84.1847   84.5416   84.7035   85.6612   85.6616
   85.7165   85.7165   87.1939   87.2244   87.2245   88.5731   88.5733   88.9427   88.9430   89.4083
   89.4483   89.7608   90.4776   91.2081   91.2082   93.3504   93.3504   94.1605   94.1606   94.7576
   94.9599   94.9600   95.0364   98.9939   98.9940   99.2804   99.8467   99.8467  101.5581  101.5582
  101.8387  102.8591  104.8731  104.9262  104.9263  104.9303  104.9305  105.6165  105.6166  108.0953
  110.9759  110.9760  112.4852  112.4853  113.1369  113.6433  113.9847  115.8233  115.8235  116.3379
  116.3842  116.3844  118.4092  118.4096  120.6276  120.6284  124.4286  125.3286  125.3289  127.3471
  128.2809  130.7455  130.7460  131.2116  131.5904  131.6709  133.3048  133.3050  133.4280  138.6336
  140.4266  140.4270  140.7287  140.9516  140.9527  141.2385  141.2386  141.7558  141.7568  142.5265
  142.9663  142.9665  143.3021  143.3034  145.2995  145.3001  148.3088  148.3095  150.0175  157.2081
  157.2088  158.8440  158.9245  158.9249  161.8614  162.3817  162.3835  192.5227
   4  1  -30.7770  -30.0745  -30.0745  -28.0010  -28.0010  -26.6609  -26.0471  -26.0470  -25.1466  -24.1281
         -24.0426  -23.7889  -23.7888  -23.5604  -23.5604  -21.9419  -21.9419  -21.1877  -21.1231  -20.6820
  -20.2006  -20.2005  -20.1393  -20.1393  -19.8813  -19.8813  -19.7866  -19.6969  -19.1781  -18.6817
  -18.6816  -18.2557  -18.2556  -18.2180  -17.5883  -17.5883  -17.0919  -17.0917  -16.7115  -16.7112
  -16.3054  -16.2073  -15.8130  -15.8098  -15.8098  -15.5952  -15.5950  -15.3002  -15.3000  -15.1633
  -14.9962  -14.6323  -14.4222  -14.4222  -14.0448  -13.9357  -13.9353  -13.2885  -13.2883  -12.4416
  -12.4412  -12.0603  -11.7340  -11.4310  -11.4310  -11.3811   -9.0566   -7.9612   -7.9611   -7.5129
   -6.2751   -6.0276   -6.0276   -5.7871   -5.7871   -5.7869   -4.5966   -4.5966   -3.7393   -3.7393
   -3.6662   -3.6661   -1.9459   -1.9416   -1.9414   -1.4953   -1.2810   -0.9196   -0.9195   -0.6056
    0.5440    0.5440    0.6089    0.6559    0.6560    0.6681    0.8846    0.8846    1.6396    1.7450
    1.8012    2.2377    2.2378    2.5895    2.8811    2.8811    2.8846    2.8848    3.0356    3.4359
    3.4361    4.2608    4.5008    4.5014    4.9835    4.9837    5.0854    5.1482    5.1483    6.6466
    6.8453    7.1752    7.2993    7.2994    7.6054    8.0677    8.0680    8.0936    8.4018    8.4020
    9.9333    9.9334    9.9717    9.9718   10.7123   10.7470   10.7473   10.8367   11.7220   11.8231
   11.8231   12.0151   12.0158   12.2613   12.2614   12.2950   12.2950   12.3497   12.9175   12.9179
   12.9401   12.9845   12.9847   13.1859   13.1860   13.6799   13.8846   14.5447   14.6384   14.7923
   15.1742   15.1748   15.3816   15.4045   15.4045   15.6077   15.9063   15.9063   15.9731   15.9813
   16.6743   16.7385   16.7385   17.5762   17.7133   17.7141   18.4851   18.4858   18.6240   18.6246
   20.0549   20.0549   21.5706   22.7255   22.7255   23.0799   23.7760   24.0287   24.2397   24.5791
   24.5792   24.8429   24.8431   24.8671   24.8676   25.1767   25.1768   25.6440   28.0720   28.9965
   29.0292   29.0903   29.5495   29.5496   30.2574   30.2962   30.2966   30.9286   31.8436   31.8440
   33.0275   33.0276   33.5815   33.5819   35.1713   35.1714   36.4043   36.4044   36.7094   36.7106
   37.1938   37.1939   38.9051   38.9054   38.9555   38.9556   39.1354   39.3148   39.3152   39.3894
   39.6248   39.9100   39.9104   39.9469   40.4320   40.4320   40.6666   40.8025   40.8027   41.3221
   41.3224   41.8276   41.8529   41.8532   42.2280   42.2798   42.2978   42.6814   42.6815   42.7466
   43.0423   43.9264   43.9269   44.1218   44.1218   44.2789   44.9970   44.9971   45.0970   45.1163
   45.1164   45.1199   45.6470   45.8253   46.2391   46.2397   46.4756   47.2747   47.2748   47.9818
   48.3656   48.3662   48.4496   48.4502   49.0071   49.0072   49.2830   50.7119   50.7121   52.5537
   53.6437   54.8203   54.8566   54.8567   56.5013   56.6396   57.7381   57.7382   58.4753   58.4765
   59.5680   59.9295   60.4639   60.5666   60.5672   60.6489   60.6489   60.6666   61.0708   61.5621
   61.5625   61.7278   61.7285   62.0182   62.0183   62.6192   62.6195   62.7083   62.7085   62.9535
   63.7534   63.8475   64.0966   64.0973   64.1948   64.2297   64.2300   64.5336   64.5341   64.6357
   65.6295   65.7201   65.9686   66.0439   66.0442   66.9135   66.9157   67.5595   67.5596   67.9970
   68.5992   68.5993   68.9577   69.9568   70.0449   70.0450   70.8197   70.8198   71.0905   71.8099
   71.8102   71.8243   71.8255   71.8660   72.4083   72.9467   73.2738   73.2740   73.7643   73.7649
   73.8743   73.8776   74.0548   75.3975   75.3992   77.4816   77.4833   77.6639   77.7151   79.3438
   79.3442   80.1527   80.1529   80.4899   81.7161   81.9012   82.1396   82.1399   82.4419   82.9709
   82.9720   84.6436   84.6442   84.9183   84.9187   87.7243   87.9949   88.8197   88.8218   89.4205
   89.4208   89.6931   89.6944   90.2704   91.6654   91.6671   91.9335   91.9338   92.0646   92.1397
   92.1397   93.8069   93.8072   96.8200   96.8207   96.8445   96.8474   96.8752   99.1087   99.1100
   99.2822  101.1957  101.3350  101.3354  101.5191  101.7587  102.9070  102.9078  103.7035  104.8371
  105.2169  105.4813  105.4815  110.5777  112.1977  112.1982  112.5020  112.5046  113.4487  113.6307
  114.6778  119.3648  119.3664  119.8972  119.8976  122.8504  124.8290  124.8292  127.8160  127.8165
  128.7767  129.1601  129.1607  130.3480  131.0881  131.0884  132.3895  135.5774  135.5782  136.0308
  136.1423  136.1449  139.7901  140.0522  140.8227  140.8253  142.3073  142.3288  142.3297  144.5485
  144.8870  144.8871  145.9891  145.9892  147.2084  150.8344  150.8347  153.9664  154.9899  154.9905
  157.1249  157.1257  157.4182  162.6013  166.7075  170.0509  170.0514  185.0641
   5  1  -31.1289  -29.7243  -29.0295  -29.0295  -27.6615  -27.6615  -26.9953  -25.1093  -25.1092  -24.4149
         -23.2796  -22.8962  -22.8940  -22.8940  -22.7295  -22.7294  -21.9377  -21.9377  -21.2362  -21.2361
  -21.0872  -21.0725  -21.0724  -20.9617  -19.4874  -19.2023  -19.2022  -19.1399  -19.1397  -18.7121
  -18.7121  -17.9452  -17.8534  -17.6764  -17.6764  -17.2479  -17.2479  -17.2472  -17.2472  -16.6100
  -16.4580  -16.4578  -16.3705  -16.3177  -16.3174  -16.2931  -16.2929  -15.0365  -14.9218  -14.9215
  -14.9197  -14.9197  -14.2680  -13.6565  -13.6561  -13.4324  -13.3958  -13.1282  -13.1278  -12.9932
  -12.4030  -11.5230  -11.2537  -10.6822  -10.4255  -10.4255   -9.4443   -9.4443   -8.1774   -8.1774
   -7.0641   -7.0641   -6.2645   -5.8773   -4.7177   -4.7177   -4.6796   -4.6796   -4.4352   -4.0464
   -4.0051   -3.3613   -3.3612   -3.2141   -2.7653   -2.7652   -1.3705   -0.8336   -0.5083    0.7093
    0.7093    0.7117    0.7200    0.8818    0.8818    1.4038    1.4040    1.4910    1.6621    1.6621
    1.8306    2.2066    2.5654    2.6294    2.6295    2.7809    3.3232    3.3234    3.6909    3.6911
    3.7202    4.5470    4.5471    4.8017    5.1562    5.7012    5.7438    5.7440    5.9744    6.7640
    6.7643    6.9732    6.9738    7.5935    7.5937    8.0757    8.0757    8.5165    9.1848    9.3987
    9.3992    9.5757    9.7773   10.0654   10.0655   10.5560   10.5560   10.6696   10.6699   10.7375
   10.7376   11.0875   11.3985   11.5998   11.5999   11.6662   11.6662   11.9146   11.9641   11.9645
   12.8815   12.9153   12.9154   13.0069   13.5650   13.5655   13.6986   13.6990   13.8997   13.8997
   14.4287   15.7453   15.7455   16.0409   16.0999   16.1000   16.2190   16.2190   16.4286   16.4286
   16.5973   16.8053   16.8805   17.0221   18.8789   18.8799   18.9512   19.0824   19.2702   19.2707
   20.1830   21.3488   21.3488   22.9581   23.0446   23.0446   23.4532   23.4532   23.6813   23.6814
   23.8670   25.2237   25.4047   25.5593   25.5595   25.5740   25.5743   25.6478   26.2166   26.9660
   27.4224   27.4226   27.6028   29.0469   29.0470   30.9571   30.9576   32.6279   32.8316   32.8323
   33.2299   33.7235   33.7237   35.1998   35.2643   35.4744   35.7042   35.7043   36.0642   36.0649
   36.3952   36.3953   37.9819   38.0096   38.0097   38.6469   39.3697   39.3814   39.3814   39.6287
   39.6293   40.3929   40.3931   40.6171   40.6171   40.8835   41.3254   41.3255   41.3363   41.4240
   41.6261   42.2666   42.2667   42.6897   42.6897   42.8484   42.8484   43.1336   43.1337   43.3829
   43.5384   43.6629   43.8626   45.3238   45.3241   45.4712   45.8877   45.8879   46.1275   46.1279
   46.2151   46.2152   46.3436   46.8788   46.8789   47.0718   47.0721   47.2065   47.2065   47.6279
   47.6452   47.6453   47.7401   48.2526   48.5746   49.0638   50.3512   50.3516   50.3755   52.9550
   52.9551   55.9502   56.3299   56.3304   57.1565   57.1672   57.1673   57.7785   57.9139   58.3192
   58.3716   58.3718   59.1204   59.2731   59.2731   59.8135   60.2055   60.2057   60.8608   60.8615
   61.4060   61.4065   61.8788   61.8793   61.9910   62.1357   62.1359   63.2438   63.5364   63.9230
   63.9247   64.2404   64.3241   64.8499   64.8501   65.0276   65.5041   66.3493   66.4368   66.7850
   67.0658   67.0659   67.6742   67.6744   67.7174   67.7176   67.8492   67.8492   67.8832   67.9366
   68.1575   68.2007   68.2009   68.8677   69.6264   69.6269   69.6385   69.6388   70.2629   70.2632
   70.5384   70.8345   70.8348   70.8521   71.6725   71.7415   71.7418   71.8873   73.3965   73.3974
   73.6372   73.6372   73.7557   74.4293   74.4294   74.9836   74.9837   75.2080   77.2858   77.6298
   77.6299   80.6279   80.9025   80.9043   82.8818   84.1831   84.5414   84.7020   85.6612   85.6616
   85.7166   85.7168   87.1958   87.2221   87.2235   88.5731   88.5734   88.9440   88.9448   89.4079
   89.4464   89.7591   90.4802   91.2083   91.2086   93.3518   93.3526   94.1605   94.1607   94.7550
   94.9595   94.9620   95.0353   98.9937   98.9950   99.2784   99.8468   99.8475  101.5581  101.5583
  101.8373  102.8588  104.8726  104.9258  104.9267  104.9297  104.9301  105.6171  105.6171  108.0972
  110.9760  110.9767  112.4852  112.4857  113.1367  113.6463  113.9872  115.8217  115.8226  116.3369
  116.3844  116.3848  118.4089  118.4109  120.6259  120.6289  124.4256  125.3279  125.3281  127.3508
  128.2789  130.7458  130.7461  131.2101  131.5926  131.6702  133.3044  133.3052  133.4267  138.6392
  140.4262  140.4269  140.7279  140.9482  140.9530  141.2387  141.2402  141.7523  141.7560  142.5311
  142.9669  142.9673  143.3002  143.3009  145.2981  145.3003  148.3101  148.3112  150.0162  157.2075
  157.2096  158.8440  158.9239  158.9248  161.8613  162.3819  162.3840  192.5224
   6  1  -31.3048  -28.5118  -28.5118  -28.5118  -28.5118  -28.5118  -28.5117  -24.5593  -24.1302  -24.1302
         -22.6145  -22.6145  -22.6144  -22.6144  -22.3390  -22.3389  -22.3389  -22.3389  -22.3389  -22.3389
  -21.2908  -20.4155  -20.4155  -20.4155  -20.4155  -20.4153  -20.4153  -18.3010  -18.3010  -18.1504
  -18.1504  -18.1504  -18.1504  -18.1504  -18.1504  -17.6028  -17.6028  -17.6026  -17.6026  -16.0606
  -16.0606  -16.0606  -16.0606  -16.0604  -16.0604  -15.8546  -15.8546  -15.8543  -15.8543  -15.8543
  -15.8542  -14.3586  -14.3586  -13.0231  -13.0231  -13.0227  -13.0227  -13.0227  -13.0227  -12.4888
  -12.4883  -11.1517  -11.1511   -9.7834   -9.7834   -9.7834   -9.7834   -8.3546   -8.3546   -8.3546
   -8.3546   -8.3546   -8.3546   -5.9356   -4.2388   -4.2388   -4.2388   -4.2388   -4.2388   -4.2388
   -3.9680   -3.9679   -3.9679   -3.9679   -3.9678   -3.9677   -1.0626   -1.0619   -0.2176    0.7201
    0.7208    0.7742    0.7742    0.9823    1.4350    1.4350    1.4350    1.4350    1.4350    1.4350
    2.6144    2.6144    2.6144    2.6144    2.6148    2.6148    3.9884    3.9884    4.6488    4.6488
    4.6491    4.6491    5.1797    5.6354    6.6255    6.6255    6.6255    6.6255    6.6260    6.6260
    6.7177    6.7177    6.7184    6.7184    6.7184    6.7184    8.7435    8.7435    8.7443    8.7443
    8.7444    8.7444    9.4640    9.4640   10.5771   10.5771   10.5771   10.5771   10.5771   10.5771
   11.1716   11.1716   11.1719   11.1719   11.2093   11.2093   11.2094   11.2094   11.2100   11.2100
   12.5361   12.5361   12.5361   12.5361   12.8457   13.0962   13.0962   13.0962   13.0962   13.0965
   13.0965   16.4690   16.4690   16.4690   16.4690   16.5074   16.7491   16.7491   16.7491   16.7491
   16.7491   16.7491   17.5855   17.5856   19.5488   19.5488   19.5488   19.5488   19.5498   19.5498
   21.9965   21.9966   21.9966   21.9966   21.9966   21.9966   22.4891   22.9515   22.9516   23.4344
   23.4344   24.2909   24.2909   26.3606   26.3606   26.3606   26.3606   26.3613   26.3613   26.4507
   27.4360   27.4361   27.4361   27.4361   30.9786   30.9786   30.9795   30.9795   30.9795   30.9795
   34.9749   34.9749   34.9750   34.9750   34.9750   34.9750   35.1945   35.1945   35.1958   35.1958
   35.1958   35.1958   37.5636   37.5636   37.5636   37.5636   37.5640   37.5640   40.6918   40.6918
   40.6918   40.6918   40.6921   40.6922   41.6674   41.6674   41.6674   41.6674   43.2559   43.2559
   43.2559   43.2559   43.2560   43.2560   43.2983   43.3008   43.4790   43.4790   43.5048   43.5069
   45.2960   45.2960   45.2973   45.2974   45.2974   45.2974   46.5565   46.5565   46.5565   46.5565
   46.5567   46.5567   46.9683   46.9683   47.2380   47.2380   47.2380   47.2380   47.2387   47.2387
   48.2488   48.2488   48.2491   48.2492   49.6363   49.6367   50.9984   50.9984   52.1515   52.6745
   52.6745   52.6748   52.6748   52.6748   52.6748   57.3386   57.3390   58.9035   58.9035   58.9035
   58.9035   58.9042   58.9042   59.7914   59.7914   60.2610   60.2610   60.2621   60.2621   60.6876
   60.6876   60.6895   60.6895   60.6896   60.6896   62.3272   62.3272   62.3272   62.3273   62.3282
   62.3282   63.9866   65.6541   65.6542   65.6560   65.6560   65.9227   65.9227   66.1191   67.0370
   67.1124   67.1124   67.1143   67.1144   67.1144   67.1144   67.5775   67.5816   67.6100   67.6140
   69.2917   69.2918   69.2921   69.2921   69.2922   69.2922   69.3912   69.3912   69.3912   69.3912
   69.3916   69.3916   72.4616   72.4616   72.4616   72.4617   72.4626   72.4627   74.0875   74.0876
   74.0876   74.0877   74.0877   74.0878   75.2000   75.2000   75.2000   75.2000   76.0707   76.0707
   76.0708   76.0708   80.7119   81.2313   81.2314   81.2339   81.2340   81.2340   81.2340   84.9006
   87.3670   87.3670   87.3674   87.3675   87.3690   87.3691   90.1630   90.1631   90.1631   90.1633
   90.1634   90.1635   92.8227   92.8228   92.8228   92.8229   92.8247   92.8247   96.7039   96.7040
   98.2603   98.2639   99.4142   99.4143   99.4143   99.4144   99.4154   99.4154  102.5045  102.5045
  106.2028  106.2028  106.2035  106.2036  107.1351  107.1352  107.1352  107.1353  107.1356  107.1356
  111.1227  111.1280  115.7028  115.7029  115.7051  115.7051  115.7055  115.7056  117.2347  117.2349
  117.2353  117.2354  117.2359  117.2361  126.4004  126.4005  126.4008  126.4009  126.4016  126.4018
  134.0862  134.0865  135.7850  135.7851  135.7863  135.7865  138.2665  138.2666  138.2668  138.2669
  138.2680  138.2682  141.4149  141.4150  141.4203  141.4205  141.4208  141.4216  143.6160  143.6163
  151.3038  151.3086  151.7092  151.7094  151.7095  151.7095  151.7102  151.7102  159.6185  159.6192
  159.6214  159.6217  162.3003  162.3013  170.4566  170.4569  185.6733  198.3257
   7  1  -30.6011  -30.6010  -29.2034  -29.2034  -26.5011  -26.5011  -26.5011  -26.5011  -25.6045  -24.5338
         -23.9852  -23.9852  -22.8654  -22.8654  -22.4658  -22.4658  -22.4658  -22.4658  -20.6476  -20.6476
  -20.6475  -20.6475  -20.4806  -20.4806  -19.5324  -19.5124  -18.9021  -18.9021  -18.8409  -18.8409
  -18.8408  -18.8408  -18.1184  -18.1184  -17.2190  -17.2190  -17.2190  -17.2190  -17.1299  -17.1299
  -16.5461  -16.0892  -16.0892  -16.0891  -16.0891  -15.6375  -15.4687  -15.4687  -14.8524  -14.8524
  -14.8521  -14.8521  -14.1202  -14.1202  -14.0105  -14.0105  -13.6362  -13.6362  -13.5737  -12.6588
  -12.6588  -11.9371  -11.7232  -11.7232  -10.1939  -10.1939  -10.1939  -10.1939   -6.2025   -6.2025
   -6.2025   -6.2025   -5.8955   -5.8955   -5.7795   -5.7795   -5.6224   -5.6224   -4.5917   -3.8889
   -2.4370   -2.4370   -2.2607   -2.2607   -1.3489   -1.3489   -1.3489   -1.3489   -0.4971   -0.4971
    0.0664    0.0664    0.4656    0.6385    0.6385    0.6385    0.6385    1.1719    1.1719    1.4619
    1.4619    1.6379    1.6379    2.8246    3.2024    3.2024    3.4162    3.4162    3.9386    3.9386
    4.3824    4.3824    4.9175    4.9176    4.9176    4.9176    5.1250    5.1250    5.1251    5.1251
    5.4080    5.4080    7.1231    7.1231    8.0551    8.0551    9.0313    9.0313    9.0314    9.0314
    9.5115   10.1735   10.2562   10.4254   10.4254   10.9987   11.0139   11.0139   11.0139   11.0139
   11.4140   11.4140   11.4141   11.4141   11.9836   12.7574   12.7574   12.8457   12.8457   12.9651
   12.9651   13.2014   13.2014   13.2014   13.2014   13.7782   13.7782   14.8481   14.8481   14.8484
   14.8484   15.3844   15.3844   15.3844   15.3845   15.4142   15.4142   15.6368   16.4135   16.4135
   16.9810   16.9810   16.9818   16.9818   17.4347   17.9110   17.9110   18.1567   19.0369   19.0369
   19.2036   21.9244   21.9244   21.9244   21.9244   23.6483   23.6483   24.1349   24.1349   24.3660
   24.3660   24.3661   24.3661   25.1864   25.1864   25.3300   25.3300   26.2107   27.2428   29.2203
   29.2203   29.2207   29.2207   29.4113   29.4114   31.1688   31.1688   31.1689   31.1689   31.3217
   31.4965   31.4965   34.5533   34.5916   34.5916   35.2517   36.5782   36.5782   37.7124   37.7124
   38.6419   38.6420   38.8367   38.8367   39.0530   39.0530   39.0530   39.0530   39.8397   39.8398
   40.3675   40.3675   40.3678   40.3678   40.3948   40.3948   40.6006   40.6006   41.2877   41.2877
   41.4441   41.4441   41.4443   41.4443   41.6980   41.9583   41.9583   42.0048   42.0048   42.0048
   42.0048   42.6620   42.6620   43.2892   43.4251   43.4251   44.0569   44.0569   44.8883   44.8883
   45.7264   45.7264   45.7266   45.7266   46.8668   47.3229   47.3230   47.9082   47.9082   47.9083
   47.9083   48.1290   49.3527   49.3527   49.3531   49.3531   49.7084   49.7084   51.8843   54.1846
   54.1846   55.0445   55.8089   55.8089   55.8091   55.8091   56.9381   58.5142   58.5142   59.8106
   59.8106   59.8754   59.8754   60.6722   60.6723   60.6730   60.6730   60.8137   60.8137   61.0229
   61.6887   62.0981   62.0982   62.0986   62.0986   62.6712   62.6712   62.6859   62.6859   62.9797
   63.4850   63.4850   64.8681   64.9644   64.9644   64.9645   64.9645   65.5883   65.5883   65.7248
   65.7250   66.2044   66.2045   66.7190   66.7190   66.7192   66.7192   67.0672   67.0672   67.9230
   67.9230   69.1785   69.1785   69.1786   69.1786   69.4179   69.4180   70.2319   70.2320   70.2321
   70.2321   70.9228   70.9228   71.1333   72.3687   72.3687   72.3690   72.3690   73.2096   73.2096
   74.1543   74.1543   75.2144   75.2145   76.1058   76.1058   77.5481   78.0798   79.4227   79.4227
   79.4228   79.4228   79.9491   79.9492   81.9725   81.9725   82.6370   83.9238   83.9238   84.1784
   84.1785   84.1785   84.1786   86.6578   86.6579   86.7627   86.7627   87.8481   87.8482   88.2531
   88.2532   88.2645   88.2645   89.0383   91.8897   91.8898   91.8900   91.8900   93.3453   93.3453
   94.0539   94.0540   96.0493   96.0826   96.0827   96.0833   96.0834   96.9908   98.5770   99.2636
  100.5401  100.5402  100.5430  100.5430  103.1557  103.1557  103.1563  103.1563  104.3454  104.3456
  105.5484  105.5486  105.5487  105.5488  108.7260  114.4462  114.4463  116.3883  116.8105  116.8106
  117.1001  117.1002  117.9677  117.9679  123.3654  123.3657  123.3663  123.3664  124.7270  124.7271
  128.1957  128.1958  128.1996  128.1998  131.5845  131.5846  134.6099  134.6101  134.6102  134.6103
  134.8988  134.8994  136.7014  137.5705  137.5710  140.2938  140.2940  140.4486  140.4487  140.4498
  140.4499  141.0867  143.9692  148.4712  149.3184  149.3186  149.3189  149.3190  153.1928  153.1931
  161.3185  161.3187  163.1210  163.1212  163.1232  163.1233  179.3210  179.3212
   8  1  -30.7770  -30.0745  -30.0745  -28.0010  -28.0010  -26.6609  -26.0471  -26.0470  -25.1466  -24.1281
         -24.0426  -23.7889  -23.7888  -23.5604  -23.5604  -21.9419  -21.9419  -21.1877  -21.1231  -20.6820
  -20.2006  -20.2005  -20.1393  -20.1393  -19.8813  -19.8813  -19.7866  -19.6969  -19.1781  -18.6817
  -18.6816  -18.2557  -18.2556  -18.2180  -17.5883  -17.5883  -17.0919  -17.0917  -16.7115  -16.7112
  -16.3054  -16.2073  -15.8130  -15.8098  -15.8098  -15.5952  -15.5950  -15.3002  -15.3000  -15.1633
  -14.9962  -14.6323  -14.4222  -14.4222  -14.0448  -13.9357  -13.9353  -13.2885  -13.2883  -12.4416
  -12.4412  -12.0603  -11.7340  -11.4310  -11.4310  -11.3811   -9.0566   -7.9612   -7.9611   -7.5129
   -6.2751   -6.0276   -6.0276   -5.7871   -5.7871   -5.7869   -4.5966   -4.5966   -3.7393   -3.7393
   -3.6662   -3.6661   -1.9459   -1.9416   -1.9414   -1.4953   -1.2810   -0.9196   -0.9195   -0.6056
    0.5440    0.5440    0.6089    0.6559    0.6560    0.6681    0.8846    0.8846    1.6396    1.7450
    1.8012    2.2377    2.2378    2.5895    2.8811    2.8811    2.8846    2.8848    3.0356    3.4359
    3.4361    4.2608    4.5008    4.5014    4.9835    4.9837    5.0854    5.1482    5.1483    6.6466
    6.8453    7.1752    7.2993    7.2994    7.6054    8.0677    8.0680    8.0936    8.4018    8.4020
    9.9333    9.9334    9.9717    9.9718   10.7123   10.7470   10.7473   10.8367   11.7220   11.8231
   11.8231   12.0151   12.0158   12.2613   12.2614   12.2950   12.2950   12.3497   12.9175   12.9179
   12.9401   12.9845   12.9847   13.1859   13.1860   13.6799   13.8846   14.5447   14.6384   14.7923
   15.1742   15.1748   15.3816   15.4045   15.4045   15.6077   15.9063   15.9063   15.9731   15.9813
   16.6743   16.7385   16.7385   17.5762   17.7133   17.7141   18.4851   18.4858   18.6240   18.6246
   20.0549   20.0549   21.5706   22.7255   22.7255   23.0799   23.7760   24.0287   24.2397   24.5791
   24.5792   24.8429   24.8431   24.8671   24.8676   25.1767   25.1768   25.6440   28.0720   28.9965
   29.0292   29.0903   29.5495   29.5496   30.2574   30.2962   30.2966   30.9286   31.8436   31.8440
   33.0275   33.0276   33.5815   33.5819   35.1713   35.1714   36.4043   36.4044   36.7094   36.7106
   37.1938   37.1939   38.9051   38.9054   38.9555   38.9556   39.1354   39.3148   39.3152   39.3894
   39.6248   39.9100   39.9104   39.9469   40.4320   40.4320   40.6666   40.8025   40.8027   41.3221
   41.3224   41.8276   41.8529   41.8532   42.2280   42.2798   42.2978   42.6814   42.6815   42.7466
   43.0423   43.9264   43.9269   44.1218   44.1218   44.2789   44.9970   44.9971   45.0970   45.1163
   45.1164   45.1199   45.6470   45.8253   46.2391   46.2397   46.4756   47.2747   47.2748   47.9818
   48.3656   48.3662   48.4496   48.4502   49.0071   49.0072   49.2830   50.7119   50.7121   52.5537
   53.6437   54.8203   54.8566   54.8567   56.5013   56.6396   57.7381   57.7382   58.4753   58.4765
   59.5680   59.9295   60.4639   60.5666   60.5672   60.6489   60.6489   60.6666   61.0708   61.5621
   61.5625   61.7278   61.7285   62.0182   62.0183   62.6192   62.6195   62.7083   62.7085   62.9535
   63.7534   63.8475   64.0966   64.0973   64.1948   64.2297   64.2300   64.5336   64.5341   64.6357
   65.6295   65.7201   65.9686   66.0439   66.0442   66.9135   66.9157   67.5595   67.5596   67.9970
   68.5992   68.5993   68.9577   69.9568   70.0449   70.0450   70.8197   70.8198   71.0905   71.8099
   71.8102   71.8243   71.8255   71.8660   72.4083   72.9467   73.2738   73.2740   73.7643   73.7649
   73.8743   73.8776   74.0548   75.3975   75.3992   77.4816   77.4833   77.6639   77.7151   79.3438
   79.3442   80.1527   80.1529   80.4899   81.7161   81.9012   82.1396   82.1399   82.4419   82.9709
   82.9720   84.6436   84.6442   84.9183   84.9187   87.7243   87.9949   88.8197   88.8218   89.4205
   89.4208   89.6931   89.6944   90.2704   91.6654   91.6671   91.9335   91.9338   92.0646   92.1397
   92.1397   93.8069   93.8072   96.8200   96.8207   96.8445   96.8474   96.8752   99.1087   99.1100
   99.2822  101.1957  101.3350  101.3354  101.5191  101.7587  102.9070  102.9078  103.7035  104.8371
  105.2169  105.4813  105.4815  110.5777  112.1977  112.1982  112.5020  112.5046  113.4487  113.6307
  114.6778  119.3648  119.3664  119.8972  119.8976  122.8504  124.8290  124.8292  127.8160  127.8165
  128.7767  129.1601  129.1607  130.3480  131.0881  131.0884  132.3895  135.5774  135.5782  136.0308
  136.1423  136.1449  139.7901  140.0522  140.8227  140.8253  142.3073  142.3288  142.3297  144.5485
  144.8870  144.8871  145.9891  145.9892  147.2084  150.8344  150.8347  153.9664  154.9899  154.9905
  157.1249  157.1257  157.4182  162.6013  166.7075  170.0509  170.0514  185.0641
   9  1  -30.7770  -30.0745  -30.0745  -28.0010  -28.0010  -26.6609  -26.0471  -26.0470  -25.1466  -24.1281
         -24.0426  -23.7889  -23.7888  -23.5604  -23.5604  -21.9419  -21.9419  -21.1877  -21.1231  -20.6820
  -20.2006  -20.2005  -20.1393  -20.1393  -19.8813  -19.8813  -19.7866  -19.6969  -19.1781  -18.6817
  -18.6816  -18.2557  -18.2556  -18.2180  -17.5883  -17.5883  -17.0919  -17.0917  -16.7115  -16.7112
  -16.3054  -16.2073  -15.8130  -15.8098  -15.8098  -15.5952  -15.5950  -15.3002  -15.3000  -15.1633
  -14.9962  -14.6323  -14.4222  -14.4222  -14.0448  -13.9357  -13.9353  -13.2885  -13.2883  -12.4416
  -12.4412  -12.0603  -11.7340  -11.4310  -11.4310  -11.3811   -9.0566   -7.9612   -7.9611   -7.5129
   -6.2751   -6.0276   -6.0276   -5.7871   -5.7871   -5.7869   -4.5966   -4.5966   -3.7393   -3.7393
   -3.6662   -3.6661   -1.9459   -1.9416   -1.9414   -1.4953   -1.2810   -0.9196   -0.9195   -0.6056
    0.5440    0.5440    0.6089    0.6559    0.6560    0.6681    0.8846    0.8846    1.6396    1.7450
    1.8012    2.2377    2.2378    2.5895    2.8811    2.8811    2.8846    2.8848    3.0356    3.4359
    3.4361    4.2608    4.5008    4.5014    4.9835    4.9837    5.0854    5.1482    5.1483    6.6466
    6.8453    7.1752    7.2993    7.2994    7.6054    8.0677    8.0680    8.0936    8.4018    8.4020
    9.9333    9.9334    9.9717    9.9718   10.7123   10.7470   10.7473   10.8367   11.7220   11.8231
   11.8231   12.0151   12.0158   12.2613   12.2614   12.2950   12.2950   12.3497   12.9175   12.9179
   12.9401   12.9845   12.9847   13.1859   13.1860   13.6799   13.8846   14.5447   14.6384   14.7923
   15.1742   15.1748   15.3816   15.4045   15.4045   15.6077   15.9063   15.9063   15.9731   15.9813
   16.6743   16.7385   16.7385   17.5762   17.7133   17.7141   18.4851   18.4858   18.6240   18.6246
   20.0549   20.0549   21.5706   22.7255   22.7255   23.0799   23.7760   24.0287   24.2397   24.5791
   24.5792   24.8429   24.8431   24.8671   24.8676   25.1767   25.1768   25.6440   28.0720   28.9965
   29.0292   29.0902   29.5495   29.5496   30.2574   30.2962   30.2966   30.9286   31.8436   31.8440
   33.0275   33.0276   33.5815   33.5819   35.1713   35.1714   36.4043   36.4044   36.7094   36.7106
   37.1938   37.1939   38.9051   38.9054   38.9555   38.9556   39.1354   39.3148   39.3152   39.3894
   39.6248   39.9100   39.9104   39.9469   40.4320   40.4320   40.6666   40.8025   40.8027   41.3221
   41.3224   41.8276   41.8529   41.8532   42.2280   42.2798   42.2978   42.6814   42.6815   42.7466
   43.0423   43.9264   43.9269   44.1218   44.1218   44.2789   44.9970   44.9971   45.0970   45.1163
   45.1164   45.1199   45.6470   45.8254   46.2391   46.2397   46.4756   47.2747   47.2748   47.9818
   48.3656   48.3662   48.4496   48.4502   49.0071   49.0072   49.2830   50.7119   50.7121   52.5537
   53.6437   54.8204   54.8566   54.8567   56.5013   56.6396   57.7381   57.7382   58.4753   58.4766
   59.5680   59.9295   60.4638   60.5666   60.5672   60.6489   60.6489   60.6666   61.0708   61.5621
   61.5625   61.7278   61.7285   62.0182   62.0183   62.6192   62.6195   62.7083   62.7085   62.9535
   63.7534   63.8475   64.0966   64.0974   64.1948   64.2297   64.2300   64.5336   64.5341   64.6357
   65.6295   65.7202   65.9686   66.0439   66.0442   66.9135   66.9157   67.5594   67.5596   67.9970
   68.5992   68.5993   68.9577   69.9569   70.0449   70.0450   70.8197   70.8198   71.0905   71.8099
   71.8102   71.8243   71.8254   71.8660   72.4084   72.9466   73.2738   73.2740   73.7644   73.7649
   73.8743   73.8776   74.0548   75.3976   75.3992   77.4816   77.4833   77.6638   77.7150   79.3439
   79.3442   80.1527   80.1529   80.4898   81.7160   81.9012   82.1397   82.1399   82.4420   82.9711
   82.9720   84.6432   84.6440   84.9183   84.9187   87.7243   87.9950   88.8197   88.8218   89.4205
   89.4208   89.6932   89.6945   90.2704   91.6654   91.6671   91.9334   91.9338   92.0646   92.1396
   92.1397   93.8069   93.8073   96.8200   96.8207   96.8447   96.8474   96.8752   99.1087   99.1099
   99.2822  101.1958  101.3350  101.3354  101.5190  101.7586  102.9069  102.9078  103.7036  104.8371
  105.2167  105.4813  105.4816  110.5772  112.1978  112.1979  112.5022  112.5050  113.4486  113.6307
  114.6775  119.3644  119.3663  119.8973  119.8975  122.8508  124.8292  124.8293  127.8157  127.8165
  128.7774  129.1597  129.1600  130.3486  131.0878  131.0885  132.3900  135.5775  135.5782  136.0302
  136.1414  136.1458  139.7899  140.0521  140.8230  140.8258  142.3071  142.3269  142.3289  144.5486
  144.8869  144.8870  145.9887  145.9891  147.2107  150.8337  150.8343  153.9668  154.9894  154.9906
  157.1246  157.1263  157.4208  162.6026  166.7086  170.0508  170.0515  185.0640
  10  1  -30.6011  -30.6010  -29.2034  -29.2034  -26.5011  -26.5011  -26.5011  -26.5011  -25.6045  -24.5338
         -23.9852  -23.9852  -22.8654  -22.8654  -22.4658  -22.4658  -22.4658  -22.4658  -20.6476  -20.6476
  -20.6475  -20.6475  -20.4806  -20.4806  -19.5324  -19.5124  -18.9021  -18.9021  -18.8409  -18.8409
  -18.8408  -18.8408  -18.1184  -18.1184  -17.2190  -17.2190  -17.2190  -17.2190  -17.1299  -17.1299
  -16.5461  -16.0892  -16.0892  -16.0891  -16.0891  -15.6375  -15.4687  -15.4687  -14.8524  -14.8524
  -14.8521  -14.8521  -14.1202  -14.1202  -14.0105  -14.0105  -13.6362  -13.6362  -13.5737  -12.6588
  -12.6588  -11.9371  -11.7232  -11.7232  -10.1939  -10.1939  -10.1939  -10.1939   -6.2025   -6.2025
   -6.2025   -6.2025   -5.8955   -5.8955   -5.7795   -5.7795   -5.6224   -5.6224   -4.5917   -3.8889
   -2.4370   -2.4370   -2.2607   -2.2607   -1.3489   -1.3489   -1.3489   -1.3489   -0.4971   -0.4971
    0.0664    0.0664    0.4656    0.6385    0.6385    0.6385    0.6385    1.1719    1.1719    1.4619
    1.4619    1.6379    1.6379    2.8246    3.2024    3.2024    3.4162    3.4162    3.9386    3.9386
    4.3824    4.3824    4.9176    4.9176    4.9176    4.9176    5.1250    5.1250    5.1251    5.1251
    5.4080    5.4080    7.1231    7.1231    8.0551    8.0551    9.0313    9.0313    9.0314    9.0314
    9.5115   10.1735   10.2562   10.4254   10.4254   10.9987   11.0139   11.0139   11.0139   11.0139
   11.4140   11.4140   11.4141   11.4141   11.9836   12.7574   12.7574   12.8457   12.8457   12.9651
   12.9651   13.2014   13.2014   13.2014   13.2014   13.7782   13.7782   14.8480   14.8481   14.8484
   14.8484   15.3844   15.3844   15.3844   15.3845   15.4142   15.4142   15.6368   16.4135   16.4135
   16.9810   16.9810   16.9818   16.9818   17.4347   17.9110   17.9110   18.1567   19.0369   19.0369
   19.2036   21.9244   21.9244   21.9244   21.9244   23.6483   23.6483   24.1349   24.1349   24.3660
   24.3660   24.3661   24.3661   25.1864   25.1864   25.3300   25.3300   26.2107   27.2428   29.2203
   29.2203   29.2207   29.2207   29.4113   29.4114   31.1688   31.1688   31.1689   31.1689   31.3217
   31.4965   31.4965   34.5533   34.5916   34.5917   35.2517   36.5782   36.5782   37.7124   37.7124
   38.6419   38.6420   38.8367   38.8367   39.0530   39.0530   39.0530   39.0530   39.8397   39.8398
   40.3675   40.3675   40.3678   40.3678   40.3948   40.3948   40.6006   40.6006   41.2877   41.2877
   41.4441   41.4441   41.4443   41.4443   41.6980   41.9583   41.9583   42.0048   42.0048   42.0048
   42.0048   42.6620   42.6620   43.2892   43.4250   43.4250   44.0569   44.0569   44.8883   44.8883
   45.7264   45.7264   45.7266   45.7266   46.8668   47.3229   47.3230   47.9082   47.9082   47.9083
   47.9083   48.1290   49.3527   49.3527   49.3531   49.3531   49.7084   49.7084   51.8843   54.1846
   54.1846   55.0445   55.8089   55.8089   55.8091   55.8091   56.9382   58.5142   58.5142   59.8106
   59.8106   59.8754   59.8754   60.6723   60.6723   60.6730   60.6730   60.8137   60.8137   61.0229
   61.6887   62.0982   62.0982   62.0987   62.0987   62.6712   62.6712   62.6859   62.6859   62.9798
   63.4850   63.4850   64.8681   64.9644   64.9644   64.9645   64.9645   65.5883   65.5883   65.7248
   65.7249   66.2045   66.2045   66.7190   66.7190   66.7192   66.7192   67.0672   67.0672   67.9230
   67.9230   69.1785   69.1785   69.1786   69.1786   69.4180   69.4180   70.2319   70.2319   70.2321
   70.2322   70.9228   70.9228   71.1333   72.3687   72.3687   72.3690   72.3690   73.2095   73.2095
   74.1542   74.1542   75.2144   75.2145   76.1058   76.1059   77.5481   78.0798   79.4227   79.4227
   79.4227   79.4228   79.9492   79.9493   81.9725   81.9725   82.6371   83.9238   83.9238   84.1784
   84.1785   84.1785   84.1787   86.6580   86.6581   86.7627   86.7628   87.8481   87.8482   88.2530
   88.2531   88.2645   88.2645   89.0384   91.8897   91.8898   91.8899   91.8901   93.3452   93.3452
   94.0540   94.0540   96.0494   96.0825   96.0826   96.0832   96.0833   96.9906   98.5770   99.2636
  100.5401  100.5401  100.5430  100.5430  103.1557  103.1557  103.1562  103.1563  104.3447  104.3449
  105.5484  105.5486  105.5487  105.5489  108.7264  114.4462  114.4463  116.3885  116.8111  116.8116
  117.1001  117.1001  117.9670  117.9671  123.3655  123.3657  123.3662  123.3663  124.7268  124.7269
  128.1967  128.1974  128.1996  128.1998  131.5846  131.5849  134.6098  134.6099  134.6106  134.6108
  134.9007  134.9007  136.7015  137.5692  137.5695  140.2935  140.2936  140.4488  140.4489  140.4493
  140.4494  141.0867  143.9698  148.4706  149.3185  149.3186  149.3188  149.3189  153.1918  153.1924
  161.3176  161.3179  163.1221  163.1223  163.1236  163.1238  179.3215  179.3216
  11  1  -30.7770  -30.0745  -30.0745  -28.0010  -28.0010  -26.6609  -26.0471  -26.0470  -25.1466  -24.1281
         -24.0426  -23.7889  -23.7888  -23.5604  -23.5604  -21.9419  -21.9419  -21.1877  -21.1231  -20.6820
  -20.2006  -20.2005  -20.1393  -20.1393  -19.8813  -19.8813  -19.7866  -19.6969  -19.1781  -18.6817
  -18.6816  -18.2557  -18.2556  -18.2180  -17.5883  -17.5883  -17.0919  -17.0917  -16.7115  -16.7112
  -16.3054  -16.2073  -15.8130  -15.8098  -15.8098  -15.5952  -15.5950  -15.3002  -15.3000  -15.1633
  -14.9962  -14.6323  -14.4222  -14.4222  -14.0448  -13.9357  -13.9353  -13.2885  -13.2883  -12.4416
  -12.4412  -12.0603  -11.7340  -11.4310  -11.4310  -11.3811   -9.0566   -7.9612   -7.9611   -7.5129
   -6.2751   -6.0276   -6.0276   -5.7871   -5.7871   -5.7869   -4.5966   -4.5966   -3.7393   -3.7393
   -3.6662   -3.6661   -1.9459   -1.9416   -1.9414   -1.4953   -1.2810   -0.9196   -0.9195   -0.6056
    0.5440    0.5440    0.6089    0.6559    0.6560    0.6681    0.8846    0.8846    1.6396    1.7450
    1.8012    2.2377    2.2378    2.5895    2.8811    2.8811    2.8846    2.8848    3.0356    3.4359
    3.4361    4.2608    4.5008    4.5014    4.9835    4.9837    5.0854    5.1482    5.1483    6.6466
    6.8453    7.1752    7.2993    7.2994    7.6054    8.0677    8.0680    8.0936    8.4018    8.4020
    9.9333    9.9334    9.9717    9.9718   10.7123   10.7470   10.7473   10.8367   11.7220   11.8231
   11.8231   12.0151   12.0158   12.2613   12.2614   12.2950   12.2950   12.3497   12.9175   12.9179
   12.9401   12.9845   12.9847   13.1859   13.1860   13.6799   13.8846   14.5447   14.6384   14.7923
   15.1742   15.1748   15.3816   15.4045   15.4045   15.6077   15.9063   15.9063   15.9731   15.9813
   16.6743   16.7385   16.7385   17.5762   17.7133   17.7141   18.4851   18.4858   18.6240   18.6246
   20.0549   20.0549   21.5706   22.7255   22.7255   23.0799   23.7760   24.0287   24.2397   24.5791
   24.5792   24.8429   24.8431   24.8671   24.8676   25.1767   25.1768   25.6440   28.0720   28.9965
   29.0292   29.0902   29.5495   29.5496   30.2574   30.2962   30.2966   30.9286   31.8436   31.8440
   33.0275   33.0276   33.5815   33.5819   35.1713   35.1714   36.4043   36.4044   36.7094   36.7106
   37.1938   37.1939   38.9051   38.9054   38.9555   38.9556   39.1354   39.3148   39.3152   39.3894
   39.6248   39.9100   39.9104   39.9469   40.4320   40.4320   40.6666   40.8025   40.8027   41.3221
   41.3224   41.8276   41.8529   41.8532   42.2280   42.2798   42.2978   42.6814   42.6815   42.7466
   43.0423   43.9264   43.9269   44.1218   44.1218   44.2789   44.9970   44.9971   45.0970   45.1163
   45.1164   45.1199   45.6470   45.8254   46.2391   46.2397   46.4756   47.2747   47.2748   47.9818
   48.3656   48.3662   48.4496   48.4502   49.0071   49.0072   49.2830   50.7119   50.7121   52.5537
   53.6437   54.8204   54.8566   54.8567   56.5013   56.6396   57.7381   57.7382   58.4753   58.4766
   59.5680   59.9295   60.4638   60.5666   60.5672   60.6489   60.6489   60.6666   61.0708   61.5621
   61.5625   61.7278   61.7285   62.0182   62.0183   62.6192   62.6195   62.7083   62.7085   62.9535
   63.7534   63.8475   64.0966   64.0974   64.1948   64.2297   64.2300   64.5336   64.5341   64.6357
   65.6295   65.7202   65.9686   66.0439   66.0442   66.9135   66.9157   67.5594   67.5596   67.9970
   68.5992   68.5993   68.9577   69.9569   70.0449   70.0450   70.8197   70.8198   71.0905   71.8099
[...]
    6.0423    6.0423    7.1043    7.1043    7.1045    7.1045    8.4728    8.4728    9.4308    9.4308
    9.6969    9.6969    9.6970    9.6970    9.9026    9.9026    9.9027    9.9027   10.6524   10.6524
   11.4096   11.4096   11.4100   11.4100   13.8487   13.8487   13.8487   13.8487   14.2626   14.2626
   14.6391   14.6391   14.6394   14.6394   15.0362   15.0362   15.4813   15.4813   15.5569   15.5569
   15.8259   15.8259   15.8259   15.8259   16.4175   16.4175   16.4178   16.4178   17.6034   17.6034
   18.0808   18.0808   18.0814   18.0814   19.6986   19.6986   19.6988   19.6988   20.3541   20.3541
   20.4333   20.4333   20.4339   20.4339   21.8031   21.8031   21.8032   21.8032   22.9454   22.9454
   23.0232   23.0232   23.4385   23.4385   23.4386   23.4386   23.8252   23.8252   24.5099   24.5099
   24.5099   24.5099   25.3942   25.3942   27.6477   27.6477   27.6478   27.6478   28.6371   28.6371
   30.6037   30.6037   31.4252   31.4252   31.4254   31.4254   36.4769   36.4769   36.4773   36.4773
   37.8763   37.8763   38.4410   38.4410   38.4416   38.4416   38.7191   38.7191   38.7195   38.7195
   39.4015   39.4015   39.8338   39.8338   39.8339   39.8339   41.0784   41.0784   41.1507   41.1507
   41.9037   41.9037   41.9041   41.9041   42.2559   42.2559   42.9829   42.9829   43.3771   43.3771
   43.3773   43.3773   45.2079   45.2079   45.7096   45.7096   45.7744   45.7744   46.0015   46.0015
   46.0017   46.0017   46.2953   46.2953   46.2955   46.2955   47.3066   47.3066   47.3068   47.3068
   48.3319   48.3319   51.8715   51.8715   51.8716   51.8716   53.0525   53.0525   53.9614   53.9614
   55.4153   55.4153   55.4154   55.4154   55.4752   55.4752   55.4755   55.4755   56.0231   56.0231
   57.1896   57.1896   57.6235   57.6235   57.6239   57.6239   58.0595   58.0595   58.0597   58.0597
   58.5566   58.5566   58.6397   58.6397   58.6399   58.6399   64.5309   64.5309   64.5310   64.5310
   65.5943   65.5943   65.5944   65.5944   66.1348   66.1348   67.0550   67.0550   67.7050   67.7050
   67.7077   67.7078   67.7536   67.7536   67.7539   67.7539   67.8751   67.8751   68.0431   68.0432
   69.8439   69.8439   70.2334   70.2334   70.2338   70.2338   72.8450   72.8451   72.8454   72.8455
   73.3204   73.3204   74.1745   74.1745   75.1298   75.1298   78.2884   78.2884   78.6609   78.6609
   78.6639   78.6639   79.5034   79.5034   81.9673   81.9673   81.9676   81.9676   82.7571   82.7571
   82.7571   82.7571   83.3543   83.3543   85.2143   85.2143   85.2150   85.2150   86.2432   86.2433
   86.2440   86.2441   87.4805   87.4806   87.4811   87.4811   90.9850   90.9850   92.9454   92.9454
   92.9461   92.9461   97.4530   97.4530   97.4552   97.4552   97.9204   97.9204  101.9147  101.9147
  103.0019  103.0019  104.4930  104.4930  104.4935  104.4936  105.4253  105.4253  105.4265  105.4266
  105.5217  105.5217  105.5223  105.5224  106.2362  106.2363  107.1186  107.1186  111.7096  111.7096
  111.7111  111.7111  111.8962  111.8963  113.0262  113.0263  113.0283  113.0283  114.4019  114.4020
  114.7726  114.7726  115.1030  115.1030  115.1039  115.1039  117.2585  117.2585  117.2593  117.2594
  121.1690  121.1690  123.1909  123.1909  123.1922  123.1922  124.6596  124.6596  124.6608  124.6609
  125.6291  125.6292  129.8413  129.8413  129.8440  129.8441  130.7061  130.7061  135.3781  135.3782
  137.5705  137.5705  137.5707  137.5709  144.5450  144.5451  144.7167  144.7168  144.7194  144.7196
  145.9464  145.9464  151.4227  151.4228  151.4256  151.4257  156.8957  156.8958
  42  1  -28.5815  -28.5815  -28.5815  -28.5815  -27.2146  -27.2146  -27.2146  -27.2146  -24.5971  -24.5971
         -24.5971  -24.5971  -24.5971  -24.5971  -24.5971  -24.5971  -23.7602  -23.7602  -22.6226  -22.6226
  -20.6781  -20.6781  -20.6781  -20.6781  -20.6780  -20.6780  -20.6780  -20.6780  -17.1129  -17.1129
  -17.1129  -17.1129  -17.1127  -17.1127  -17.1127  -17.1127  -16.8182  -16.8182  -16.8182  -16.8182
  -15.3932  -15.3932  -15.3932  -15.3932  -15.1904  -15.1904  -14.3282  -14.3282  -14.3282  -14.3282
  -12.9367  -12.9367  -12.9367  -12.9367  -12.4660  -12.4660  -12.4660  -12.4660  -11.2714  -11.2714
  -11.2714  -11.2714   -9.1969   -9.1969   -9.1969   -9.1969   -9.1968   -9.1968   -9.1968   -9.1968
   -8.9752   -8.9752   -6.6573   -6.6573   -5.6264   -5.6264   -5.6264   -5.6264   -5.6264   -5.6264
   -5.6264   -5.6264   -3.4279   -3.4279   -3.4279   -3.4279   -2.3856   -2.3856   -2.3855   -2.3855
   -0.2907   -0.2907    1.5924    1.5924    1.5924    1.5924    1.9245    1.9245    1.9245    1.9245
    1.9246    1.9246    1.9246    1.9246    1.9651    1.9651    1.9651    1.9651    2.0421    2.0421
    2.0421    2.0421    4.1645    4.1645    4.1645    4.1645    6.2948    6.2948    6.2948    6.2948
    7.5778    7.5778    7.5778    7.5778    7.5780    7.5780    7.5780    7.5780    8.5789    8.5789
    8.5789    8.5789   10.0643   10.0643   10.0643   10.0643   10.0645   10.0645   10.0645   10.0645
   11.5023   11.5023   11.6195   11.6195   14.0761   14.0761   14.0761   14.0761   14.8208   14.8208
   14.8209   14.8209   14.8209   14.8209   14.8209   14.8209   15.1630   15.1630   15.8725   15.8725
   15.8725   15.8725   15.8732   15.8732   15.8732   15.8732   16.2012   16.2012   17.4263   17.4263
   17.4263   17.4263   18.1558   18.1558   19.7167   19.7167   19.7168   19.7168   20.4261   20.4261
   20.4261   20.4261   21.5842   21.5842   21.5842   21.5842   23.0817   23.0817   23.0817   23.0817
   23.0818   23.0818   23.0818   23.0818   23.6065   23.6065   23.6066   23.6066   24.5087   24.5087
   24.5087   24.5087   24.7728   24.7728   24.7728   24.7728   29.9289   29.9289   29.9289   29.9289
   29.9291   29.9291   29.9291   29.9291   32.5429   32.5429   34.1160   34.1160   38.6233   38.6233
   38.6233   38.6233   38.8095   38.8095   38.8095   38.8095   38.9888   38.9888   38.9888   38.9888
   39.2966   39.2966   39.2966   39.2966   39.2972   39.2972   39.2972   39.2972   40.2923   40.2923
   40.2923   40.2923   42.9666   42.9666   43.8589   43.8589   43.8589   43.8589   43.8589   43.8589
   43.8589   43.8589   45.6620   45.6620   45.6621   45.6621   45.6621   45.6621   45.6621   45.6621
   46.0455   46.0455   46.0455   46.0455   46.5391   46.5391   46.5391   46.5391   47.8271   47.8271
   49.2657   49.2657   49.2658   49.2658   53.7852   53.7852   53.7852   53.7852   54.0805   54.0805
   54.0805   54.0805   54.0808   54.0808   54.0808   54.0808   55.6652   55.6652   56.1111   56.1112
   56.1112   56.1112   57.7099   57.7099   58.6178   58.6178   58.6178   58.6178   58.6182   58.6182
   58.6182   58.6182   58.9336   58.9336   58.9336   58.9336   65.3912   65.3912   65.3913   65.3913
   65.3915   65.3915   65.3915   65.3915   66.6130   66.6130   66.6130   66.6130   67.0484   67.0484
   68.2262   68.2262   68.9424   68.9424   68.9424   68.9424   69.6476   69.6476   69.6476   69.6476
   69.6477   69.6477   69.6477   69.6477   69.7710   69.7710   69.7710   69.7711   71.0202   71.0202
   71.0202   71.0202   75.3588   75.3588   75.3589   75.3589   78.1825   78.1825   78.1826   78.1826
   78.1833   78.1833   78.1834   78.1834   80.7682   80.7682   80.7683   80.7683   83.0739   83.0739
   83.0739   83.0740   83.0742   83.0742   83.0743   83.0743   83.5374   83.5374   85.0648   85.0648
   85.0649   85.0650   90.8323   90.8323   90.8323   90.8324   93.4475   93.4475   97.9664   97.9664
   97.9665   97.9665   97.9684   97.9684   97.9684   97.9685   98.0920   98.0920  101.7235  101.7235
  103.1394  103.1394  103.1394  103.1395  104.4861  104.4861  104.4863  104.4863  106.0279  106.0279
  106.0280  106.0280  106.0281  106.0281  106.0282  106.0282  109.1208  109.1209  109.1210  109.1211
  110.2036  110.2038  110.2042  110.2042  113.0198  113.0198  113.0199  113.0199  113.0201  113.0203
  113.0204  113.0206  117.3478  117.3479  117.8963  117.8964  117.8966  117.8966  117.9782  117.9783
  117.9785  117.9785  118.3862  118.3862  123.8006  123.8007  123.8008  123.8009  126.4794  126.4794
  126.4797  126.4798  131.2633  131.2633  131.2633  131.2634  131.2636  131.2637  131.2638  131.2639
  134.1903  134.1903  143.3623  143.3623  143.3624  143.3625  147.1523  147.1523  147.1530  147.1532
  148.9512  148.9513  148.9517  148.9517  148.9518  148.9518  148.9519  148.9520
  43  1  -28.7541  -28.7541  -28.0657  -28.0657  -28.0657  -28.0657  -26.0452  -26.0452  -26.0452  -26.0452
         -24.7505  -24.7505  -24.1653  -24.1653  -24.1653  -24.1653  -23.3218  -23.3218  -22.1716  -22.1716
  -21.9294  -21.9294  -21.9292  -21.9292  -19.6931  -19.6931  -18.6460  -18.6460  -18.6460  -18.6460
  -18.1718  -18.1718  -17.3017  -17.3017  -16.5194  -16.5194  -16.5194  -16.5194  -15.7776  -15.7776
  -15.7773  -15.7773  -15.4543  -15.4543  -15.4540  -15.4540  -13.8954  -13.8954  -13.8950  -13.8950
  -13.7271  -13.7271  -12.8566  -12.8566  -12.5602  -12.5602  -12.0158  -12.0158  -12.0157  -12.0157
  -10.2915  -10.2915  -10.2915  -10.2915   -9.2515   -9.2515   -9.0638   -9.0638   -9.0638   -9.0638
   -8.5200   -8.5200   -6.3337   -6.3337   -6.2743   -6.2743   -6.2742   -6.2742   -5.3395   -5.3395
   -4.4556   -4.4556   -4.4556   -4.4556   -2.8119   -2.8119   -2.8119   -2.8119   -1.8991   -1.8991
    0.3088    0.3088    0.3090    0.3090    0.7608    0.7608    1.5015    1.5015    1.5016    1.5016
    1.7551    1.7551    1.9532    1.9532    2.2472    2.2472    2.2473    2.2473    3.3825    3.3825
    3.3828    3.3828    3.4469    3.4469    5.5377    5.5377    5.5377    5.5377    5.8355    5.8355
    6.0423    6.0423    7.1043    7.1043    7.1045    7.1045    8.4728    8.4728    9.4308    9.4308
    9.6969    9.6969    9.6970    9.6970    9.9026    9.9026    9.9027    9.9027   10.6524   10.6524
   11.4096   11.4096   11.4100   11.4100   13.8487   13.8487   13.8487   13.8487   14.2626   14.2626
   14.6391   14.6391   14.6394   14.6394   15.0362   15.0362   15.4813   15.4813   15.5569   15.5569
   15.8259   15.8259   15.8259   15.8259   16.4175   16.4175   16.4178   16.4178   17.6034   17.6034
   18.0808   18.0808   18.0814   18.0814   19.6986   19.6986   19.6988   19.6988   20.3541   20.3541
   20.4333   20.4333   20.4339   20.4339   21.8031   21.8031   21.8032   21.8032   22.9454   22.9454
   23.0232   23.0232   23.4385   23.4385   23.4386   23.4386   23.8252   23.8252   24.5099   24.5099
   24.5099   24.5099   25.3942   25.3942   27.6477   27.6477   27.6478   27.6478   28.6371   28.6371
   30.6037   30.6037   31.4252   31.4252   31.4254   31.4254   36.4769   36.4769   36.4773   36.4773
   37.8763   37.8763   38.4410   38.4410   38.4416   38.4416   38.7191   38.7191   38.7195   38.7195
   39.4015   39.4015   39.8338   39.8338   39.8339   39.8339   41.0784   41.0784   41.1507   41.1507
   41.9037   41.9037   41.9041   41.9041   42.2559   42.2559   42.9829   42.9829   43.3771   43.3771
   43.3773   43.3773   45.2079   45.2079   45.7096   45.7096   45.7744   45.7744   46.0015   46.0015
   46.0017   46.0017   46.2953   46.2953   46.2955   46.2955   47.3066   47.3066   47.3068   47.3068
   48.3319   48.3319   51.8715   51.8715   51.8716   51.8716   53.0525   53.0525   53.9614   53.9614
   55.4153   55.4153   55.4154   55.4154   55.4752   55.4752   55.4755   55.4755   56.0231   56.0231
   57.1896   57.1896   57.6235   57.6235   57.6239   57.6239   58.0595   58.0595   58.0597   58.0597
   58.5566   58.5566   58.6397   58.6397   58.6399   58.6399   64.5309   64.5309   64.5310   64.5310
   65.5943   65.5943   65.5944   65.5944   66.1348   66.1348   67.0550   67.0550   67.7050   67.7050
   67.7077   67.7078   67.7536   67.7536   67.7539   67.7539   67.8751   67.8751   68.0431   68.0432
   69.8439   69.8439   70.2334   70.2334   70.2338   70.2338   72.8450   72.8451   72.8454   72.8455
   73.3204   73.3204   74.1745   74.1745   75.1298   75.1298   78.2884   78.2884   78.6609   78.6609
   78.6639   78.6639   79.5034   79.5034   81.9673   81.9673   81.9676   81.9676   82.7571   82.7571
   82.7571   82.7571   83.3543   83.3543   85.2143   85.2143   85.2150   85.2150   86.2432   86.2433
   86.2440   86.2441   87.4805   87.4806   87.4811   87.4811   90.9850   90.9850   92.9454   92.9454
   92.9461   92.9461   97.4530   97.4530   97.4552   97.4552   97.9204   97.9204  101.9147  101.9147
  103.0019  103.0019  104.4930  104.4930  104.4935  104.4936  105.4253  105.4253  105.4265  105.4266
  105.5217  105.5217  105.5223  105.5224  106.2362  106.2363  107.1186  107.1186  111.7096  111.7096
  111.7111  111.7111  111.8962  111.8963  113.0262  113.0263  113.0283  113.0283  114.4019  114.4020
  114.7726  114.7726  115.1030  115.1030  115.1039  115.1039  117.2585  117.2585  117.2593  117.2594
  121.1690  121.1690  123.1909  123.1909  123.1922  123.1922  124.6596  124.6596  124.6608  124.6609
  125.6291  125.6292  129.8413  129.8413  129.8440  129.8441  130.7061  130.7061  135.3781  135.3782
  137.5705  137.5705  137.5707  137.5709  144.5450  144.5451  144.7167  144.7168  144.7194  144.7196
  145.9464  145.9464  151.4227  151.4228  151.4256  151.4257  156.8957  156.8958
  44  1  -28.5815  -28.5815  -28.5815  -28.5815  -27.2147  -27.2147  -27.2147  -27.2147  -24.5971  -24.5971
         -24.5971  -24.5971  -24.5971  -24.5971  -24.5971  -24.5971  -23.7602  -23.7602  -22.6225  -22.6225
  -20.6782  -20.6782  -20.6782  -20.6782  -20.6782  -20.6782  -20.6782  -20.6782  -17.1127  -17.1127
  -17.1127  -17.1127  -17.1127  -17.1127  -17.1127  -17.1127  -16.8184  -16.8184  -16.8183  -16.8183
  -15.3930  -15.3930  -15.3930  -15.3930  -15.1907  -15.1907  -14.3279  -14.3279  -14.3279  -14.3279
  -12.9371  -12.9371  -12.9371  -12.9371  -12.4660  -12.4660  -12.4660  -12.4660  -11.2714  -11.2714
  -11.2714  -11.2714   -9.1969   -9.1969   -9.1969   -9.1969   -9.1969   -9.1969   -9.1969   -9.1969
   -8.9751   -8.9751   -6.6572   -6.6572   -5.6264   -5.6264   -5.6264   -5.6264   -5.6264   -5.6264
   -5.6264   -5.6264   -3.4278   -3.4278   -3.4278   -3.4278   -2.3854   -2.3854   -2.3854   -2.3854
   -0.2905   -0.2905    1.5926    1.5926    1.5926    1.5926    1.9245    1.9245    1.9245    1.9245
    1.9245    1.9245    1.9245    1.9245    1.9645    1.9645    1.9645    1.9645    2.0421    2.0421
    2.0422    2.0422    4.1646    4.1646    4.1646    4.1646    6.2950    6.2950    6.2950    6.2950
    7.5779    7.5779    7.5779    7.5779    7.5779    7.5779    7.5779    7.5779    8.5787    8.5787
    8.5787    8.5787   10.0645   10.0645   10.0645   10.0645   10.0645   10.0645   10.0645   10.0645
   11.5012   11.5012   11.6200   11.6200   14.0762   14.0762   14.0762   14.0762   14.8211   14.8211
   14.8211   14.8211   14.8211   14.8211   14.8211   14.8211   15.1636   15.1636   15.8728   15.8728
   15.8728   15.8728   15.8728   15.8728   15.8728   15.8728   16.2011   16.2011   17.4263   17.4263
   17.4263   17.4263   18.1563   18.1563   19.7160   19.7160   19.7160   19.7160   20.4264   20.4264
   20.4264   20.4264   21.5840   21.5840   21.5840   21.5840   23.0817   23.0817   23.0817   23.0817
   23.0817   23.0817   23.0817   23.0817   23.6066   23.6066   23.6066   23.6066   24.5088   24.5088
   24.5088   24.5088   24.7729   24.7729   24.7729   24.7729   29.9289   29.9289   29.9289   29.9289
   29.9289   29.9289   29.9289   29.9289   32.5420   32.5420   34.1162   34.1162   38.6239   38.6239
   38.6239   38.6239   38.8101   38.8101   38.8101   38.8101   38.9877   38.9877   38.9877   38.9877
   39.2968   39.2968   39.2968   39.2968   39.2968   39.2968   39.2969   39.2969   40.2926   40.2926
   40.2926   40.2926   42.9669   42.9669   43.8589   43.8589   43.8589   43.8589   43.8589   43.8589
   43.8589   43.8589   45.6619   45.6619   45.6619   45.6619   45.6619   45.6619   45.6619   45.6619
   46.0456   46.0456   46.0456   46.0456   46.5397   46.5397   46.5397   46.5397   47.8273   47.8273
   49.2651   49.2651   49.2652   49.2652   53.7852   53.7852   53.7852   53.7852   54.0804   54.0804
   54.0804   54.0804   54.0805   54.0805   54.0805   54.0805   55.6642   55.6642   56.1115   56.1115
   56.1115   56.1115   57.7107   57.7107   58.6180   58.6180   58.6180   58.6180   58.6181   58.6181
   58.6181   58.6181   58.9333   58.9333   58.9333   58.9333   65.3915   65.3915   65.3915   65.3915
   65.3915   65.3915   65.3915   65.3916   66.6144   66.6144   66.6144   66.6144   67.0486   67.0486
   68.2253   68.2253   68.9392   68.9392   68.9393   68.9393   69.6475   69.6475   69.6475   69.6475
   69.6475   69.6475   69.6475   69.6476   69.7716   69.7716   69.7716   69.7717   71.0204   71.0204
   71.0204   71.0205   75.3618   75.3618   75.3618   75.3618   78.1832   78.1832   78.1833   78.1833
   78.1833   78.1833   78.1833   78.1833   80.7671   80.7671   80.7671   80.7671   83.0742   83.0742
   83.0743   83.0743   83.0744   83.0744   83.0744   83.0744   83.5376   83.5376   85.0634   85.0634
   85.0634   85.0635   90.8318   90.8318   90.8319   90.8320   93.4483   93.4483   97.9669   97.9669
   97.9669   97.9670   97.9671   97.9671   97.9672   97.9673   98.0939   98.0939  101.7213  101.7213
  103.1404  103.1404  103.1405  103.1405  104.4868  104.4868  104.4869  104.4870  106.0277  106.0277
  106.0277  106.0278  106.0278  106.0279  106.0279  106.0279  109.1216  109.1216  109.1216  109.1216
  110.2024  110.2025  110.2027  110.2027  113.0208  113.0209  113.0209  113.0209  113.0214  113.0215
  113.0217  113.0218  117.3489  117.3489  117.8986  117.8986  117.8987  117.8988  117.9771  117.9771
  117.9772  117.9772  118.3829  118.3831  123.7992  123.7993  123.7995  123.7995  126.4746  126.4749
  126.4750  126.4750  131.2644  131.2645  131.2646  131.2646  131.2648  131.2648  131.2650  131.2650
  134.1904  134.1904  143.3627  143.3628  143.3628  143.3628  147.1558  147.1560  147.1564  147.1566
  148.9506  148.9507  148.9507  148.9509  148.9512  148.9516  148.9517  148.9518
siesta: Fermi energy =      -7.164849 eV

siesta: Program's energy decomposition (eV):
siesta: Ebs     =     -2555.012487
siesta: Eions   =      9434.507561
siesta: Ena     =      2126.521505
siesta: Ekin    =      4170.675028
siesta: Enl     =      -413.602823
siesta: Eso     =         0.000000
siesta: Edftu   =         0.000000
siesta: DEna    =      -216.833943
siesta: DUscf   =        17.498510
siesta: DUext   =         0.000000
siesta: Exc     =     -1775.750157
siesta: eta*DQ  =         0.000000
siesta: Emadel  =         0.000000
siesta: Emeta   =         0.000000
siesta: Emolmec =        -8.049132
siesta: Ekinion =         0.000000
siesta: Eharris =     -5534.048568
siesta: Etot    =     -5534.048574
siesta: FreeEng =     -5534.064417

siesta: Final energy (eV):
siesta:  Band Struct. =   -2555.012487
siesta:       Kinetic =    4170.675028
siesta:       Hartree =     389.004186
siesta:       Edftu   =       0.000000
siesta:       Eso     =       0.000000
siesta:    Ext. field =       0.000000
siesta:   Exch.-corr. =   -1775.750157
siesta:  Ion-electron =   -5186.276959
siesta:       Ion-ion =   -3123.651541
siesta:       Ekinion =       0.000000
siesta:         Total =   -5534.048574
siesta:         Fermi =      -7.164849

siesta: Stress tensor (static) (eV/Ang**3):
siesta:    -0.133281   -0.000117    0.000000
siesta:    -0.000117   -0.133416    0.000000
siesta:     0.000000    0.000000   -1.459232

siesta: Cell volume =        181.015866 Ang**3

siesta: Pressure (static):
siesta:                Solid            Molecule  Units
siesta:           0.00626586          0.00626594  Ry/Bohr**3
siesta:           0.57530976          0.57531711  eV/Ang**3
siesta:         921.75782446        921.76959152  kBar
(Free)E+ p_basis*V_orbitals  =       -5500.534612
(Free)Eharris+ p_basis*V_orbitals  =       -5500.534605

cite: Please see "graphite_scf.bib" for an exhaustive BiBTeX file.
cite: Please clearly indicate Siesta version in published work: 4.1.5
cite: This calculation has made use of the following articles
cite: which are encouraged to be cited in a published work.
        Primary SIESTA paper
          DOI: www.doi.org/10.1088/0953-8984/14/11/302

>> End of run:   1-NOV-2022  17:52:22
Job completed
