Siesta Version  : 4.1.5
Architecture    : x86_64-unknown-linux-gnu--unknown
Compiler version: GNU Fortran (GCC) 11.3.0
Compiler flags  : mpif90 -g -O2 -fallow-argument-mismatch
PP flags        : -DMPI -DFC_HAVE_FLUSH -DFC_HAVE_ABORT
Libraries       :  -I/global/software/sl-7.x86_64/modules/intel/2020.4.304/mkl/include  /globall/software/sl-7.x86_64/modules/intel/2020.4.304/mkl/lib/intel64/libmkl_scalapack_lp64.a -Wl,--start-group /global/software/sl-7.x86_64/modules/intel/2020.4.304/mkl/lib/intel64/libmkl_intel_lp64.a /global/software/sl-7.x86_64/modules/intel/2020.4.304/mkl/lib/intel64/libmkl_sequential.a /global/software/sl-7.x86_64/modules/intel/2020.4.304/mkl/lib/intel64/libmkl_core.a /global/software/sl-7.x86_64/modules/intel/2020.4.304/mkl/lib/intel64/libmkl_blacs_openmpi_lp64.a -Wl,--end-group -lpthread -lm -ldl
PARALLEL version

* Running on 20 nodes in parallel
>> Start of run:   1-NOV-2022  16:34:51

                           ***********************       
                           *  WELCOME TO SIESTA  *       
                           ***********************       

reinit: Reading from standard input
reinit: Dumped input in INPUT_TMP.76738
************************** Dump of input data file ****************************
SystemName graphite_scf
SystemLabel graphite_scf
NumberOfAtoms   36
NumberOfSpecies 1
%block ChemicalSpeciesLabel
1  6   C-gga
%endblock ChemicalSpeciesLabel
PAO.BasisSize  DZP
PAO.EnergyShift  10 meV
%block PS.Lmax
C-gga   2
%endblock PS.Lmax
LatticeConstant 1.000000 Ang
%block LatticeVectors
	7.3920000000	0.0000000000	0.0000000000
	-3.6960000000	6.4016597848	0.0000000000
	0.0000000000	0.0000000000	6.1070100000
%endblock LatticeVectors
AtomicCoordinatesFormat Ang
%block AtomicCoordinatesAndAtomicSpecies
	0.00000000	0.00000000	1.52675250	1
	0.00000000	0.00000000	4.58025750	1
	-1.23200000	2.13388659	1.52675250	1
	-2.46400000	4.26777319	4.58025750	1
	2.46400000	4.26777319	1.52675250	1
	1.23200000	2.13388659	4.58025750	1
	2.46400000	0.00000000	1.52675250	1
	4.92800000	0.00000000	4.58025750	1
	2.46400000	0.00000000	4.58025750	1
	4.92800000	0.00000000	1.52675250	1
	2.46400000	4.26777319	4.58025750	1
	1.23200000	2.13388659	1.52675250	1
	-1.23200000	2.13388659	4.58025750	1
	-2.46400000	4.26777319	1.52675250	1
	0.00000000	4.26777319	1.52675250	1
	3.69600000	2.13388659	4.58025750	1
	3.69600000	2.13388659	1.52675250	1
	0.00000000	4.26777319	4.58025750	1
	0.00000000	1.42258964	1.52675250	1
	3.69600000	4.97907014	4.58025750	1
	2.46400123	5.69036496	1.52675250	1
	1.23199877	0.71129482	4.58025750	1
	-2.46400123	5.69036496	1.52675250	1
	6.16000123	0.71129482	4.58025750	1
	-1.23200000	3.55647624	1.52675250	1
	4.92800000	2.84518355	4.58025750	1
	1.23200123	3.55647837	1.52675250	1
	2.46399877	2.84518142	4.58025750	1
	-0.00000123	5.69036496	1.52675250	1
	3.69600123	0.71129482	4.58025750	1
	2.46400000	1.42258964	1.52675250	1
	1.23200000	4.97907014	4.58025750	1
	4.92800123	1.42259177	1.52675250	1
	-1.23200123	4.97906801	4.58025750	1
	3.69599877	3.55647837	1.52675250	1
	0.00000123	2.84518142	4.58025750	1
%endblock AtomicCoordinatesAndAtomicSpecies
Kgrid_NoTRS  T
%block kgrid_MonkhorstPack
4       0       0       0.0
0       4       0       0.0
0       0       4       0.0
%endblock kgrid_MonkhorstPack
AtomCoorFormatOut Ang
BlockSize 1
#ProcessorY 12
Diag.ParallelOverK   T
Diag.DivideAndConquer F
MeshCutoff   300 Ry
SCF.FreeE.Tolerance 1E-3 eV
SCF.EDM.Tolerance   5E-3 eV
DM.Tolerance  1E-3
DM.Require.Energy.Convergence T
DM.NumberPulay 4
XC.Functional GGA
XC.Authors    PBE
UseSaveData        F
SolutionMethod     diagon
MD.TypeOfRun       CG
MD.VariableCell    F
MD.NumCGsteps      00
MD.MaxCGDispl      0.200000 Bohr
#MD.MaxStressTol    1.000000 GPa
#MD.MaxForceTol     0.010000 eV/Ang
WriteMDHistory T
WriteCoorStep T
WriteForces T
WriteCoorStep    T
WriteEigenValues T
WriteDM    F
MM.UnitsDistance Ang  # what this program prints out DO NOT CHANGE
MM.UnitsEnergy    eV  # what this program prints out DO NOT CHANGE
MM.Grimme.S6     0.75 # Grimme-paper for PBE (correct for your functional)
MM.Grimme.D     20.   # Grimme-paper (correct for your functional)
%block MM.Potentials
  1   1 Grimme     18.14      2.904 # C, 10.1002/jcc.20495
%endblock MM.Potentials
#%block ProjectedDensityOfStates
# -200.0  120.0  0.4  12800  eV
#%endblock ProjectedDensityOfStates
************************** End of input data file *****************************

reinit: -----------------------------------------------------------------------
reinit: System Name: graphite_scf
reinit: -----------------------------------------------------------------------
reinit: System Label: graphite_scf
reinit: -----------------------------------------------------------------------
Reading two-body potentials
Grimme - two-body potential between 1 and 1

initatom: Reading input for the pseudopotentials and atomic orbitals ----------
Species number:   1 Atomic number:    6 Label: C-gga

Ground state valence configuration:   2s02  2p02
Reading pseudopotential information in formatted form from C-gga.psf

Valence configuration for pseudopotential generation:
2s( 2.00) rc: 1.56
2p( 2.00) rc: 1.56
3d( 0.00) rc: 1.56
4f( 0.00) rc: 1.56
relmxkb: Read Max KB Ang. Momentum=    2 for species C-gga

<basis_specs>
===============================================================================
C-gga                Z=   6    Mass=  12.010        Charge= 0.17977+309
Lmxo=1 Lmxkb= 2    BasisType=split      Semic=F
L=0  Nsemic=0  Cnfigmx=2
          i=1  nzeta=2  polorb=0  (2s)
            splnorm:   0.15000    
               vcte:    0.0000    
               rinn:    0.0000    
               qcoe:    0.0000    
               qyuk:    0.0000    
               qwid:   0.10000E-01
                rcs:    0.0000      0.0000    
            lambdas:    1.0000      1.0000    
L=1  Nsemic=0  Cnfigmx=2
          i=1  nzeta=2  polorb=1  (2p)
            splnorm:   0.15000    
               vcte:    0.0000    
               rinn:    0.0000    
               qcoe:    0.0000    
               qyuk:    0.0000    
               qwid:   0.10000E-01
                rcs:    0.0000      0.0000    
            lambdas:    1.0000      1.0000    
-------------------------------------------------------------------------------
L=0  Nkbl=1  erefs: 0.17977+309
L=1  Nkbl=1  erefs: 0.17977+309
L=2  Nkbl=1  erefs: 0.17977+309
===============================================================================
</basis_specs>

atom: Called for C-gga                 (Z =   6)

read_vps: Pseudopotential generation method:
read_vps: ATM 3.2.2 Troullier-Martins                       
Valence charge for ps generation:    4.00000

xc_check: Exchange-correlation functional:
xc_check: GGA Perdew, Burke & Ernzerhof 1996
V l=0 = -2*Zval/r beyond r=  1.5227
V l=1 = -2*Zval/r beyond r=  1.5227
V l=2 = -2*Zval/r beyond r=  1.5227
All V_l potentials equal beyond r=  1.4851
This should be close to max(r_c) in ps generation
All pots = -2*Zval/r beyond r=  1.5227

VLOCAL1: 99.0% of the norm of Vloc inside     19.682 Ry
VLOCAL1: 99.9% of the norm of Vloc inside     44.856 Ry
atom: Maximum radius for 4*pi*r*r*local-pseudopot. charge    1.79142
atom: Maximum radius for r*vlocal+2*Zval:    1.54183
GHOST: No ghost state for L =  0
GHOST: No ghost state for L =  1
GHOST: No ghost state for L =  2

KBgen: Kleinman-Bylander projectors: 
   l= 0   rc=  1.661951   el= -1.010689   Ekb=  5.289847   kbcos=  0.316429
   l= 1   rc=  1.661951   el= -0.388490   Ekb= -4.102504   kbcos= -0.351025
   l= 2   rc=  1.747182   el=  0.001971   Ekb= -1.006005   kbcos= -0.008530

KBgen: Total number of Kleinman-Bylander projectors:    9
atom: -------------------------------------------------------------------------

atom: SANKEY-TYPE ORBITALS:
atom: Selected multiple-zeta basis: split     

SPLIT: Orbitals with angular momentum L= 0

SPLIT: Basis orbitals for state 2s

SPLIT: PAO cut-off radius determined from an
SPLIT: energy shift=  0.000735 Ry

   izeta = 1
                 lambda =    1.000000
                     rc =    5.948690
                 energy =   -1.010099
                kinetic =    0.827121
    potential(screened) =   -1.837220
       potential(ionic) =   -5.392783

   izeta = 2
                 rmatch =    3.518811
              splitnorm =    0.150000
                 energy =   -0.877891
                kinetic =    1.289227
    potential(screened) =   -2.167118
       potential(ionic) =   -5.982073

SPLIT: Orbitals with angular momentum L= 1

SPLIT: Basis orbitals for state 2p

SPLIT: PAO cut-off radius determined from an
SPLIT: energy shift=  0.000735 Ry

   izeta = 1
                 lambda =    1.000000
                     rc =    7.638387
                 energy =   -0.387843
                kinetic =    2.314739
    potential(screened) =   -2.702582
       potential(ionic) =   -6.092371

   izeta = 2
                 rmatch =    3.840617
              splitnorm =    0.150000
                 energy =   -0.270479
                kinetic =    3.438347
    potential(screened) =   -3.708826
       potential(ionic) =   -7.497707

POLgen: Perturbative polarization orbital with L=  2

POLgen: Polarization orbital for state 2p

   izeta = 1
                     rc =    7.638387
                 energy =    0.921402
                kinetic =    1.955040
    potential(screened) =   -1.033637
       potential(ionic) =   -3.679558
atom: Total number of Sankey-type orbitals: 13

atm_pop: Valence configuration (for local Pseudopot. screening):
 2s( 2.00)                                                            
 2p( 2.00)                                                            
Vna: chval, zval:    4.00000   4.00000

Vna:  Cut-off radius for the neutral-atom potential:   7.638387

atom: _________________________________________________________________________

prinput: Basis input ----------------------------------------------------------

PAO.BasisType split     

%block ChemicalSpeciesLabel
    1    6 C-gga                   # Species index, atomic number, species label
%endblock ChemicalSpeciesLabel

%block PAO.Basis                 # Define Basis set
C-gga                 2                    # Species label, number of l-shells
 n=2   0   2                         # n, l, Nzeta 
   5.949      3.519   
   1.000      1.000   
 n=2   1   2 P   1                   # n, l, Nzeta, Polarization, NzetaPol
   7.638      3.841   
   1.000      1.000   
%endblock PAO.Basis

prinput: ----------------------------------------------------------------------

coor:   Atomic-coordinates input format  =     Cartesian coordinates
coor:                                          (in Angstroms)

siesta: Atomic coordinates (Bohr) and species
siesta:      0.00000   0.00000   2.88515  1        1
siesta:      0.00000   0.00000   8.65544  1        2
siesta:     -2.32814   4.03246   2.88515  1        3
siesta:     -4.65629   8.06493   8.65544  1        4
siesta:      4.65629   8.06493   2.88515  1        5
siesta:      2.32814   4.03246   8.65544  1        6
siesta:      4.65629   0.00000   2.88515  1        7
siesta:      9.31257   0.00000   8.65544  1        8
siesta:      4.65629   0.00000   8.65544  1        9
siesta:      9.31257   0.00000   2.88515  1       10
siesta:      4.65629   8.06493   8.65544  1       11
siesta:      2.32814   4.03246   2.88515  1       12
siesta:     -2.32814   4.03246   8.65544  1       13
siesta:     -4.65629   8.06493   2.88515  1       14
siesta:      0.00000   8.06493   2.88515  1       15
siesta:      6.98443   4.03246   8.65544  1       16
siesta:      6.98443   4.03246   2.88515  1       17
siesta:      0.00000   8.06493   8.65544  1       18
siesta:      0.00000   2.68831   2.88515  1       19
siesta:      6.98443   9.40908   8.65544  1       20
siesta:      4.65629  10.75324   2.88515  1       21
siesta:      2.32814   1.34415   8.65544  1       22
siesta:     -4.65629  10.75324   2.88515  1       23
siesta:     11.64072   1.34415   8.65544  1       24
siesta:     -2.32814   6.72077   2.88515  1       25
siesta:      9.31257   5.37662   8.65544  1       26
siesta:      2.32815   6.72077   2.88515  1       27
siesta:      4.65628   5.37662   8.65544  1       28
siesta:     -0.00000  10.75324   2.88515  1       29
siesta:      6.98443   1.34415   8.65544  1       30
siesta:      4.65629   2.68831   2.88515  1       31
siesta:      2.32814   9.40908   8.65544  1       32
siesta:      9.31258   2.68831   2.88515  1       33
siesta:     -2.32815   9.40908   8.65544  1       34
siesta:      6.98443   6.72077   2.88515  1       35
siesta:      0.00000   5.37662   8.65544  1       36

siesta: System type = bulk      

initatomlists: Number of atoms, orbitals, and projectors:     36   468   324

siesta: ******************** Simulation parameters ****************************
siesta:
siesta: The following are some of the parameters of the simulation.
siesta: A complete list of the parameters used, including default values,
siesta: can be found in file out.fdf
siesta:
redata: Spin configuration                          = none
redata: Number of spin components                   = 1
redata: Time-Reversal Symmetry                      = T
redata: Spin spiral                                 = F
redata: Long output                                 =   F
redata: Number of Atomic Species                    =        1
redata: Charge density info will appear in .RHO file
redata: Write Mulliken Pop.                         = NO
redata: Matel table size (NRTAB)                    =     1024
redata: Mesh Cutoff                                 =   300.0000 Ry
redata: Net charge of the system                    =     0.0000 |e|
redata: Min. number of SCF Iter                     =        0
redata: Max. number of SCF Iter                     =     1000
redata: SCF convergence failure will abort job
redata: SCF mix quantity                            = Hamiltonian
redata: Mix DM or H after convergence               =   F
redata: Recompute H after scf cycle                 =   F
redata: Mix DM in first SCF step                    =   T
redata: Write Pulay info on disk                    =   F
redata: New DM Occupancy tolerance                  = 0.000000000001
redata: No kicks to SCF
redata: DM Mixing Weight for Kicks                  =     0.5000
redata: Require Harris convergence for SCF          =   F
redata: Harris energy tolerance for SCF             =     0.000100 eV
redata: Require DM convergence for SCF              =   T
redata: DM tolerance for SCF                        =     0.001000
redata: Require EDM convergence for SCF             =   F
redata: EDM tolerance for SCF                       =     0.005000 eV
redata: Require H convergence for SCF               =   T
redata: Hamiltonian tolerance for SCF               =     0.001000 eV
redata: Require (free) Energy convergence for SCF   =   T
redata: (free) Energy tolerance for SCF             =     0.001000 eV
redata: Using Saved Data (generic)                  =   F
redata: Use continuation files for DM               =   F
redata: Neglect nonoverlap interactions             =   F
redata: Method of Calculation                       = Diagonalization
redata: Electronic Temperature                      =   299.9869 K
redata: Fix the spin of the system                  =   F
redata: Dynamics option                             = Single-point calculation
mix.SCF: Pulay mixing                            = Pulay
mix.SCF:    Variant                              = stable
mix.SCF:    History steps                        = 4
mix.SCF:    Linear mixing weight                 =     0.250000
mix.SCF:    Mixing weight                        =     0.250000
mix.SCF:    SVD condition                        = 0.1000E-07
redata: ***********************************************************************

%block SCF.Mixers
  Pulay
%endblock SCF.Mixers

%block SCF.Mixer.Pulay
  # Mixing method
  method pulay
  variant stable

  # Mixing options
  weight 0.2500
  weight.linear 0.2500
  history 4
%endblock SCF.Mixer.Pulay

DM_history_depth set to one: no extrapolation allowed by default for geometry relaxation
Size of DM history Fstack: 1
Total number of electrons:   144.000000
Total ionic charge:   144.000000

* ProcessorY, Blocksize:    4   1


* Orbital distribution balance (max,min):    24    23

k-point displ. along   1 input, could be:     0.00    0.50
k-point displ. along   2 input, could be:     0.00    0.50
k-point displ. along   3 input, could be:     0.00    0.50
 Kpoints in:           48 . Kpoints trimmed:           44

siesta: k-grid: Number of k-points =    44
siesta: k-grid: Cutoff (effective) =    12.214 Ang
siesta: k-grid: Supercell and displacements
siesta: k-grid:    4   0   0      0.000
siesta: k-grid:    0   4   0      0.000
siesta: k-grid:    0   0   4      0.000

diag: Algorithm                                     = Expert
diag: Parallel over k                               =   T
diag: Use parallel 2D distribution                  =   T
diag: Parallel block-size                           = 1
diag: Parallel distribution                         =     4 x     5
diag: Used triangular part                          = Lower
diag: Absolute tolerance                            =  0.100E-15
diag: Orthogonalization factor                      =  0.100E-05
diag: Memory factor                                 =  1.0000

superc: Internal auxiliary supercell:     5 x     5 x     3  =      75
superc: Number of atoms, orbitals, and projectors:   2700  35100  24300


ts: **************************************************************
ts: Save H and S matrices                           =    F
ts: Save DM and EDM matrices                        =    F
ts: Only save the overlap matrix S                  =    F
ts: **************************************************************

************************ Begin: TS CHECKS AND WARNINGS ************************
************************ End: TS CHECKS AND WARNINGS **************************


                     ====================================
                        Single-point calculation
                     ====================================

outcoor: Atomic coordinates (Ang):                          
    0.00000000    0.00000000    1.52675250   1       1  C-gga
    0.00000000    0.00000000    4.58025750   1       2  C-gga
   -1.23200000    2.13388659    1.52675250   1       3  C-gga
   -2.46400000    4.26777319    4.58025750   1       4  C-gga
    2.46400000    4.26777319    1.52675250   1       5  C-gga
    1.23200000    2.13388659    4.58025750   1       6  C-gga
    2.46400000    0.00000000    1.52675250   1       7  C-gga
    4.92800000    0.00000000    4.58025750   1       8  C-gga
    2.46400000    0.00000000    4.58025750   1       9  C-gga
    4.92800000    0.00000000    1.52675250   1      10  C-gga
    2.46400000    4.26777319    4.58025750   1      11  C-gga
    1.23200000    2.13388659    1.52675250   1      12  C-gga
   -1.23200000    2.13388659    4.58025750   1      13  C-gga
   -2.46400000    4.26777319    1.52675250   1      14  C-gga
    0.00000000    4.26777319    1.52675250   1      15  C-gga
    3.69600000    2.13388659    4.58025750   1      16  C-gga
    3.69600000    2.13388659    1.52675250   1      17  C-gga
    0.00000000    4.26777319    4.58025750   1      18  C-gga
    0.00000000    1.42258964    1.52675250   1      19  C-gga
    3.69600000    4.97907014    4.58025750   1      20  C-gga
    2.46400123    5.69036496    1.52675250   1      21  C-gga
    1.23199877    0.71129482    4.58025750   1      22  C-gga
   -2.46400123    5.69036496    1.52675250   1      23  C-gga
    6.16000123    0.71129482    4.58025750   1      24  C-gga
   -1.23200000    3.55647624    1.52675250   1      25  C-gga
    4.92800000    2.84518355    4.58025750   1      26  C-gga
    1.23200123    3.55647837    1.52675250   1      27  C-gga
    2.46399877    2.84518142    4.58025750   1      28  C-gga
   -0.00000123    5.69036496    1.52675250   1      29  C-gga
    3.69600123    0.71129482    4.58025750   1      30  C-gga
    2.46400000    1.42258964    1.52675250   1      31  C-gga
    1.23200000    4.97907014    4.58025750   1      32  C-gga
    4.92800123    1.42259177    1.52675250   1      33  C-gga
   -1.23200123    4.97906801    4.58025750   1      34  C-gga
    3.69599877    3.55647837    1.52675250   1      35  C-gga
    0.00000123    2.84518142    4.58025750   1      36  C-gga

superc: Internal auxiliary supercell:     5 x     5 x     3  =      75
superc: Number of atoms, orbitals, and projectors:   2700  35100  24300

outcell: Unit cell vectors (Ang):
        7.392000    0.000000    0.000000
       -3.696000    6.401660    0.000000
        0.000000    0.000000    6.107010

outcell: Cell vector modules (Ang)   :    7.392000    7.392000    6.107010
outcell: Cell angles (23,13,12) (deg):     90.0000     90.0000    120.0000
outcell: Cell volume (Ang**3)        :    288.9902
<dSpData1D:S at geom step 0
  <sparsity:sparsity for geom step 0
    nrows_g=468 nrows=24 sparsity=.3898 nnzs=85380, refcount: 7>
  <dData1D:(new from dSpData1D) n=85380, refcount: 1>
refcount: 1>
new_DM -- step:     1
Initializing Density Matrix...
DM filled with atomic data:
<dSpData2D:DM initialized from atoms
  <sparsity:sparsity for geom step 0
    nrows_g=468 nrows=24 sparsity=.3898 nnzs=85380, refcount: 8>
  <dData2D:DM n=85380 m=1, refcount: 1>
refcount: 1>
No. of atoms with KB's overlaping orbs in proc 0. Max # of overlaps:     256     712
New grid distribution:   1
           1       1:   36    1:    9    1:    7
           2       1:   36    1:    9    8:   14
           3       1:   36    1:    9   15:   20
           4       1:   36    1:    9   21:   26
           5       1:   36    1:    9   27:   32
           6       1:   36   10:   18    1:    7
           7       1:   36   10:   18    8:   14
           8       1:   36   10:   18   15:   20
           9       1:   36   10:   18   21:   26
          10       1:   36   10:   18   27:   32
          11       1:   36   19:   27    1:    7
          12       1:   36   19:   27    8:   14
          13       1:   36   19:   27   15:   20
          14       1:   36   19:   27   21:   26
          15       1:   36   19:   27   27:   32
          16       1:   36   28:   36    1:    7
          17       1:   36   28:   36    8:   14
          18       1:   36   28:   36   15:   20
          19       1:   36   28:   36   21:   26
          20       1:   36   28:   36   27:   32

InitMesh: MESH =    72 x    72 x    64 =      331776
InitMesh: (bp) =    36 x    36 x    32 =       41472
InitMesh: Mesh cutoff (required, used) =   300.000   303.532 Ry
ExtMesh (bp) on 0 =   128 x   101 x    95 =     1228160
New grid distribution:   2
           1       1:   18   28:   36    1:   13
           2      19:   27   25:   36   14:   32
           3      19:   36    1:    6   13:   32
           4       1:   18    1:    6   14:   32
           5       1:   18    1:    9    1:   13
           6       1:    9    7:   18   14:   32
           7      10:   18    7:   18   14:   32
           8      19:   27    7:   18   13:   32
           9      28:   36    7:   18   13:   32
          10       1:   18   10:   18    1:   13
          11      19:   36   10:   18    1:   12
          12      19:   36   19:   24   14:   32
          13       1:   18   19:   27    1:   13
          14       1:   18   19:   24   14:   32
          15      19:   36    1:    9    1:   12
          16      19:   36   28:   36    1:   13
          17      19:   36   19:   27    1:   13
          18       1:    9   25:   36   14:   32
          19      10:   18   25:   36   14:   32
          20      28:   36   25:   36   14:   32
New grid distribution:   3
           1      19:   36    1:    9    1:   13
           2       1:   18    1:    9    1:   13
           3      19:   36   19:   24   14:   32
           4      19:   36    1:    6   14:   32
           5       1:   18    1:    6   14:   32
           6      19:   36   10:   18    1:   13
           7       1:   18   10:   18    1:   13
           8      19:   27    7:   18   14:   32
           9      28:   36    7:   18   14:   32
          10      10:   18    7:   18   14:   32
          11       1:   18   19:   27    1:   13
          12      10:   18   25:   36   14:   32
          13      19:   36   19:   27    1:   13
          14      28:   36   25:   36   14:   32
          15       1:   18   19:   24   14:   32
          16       1:   18   28:   36    1:   13
          17      19:   36   28:   36    1:   13
          18       1:    9   25:   36   14:   32
          19      19:   27   25:   36   14:   32
          20       1:    9    7:   18   14:   32
Setting up quadratic distribution...
ExtMesh (bp) on 0 =   110 x   101 x   101 =     1122110
PhiOnMesh: Number of (b)points on node 0 =                 2106
PhiOnMesh: nlist on node 0 =               690902

stepf: Fermi-Dirac step function

siesta: Program's energy decomposition (eV):
siesta: Ebs     =     -2221.350936
siesta: Eions   =      9434.507561
siesta: Ena     =      2218.935354
siesta: Ekin    =      4045.722617
siesta: Enl     =      -409.239326
siesta: Eso     =         0.000000
siesta: Edftu   =         0.000000
siesta: DEna    =      -285.347173
siesta: DUscf   =        28.499403
siesta: DUext   =         0.000000
siesta: Exc     =     -1736.638948
siesta: eta*DQ  =         0.000000
siesta: Emadel  =         0.000000
siesta: Emeta   =         0.000000
siesta: Emolmec =        -5.415069
siesta: Ekinion =         0.000000
siesta: Eharris =     -5470.441439
siesta: Etot    =     -5577.990702
siesta: FreeEng =     -5578.001001

        iscf     Eharris(eV)        E_KS(eV)     FreeEng(eV)     dDmax    Ef(eV) dHmax(eV)
   scf:    1    -5470.441439    -5577.990702    -5578.001001  1.672212 -8.000941  2.847861
timer: Routine,Calls,Time,% = IterSCF        1      12.029  73.34
   scf:    2    -5582.029860    -5580.056430    -5580.066499  0.089624 -7.629533  1.901125
   scf:    3    -5583.201554    -5581.845211    -5581.854649  0.161396 -6.900309  0.032233
   scf:    4    -5581.844662    -5581.845020    -5581.854478  0.001705 -6.917880  0.014166
   scf:    5    -5581.845728    -5581.845504    -5581.854948  0.003856 -6.915870  0.015069
   scf:    6    -5581.845711    -5581.845626    -5581.855074  0.001186 -6.920554  0.000325
   scf:    7    -5581.845627    -5581.845626    -5581.855074  0.000020 -6.920543  0.000261

SCF Convergence by FreeE+DM+H criterion
|FreeE_i-FreeE_(i-1)| (eV) <     0.00100000
max |DM_out - DM_in|         :     0.0000204478
max |H_out - H_in|      (eV) :     0.0002614601
SCF cycle converged after 7 iterations

Using DM_out to compute the final energy and forces
No. of atoms with KB's overlaping orbs in proc 0. Max # of overlaps:     256     712

MM-Stress (kbar):       19.69       19.69       62.90        0.00        0.00        0.00

siesta: E_KS(eV) =            -5581.8456

siesta: E_KS - E_eggbox =     -5581.8456

siesta: Atomic forces (eV/Ang):
     1   -0.000073    0.000042   -0.000000
     2    0.000073   -0.000042   -0.000000
     3   -0.000022   -0.000002   -0.000000
     4    0.000022    0.000002   -0.000000
     5   -0.000060    0.000108   -0.000000
     6    0.000060   -0.000108   -0.000000
     7   -0.000137    0.000020   -0.000000
     8    0.000137   -0.000020   -0.000000
     9    0.000057   -0.000060   -0.000000
    10   -0.000057    0.000060   -0.000000
    11    0.000065   -0.000020   -0.000000
    12   -0.000065    0.000020   -0.000000
    13    0.000096   -0.000046   -0.000000
    14   -0.000096    0.000047   -0.000000
    15   -0.000073    0.000042   -0.000000
    16    0.000073   -0.000042   -0.000000
    17   -0.000073    0.000043   -0.000000
    18    0.000073   -0.000042   -0.000000
    19    0.000083    0.000067    0.000000
    20   -0.000083   -0.000067    0.000000
    21   -0.000026   -0.000089    0.000000
    22    0.000026    0.000089    0.000000
    23    0.000164   -0.000106    0.000000
    24   -0.000164    0.000106    0.000000
    25    0.000081    0.000053    0.000000
    26   -0.000081   -0.000054    0.000000
    27   -0.000014   -0.000084    0.000000
    28    0.000014    0.000084    0.000000
    29    0.000153   -0.000097    0.000000
    30   -0.000153    0.000097    0.000000
    31    0.000082    0.000054    0.000000
    32   -0.000082   -0.000053    0.000000
    33   -0.000014   -0.000084    0.000000
    34    0.000014    0.000084    0.000000
    35    0.000153   -0.000098    0.000000
    36   -0.000153    0.000097    0.000000
----------------------------------------
   Tot   -0.000000    0.000001    0.000000
----------------------------------------
   Max    0.000164
   Res    0.000066    sqrt( Sum f_i^2 / 3N )
----------------------------------------
   Max    0.000164    constrained

Stress tensor Voigt[x,y,z,yz,xz,xy] (kbar):     -131.29     -131.42      -28.20        0.00        0.00       -0.12
(Free)E + p*V (eV/cell)    -5564.3646
Target enthalpy (eV/cell)    -5581.8551

siesta: Eigenvalues (eV):
  ik is       eps
   1  1  -26.1749  -25.6129  -25.5147  -25.5147  -24.9732  -24.9732  -23.5744  -23.5744  -23.0964  -23.0964
         -22.3279  -21.8942  -21.7466  -21.7466  -21.3587  -21.3587  -20.8645  -20.6559  -19.7671  -19.6285
  -19.6135  -19.6135  -19.3015  -19.3015  -17.5062  -17.3587  -16.4937  -16.4937  -16.2952  -16.2952
  -15.8780  -15.7739  -15.2074  -15.1597  -15.0236  -14.4314  -14.4314  -14.3662  -14.3662  -14.2916
  -14.2916  -13.8685  -13.8685  -13.7260  -13.7260  -13.4209  -13.4209  -13.2812  -13.2812  -12.2259
  -12.0771  -12.0771  -12.0178  -12.0178  -11.9109  -11.9109  -11.6931  -11.6203  -11.5229  -11.5229
  -11.0044  -10.9526  -10.6456  -10.1872  -10.1872   -9.5709   -9.5709   -9.3483   -8.6859   -8.6859
   -8.4315   -8.3245   -5.2644   -5.1790   -5.1790   -5.0053   -4.5952   -4.1315   -4.1315   -3.5903
   -2.9659   -2.9659   -1.9484   -1.9484   -0.4921    0.3054    0.3054    0.9092    0.9092    1.0277
    1.0277    1.6228    1.6228    1.7419    1.7419    1.7538    1.8632    1.8632    1.9508    2.2424
    2.2424    2.6850    2.6850    2.7567    2.7774    2.9692    3.0788    3.1635    3.1635    3.2744
    3.5983    3.8480    3.8480    4.1401    4.4790    4.4790    4.7066    4.7066    4.9461    4.9667
    4.9667    5.2360    5.7629    5.7630    5.7753    6.1920    6.2910    6.4205    6.6963    6.7140
    6.7140    6.7211    6.7211    6.7798    7.0508    7.0588    7.2825    7.3991    7.3991    7.4759
    7.4759    7.5637    7.8496    8.1791    8.1791    8.4637    8.4637    8.6844    8.6844    9.9542
    9.9542   10.2157   10.2157   11.0013   11.7444   11.7444   11.9041   12.1199   12.1199   12.6165
   12.6165   13.2594   13.2683   13.2683   13.6483   14.7636   14.7636   14.8765   15.3743   15.3894
   15.4369   15.4369   15.4419   15.4419   15.6815   15.7271   15.7271   15.8566   15.8566   16.2611
   16.2649   16.2649   16.9155   16.9621   17.4777   17.4777   17.4969   17.4969   17.6507   17.8128
   18.0320   18.0320   18.6712   18.8698   18.8698   19.0182   19.0182   19.4824   19.7346   19.9072
   19.9072   20.4747   20.7528   20.7528   20.8580   20.9067   20.9410   20.9410   21.2916   21.4344
   21.7077   21.7077   21.8565   21.8565   22.1016   22.1016   22.6620   22.9193   22.9193   23.0742
   23.0742   23.7072   23.8121   23.8121   24.3770   24.4868   24.6583   24.6583   24.6846   24.6846
   25.2754   25.9513   25.9513   26.5588   27.3468   27.3468   27.5101   27.5102   28.9232   28.9650
   29.3901   29.3901   29.4183   29.5966   29.5966   29.7687   30.0885   30.0885   30.1006   30.1006
   30.8986   32.9910   35.2941   35.2941   36.3534   36.5835   36.5835   37.9323   38.1954   38.1954
   38.9327   38.9327   39.1292   39.4183   39.6889   40.1703   40.1703   40.7457   40.8048   40.8048
   41.0879   41.5854   41.9311   41.9312   41.9592   41.9592   42.2758   42.2758   42.3013   42.3013
   42.7311   42.7311   43.0932   43.0932   43.3059   43.6555   43.7653   43.8300   44.0272   44.0272
   44.1472   44.4820   44.5386   44.6364   44.6364   44.7086   44.7086   44.8573   44.8573   44.8589
   45.3124   45.5544   45.7818   46.2901   46.2901   46.4608   46.4608   46.5649   46.5649   46.9242
   47.0028   47.4957   47.4957   48.4539   48.4539   49.0017   49.0017   49.0646   49.9087   50.3427
   50.3428   50.5604   50.5604   50.5966   51.1851   52.3988   52.5325   52.5890   52.5890   52.8651
   52.8651   53.3345   53.3345   53.7402   53.9971   54.2867   54.2867   54.7202   54.7202   55.2124
   55.2124   58.2532   58.9441   58.9441   59.5998   59.5998   61.0240   61.2430   61.2431   61.4565
   61.4565   61.9385   62.2210   62.9057   62.9331   62.9332   64.0334   64.8429   64.8430   64.8653
   64.8654   65.4348   65.4606   65.4606   65.4713   65.5957   65.5957   65.9646   65.9647   66.3976
   66.6832   66.6833   67.7886   68.3968   68.3968   68.5474   68.5475   68.7910   68.7910   68.9095
   69.0316   69.4955   69.4955   69.7926   70.1973   70.1973   70.9910   70.9911   71.7682   72.3166
   72.3166   72.6632   72.8091   72.8383   73.3376   75.8162   76.2535   76.2535   78.3339   78.3340
   83.2096   83.3533   84.6702   86.9432   86.9433   87.0604   87.1972   87.1973   93.8445   93.8446
   96.9988   96.9991   97.8474   97.8475   97.9764   98.6459   98.6460   98.8309   98.8311  100.7533
  100.7534  101.0314  101.8381  101.8891  101.8891  103.6682  103.6688  104.0468  104.1577  104.8517
  104.9160  104.9161  106.1975  106.2721  106.2723  107.9791  108.2017  108.5767  110.5677  110.5681
  110.8014  110.8016  111.3965  112.2767  112.2771  112.2992  112.3000  115.3712  115.3714  115.7104
  117.6024  117.6024  121.0609  121.3421  122.0469  125.0188  127.1171  127.1173  128.6096  128.6098
  129.0478  132.3147  132.3160  133.7177  134.4390  144.3058  144.3063  146.4189
   2  1  -26.5039  -25.9348  -25.1867  -24.6556  -24.5355  -24.5355  -24.0259  -24.0259  -23.2577  -23.2576
         -22.7907  -22.7906  -22.6353  -22.1928  -20.8734  -20.8733  -20.5191  -20.5191  -18.9568  -18.9567
  -18.7797  -18.7216  -18.7215  -18.4654  -17.6658  -17.6657  -17.3868  -17.3867  -16.6234  -16.6232
  -16.4435  -16.4434  -15.5612  -15.5176  -15.5174  -15.3078  -15.3075  -14.4334  -14.2409  -13.9757
  -13.5428  -13.5425  -13.4016  -13.4013  -13.2199  -13.2047  -13.2047  -13.0964  -12.9100  -12.9097
  -12.7761  -12.7758  -12.5846  -12.0250  -11.8959  -11.7352  -11.7352  -11.1835  -11.0784  -10.6732
  -10.5900  -10.5196  -10.5196  -10.3579  -10.2830   -9.3627   -9.3627   -9.0833   -9.0833   -9.0202
   -7.5674   -7.5674   -5.9209   -5.9209   -5.0384   -5.0384   -4.6556   -3.7752   -3.7752   -3.2013
   -2.3809   -2.3809   -1.4495   -1.4495   -0.8592   -0.3537   -0.3537   -0.0643    0.3966    0.6296
    0.9211    1.0751    1.0998    1.2119    1.2120    1.3715    1.3717    1.4407    1.5896    1.6084
    1.6593    1.6595    1.8495    1.8497    2.0630    2.1653    2.2056    2.2058    3.2222    3.2223
    3.8207    3.9572    4.2350    4.7926    4.7927    5.5321    5.5323    5.9908    6.0944    6.0944
    6.2512    6.2512    6.2973    6.3173    6.3175    6.4039    6.4039    6.4414    6.4415    6.5075
    6.5955    6.8433    7.0417    7.0421    7.5504    7.5504    7.5686    7.6416    7.7861    7.7861
    7.9341    8.1703    8.1703    8.7817    8.9481    8.9483    9.0044    9.5844    9.5849    9.8504
    9.8506   10.8648   10.8649   11.1846   11.1846   11.3458   11.3463   11.6408   11.6410   11.7406
   11.9811   12.0255   12.8551   13.1061   13.1063   13.2055   13.2055   13.2428   13.2429   15.5708
   15.5708   15.6021   15.8242   15.8245   15.8252   15.9424   15.9425   15.9976   16.2897   16.2897
   16.6080   16.6084   17.0286   17.0286   17.0966   17.0966   17.1779   17.7138   17.8521   17.8523
   18.0310   18.0314   18.3204   18.3206   18.4188   18.4748   18.4749   18.4768   18.9564   20.1224
   20.4424   20.6435   21.0539   21.2204   21.2206   21.3636   21.3637   21.7329   21.7330   22.1235
   22.1235   22.4284   22.4284   22.5340   22.7204   22.7653   22.7653   22.8799   22.9366   23.0194
   23.0217   23.4865   23.4871   23.7231   23.7232   23.7837   23.7837   24.3506   24.6635   24.8720
   24.8724   25.7467   26.4705   27.1505   27.8133   28.3882   28.3882   28.4264   28.6327   28.6327
   28.6528   28.6529   28.8655   29.5813   29.9851   29.9854   30.3793   30.3796   31.8612   31.8612
   33.4819   34.4450   35.8333   36.2054   36.2057   36.9062   36.9066   36.9544   37.9729   37.9742
   38.6197   38.6769   38.6770   38.9556   38.9562   39.0427   39.2588   39.2590   39.4785   39.4785
   40.0591   40.0603   40.3501   40.5605   40.9549   40.9550   40.9552   41.0292   42.2124   42.2904
   42.2905   42.7692   42.7693   42.8319   42.8319   43.4229   43.5209   43.9837   43.9846   44.0509
   44.5380   44.5381   44.5428   44.9337   44.9484   45.4967   45.6027   45.6028   45.6776   45.6792
   45.6802   45.7373   47.1255   47.4580   47.4581   47.5375   47.5379   47.6710   47.9946   47.9947
   48.4929   48.4930   48.9203   48.9206   49.3355   50.0990   51.0639   51.0641   51.5594   51.5597
   52.0365   52.0862   52.1102   52.1103   52.3157   52.3157   52.4373   52.4374   52.7832   52.7833
   53.3679   55.0818   55.5036   56.0009   56.5487   56.6758   56.6760   56.6872   56.6872   57.0570
   57.1908   57.1909   58.7118   59.6122   59.6123   60.1630   60.4266   60.4266   61.0772   61.0774
   61.7544   61.8969   61.8973   62.1872   62.1878   62.2498   62.4679   62.4680   62.9488   64.4802
   64.4807   64.4907   65.0426   65.1002   65.1019   65.3832   65.6820   65.6821   65.8132   65.8145
   66.3584   66.6126   66.6793   66.6794   67.0559   67.4735   67.7970   67.7971   68.3048   68.3060
   68.4009   68.9632   68.9646   69.0609   69.0610   69.2979   69.4584   70.0322   71.0923   71.8068
   73.2799   73.9995   73.9996   74.1607   74.8874   74.8986   75.6390   75.6390   77.0007   77.0015
   78.2402   78.2404   79.0863   79.0865   83.1118   91.1374   91.1390   92.6736   93.3691   94.6839
   94.6869   95.4575   95.4586   96.5635   97.7989   97.8017   98.4598  100.8131  100.8158  103.2746
  103.2748  104.6912  104.6944  105.8764  106.5083  106.5095  106.7163  106.7703  106.7707  106.7916
  107.1256  107.1265  107.3436  107.3436  108.6308  109.2271  109.2277  112.1822  112.1832  112.5849
  113.0493  113.1009  115.7398  117.1629  117.1634  119.5064  119.5070  119.5934  120.0726  120.0731
  122.1691  122.7695  122.7723  122.8052  127.6497  127.8639  130.4938  130.4943  131.6471  131.6498
  139.2395  139.2403  140.3890  140.3910  143.2714  143.2717  143.8996  145.1656
   3  1  -26.5039  -25.9348  -25.1867  -24.6556  -24.5355  -24.5355  -24.0259  -24.0259  -23.2577  -23.2577
         -22.7907  -22.7907  -22.6352  -22.1927  -20.8733  -20.8733  -20.5191  -20.5191  -18.9569  -18.9569
  -18.7795  -18.7216  -18.7216  -18.4652  -17.6658  -17.6658  -17.3869  -17.3869  -16.6233  -16.6233
  -16.4434  -16.4434  -15.5612  -15.5176  -15.5176  -15.3078  -15.3078  -14.4332  -14.2407  -13.9757
  -13.5425  -13.5425  -13.4013  -13.4013  -13.2202  -13.2047  -13.2047  -13.0968  -12.9096  -12.9096
  -12.7758  -12.7758  -12.5846  -12.0254  -11.8963  -11.7352  -11.7352  -11.1835  -11.0784  -10.6728
  -10.5896  -10.5196  -10.5196  -10.3584  -10.2835   -9.3627   -9.3627   -9.0833   -9.0833   -9.0202
   -7.5674   -7.5674   -5.9209   -5.9209   -5.0384   -5.0384   -4.6556   -3.7752   -3.7752   -3.2013
   -2.3809   -2.3809   -1.4495   -1.4495   -0.8592   -0.3537   -0.3537   -0.0643    0.3969    0.6297
    0.9211    1.0753    1.1001    1.2118    1.2118    1.3716    1.3716    1.4412    1.5901    1.6086
    1.6593    1.6593    1.8494    1.8494    2.0625    2.1648    2.2056    2.2056    3.2222    3.2222
    3.8207    3.9573    4.2350    4.7927    4.7927    5.5323    5.5323    5.9908    6.0943    6.0943
    6.2512    6.2512    6.2974    6.3173    6.3173    6.4039    6.4039    6.4417    6.4417    6.5068
    6.5948    6.8433    7.0422    7.0422    7.5502    7.5502    7.5689    7.6416    7.7861    7.7861
    7.9344    8.1703    8.1703    8.7817    8.9480    8.9480    9.0047    9.5846    9.5846    9.8504
    9.8504   10.8647   10.8647   11.1846   11.1846   11.3466   11.3466   11.6413   11.6413   11.7406
   11.9801   12.0245   12.8558   13.1063   13.1063   13.2055   13.2055   13.2428   13.2428   15.5708
   15.5708   15.6029   15.8242   15.8245   15.8245   15.9425   15.9425   15.9975   16.2897   16.2897
   16.6078   16.6078   17.0288   17.0288   17.0966   17.0966   17.1783   17.7138   17.8521   17.8521
   18.0312   18.0312   18.3204   18.3204   18.4192   18.4747   18.4747   18.4767   18.9565   20.1225
   20.4425   20.6435   21.0539   21.2206   21.2206   21.3637   21.3637   21.7326   21.7326   22.1235
   22.1235   22.4284   22.4284   22.5341   22.7203   22.7653   22.7653   22.8798   22.9373   23.0194
   23.0224   23.4866   23.4866   23.7231   23.7231   23.7836   23.7836   24.3506   24.6634   24.8718
   24.8718   25.7466   26.4706   27.1506   27.8137   28.3882   28.3882   28.4265   28.6327   28.6327
   28.6529   28.6529   28.8654   29.5817   29.9850   29.9850   30.3795   30.3795   31.8612   31.8612
   33.4811   34.4455   35.8334   36.2054   36.2054   36.9065   36.9065   36.9532   37.9740   37.9740
   38.6198   38.6769   38.6769   38.9565   38.9565   39.0423   39.2587   39.2587   39.4786   39.4786
   40.0604   40.0604   40.3503   40.5590   40.9535   40.9552   40.9552   41.0290   42.2126   42.2905
   42.2905   42.7692   42.7692   42.8319   42.8319   43.4230   43.5207   43.9841   43.9841   44.0518
   44.5377   44.5377   44.5444   44.9338   44.9469   45.4949   45.6028   45.6028   45.6794   45.6797
   45.6797   45.7384   47.1260   47.4579   47.4580   47.5372   47.5372   47.6712   47.9943   47.9943
   48.4929   48.4929   48.9203   48.9203   49.3362   50.0993   51.0638   51.0638   51.5597   51.5597
   52.0362   52.0864   52.1102   52.1102   52.3156   52.3156   52.4372   52.4372   52.7833   52.7833
   53.3673   55.0822   55.5033   56.0011   56.5490   56.6759   56.6759   56.6871   56.6871   57.0572
   57.1910   57.1910   58.7122   59.6124   59.6124   60.1633   60.4266   60.4266   61.0773   61.0773
   61.7528   61.8977   61.8977   62.1877   62.1877   62.2489   62.4681   62.4681   62.9470   64.4803
   64.4804   64.4903   65.0415   65.1015   65.1015   65.3833   65.6821   65.6821   65.8146   65.8147
   66.3586   66.6122   66.6794   66.6794   67.0559   67.4742   67.7970   67.7970   68.3057   68.3057
   68.4028   68.9651   68.9652   69.0609   69.0609   69.2950   69.4584   70.0290   71.0895   71.8098
   73.2776   73.9996   73.9996   74.1621   74.8893   74.8992   75.6390   75.6390   77.0013   77.0013
   78.2389   78.2389   79.0863   79.0864   83.1148   91.1362   91.1363   92.6761   93.3702   94.6850
   94.6852   95.4565   95.4565   96.5662   97.7995   97.7996   98.4564  100.8163  100.8165  103.2764
  103.2764  104.6949  104.6952  105.8776  106.5089  106.5090  106.7120  106.7699  106.7700  106.7930
  107.1251  107.1251  107.3421  107.3422  108.6312  109.2268  109.2269  112.1836  112.1839  112.5826
  113.0519  113.1016  115.7410  117.1621  117.1625  119.5075  119.5075  119.5885  120.0728  120.0730
  122.1699  122.7717  122.7723  122.8022  127.6456  127.8643  130.4934  130.4941  131.6483  131.6492
  139.2427  139.2432  140.3900  140.3916  143.2715  143.2724  143.8997  145.1654
   4  1  -26.1749  -25.6129  -25.5147  -25.5147  -24.9732  -24.9732  -23.5745  -23.5745  -23.0965  -23.0964
         -22.3279  -21.8941  -21.7466  -21.7465  -21.3587  -21.3586  -20.8645  -20.6560  -19.7673  -19.6286
  -19.6135  -19.6134  -19.3015  -19.3014  -17.5061  -17.3586  -16.4939  -16.4939  -16.2954  -16.2954
  -15.8782  -15.7741  -15.2072  -15.1597  -15.0234  -14.4312  -14.4311  -14.3662  -14.3662  -14.2913
  -14.2913  -13.8688  -13.8685  -13.7263  -13.7260  -13.4209  -13.4207  -13.2813  -13.2810  -12.2259
  -12.0771  -12.0771  -12.0181  -12.0177  -11.9112  -11.9108  -11.6928  -11.6200  -11.5229  -11.5229
  -11.0047  -10.9529  -10.6456  -10.1872  -10.1872   -9.5709   -9.5709   -9.3483   -8.6860   -8.6859
   -8.4315   -8.3245   -5.2644   -5.1790   -5.1790   -5.0053   -4.5952   -4.1315   -4.1315   -3.5903
   -2.9659   -2.9659   -1.9484   -1.9484   -0.4920    0.3054    0.3055    0.9092    0.9092    1.0277
    1.0278    1.6228    1.6228    1.7418    1.7420    1.7541    1.8632    1.8635    1.9511    2.2424
    2.2427    2.6849    2.6849    2.7567    2.7774    2.9688    3.0784    3.1634    3.1635    3.2744
    3.5983    3.8478    3.8480    4.1403    4.4786    4.4791    4.7062    4.7067    4.9459    4.9668
    4.9668    5.2359    5.7629    5.7631    5.7751    6.1918    6.2909    6.4203    6.6964    6.7142
    6.7143    6.7210    6.7212    6.7798    7.0509    7.0588    7.2825    7.3991    7.3991    7.4759
    7.4759    7.5637    7.8496    8.1790    8.1791    8.4637    8.4637    8.6843    8.6845    9.9542
    9.9542   10.2157   10.2157   11.0015   11.7439   11.7441   11.9043   12.1200   12.1203   12.6159
   12.6168   13.2594   13.2681   13.2682   13.6487   14.7638   14.7639   14.8764   15.3743   15.3894
   15.4367   15.4375   15.4418   15.4419   15.6817   15.7271   15.7271   15.8559   15.8562   16.2611
   16.2649   16.2649   16.9154   16.9623   17.4775   17.4779   17.4967   17.4970   17.6508   17.8128
   18.0321   18.0325   18.6709   18.8698   18.8698   19.0181   19.0182   19.4821   19.7345   19.9071
   19.9074   20.4751   20.7527   20.7528   20.8583   20.9069   20.9411   20.9411   21.2916   21.4344
   21.7073   21.7078   21.8565   21.8569   22.1016   22.1016   22.6619   22.9194   22.9194   23.0735
   23.0739   23.7071   23.8121   23.8121   24.3770   24.4868   24.6583   24.6583   24.6846   24.6846
   25.2754   25.9512   25.9513   26.5588   27.3468   27.3468   27.5102   27.5102   28.9232   28.9650
   29.3901   29.3901   29.4183   29.5964   29.5966   29.7686   30.0885   30.0886   30.1005   30.1006
   30.8986   32.9910   35.2940   35.2944   36.3541   36.5824   36.5834   37.9320   38.1952   38.1956
   38.9333   38.9334   39.1292   39.4181   39.6889   40.1703   40.1703   40.7455   40.8045   40.8052
   41.0880   41.5854   41.9299   41.9313   41.9595   41.9598   42.2751   42.2761   42.3013   42.3014
   42.7312   42.7313   43.0932   43.0932   43.3064   43.6556   43.7643   43.8295   44.0275   44.0282
   44.1470   44.4811   44.5382   44.6358   44.6363   44.7085   44.7085   44.8573   44.8574   44.8597
   45.3123   45.5542   45.7815   46.2899   46.2902   46.4610   46.4614   46.5649   46.5649   46.9242
   47.0027   47.4957   47.4958   48.4538   48.4539   49.0016   49.0021   49.0645   49.9085   50.3429
   50.3429   50.5602   50.5604   50.5965   51.1851   52.3988   52.5327   52.5889   52.5891   52.8649
   52.8652   53.3345   53.3346   53.7399   53.9972   54.2866   54.2867   54.7202   54.7202   55.2124
   55.2125   58.2533   58.9441   58.9442   59.5996   59.5999   61.0246   61.2420   61.2430   61.4565
   61.4566   61.9385   62.2213   62.9061   62.9322   62.9333   64.0329   64.8432   64.8437   64.8654
   64.8655   65.4352   65.4604   65.4607   65.4713   65.5957   65.5959   65.9646   65.9647   66.3977
   66.6826   66.6832   67.7885   68.3968   68.3971   68.5462   68.5482   68.7907   68.7909   68.9094
   69.0296   69.4951   69.4955   69.7909   70.1971   70.1985   70.9910   70.9911   71.7681   72.3165
   72.3180   72.6648   72.8111   72.8385   73.3378   75.8161   76.2536   76.2538   78.3319   78.3339
   83.2099   83.3535   84.6697   86.9421   86.9436   87.0602   87.1970   87.1993   93.8436   93.8449
   96.9993   97.0019   97.8443   97.8444   97.9765   98.6454   98.6461   98.8312   98.8341  100.7509
  100.7517  101.0324  101.8390  101.8900  101.8914  103.6669  103.6697  104.0444  104.1550  104.8525
  104.9154  104.9162  106.1973  106.2720  106.2726  107.9785  108.2033  108.5764  110.5640  110.5676
  110.8018  110.8027  111.3958  112.2785  112.2789  112.2996  112.3010  115.3700  115.3706  115.7123
  117.6013  117.6022  121.0610  121.3434  122.0464  125.0197  127.1167  127.1173  128.6094  128.6104
  129.0468  132.3162  132.3175  133.7185  134.4401  144.3065  144.3067  146.4176
   5  1  -26.5039  -25.9348  -25.1867  -24.6556  -24.5355  -24.5355  -24.0259  -24.0259  -23.2577  -23.2576
         -22.7907  -22.7906  -22.6353  -22.1928  -20.8734  -20.8733  -20.5191  -20.5191  -18.9568  -18.9567
  -18.7797  -18.7216  -18.7215  -18.4654  -17.6658  -17.6657  -17.3868  -17.3867  -16.6234  -16.6232
  -16.4435  -16.4434  -15.5612  -15.5176  -15.5174  -15.3078  -15.3075  -14.4334  -14.2409  -13.9757
  -13.5428  -13.5425  -13.4016  -13.4013  -13.2199  -13.2047  -13.2047  -13.0964  -12.9100  -12.9097
  -12.7761  -12.7758  -12.5846  -12.0250  -11.8959  -11.7352  -11.7352  -11.1835  -11.0784  -10.6732
  -10.5900  -10.5196  -10.5196  -10.3579  -10.2830   -9.3627   -9.3627   -9.0833   -9.0833   -9.0202
   -7.5674   -7.5674   -5.9209   -5.9209   -5.0384   -5.0384   -4.6556   -3.7752   -3.7752   -3.2013
   -2.3809   -2.3809   -1.4495   -1.4495   -0.8592   -0.3537   -0.3537   -0.0643    0.3966    0.6296
    0.9211    1.0751    1.0998    1.2119    1.2120    1.3715    1.3717    1.4407    1.5896    1.6084
    1.6593    1.6595    1.8495    1.8497    2.0630    2.1653    2.2056    2.2058    3.2222    3.2223
    3.8207    3.9572    4.2350    4.7926    4.7927    5.5321    5.5323    5.9908    6.0944    6.0944
    6.2512    6.2512    6.2973    6.3173    6.3175    6.4039    6.4039    6.4414    6.4415    6.5075
    6.5955    6.8433    7.0417    7.0421    7.5504    7.5504    7.5686    7.6416    7.7861    7.7861
    7.9341    8.1703    8.1703    8.7817    8.9481    8.9483    9.0044    9.5844    9.5849    9.8504
    9.8506   10.8648   10.8649   11.1846   11.1846   11.3458   11.3463   11.6408   11.6410   11.7406
   11.9811   12.0255   12.8551   13.1061   13.1063   13.2055   13.2055   13.2428   13.2429   15.5708
   15.5708   15.6021   15.8242   15.8245   15.8252   15.9424   15.9425   15.9976   16.2897   16.2897
   16.6080   16.6084   17.0286   17.0286   17.0966   17.0966   17.1779   17.7138   17.8521   17.8523
   18.0310   18.0314   18.3204   18.3206   18.4188   18.4748   18.4749   18.4768   18.9564   20.1224
   20.4424   20.6435   21.0539   21.2204   21.2206   21.3636   21.3637   21.7329   21.7330   22.1235
   22.1235   22.4284   22.4284   22.5340   22.7204   22.7653   22.7653   22.8799   22.9366   23.0194
   23.0217   23.4865   23.4871   23.7231   23.7232   23.7837   23.7837   24.3506   24.6635   24.8720
   24.8724   25.7467   26.4705   27.1505   27.8133   28.3882   28.3882   28.4264   28.6327   28.6327
   28.6528   28.6529   28.8655   29.5813   29.9851   29.9854   30.3793   30.3796   31.8612   31.8612
   33.4819   34.4450   35.8333   36.2054   36.2057   36.9062   36.9066   36.9544   37.9729   37.9742
   38.6197   38.6769   38.6770   38.9556   38.9562   39.0427   39.2588   39.2590   39.4785   39.4785
   40.0591   40.0603   40.3501   40.5605   40.9549   40.9550   40.9552   41.0292   42.2124   42.2904
   42.2905   42.7692   42.7693   42.8319   42.8319   43.4229   43.5209   43.9837   43.9846   44.0509
   44.5380   44.5381   44.5428   44.9337   44.9484   45.4967   45.6027   45.6028   45.6776   45.6792
   45.6802   45.7373   47.1255   47.4580   47.4581   47.5375   47.5378   47.6710   47.9946   47.9947
   48.4929   48.4930   48.9203   48.9206   49.3355   50.0990   51.0639   51.0641   51.5594   51.5597
   52.0365   52.0862   52.1102   52.1103   52.3157   52.3157   52.4373   52.4374   52.7833   52.7833
   53.3679   55.0818   55.5036   56.0009   56.5487   56.6758   56.6760   56.6872   56.6872   57.0570
   57.1908   57.1909   58.7118   59.6122   59.6123   60.1630   60.4266   60.4266   61.0772   61.0774
   61.7543   61.8970   61.8973   62.1872   62.1879   62.2498   62.4679   62.4680   62.9487   64.4801
   64.4807   64.4907   65.0425   65.1002   65.1018   65.3832   65.6820   65.6821   65.8132   65.8146
   66.3584   66.6126   66.6792   66.6794   67.0559   67.4735   67.7970   67.7971   68.3049   68.3061
   68.4009   68.9631   68.9646   69.0609   69.0610   69.2978   69.4584   70.0322   71.0922   71.8068
   73.2799   73.9995   73.9996   74.1608   74.8873   74.8986   75.6390   75.6390   77.0007   77.0015
   78.2403   78.2405   79.0863   79.0865   83.1118   91.1375   91.1391   92.6734   93.3691   94.6841
   94.6869   95.4576   95.4587   96.5634   97.7989   97.8017   98.4594  100.8133  100.8162  103.2748
  103.2749  104.6911  104.6946  105.8763  106.5084  106.5096  106.7160  106.7703  106.7706  106.7917
  107.1255  107.1264  107.3435  107.3435  108.6307  109.2272  109.2277  112.1821  112.1835  112.5843
  113.0495  113.1008  115.7397  117.1630  117.1632  119.5064  119.5071  119.5928  120.0726  120.0732
  122.1690  122.7697  122.7729  122.8047  127.6487  127.8638  130.4937  130.4941  131.6468  131.6504
  139.2408  139.2412  140.3892  140.3902  143.2713  143.2723  143.8999  145.1652
   6  1  -26.6646  -26.0961  -24.0519  -24.0519  -24.0519  -24.0519  -24.0518  -24.0518  -23.5579  -23.5579
         -23.5579  -23.5579  -23.5579  -23.5579  -19.6755  -19.6755  -19.4849  -19.4849  -19.4848  -19.4848
  -19.3016  -19.3016  -17.4133  -17.4133  -17.4132  -17.4132  -16.6579  -16.6579  -16.6579  -16.6579
  -16.6577  -16.6577  -16.4039  -16.4039  -16.4039  -16.4039  -16.4037  -16.4037  -15.7631  -12.7655
  -12.7521  -12.7521  -12.7518  -12.7518  -12.7518  -12.7517  -12.6453  -12.6453  -12.6453  -12.6453
  -12.6452  -12.6452  -12.6246  -12.6246  -12.6242  -12.6242  -12.6242  -12.6242  -10.0693  -10.0693
  -10.0693  -10.0693  -10.0693  -10.0693  -10.0071  -10.0065   -9.9790   -9.9784   -7.9293   -7.9293
   -6.9647   -6.9647   -6.9646   -6.9646   -5.7190   -5.7190   -2.5848   -2.5848   -2.5848   -2.5848
   -2.5848   -2.5848   -1.1905   -1.1904   -1.1904   -1.1904   -1.1904   -1.1904   -1.0115    0.6593
    0.6593    0.6594    0.6594    0.6596    0.6596    1.2167    1.2167    1.2167    1.2167    1.2170
    1.2170    1.3632    1.3639    1.4646    1.4653    2.2846    2.2846    2.2846    2.2846    2.2846
    2.2846    4.3770    4.7547    5.6628    5.6628    5.7021    5.7671    5.7671    5.7671    5.7671
    5.9722    6.1222    6.1222    6.1224    6.1224    6.7197    8.2058    8.2058    8.2058    8.2058
    8.2058    8.2058    8.2958    8.2958    8.4102    8.4102    8.4102    8.4102    8.4106    8.4106
    9.3891    9.3891    9.3894    9.3894    9.3916    9.3916    9.3924    9.3924    9.3925    9.3925
    9.4633    9.4633    9.4641    9.4641    9.4641    9.4641   10.9457   10.9457   10.9457   10.9457
   10.9462   10.9463   12.4598   12.4598   13.2635   13.2635   13.2635   13.2635   13.2635   13.2635
   15.7582   15.7582   16.1417   16.1417   16.1417   16.1417   16.1423   16.1423   16.3131   16.3131
   16.3131   16.3131   16.9334   16.9334   16.9335   16.9335   16.9335   16.9335   17.7697   17.9566
   17.9566   17.9566   17.9566   18.3938   18.3938   18.3938   18.3938   18.3940   18.3940   19.6514
   20.0352   21.4397   21.4397   21.4397   21.4397   21.4397   21.4397   21.8810   21.8810   21.8810
   21.8810   21.8811   21.8811   22.7518   22.7518   22.7518   22.7518   23.5538   23.5538   23.5538
   23.5538   23.5547   23.5547   24.0554   24.2669   24.2670   26.1259   26.1260   26.2569   26.2569
   26.2570   26.2570   26.2570   26.2570   28.4866   28.4866   28.4866   28.4866   28.4867   28.4867
   28.5120   28.5120   28.8020   28.8020   28.8021   28.8021   28.8026   28.8026   33.0756   33.0756
   35.8583   35.8583   35.8583   35.8583   35.8585   35.8585   36.9583   36.9583   36.9595   36.9595
   36.9595   36.9595   37.4214   37.4214   37.4216   37.4216   38.7322   38.7323   38.7335   38.7336
   38.7336   38.7336   39.5719   39.5721   41.0730   41.0733   42.0220   42.0220   42.3642   42.3642
   42.3643   42.3643   43.0000   43.0000   43.0000   43.0000   43.0001   43.0001   44.7095   44.7116
   45.3864   45.3864   45.3864   45.3864   45.3870   45.3870   45.5986   45.6013   47.5571   47.5571
   47.5571   47.5571   47.5579   47.5580   48.3498   48.3503   50.4416   50.4416   50.4416   50.4416
   50.4418   50.4418   50.5878   50.5878   51.2599   51.2599   51.2599   51.2599   51.7131   51.7132
   51.9745   51.9748   52.9393   55.9600   55.9600   55.9604   55.9605   55.9605   55.9605   56.8020
   56.8020   56.8021   56.8021   56.8024   56.8024   56.9199   56.9199   57.3127   57.3127   57.3127
   57.3127   57.3128   57.3128   58.8822   58.8822   58.8825   58.8825   58.8825   58.8825   60.9636
   60.9637   60.9643   60.9643   61.1860   61.1860   61.1860   61.1860   61.1865   61.1865   61.9966
   61.9966   61.9970   61.9970   61.9970   61.9970   62.2277   65.1446   65.1446   65.1466   65.1466
   65.1466   65.1467   65.6433   66.1869   66.1869   67.9113   67.9113   67.9137   67.9138   67.9138
   67.9139   68.8483   69.4520   69.4520   69.4521   69.4521   69.4522   69.4522   69.4522   69.4564
   69.9948   69.9990   75.2093   75.2094   75.2094   75.2094   75.2106   75.2106   77.4382   77.4382
   77.4382   77.4382   88.4066   88.4066   88.5476   88.5476   88.5478   88.5478   88.5506   88.5506
   95.2370   95.2371   95.2371   95.2371   95.2392   95.2392  100.8747  100.8747  100.8782  100.8783
  100.8785  100.8787  104.5785  104.5786  104.5786  104.5787  104.5792  104.5794  107.8126  107.8126
  107.8130  107.8130  115.0367  115.0368  115.0368  115.0369  115.0378  115.0381  124.0801  124.0803
  124.0814  124.0815  124.0819  126.9682  126.9683  128.1843  128.1844  128.1844  128.1845  128.1846
  128.1847  128.8412  128.8454  131.5841  131.5842  131.5880  131.5882  131.5888  131.5894  133.0031
  133.0064  135.7153  135.7156  143.6824  164.2125  164.2133  164.2145  164.2157
   7  1  -26.0099  -26.0099  -25.4524  -25.4524  -24.6976  -24.6976  -24.1829  -24.1829  -22.1773  -22.1773
         -22.1773  -22.1773  -21.7517  -21.7517  -21.7516  -21.7516  -21.2901  -21.0738  -20.1751  -20.0171
  -18.4367  -18.4367  -18.4366  -18.4366  -18.1529  -18.1529  -18.1528  -18.1528  -15.0206  -15.0206
  -15.0204  -15.0204  -14.9602  -14.9602  -14.8450  -14.8450  -14.8447  -14.8447  -14.7317  -14.7317
  -14.6238  -14.6238  -13.3932  -13.3932  -13.3804  -13.3505  -13.3505  -13.2736  -13.2736  -13.2586
  -12.3222  -12.3222  -12.1803  -12.1803  -12.0486  -12.0486  -11.1515  -11.1515  -11.0360  -11.0360
  -10.6736  -10.6736  -10.5176  -10.5176  -10.5176  -10.5176   -9.9391   -8.8915   -8.4812   -8.4812
   -8.4812   -8.4812   -5.2312   -4.8572   -4.8572   -4.8572   -4.8572   -4.4009   -3.7285   -3.7285
   -3.7285   -3.7285   -0.8921   -0.8921   -0.3041   -0.3040   -0.0902   -0.0902    0.3006    1.0122
    1.3423    1.3423    1.3848    1.3848    1.6882    1.6882    2.2451    2.2451    2.8373    2.8373
    2.8541    2.8541    2.8541    2.8541    3.0348    3.0348    3.4038    3.4038    3.6382    3.6382
    3.6383    3.6383    3.9239    3.9239    4.0221    4.0221    4.4427    4.4427    4.4428    4.4428
    4.6589    4.6589    4.9180    4.9180    5.6642    6.0189    6.7048    6.7048    6.7048    6.7048
    6.8589    6.8590    7.1726    7.1726    7.3319    7.3319    7.3319    7.3319    7.3431    7.3432
    7.5364    7.5364    8.3601    8.3601    8.3601    8.3601    9.0787    9.1855    9.1856    9.1858
    9.1858   10.4049   10.4049   10.9006   10.9006   11.2012   12.3603   12.3603   12.3606   12.3606
   12.7349   12.7349   13.1369   13.1629   14.1089   15.0193   15.0670   15.0670   15.0676   15.0676
   15.3810   15.3810   15.3811   15.3811   15.4772   15.4772   15.4773   15.4773   15.6850   16.9420
   16.9420   16.9622   16.9622   17.0828   17.0828   17.0831   17.0831   17.6191   17.6191   18.4724
   18.4724   18.4725   18.4725   18.7115   19.0405   19.0405   19.2418   19.2418   19.4773   19.4773
   20.3714   20.3714   20.3751   20.5544   20.5544   20.7337   20.8769   20.8769   20.8774   20.8774
   21.6267   21.6267   21.8229   21.8229   21.8229   21.8229   22.3037   23.8755   23.8755   23.9875
   23.9875   23.9875   23.9875   24.0187   24.1188   24.1188   24.3293   24.3293   24.5641   24.5641
   25.0356   25.0356   26.2870   27.2501   27.2501   28.1829   28.1829   28.5303   28.5303   29.1840
   29.1841   29.1841   29.1841   29.6335   29.6336   29.6336   29.6336   29.7859   29.7859   30.0288
   31.9271   32.9663   32.9663   33.8484   36.2509   37.0569   37.0569   37.0576   37.0576   39.9029
   39.9029   39.9029   39.9029   40.7865   40.7865   40.8368   40.8368   40.8370   40.8370   41.3326
   41.3326   41.5826   41.5827   42.0812   42.0812   42.1562   42.1562   42.1567   42.1567   42.3298
   42.3298   42.6554   42.6555   42.9163   42.9163   43.6797   43.6797   43.7389   43.7389   43.7389
   43.7389   43.8338   43.8338   44.3330   44.3330   44.6928   44.6928   44.6932   44.6932   45.2345
   45.2345   45.4692   45.4692   45.6122   45.6122   46.0495   46.0495   46.5342   46.5342   47.8808
   48.1238   48.8760   48.8760   48.8969   48.8969   48.8969   48.8969   49.0821   49.0822   49.0824
   49.0824   49.3378   49.3378   49.4753   49.4753   49.7053   49.9508   51.8080   51.8080   51.8083
   51.8083   52.8253   53.0120   55.7607   55.8419   55.8419   55.8420   55.8420   56.7661   56.7661
   57.4073   58.5855   58.5855   59.2009   59.2009   60.2637   60.2637   60.4281   60.9010   62.6034
   62.6035   62.6587   62.6587   62.6592   62.6592   63.8340   63.8340   63.8341   63.8341   64.3440
   65.8605   65.8605   65.8606   65.8606   66.2911   66.2911   66.5892   66.5892   66.5895   66.5896
   66.8694   67.0435   67.0435   67.6096   67.6096   67.9138   67.9138   68.0996   68.3327   68.3327
   69.7773   69.7773   70.5711   70.5711   71.0746   71.0746   71.0747   71.0747   71.9888   71.9889
   73.4509   73.4509   73.4511   73.4511   74.7196   76.2310   76.2310   79.4079   79.4080   84.5736
   84.5736   84.5737   84.5737   85.0612   85.0612   86.2414   86.2414   89.4987   89.4987   91.0800
   91.0801   95.6285   96.8124   97.4321   97.4322   97.5389   97.5390   99.0622   99.0623  102.7639
  102.7639  102.7668  102.7668  103.3396  103.3396  103.3421  103.3422  104.1172  104.2222  104.2223
  105.7374  105.7374  105.7387  105.7388  105.8506  105.8507  108.6797  108.6798  109.5843  109.5844
  112.2128  112.3866  112.3867  112.3888  112.3890  112.4731  113.7691  113.7691  113.7703  113.7705
  115.4644  115.4648  118.3243  121.8246  121.8247  121.8250  121.8252  122.6922  131.2868  131.2870
  131.8043  131.8045  134.6484  134.6486  134.6504  134.6506  144.3979  144.3979
   8  1  -26.1749  -25.6129  -25.5147  -25.5147  -24.9732  -24.9732  -23.5745  -23.5745  -23.0965  -23.0964
         -22.3279  -21.8941  -21.7466  -21.7465  -21.3587  -21.3586  -20.8645  -20.6560  -19.7673  -19.6286
  -19.6135  -19.6134  -19.3015  -19.3014  -17.5061  -17.3586  -16.4939  -16.4939  -16.2954  -16.2954
  -15.8782  -15.7741  -15.2072  -15.1597  -15.0234  -14.4312  -14.4311  -14.3662  -14.3662  -14.2913
  -14.2913  -13.8688  -13.8685  -13.7263  -13.7260  -13.4209  -13.4207  -13.2813  -13.2810  -12.2259
  -12.0771  -12.0771  -12.0181  -12.0177  -11.9112  -11.9108  -11.6928  -11.6200  -11.5229  -11.5229
  -11.0047  -10.9529  -10.6456  -10.1872  -10.1872   -9.5709   -9.5709   -9.3483   -8.6860   -8.6859
   -8.4315   -8.3245   -5.2644   -5.1790   -5.1790   -5.0053   -4.5952   -4.1315   -4.1315   -3.5903
   -2.9659   -2.9659   -1.9484   -1.9484   -0.4920    0.3054    0.3055    0.9092    0.9092    1.0277
    1.0278    1.6228    1.6228    1.7418    1.7420    1.7541    1.8632    1.8635    1.9511    2.2424
    2.2427    2.6849    2.6849    2.7567    2.7774    2.9688    3.0784    3.1634    3.1635    3.2744
    3.5983    3.8478    3.8480    4.1403    4.4786    4.4791    4.7062    4.7067    4.9459    4.9668
    4.9668    5.2359    5.7629    5.7631    5.7751    6.1918    6.2909    6.4203    6.6964    6.7142
    6.7143    6.7210    6.7212    6.7798    7.0509    7.0588    7.2825    7.3991    7.3991    7.4759
    7.4759    7.5637    7.8496    8.1790    8.1791    8.4637    8.4637    8.6843    8.6845    9.9542
    9.9542   10.2157   10.2157   11.0015   11.7439   11.7441   11.9043   12.1200   12.1203   12.6159
   12.6168   13.2594   13.2681   13.2682   13.6487   14.7638   14.7639   14.8764   15.3743   15.3894
   15.4367   15.4375   15.4418   15.4419   15.6817   15.7271   15.7271   15.8559   15.8562   16.2611
   16.2649   16.2649   16.9154   16.9623   17.4775   17.4779   17.4967   17.4970   17.6508   17.8128
   18.0321   18.0325   18.6709   18.8698   18.8698   19.0181   19.0182   19.4821   19.7345   19.9071
   19.9074   20.4751   20.7527   20.7528   20.8583   20.9069   20.9411   20.9411   21.2916   21.4344
   21.7073   21.7078   21.8565   21.8569   22.1016   22.1016   22.6619   22.9194   22.9194   23.0735
   23.0739   23.7071   23.8121   23.8121   24.3770   24.4868   24.6583   24.6583   24.6846   24.6846
   25.2754   25.9512   25.9513   26.5588   27.3468   27.3468   27.5102   27.5102   28.9232   28.9650
   29.3901   29.3901   29.4183   29.5964   29.5966   29.7686   30.0885   30.0886   30.1005   30.1006
   30.8986   32.9910   35.2940   35.2944   36.3541   36.5824   36.5834   37.9320   38.1952   38.1956
   38.9333   38.9334   39.1292   39.4181   39.6889   40.1703   40.1703   40.7455   40.8045   40.8052
   41.0880   41.5854   41.9299   41.9313   41.9595   41.9598   42.2751   42.2761   42.3013   42.3014
   42.7312   42.7313   43.0932   43.0932   43.3064   43.6556   43.7643   43.8295   44.0275   44.0282
   44.1470   44.4811   44.5382   44.6358   44.6363   44.7085   44.7085   44.8573   44.8574   44.8597
   45.3123   45.5542   45.7815   46.2899   46.2902   46.4610   46.4614   46.5649   46.5649   46.9242
   47.0027   47.4957   47.4958   48.4538   48.4539   49.0016   49.0021   49.0645   49.9085   50.3429
   50.3429   50.5602   50.5604   50.5965   51.1851   52.3988   52.5327   52.5889   52.5891   52.8649
   52.8652   53.3345   53.3346   53.7399   53.9972   54.2866   54.2867   54.7202   54.7202   55.2124
   55.2125   58.2533   58.9441   58.9442   59.5996   59.5999   61.0246   61.2420   61.2430   61.4565
   61.4566   61.9385   62.2213   62.9061   62.9322   62.9333   64.0329   64.8432   64.8437   64.8654
   64.8655   65.4352   65.4604   65.4607   65.4713   65.5957   65.5959   65.9646   65.9647   66.3977
   66.6826   66.6832   67.7885   68.3968   68.3971   68.5462   68.5482   68.7907   68.7909   68.9094
   69.0296   69.4951   69.4955   69.7909   70.1971   70.1985   70.9910   70.9911   71.7681   72.3165
   72.3180   72.6648   72.8111   72.8385   73.3378   75.8161   76.2536   76.2538   78.3319   78.3339
   83.2099   83.3535   84.6697   86.9421   86.9436   87.0602   87.1970   87.1993   93.8436   93.8449
   96.9993   97.0019   97.8443   97.8444   97.9765   98.6454   98.6461   98.8312   98.8341  100.7509
  100.7517  101.0324  101.8390  101.8900  101.8914  103.6669  103.6697  104.0444  104.1550  104.8525
  104.9154  104.9162  106.1973  106.2720  106.2726  107.9785  108.2033  108.5764  110.5640  110.5676
  110.8018  110.8027  111.3958  112.2785  112.2789  112.2996  112.3010  115.3700  115.3706  115.7123
  117.6013  117.6022  121.0610  121.3434  122.0464  125.0197  127.1167  127.1173  128.6094  128.6104
  129.0468  132.3162  132.3175  133.7185  134.4401  144.3065  144.3067  146.4176
   9  1  -26.1749  -25.6129  -25.5147  -25.5147  -24.9732  -24.9732  -23.5745  -23.5745  -23.0965  -23.0964
         -22.3279  -21.8941  -21.7466  -21.7465  -21.3587  -21.3586  -20.8645  -20.6560  -19.7673  -19.6286
  -19.6135  -19.6134  -19.3015  -19.3014  -17.5061  -17.3586  -16.4939  -16.4939  -16.2954  -16.2954
  -15.8782  -15.7741  -15.2072  -15.1597  -15.0234  -14.4312  -14.4311  -14.3662  -14.3662  -14.2913
  -14.2913  -13.8688  -13.8685  -13.7263  -13.7260  -13.4209  -13.4207  -13.2813  -13.2810  -12.2259
  -12.0771  -12.0771  -12.0181  -12.0177  -11.9112  -11.9108  -11.6928  -11.6200  -11.5229  -11.5229
  -11.0047  -10.9529  -10.6456  -10.1872  -10.1872   -9.5709   -9.5709   -9.3483   -8.6860   -8.6859
   -8.4315   -8.3245   -5.2644   -5.1790   -5.1790   -5.0053   -4.5952   -4.1315   -4.1315   -3.5903
   -2.9659   -2.9659   -1.9484   -1.9484   -0.4920    0.3054    0.3055    0.9092    0.9092    1.0277
    1.0278    1.6228    1.6228    1.7418    1.7420    1.7541    1.8632    1.8635    1.9511    2.2424
    2.2427    2.6849    2.6849    2.7567    2.7774    2.9688    3.0784    3.1634    3.1635    3.2744
    3.5983    3.8478    3.8480    4.1403    4.4786    4.4791    4.7062    4.7067    4.9459    4.9668
    4.9668    5.2359    5.7629    5.7631    5.7751    6.1918    6.2909    6.4203    6.6964    6.7142
    6.7143    6.7210    6.7212    6.7798    7.0509    7.0588    7.2825    7.3991    7.3991    7.4759
    7.4759    7.5637    7.8496    8.1790    8.1791    8.4637    8.4637    8.6843    8.6845    9.9542
    9.9542   10.2157   10.2157   11.0015   11.7439   11.7441   11.9043   12.1200   12.1203   12.6159
   12.6168   13.2594   13.2681   13.2682   13.6487   14.7638   14.7639   14.8764   15.3743   15.3894
   15.4367   15.4375   15.4418   15.4419   15.6817   15.7271   15.7271   15.8559   15.8562   16.2611
   16.2649   16.2649   16.9154   16.9623   17.4775   17.4779   17.4967   17.4970   17.6508   17.8128
   18.0321   18.0325   18.6709   18.8698   18.8698   19.0181   19.0182   19.4821   19.7345   19.9071
   19.9074   20.4751   20.7527   20.7528   20.8583   20.9069   20.9411   20.9411   21.2916   21.4344
   21.7073   21.7078   21.8565   21.8569   22.1016   22.1016   22.6619   22.9194   22.9194   23.0735
   23.0739   23.7071   23.8121   23.8121   24.3770   24.4868   24.6583   24.6583   24.6846   24.6846
   25.2754   25.9512   25.9513   26.5588   27.3468   27.3468   27.5102   27.5102   28.9232   28.9650
   29.3901   29.3901   29.4183   29.5964   29.5966   29.7686   30.0885   30.0886   30.1005   30.1006
   30.8986   32.9909   35.2940   35.2944   36.3541   36.5824   36.5834   37.9320   38.1952   38.1956
   38.9333   38.9334   39.1292   39.4181   39.6889   40.1703   40.1703   40.7455   40.8045   40.8051
   41.0880   41.5854   41.9299   41.9313   41.9595   41.9598   42.2751   42.2761   42.3013   42.3014
   42.7312   42.7313   43.0932   43.0932   43.3064   43.6556   43.7643   43.8295   44.0275   44.0282
   44.1470   44.4811   44.5382   44.6358   44.6363   44.7085   44.7085   44.8573   44.8574   44.8597
   45.3123   45.5542   45.7815   46.2899   46.2902   46.4610   46.4614   46.5649   46.5649   46.9242
   47.0027   47.4957   47.4958   48.4538   48.4539   49.0016   49.0021   49.0645   49.9085   50.3429
   50.3429   50.5602   50.5604   50.5965   51.1851   52.3988   52.5327   52.5889   52.5891   52.8649
   52.8652   53.3345   53.3346   53.7399   53.9972   54.2866   54.2866   54.7202   54.7202   55.2124
   55.2125   58.2533   58.9441   58.9442   59.5996   59.5999   61.0245   61.2420   61.2431   61.4565
   61.4566   61.9385   62.2213   62.9061   62.9322   62.9334   64.0329   64.8432   64.8437   64.8654
   64.8655   65.4352   65.4604   65.4607   65.4713   65.5957   65.5959   65.9646   65.9647   66.3977
   66.6825   66.6832   67.7885   68.3968   68.3971   68.5463   68.5482   68.7907   68.7909   68.9094
   69.0296   69.4951   69.4955   69.7909   70.1971   70.1985   70.9910   70.9911   71.7681   72.3165
   72.3180   72.6648   72.8111   72.8385   73.3378   75.8161   76.2537   76.2538   78.3319   78.3338
   83.2098   83.3534   84.6701   86.9421   86.9435   87.0601   87.1969   87.1992   93.8437   93.8448
   96.9996   97.0019   97.8444   97.8444   97.9767   98.6456   98.6461   98.8314   98.8341  100.7510
  100.7516  101.0324  101.8388  101.8899  101.8912  103.6664  103.6699  104.0443  104.1549  104.8526
  104.9154  104.9163  106.1974  106.2720  106.2724  107.9789  108.2031  108.5770  110.5640  110.5679
  110.8014  110.8025  111.3960  112.2779  112.2786  112.2992  112.3013  115.3701  115.3709  115.7117
  117.6015  117.6025  121.0611  121.3434  122.0475  125.0192  127.1166  127.1173  128.6095  128.6103
  129.0482  132.3147  132.3173  133.7185  134.4399  144.3060  144.3067  146.4178
  10  1  -26.0099  -26.0099  -25.4524  -25.4524  -24.6976  -24.6976  -24.1829  -24.1829  -22.1773  -22.1773
         -22.1773  -22.1773  -21.7517  -21.7517  -21.7516  -21.7516  -21.2901  -21.0738  -20.1751  -20.0171
  -18.4367  -18.4367  -18.4366  -18.4366  -18.1529  -18.1529  -18.1528  -18.1528  -15.0206  -15.0206
  -15.0204  -15.0204  -14.9602  -14.9602  -14.8450  -14.8450  -14.8447  -14.8447  -14.7317  -14.7317
  -14.6238  -14.6238  -13.3932  -13.3932  -13.3804  -13.3505  -13.3505  -13.2736  -13.2736  -13.2586
  -12.3222  -12.3222  -12.1803  -12.1803  -12.0486  -12.0486  -11.1515  -11.1515  -11.0360  -11.0360
  -10.6736  -10.6736  -10.5176  -10.5176  -10.5176  -10.5176   -9.9391   -8.8915   -8.4812   -8.4812
   -8.4812   -8.4812   -5.2312   -4.8572   -4.8572   -4.8572   -4.8572   -4.4009   -3.7285   -3.7285
   -3.7285   -3.7285   -0.8921   -0.8921   -0.3041   -0.3040   -0.0902   -0.0902    0.3006    1.0122
    1.3423    1.3423    1.3848    1.3848    1.6882    1.6882    2.2451    2.2451    2.8373    2.8373
    2.8541    2.8541    2.8541    2.8541    3.0348    3.0348    3.4038    3.4038    3.6382    3.6382
    3.6383    3.6383    3.9239    3.9239    4.0221    4.0221    4.4427    4.4427    4.4428    4.4428
    4.6589    4.6589    4.9180    4.9180    5.6642    6.0189    6.7048    6.7048    6.7048    6.7048
    6.8589    6.8590    7.1726    7.1726    7.3319    7.3319    7.3319    7.3319    7.3431    7.3432
    7.5364    7.5364    8.3601    8.3601    8.3601    8.3601    9.0787    9.1855    9.1855    9.1858
    9.1858   10.4049   10.4049   10.9006   10.9006   11.2012   12.3603   12.3603   12.3606   12.3606
   12.7349   12.7349   13.1369   13.1629   14.1089   15.0193   15.0670   15.0670   15.0676   15.0676
   15.3810   15.3810   15.3811   15.3811   15.4772   15.4772   15.4773   15.4773   15.6850   16.9420
   16.9420   16.9622   16.9622   17.0828   17.0828   17.0831   17.0831   17.6191   17.6191   18.4724
   18.4724   18.4725   18.4725   18.7115   19.0405   19.0405   19.2418   19.2418   19.4773   19.4773
   20.3714   20.3714   20.3751   20.5544   20.5544   20.7337   20.8769   20.8769   20.8774   20.8774
   21.6267   21.6267   21.8229   21.8229   21.8229   21.8229   22.3037   23.8755   23.8755   23.9875
   23.9875   23.9875   23.9875   24.0187   24.1188   24.1188   24.3293   24.3293   24.5641   24.5641
   25.0356   25.0356   26.2870   27.2501   27.2501   28.1829   28.1829   28.5303   28.5303   29.1841
   29.1841   29.1841   29.1841   29.6335   29.6336   29.6336   29.6336   29.7859   29.7859   30.0288
   31.9271   32.9663   32.9663   33.8484   36.2509   37.0569   37.0569   37.0576   37.0576   39.9029
   39.9029   39.9029   39.9029   40.7865   40.7865   40.8368   40.8368   40.8370   40.8370   41.3326
   41.3326   41.5826   41.5826   42.0812   42.0812   42.1562   42.1562   42.1567   42.1567   42.3298
   42.3298   42.6555   42.6555   42.9163   42.9164   43.6797   43.6797   43.7389   43.7389   43.7389
   43.7389   43.8338   43.8338   44.3330   44.3330   44.6928   44.6928   44.6932   44.6932   45.2345
   45.2345   45.4692   45.4692   45.6122   45.6122   46.0495   46.0496   46.5342   46.5342   47.8808
   48.1238   48.8760   48.8760   48.8969   48.8969   48.8969   48.8969   49.0822   49.0822   49.0823
   49.0824   49.3378   49.3378   49.4753   49.4753   49.7053   49.9509   51.8080   51.8080   51.8083
   51.8083   52.8253   53.0120   55.7607   55.8419   55.8419   55.8420   55.8420   56.7661   56.7661
   57.4073   58.5855   58.5855   59.2009   59.2009   60.2637   60.2637   60.4282   60.9011   62.6034
   62.6034   62.6587   62.6587   62.6592   62.6592   63.8340   63.8341   63.8341   63.8341   64.3440
   65.8605   65.8605   65.8606   65.8606   66.2911   66.2911   66.5892   66.5892   66.5895   66.5895
   66.8694   67.0435   67.0435   67.6096   67.6096   67.9138   67.9138   68.0996   68.3327   68.3327
   69.7773   69.7773   70.5711   70.5711   71.0746   71.0746   71.0747   71.0747   71.9888   71.9889
   73.4509   73.4509   73.4511   73.4511   74.7196   76.2310   76.2310   79.4080   79.4080   84.5736
   84.5736   84.5737   84.5737   85.0609   85.0611   86.2413   86.2413   89.4986   89.4986   91.0801
   91.0801   95.6287   96.8125   97.4328   97.4329   97.5388   97.5389   99.0621   99.0622  102.7639
  102.7639  102.7669  102.7669  103.3396  103.3396  103.3422  103.3422  104.1174  104.2223  104.2224
  105.7373  105.7374  105.7386  105.7386  105.8512  105.8512  108.6793  108.6794  109.5834  109.5837
  112.2132  112.3867  112.3868  112.3886  112.3888  112.4735  113.7694  113.7696  113.7702  113.7702
  115.4645  115.4645  118.3243  121.8247  121.8248  121.8253  121.8255  122.6922  131.2856  131.2860
  131.8044  131.8045  134.6487  134.6487  134.6500  134.6502  144.3978  144.3980
  11  1  -26.1749  -25.6129  -25.5147  -25.5147  -24.9732  -24.9732  -23.5745  -23.5745  -23.0965  -23.0964
         -22.3279  -21.8941  -21.7466  -21.7465  -21.3587  -21.3586  -20.8645  -20.6560  -19.7673  -19.6286
  -19.6135  -19.6134  -19.3015  -19.3014  -17.5061  -17.3586  -16.4939  -16.4939  -16.2954  -16.2954
  -15.8782  -15.7741  -15.2072  -15.1597  -15.0234  -14.4312  -14.4311  -14.3662  -14.3662  -14.2913
  -14.2913  -13.8688  -13.8685  -13.7263  -13.7260  -13.4209  -13.4207  -13.2813  -13.2810  -12.2259
  -12.0771  -12.0771  -12.0181  -12.0177  -11.9112  -11.9108  -11.6928  -11.6200  -11.5229  -11.5229
  -11.0047  -10.9529  -10.6456  -10.1872  -10.1872   -9.5709   -9.5709   -9.3483   -8.6860   -8.6859
   -8.4315   -8.3245   -5.2644   -5.1790   -5.1790   -5.0053   -4.5952   -4.1315   -4.1315   -3.5903
   -2.9659   -2.9659   -1.9484   -1.9484   -0.4920    0.3054    0.3055    0.9092    0.9092    1.0277
    1.0278    1.6228    1.6228    1.7418    1.7420    1.7541    1.8632    1.8635    1.9511    2.2424
    2.2427    2.6849    2.6849    2.7567    2.7774    2.9688    3.0784    3.1634    3.1635    3.2744
    3.5983    3.8478    3.8480    4.1403    4.4786    4.4791    4.7062    4.7067    4.9459    4.9668
    4.9668    5.2359    5.7629    5.7631    5.7751    6.1918    6.2909    6.4203    6.6964    6.7142
    6.7143    6.7210    6.7212    6.7798    7.0509    7.0588    7.2825    7.3991    7.3991    7.4759
    7.4759    7.5637    7.8496    8.1790    8.1791    8.4637    8.4637    8.6843    8.6845    9.9542
    9.9542   10.2157   10.2157   11.0015   11.7439   11.7441   11.9043   12.1200   12.1203   12.6159
   12.6168   13.2594   13.2681   13.2682   13.6487   14.7638   14.7639   14.8764   15.3743   15.3894
   15.4367   15.4375   15.4418   15.4419   15.6817   15.7271   15.7271   15.8559   15.8562   16.2611
   16.2649   16.2649   16.9154   16.9623   17.4775   17.4779   17.4967   17.4970   17.6508   17.8128
   18.0321   18.0325   18.6709   18.8698   18.8698   19.0181   19.0182   19.4821   19.7345   19.9071
   19.9074   20.4751   20.7527   20.7528   20.8583   20.9069   20.9411   20.9411   21.2916   21.4344
   21.7073   21.7078   21.8565   21.8569   22.1016   22.1016   22.6619   22.9194   22.9194   23.0735
   23.0739   23.7071   23.8121   23.8121   24.3770   24.4868   24.6583   24.6583   24.6846   24.6846
   25.2754   25.9512   25.9513   26.5588   27.3468   27.3468   27.5102   27.5102   28.9232   28.9650
   29.3901   29.3901   29.4183   29.5964   29.5966   29.7686   30.0885   30.0886   30.1005   30.1006
   30.8986   32.9909   35.2940   35.2944   36.3541   36.5824   36.5834   37.9320   38.1952   38.1956
   38.9333   38.9334   39.1292   39.4181   39.6889   40.1703   40.1703   40.7455   40.8045   40.8051
   41.0880   41.5854   41.9299   41.9313   41.9595   41.9598   42.2751   42.2761   42.3013   42.3014
   42.7312   42.7313   43.0932   43.0932   43.3064   43.6556   43.7643   43.8295   44.0275   44.0282
   44.1470   44.4811   44.5382   44.6358   44.6363   44.7085   44.7085   44.8573   44.8574   44.8597
   45.3123   45.5542   45.7815   46.2899   46.2902   46.4610   46.4614   46.5649   46.5649   46.9242
   47.0027   47.4957   47.4958   48.4538   48.4539   49.0016   49.0021   49.0645   49.9085   50.3429
   50.3429   50.5602   50.5604   50.5965   51.1851   52.3988   52.5327   52.5889   52.5891   52.8649
   52.8652   53.3345   53.3346   53.7399   53.9972   54.2866   54.2866   54.7202   54.7202   55.2124
[...]
    5.0360    5.0360    5.0360    5.0360    5.7820    5.7820    5.7828    5.7828    6.3623    6.3623
    6.3625    6.3625    6.3920    6.3920    6.4583    6.4583    6.4584    6.4584    6.8940    6.8940
    8.4237    8.4237    8.4238    8.4238    8.7702    8.7702    8.9196    8.9196    8.9198    8.9198
   10.2059   10.2059   10.9530   10.9530   11.1316   11.1316   11.1317   11.1317   12.1358   12.1358
   12.1363   12.1363   13.6833   13.6833   13.6834   13.6834   14.2760   14.2760   14.3517   14.3517
   14.3519   14.3519   15.0315   15.0315   16.6459   16.6459   16.6674   16.6674   16.6675   16.6675
   16.8249   16.8249   16.8253   16.8253   17.1046   17.1046   17.7310   17.7310   17.7312   17.7312
   19.2166   19.2166   19.2603   19.2603   19.6662   19.6662   19.6665   19.6665   20.1739   20.1739
   20.3942   20.3942   20.3945   20.3945   21.4499   21.4499   21.4553   21.4553   21.6799   21.6799
   21.6801   21.6801   21.7553   21.7553   22.6649   22.6649   22.6650   22.6650   23.3743   23.3743
   23.3743   23.3743   23.3982   23.3982   23.4089   23.4089   23.4090   23.4090   24.1603   24.1603
   25.0262   25.0262   25.0264   25.0264   28.2456   28.2456   28.2456   28.2456   28.5589   28.5589
   28.7732   28.7732   28.7732   28.7732   29.7258   29.7258   31.0711   31.0711   31.0712   31.0712
   34.7144   34.7144   36.9265   36.9265   36.9272   36.9272   37.1686   37.1686   37.3441   37.3441
   37.6141   37.6141   37.6141   37.6141   38.3390   38.3390   38.3390   38.3390   39.8699   39.8699
   39.8704   39.8704   40.8781   40.8781   41.5749   41.5749   41.5755   41.5755   42.2793   42.2793
   42.2805   42.2805   43.3738   43.3738   43.3743   43.3743   43.6202   43.6202   44.1737   44.1737
   44.3749   44.3749   44.5014   44.5014   45.0773   45.0773   45.0774   45.0774   45.4149   45.4149
   45.7647   45.7647   45.7650   45.7650   47.0786   47.0786   47.0789   47.0789   47.3280   47.3280
   48.0605   48.0605   49.0311   49.0311   49.9168   49.9168   50.1507   50.1507   50.1508   50.1508
   51.2066   51.2066   51.2068   51.2068   51.7009   51.7009   51.7011   51.7011   52.4465   52.4465
   53.5652   53.5652   55.7399   55.7399   55.7401   55.7401   56.3242   56.3242   57.6899   57.6899
   57.6900   57.6900   57.9428   57.9428   59.3930   59.3930   59.3932   59.3932   59.5061   59.5061
   59.5063   59.5063   60.6682   60.6682   61.2544   61.2544   63.2584   63.2584   63.2593   63.2593
   63.3641   63.3642   63.3642   63.3642   65.2950   65.2950   66.6691   66.6691   66.6693   66.6693
   67.8336   67.8336   68.4307   68.4307   68.9351   68.9351   68.9354   68.9354   69.2702   69.2702
   69.2722   69.2722   70.0062   70.0062   70.0071   70.0071   71.6622   71.6622   72.1502   72.1502
   73.1194   73.1194   74.4032   74.4032   74.4039   74.4039   75.3020   75.3020   80.6067   80.6067
   80.6068   80.6068   83.3709   83.3709   83.3728   83.3728   89.4982   89.4982   91.3102   91.3102
   91.3126   91.3126   93.0178   93.0178   94.0031   94.0031   94.0039   94.0039   98.6056   98.6056
   98.6084   98.6084  100.2723  100.2723  100.2725  100.2725  100.5092  100.5092  103.9100  103.9100
  104.0962  104.0962  106.8122  106.8122  109.0547  109.0547  109.0550  109.0550  110.0477  110.0478
  110.0516  110.0517  112.4912  112.4913  112.4948  112.4949  114.0395  114.0395  114.0402  114.0403
  114.7160  114.7160  116.2484  116.2485  118.0634  118.0635  118.0647  118.0648  120.3897  120.3897
  123.6054  123.6054  123.6056  123.6057  124.1352  124.1353  130.5244  130.5244
  42  1  -25.7469  -25.7469  -25.7469  -25.7469  -24.4550  -24.4550  -24.4550  -24.4550  -21.9752  -21.9752
         -21.9752  -21.9752  -21.9752  -21.9752  -21.9752  -21.9752  -21.1643  -21.1643  -20.1340  -20.1340
  -18.3024  -18.3024  -18.3024  -18.3024  -18.3023  -18.3023  -18.3023  -18.3023  -14.9374  -14.9374
  -14.9374  -14.9374  -14.9371  -14.9371  -14.9371  -14.9371  -14.6735  -14.6735  -14.6735  -14.6735
  -13.6649  -13.6649  -13.6649  -13.6649  -13.3204  -13.3204  -13.3204  -13.3204  -13.3143  -13.3143
  -12.2515  -12.2515  -12.2515  -12.2515  -12.1732  -12.1732  -12.1732  -12.1732  -11.0928  -11.0928
  -11.0928  -11.0928   -9.5286   -9.5286   -9.5286   -9.5286   -9.5286   -9.5286   -9.5286   -9.5286
   -9.2417   -9.2417   -5.2148   -5.2148   -4.3865   -4.3865   -4.3865   -4.3865   -4.3865   -4.3865
   -4.3865   -4.3865   -0.5224   -0.5224   -0.5224   -0.5224    0.6550    0.6550    1.4328    1.4328
    1.4328    1.4328    2.5188    2.5188    2.5189    2.5189    3.1328    3.1328    3.1328    3.1328
    3.1890    3.1890    3.1890    3.1890    3.1989    3.1989    3.1989    3.1989    3.1989    3.1989
    3.1989    3.1989    3.9707    3.9707    3.9707    3.9707    4.3722    4.3722    4.3722    4.3722
    4.7933    4.7933    4.7933    4.7933    5.5929    5.5929    5.5929    5.5929    5.5929    5.5929
    5.5929    5.5929    7.0098    7.0098    7.1234    7.1234    7.1234    7.1234    8.1821    8.1821
    8.1821    8.1821    8.1821    8.1821    8.1822    8.1822    8.8022    8.8022   10.4974   10.4974
   10.4974   10.4974   10.6222   10.6222   10.6222   10.6222   10.6222   10.6222   10.6222   10.6222
   13.1500   13.1500   14.0534   14.0534   14.0534   14.0534   14.5899   14.5899   14.5926   14.5926
   14.5926   14.5926   14.5927   14.5927   14.5927   14.5927   16.6777   16.6777   16.8518   16.8518
   16.8518   16.8518   16.8522   16.8522   16.8522   16.8522   18.9173   18.9173   18.9391   18.9391
   18.9391   18.9391   19.2426   19.2426   19.2426   19.2426   20.0587   20.0587   20.0587   20.0587
   20.0589   20.0589   20.0589   20.0589   21.4683   21.4683   21.4683   21.4683   22.0786   22.0786
   22.0787   22.0787   22.2247   22.2247   22.2247   22.2247   22.2247   22.2247   22.2247   22.2247
   22.7215   22.7215   22.7215   22.7215   24.0713   24.0713   24.6378   24.6378   24.6378   24.6378
   24.8003   24.8003   24.8003   24.8003   28.6763   28.6763   28.6763   28.6763   28.6763   28.6763
   28.6763   28.6763   28.8095   28.8095   28.8095   28.8095   29.4417   29.4417   34.3390   34.3390
   34.3390   34.3390   34.8878   34.8878   37.3784   37.3784   37.3784   37.3784   37.3788   37.3788
   37.3788   37.3788   37.9524   37.9524   37.9524   37.9524   38.3312   38.3313   40.1266   40.1266
   40.1266   40.1266   41.9235   41.9235   41.9236   41.9236   42.2558   42.2558   42.8165   42.8165
   42.8165   42.8165   42.8166   42.8166   42.8166   42.8166   43.0529   43.0529   43.0530   43.0530
   43.6236   43.6236   43.6237   43.6237   43.6558   43.6558   43.6558   43.6558   45.7090   45.7090
   45.7090   45.7090   48.2296   48.2296   48.2296   48.2296   48.5516   48.5516   48.5516   48.5516
   48.9398   48.9398   48.9399   48.9399   48.9399   48.9399   48.9399   48.9399   51.5993   51.5993
   51.5994   51.5994   51.5995   51.5995   51.5995   51.5995   51.6654   51.6654   54.8039   54.8039
   54.8039   54.8039   54.8041   54.8041   54.8041   54.8041   56.2661   56.2661   56.2661   56.2662
   57.0503   57.0503   58.0060   58.0060   58.0060   58.0060   58.7296   58.7296   58.8663   58.8663
   58.8663   58.8663   58.8666   58.8666   58.8666   58.8666   60.7363   60.7363   62.4133   62.4133
   62.4133   62.4133   66.8357   66.8357   66.8357   66.8357   66.8361   66.8361   66.8362   66.8362
   67.4771   67.4771   67.7263   67.7263   67.7264   67.7264   70.5132   70.5132   70.5132   70.5132
   70.9818   70.9818   70.9818   70.9818   71.0982   71.0982   71.0982   71.0982   71.0984   71.0984
   71.0984   71.0984   75.9120   75.9120   75.9121   75.9121   79.0732   79.0732   80.0854   80.0855
   80.0855   80.0855   89.2096   89.2096   89.2097   89.2097   90.0421   90.0421   90.0422   90.0422
   90.0424   90.0424   90.0424   90.0424   94.4283   94.4283   94.4283   94.4283   96.2408   96.2408
   96.2409   96.2409   97.0638   97.0638  103.1214  103.1214  103.1214  103.1215  103.1242  103.1242
  103.1242  103.1242  105.6289  105.6290  105.6290  105.6290  107.2151  107.2152  107.2152  107.2152
  112.0956  112.0956  112.0960  112.0962  112.2833  112.2833  115.2042  115.2043  115.2045  115.2045
  115.2054  115.2055  115.2057  115.2057  120.0206  120.0206  120.0207  120.0207  122.9079  122.9080
  122.9567  122.9568  122.9568  122.9569  122.9576  122.9576  122.9579  122.9579
  43  1  -25.9102  -25.9102  -25.2593  -25.2593  -25.2593  -25.2593  -23.3486  -23.3486  -23.3486  -23.3486
         -22.1221  -22.1221  -21.5602  -21.5602  -21.5602  -21.5602  -20.7442  -20.7442  -19.7325  -19.7325
  -19.4700  -19.4700  -19.4698  -19.4698  -17.4293  -17.4293  -16.3967  -16.3967  -16.3967  -16.3967
  -15.8434  -15.8434  -15.1189  -15.1189  -14.3687  -14.3687  -14.3686  -14.3686  -13.8550  -13.8550
  -13.7954  -13.7954  -13.7951  -13.7951  -13.3545  -13.3545  -13.3543  -13.3543  -13.0933  -13.0933
  -13.0933  -13.0933  -11.9665  -11.9665  -11.9661  -11.9661  -11.6532  -11.6532  -10.9803  -10.9803
  -10.9368  -10.9368  -10.9368  -10.9368   -9.6108   -9.6108   -9.3454   -9.3454   -9.3454   -9.3454
   -8.6490   -8.6490   -5.4471   -5.4471   -4.9437   -4.9437   -4.9437   -4.9437   -4.0922   -4.0922
   -2.4746   -2.4746   -2.4746   -2.4746    1.1440    1.1440    1.1441    1.1441    1.3793    1.3793
    1.3795    1.3795    1.7532    1.7532    2.0631    2.0631    2.0634    2.0634    2.9493    2.9493
    3.0291    3.0291    3.0792    3.0792    3.1079    3.1079    3.3884    3.3884    3.3885    3.3885
    3.6343    3.6343    3.6343    3.6343    4.5906    4.5906    4.6136    4.6136    4.6141    4.6141
    5.0360    5.0360    5.0360    5.0360    5.7820    5.7820    5.7828    5.7828    6.3623    6.3623
    6.3625    6.3625    6.3920    6.3920    6.4583    6.4583    6.4584    6.4584    6.8940    6.8940
    8.4237    8.4237    8.4238    8.4238    8.7702    8.7702    8.9196    8.9196    8.9198    8.9198
   10.2059   10.2059   10.9530   10.9530   11.1316   11.1316   11.1317   11.1317   12.1358   12.1358
   12.1363   12.1363   13.6833   13.6833   13.6834   13.6834   14.2760   14.2760   14.3517   14.3517
   14.3519   14.3519   15.0315   15.0315   16.6459   16.6459   16.6674   16.6674   16.6675   16.6675
   16.8249   16.8249   16.8253   16.8253   17.1046   17.1046   17.7310   17.7310   17.7312   17.7312
   19.2166   19.2166   19.2603   19.2603   19.6662   19.6662   19.6665   19.6665   20.1739   20.1739
   20.3942   20.3942   20.3945   20.3945   21.4499   21.4499   21.4553   21.4553   21.6799   21.6799
   21.6801   21.6801   21.7553   21.7553   22.6649   22.6649   22.6650   22.6650   23.3743   23.3743
   23.3743   23.3743   23.3982   23.3982   23.4089   23.4089   23.4090   23.4090   24.1603   24.1603
   25.0262   25.0262   25.0264   25.0264   28.2456   28.2456   28.2456   28.2456   28.5589   28.5589
   28.7732   28.7732   28.7732   28.7732   29.7258   29.7258   31.0711   31.0711   31.0712   31.0712
   34.7144   34.7144   36.9265   36.9265   36.9272   36.9272   37.1686   37.1686   37.3441   37.3441
   37.6141   37.6141   37.6141   37.6141   38.3390   38.3390   38.3390   38.3390   39.8699   39.8699
   39.8704   39.8704   40.8781   40.8781   41.5749   41.5749   41.5755   41.5755   42.2793   42.2793
   42.2805   42.2805   43.3738   43.3738   43.3743   43.3743   43.6202   43.6202   44.1737   44.1737
   44.3749   44.3749   44.5014   44.5014   45.0773   45.0773   45.0774   45.0774   45.4149   45.4149
   45.7647   45.7647   45.7650   45.7650   47.0786   47.0786   47.0789   47.0789   47.3280   47.3280
   48.0605   48.0605   49.0311   49.0311   49.9168   49.9168   50.1507   50.1507   50.1508   50.1508
   51.2066   51.2066   51.2068   51.2068   51.7009   51.7009   51.7011   51.7011   52.4465   52.4465
   53.5652   53.5652   55.7399   55.7399   55.7401   55.7401   56.3242   56.3242   57.6899   57.6899
   57.6900   57.6900   57.9428   57.9428   59.3930   59.3930   59.3932   59.3932   59.5061   59.5061
   59.5063   59.5063   60.6682   60.6682   61.2544   61.2544   63.2584   63.2584   63.2593   63.2593
   63.3641   63.3642   63.3642   63.3642   65.2950   65.2950   66.6691   66.6691   66.6693   66.6693
   67.8336   67.8336   68.4307   68.4307   68.9351   68.9351   68.9354   68.9354   69.2702   69.2702
   69.2722   69.2722   70.0062   70.0062   70.0071   70.0071   71.6622   71.6622   72.1502   72.1502
   73.1194   73.1194   74.4032   74.4032   74.4039   74.4039   75.3020   75.3020   80.6067   80.6067
   80.6068   80.6068   83.3709   83.3709   83.3728   83.3728   89.4982   89.4982   91.3102   91.3102
   91.3126   91.3126   93.0178   93.0178   94.0031   94.0031   94.0039   94.0039   98.6056   98.6056
   98.6084   98.6084  100.2723  100.2723  100.2725  100.2725  100.5092  100.5092  103.9100  103.9100
  104.0962  104.0962  106.8122  106.8122  109.0547  109.0547  109.0550  109.0550  110.0477  110.0478
  110.0516  110.0517  112.4912  112.4913  112.4948  112.4949  114.0395  114.0395  114.0402  114.0403
  114.7160  114.7160  116.2484  116.2485  118.0634  118.0635  118.0647  118.0648  120.3897  120.3897
  123.6054  123.6054  123.6056  123.6057  124.1352  124.1353  130.5244  130.5244
  44  1  -25.7469  -25.7469  -25.7469  -25.7469  -24.4550  -24.4550  -24.4550  -24.4550  -21.9752  -21.9752
         -21.9752  -21.9752  -21.9752  -21.9752  -21.9752  -21.9752  -21.1642  -21.1642  -20.1338  -20.1338
  -18.3025  -18.3025  -18.3025  -18.3025  -18.3025  -18.3025  -18.3025  -18.3025  -14.9371  -14.9371
  -14.9371  -14.9371  -14.9371  -14.9371  -14.9371  -14.9371  -14.6736  -14.6736  -14.6736  -14.6736
  -13.6649  -13.6649  -13.6649  -13.6649  -13.3202  -13.3202  -13.3202  -13.3202  -13.3146  -13.3146
  -12.2512  -12.2512  -12.2512  -12.2512  -12.1732  -12.1732  -12.1732  -12.1732  -11.0932  -11.0932
  -11.0932  -11.0932   -9.5286   -9.5286   -9.5286   -9.5286   -9.5286   -9.5286   -9.5286   -9.5286
   -9.2417   -9.2417   -5.2148   -5.2148   -4.3865   -4.3865   -4.3865   -4.3865   -4.3865   -4.3865
   -4.3865   -4.3865   -0.5224   -0.5224   -0.5224   -0.5224    0.6552    0.6552    1.4333    1.4333
    1.4333    1.4333    2.5189    2.5189    2.5189    2.5189    3.1328    3.1328    3.1328    3.1328
    3.1890    3.1890    3.1890    3.1890    3.1988    3.1988    3.1988    3.1988    3.1988    3.1988
    3.1988    3.1988    3.9701    3.9701    3.9701    3.9701    4.3723    4.3723    4.3723    4.3723
    4.7935    4.7935    4.7936    4.7936    5.5929    5.5929    5.5929    5.5929    5.5929    5.5929
    5.5929    5.5929    7.0099    7.0099    7.1235    7.1235    7.1235    7.1235    8.1819    8.1819
    8.1819    8.1819    8.1819    8.1819    8.1819    8.1819    8.8024    8.8024   10.4973   10.4973
   10.4973   10.4973   10.6223   10.6223   10.6223   10.6223   10.6223   10.6223   10.6223   10.6223
   13.1488   13.1488   14.0533   14.0533   14.0533   14.0533   14.5906   14.5906   14.5929   14.5929
   14.5929   14.5929   14.5929   14.5929   14.5929   14.5929   16.6776   16.6776   16.8518   16.8518
   16.8518   16.8518   16.8518   16.8518   16.8518   16.8518   18.9178   18.9178   18.9393   18.9393
   18.9394   18.9394   19.2423   19.2423   19.2423   19.2423   20.0588   20.0588   20.0588   20.0588
   20.0589   20.0589   20.0589   20.0589   21.4683   21.4683   21.4683   21.4683   22.0789   22.0789
   22.0789   22.0789   22.2247   22.2247   22.2247   22.2247   22.2247   22.2247   22.2247   22.2247
   22.7214   22.7214   22.7214   22.7214   24.0716   24.0716   24.6379   24.6379   24.6379   24.6379
   24.8002   24.8002   24.8002   24.8002   28.6762   28.6762   28.6762   28.6762   28.6762   28.6762
   28.6762   28.6762   28.8095   28.8095   28.8095   28.8095   29.4415   29.4415   34.3391   34.3391
   34.3391   34.3391   34.8880   34.8880   37.3787   37.3787   37.3787   37.3787   37.3787   37.3787
   37.3787   37.3787   37.9523   37.9523   37.9523   37.9523   38.3302   38.3302   40.1262   40.1262
   40.1262   40.1262   41.9243   41.9243   41.9243   41.9243   42.2562   42.2562   42.8162   42.8162
   42.8162   42.8162   42.8162   42.8162   42.8162   42.8162   43.0531   43.0531   43.0531   43.0531
   43.6244   43.6244   43.6244   43.6244   43.6544   43.6544   43.6544   43.6544   45.7098   45.7098
   45.7098   45.7098   48.2293   48.2293   48.2294   48.2294   48.5516   48.5516   48.5516   48.5516
   48.9398   48.9398   48.9398   48.9398   48.9398   48.9398   48.9398   48.9398   51.5993   51.5993
   51.5993   51.5993   51.5993   51.5993   51.5993   51.5993   51.6658   51.6658   54.8039   54.8039
   54.8039   54.8039   54.8039   54.8039   54.8039   54.8039   56.2663   56.2663   56.2663   56.2663
   57.0508   57.0508   58.0061   58.0061   58.0062   58.0062   58.7299   58.7299   58.8665   58.8665
   58.8665   58.8665   58.8665   58.8665   58.8665   58.8665   60.7348   60.7348   62.4129   62.4129
   62.4129   62.4129   66.8359   66.8359   66.8359   66.8359   66.8359   66.8359   66.8360   66.8360
   67.4767   67.4767   67.7276   67.7276   67.7276   67.7276   70.5099   70.5099   70.5100   70.5100
   70.9836   70.9836   70.9836   70.9836   71.0983   71.0983   71.0983   71.0983   71.0984   71.0984
   71.0984   71.0984   75.9123   75.9123   75.9123   75.9124   79.0736   79.0736   80.0872   80.0872
   80.0872   80.0873   89.2072   89.2072   89.2072   89.2072   90.0434   90.0434   90.0435   90.0435
   90.0435   90.0435   90.0436   90.0436   94.4289   94.4289   94.4289   94.4290   96.2397   96.2398
   96.2399   96.2399   97.0667   97.0667  103.1217  103.1217  103.1217  103.1217  103.1218  103.1218
  103.1218  103.1218  105.6259  105.6261  105.6262  105.6262  107.2146  107.2146  107.2147  107.2147
  112.0994  112.0995  112.0999  112.0999  112.2786  112.2787  115.2045  115.2045  115.2046  115.2047
  115.2054  115.2055  115.2058  115.2058  120.0213  120.0213  120.0213  120.0214  122.9086  122.9086
  122.9580  122.9581  122.9581  122.9582  122.9583  122.9584  122.9584  122.9584
siesta: Fermi energy =      -6.920543 eV

siesta: Program's energy decomposition (eV):
siesta: Ebs     =     -2306.944213
siesta: Eions   =      9434.507561
siesta: Ena     =      2218.935354
siesta: Ekin    =      3919.726022
siesta: Enl     =      -381.068671
siesta: Eso     =         0.000000
siesta: Edftu   =         0.000000
siesta: DEna    =      -203.229578
siesta: DUscf   =        17.872018
siesta: DUext   =         0.000000
siesta: Exc     =     -1714.158142
siesta: eta*DQ  =         0.000000
siesta: Emadel  =         0.000000
siesta: Emeta   =         0.000000
siesta: Emolmec =        -5.415069
siesta: Ekinion =         0.000000
siesta: Eharris =     -5581.845627
siesta: Etot    =     -5581.845626
siesta: FreeEng =     -5581.855074

siesta: Final energy (eV):
siesta:  Band Struct. =   -2306.944213
siesta:       Kinetic =    3919.726022
siesta:       Hartree =    1286.863567
siesta:       Edftu   =       0.000000
siesta:       Eso     =       0.000000
siesta:    Ext. field =       0.000000
siesta:   Exch.-corr. =   -1714.158142
siesta:  Ion-electron =   -6567.815312
siesta:       Ion-ion =   -2501.046693
siesta:       Ekinion =       0.000000
siesta:         Total =   -5581.845626
siesta:         Fermi =      -6.920543

siesta: Stress tensor (static) (eV/Ang**3):
siesta:    -0.081942   -0.000074    0.000000
siesta:    -0.000074   -0.082028    0.000000
siesta:     0.000000    0.000000   -0.017598

siesta: Cell volume =        288.990242 Ang**3

siesta: Pressure (static):
siesta:                Solid            Molecule  Units
siesta:           0.00065917          0.00065921  Ry/Bohr**3
siesta:           0.06052281          0.06052663  eV/Ang**3
siesta:          96.96928750         96.97539647  kBar
(Free)E+ p_basis*V_orbitals  =       -5548.325268
(Free)Eharris+ p_basis*V_orbitals  =       -5548.325269

cite: Please see "graphite_scf.bib" for an exhaustive BiBTeX file.
cite: Please clearly indicate Siesta version in published work: 4.1.5
cite: This calculation has made use of the following articles
cite: which are encouraged to be cited in a published work.
        Primary SIESTA paper
          DOI: www.doi.org/10.1088/0953-8984/14/11/302

>> End of run:   1-NOV-2022  16:36:29
Job completed
