Siesta Version  : 4.1.5
Architecture    : x86_64-unknown-linux-gnu--unknown
Compiler version: GNU Fortran (GCC) 11.3.0
Compiler flags  : mpif90 -g -O2 -fallow-argument-mismatch
PP flags        : -DMPI -DFC_HAVE_FLUSH -DFC_HAVE_ABORT
Libraries       :  -I/global/software/sl-7.x86_64/modules/intel/2020.4.304/mkl/include  /globall/software/sl-7.x86_64/modules/intel/2020.4.304/mkl/lib/intel64/libmkl_scalapack_lp64.a -Wl,--start-group /global/software/sl-7.x86_64/modules/intel/2020.4.304/mkl/lib/intel64/libmkl_intel_lp64.a /global/software/sl-7.x86_64/modules/intel/2020.4.304/mkl/lib/intel64/libmkl_sequential.a /global/software/sl-7.x86_64/modules/intel/2020.4.304/mkl/lib/intel64/libmkl_core.a /global/software/sl-7.x86_64/modules/intel/2020.4.304/mkl/lib/intel64/libmkl_blacs_openmpi_lp64.a -Wl,--end-group -lpthread -lm -ldl
PARALLEL version

* Running on 20 nodes in parallel
>> Start of run:   1-NOV-2022  18:45:01

                           ***********************       
                           *  WELCOME TO SIESTA  *       
                           ***********************       

reinit: Reading from standard input
reinit: Dumped input in INPUT_TMP.86902
************************** Dump of input data file ****************************
SystemName graphite_scf
SystemLabel graphite_scf
NumberOfAtoms   36
NumberOfSpecies 1
%block ChemicalSpeciesLabel
1  6   C-gga
%endblock ChemicalSpeciesLabel
PAO.BasisSize  DZP
PAO.EnergyShift  10 meV
%block PS.Lmax
C-gga   2
%endblock PS.Lmax
LatticeConstant 1.000000 Ang
%block LatticeVectors
	7.3920000000	0.0000000000	0.0000000000
	-3.6960000000	6.4016597848	0.0000000000
	0.0000000000	0.0000000000	8.1203100000
%endblock LatticeVectors
AtomicCoordinatesFormat Ang
%block AtomicCoordinatesAndAtomicSpecies
	0.00000000	0.00000000	2.03007750	1
	0.00000000	0.00000000	6.09023250	1
	-1.23200000	2.13388659	2.03007750	1
	-2.46400000	4.26777319	6.09023250	1
	2.46400000	4.26777319	2.03007750	1
	1.23200000	2.13388659	6.09023250	1
	2.46400000	0.00000000	2.03007750	1
	4.92800000	0.00000000	6.09023250	1
	2.46400000	0.00000000	6.09023250	1
	4.92800000	0.00000000	2.03007750	1
	2.46400000	4.26777319	6.09023250	1
	1.23200000	2.13388659	2.03007750	1
	-1.23200000	2.13388659	6.09023250	1
	-2.46400000	4.26777319	2.03007750	1
	0.00000000	4.26777319	2.03007750	1
	3.69600000	2.13388659	6.09023250	1
	3.69600000	2.13388659	2.03007750	1
	0.00000000	4.26777319	6.09023250	1
	0.00000000	1.42258964	2.03007750	1
	3.69600000	4.97907014	6.09023250	1
	2.46400123	5.69036496	2.03007750	1
	1.23199877	0.71129482	6.09023250	1
	-2.46400123	5.69036496	2.03007750	1
	6.16000123	0.71129482	6.09023250	1
	-1.23200000	3.55647624	2.03007750	1
	4.92800000	2.84518355	6.09023250	1
	1.23200123	3.55647837	2.03007750	1
	2.46399877	2.84518142	6.09023250	1
	-0.00000123	5.69036496	2.03007750	1
	3.69600123	0.71129482	6.09023250	1
	2.46400000	1.42258964	2.03007750	1
	1.23200000	4.97907014	6.09023250	1
	4.92800123	1.42259177	2.03007750	1
	-1.23200123	4.97906801	6.09023250	1
	3.69599877	3.55647837	2.03007750	1
	0.00000123	2.84518142	6.09023250	1
%endblock AtomicCoordinatesAndAtomicSpecies
Kgrid_NoTRS  T
%block kgrid_MonkhorstPack
4       0       0       0.0
0       4       0       0.0
0       0       4       0.0
%endblock kgrid_MonkhorstPack
AtomCoorFormatOut Ang
BlockSize 1
#ProcessorY 12
Diag.ParallelOverK   T
Diag.DivideAndConquer F
MeshCutoff   300 Ry
SCF.FreeE.Tolerance 1E-3 eV
SCF.EDM.Tolerance   5E-3 eV
DM.Tolerance  1E-3
DM.Require.Energy.Convergence T
DM.NumberPulay 4
XC.Functional GGA
XC.Authors    PBE
UseSaveData        F
SolutionMethod     diagon
MD.TypeOfRun       CG
MD.VariableCell    F
MD.NumCGsteps      00
MD.MaxCGDispl      0.200000 Bohr
#MD.MaxStressTol    1.000000 GPa
#MD.MaxForceTol     0.010000 eV/Ang
WriteMDHistory T
WriteCoorStep T
WriteForces T
WriteCoorStep    T
WriteEigenValues T
WriteDM    F
MM.UnitsDistance Ang  # what this program prints out DO NOT CHANGE
MM.UnitsEnergy    eV  # what this program prints out DO NOT CHANGE
MM.Grimme.S6     0.75 # Grimme-paper for PBE (correct for your functional)
MM.Grimme.D     20.   # Grimme-paper (correct for your functional)
%block MM.Potentials
  1   1 Grimme     18.14      2.904 # C, 10.1002/jcc.20495
%endblock MM.Potentials
#%block ProjectedDensityOfStates
# -200.0  120.0  0.4  12800  eV
#%endblock ProjectedDensityOfStates
************************** End of input data file *****************************

reinit: -----------------------------------------------------------------------
reinit: System Name: graphite_scf
reinit: -----------------------------------------------------------------------
reinit: System Label: graphite_scf
reinit: -----------------------------------------------------------------------
Reading two-body potentials
Grimme - two-body potential between 1 and 1

initatom: Reading input for the pseudopotentials and atomic orbitals ----------
Species number:   1 Atomic number:    6 Label: C-gga

Ground state valence configuration:   2s02  2p02
Reading pseudopotential information in formatted form from C-gga.psf

Valence configuration for pseudopotential generation:
2s( 2.00) rc: 1.56
2p( 2.00) rc: 1.56
3d( 0.00) rc: 1.56
4f( 0.00) rc: 1.56
relmxkb: Read Max KB Ang. Momentum=    2 for species C-gga

<basis_specs>
===============================================================================
C-gga                Z=   6    Mass=  12.010        Charge= 0.17977+309
Lmxo=1 Lmxkb= 2    BasisType=split      Semic=F
L=0  Nsemic=0  Cnfigmx=2
          i=1  nzeta=2  polorb=0  (2s)
            splnorm:   0.15000    
               vcte:    0.0000    
               rinn:    0.0000    
               qcoe:    0.0000    
               qyuk:    0.0000    
               qwid:   0.10000E-01
                rcs:    0.0000      0.0000    
            lambdas:    1.0000      1.0000    
L=1  Nsemic=0  Cnfigmx=2
          i=1  nzeta=2  polorb=1  (2p)
            splnorm:   0.15000    
               vcte:    0.0000    
               rinn:    0.0000    
               qcoe:    0.0000    
               qyuk:    0.0000    
               qwid:   0.10000E-01
                rcs:    0.0000      0.0000    
            lambdas:    1.0000      1.0000    
-------------------------------------------------------------------------------
L=0  Nkbl=1  erefs: 0.17977+309
L=1  Nkbl=1  erefs: 0.17977+309
L=2  Nkbl=1  erefs: 0.17977+309
===============================================================================
</basis_specs>

atom: Called for C-gga                 (Z =   6)

read_vps: Pseudopotential generation method:
read_vps: ATM 3.2.2 Troullier-Martins                       
Valence charge for ps generation:    4.00000

xc_check: Exchange-correlation functional:
xc_check: GGA Perdew, Burke & Ernzerhof 1996
V l=0 = -2*Zval/r beyond r=  1.5227
V l=1 = -2*Zval/r beyond r=  1.5227
V l=2 = -2*Zval/r beyond r=  1.5227
All V_l potentials equal beyond r=  1.4851
This should be close to max(r_c) in ps generation
All pots = -2*Zval/r beyond r=  1.5227

VLOCAL1: 99.0% of the norm of Vloc inside     19.682 Ry
VLOCAL1: 99.9% of the norm of Vloc inside     44.856 Ry
atom: Maximum radius for 4*pi*r*r*local-pseudopot. charge    1.79142
atom: Maximum radius for r*vlocal+2*Zval:    1.54183
GHOST: No ghost state for L =  0
GHOST: No ghost state for L =  1
GHOST: No ghost state for L =  2

KBgen: Kleinman-Bylander projectors: 
   l= 0   rc=  1.661951   el= -1.010689   Ekb=  5.289847   kbcos=  0.316429
   l= 1   rc=  1.661951   el= -0.388490   Ekb= -4.102504   kbcos= -0.351025
   l= 2   rc=  1.747182   el=  0.001971   Ekb= -1.006005   kbcos= -0.008530

KBgen: Total number of Kleinman-Bylander projectors:    9
atom: -------------------------------------------------------------------------

atom: SANKEY-TYPE ORBITALS:
atom: Selected multiple-zeta basis: split     

SPLIT: Orbitals with angular momentum L= 0

SPLIT: Basis orbitals for state 2s

SPLIT: PAO cut-off radius determined from an
SPLIT: energy shift=  0.000735 Ry

   izeta = 1
                 lambda =    1.000000
                     rc =    5.948690
                 energy =   -1.010099
                kinetic =    0.827121
    potential(screened) =   -1.837220
       potential(ionic) =   -5.392783

   izeta = 2
                 rmatch =    3.518811
              splitnorm =    0.150000
                 energy =   -0.877891
                kinetic =    1.289227
    potential(screened) =   -2.167118
       potential(ionic) =   -5.982073

SPLIT: Orbitals with angular momentum L= 1

SPLIT: Basis orbitals for state 2p

SPLIT: PAO cut-off radius determined from an
SPLIT: energy shift=  0.000735 Ry

   izeta = 1
                 lambda =    1.000000
                     rc =    7.638387
                 energy =   -0.387843
                kinetic =    2.314739
    potential(screened) =   -2.702582
       potential(ionic) =   -6.092371

   izeta = 2
                 rmatch =    3.840617
              splitnorm =    0.150000
                 energy =   -0.270479
                kinetic =    3.438347
    potential(screened) =   -3.708826
       potential(ionic) =   -7.497707

POLgen: Perturbative polarization orbital with L=  2

POLgen: Polarization orbital for state 2p

   izeta = 1
                     rc =    7.638387
                 energy =    0.921402
                kinetic =    1.955040
    potential(screened) =   -1.033637
       potential(ionic) =   -3.679558
atom: Total number of Sankey-type orbitals: 13

atm_pop: Valence configuration (for local Pseudopot. screening):
 2s( 2.00)                                                            
 2p( 2.00)                                                            
Vna: chval, zval:    4.00000   4.00000

Vna:  Cut-off radius for the neutral-atom potential:   7.638387

atom: _________________________________________________________________________

prinput: Basis input ----------------------------------------------------------

PAO.BasisType split     

%block ChemicalSpeciesLabel
    1    6 C-gga                   # Species index, atomic number, species label
%endblock ChemicalSpeciesLabel

%block PAO.Basis                 # Define Basis set
C-gga                 2                    # Species label, number of l-shells
 n=2   0   2                         # n, l, Nzeta 
   5.949      3.519   
   1.000      1.000   
 n=2   1   2 P   1                   # n, l, Nzeta, Polarization, NzetaPol
   7.638      3.841   
   1.000      1.000   
%endblock PAO.Basis

prinput: ----------------------------------------------------------------------

coor:   Atomic-coordinates input format  =     Cartesian coordinates
coor:                                          (in Angstroms)

siesta: Atomic coordinates (Bohr) and species
siesta:      0.00000   0.00000   3.83629  1        1
siesta:      0.00000   0.00000  11.50888  1        2
siesta:     -2.32814   4.03246   3.83629  1        3
siesta:     -4.65629   8.06493  11.50888  1        4
siesta:      4.65629   8.06493   3.83629  1        5
siesta:      2.32814   4.03246  11.50888  1        6
siesta:      4.65629   0.00000   3.83629  1        7
siesta:      9.31257   0.00000  11.50888  1        8
siesta:      4.65629   0.00000  11.50888  1        9
siesta:      9.31257   0.00000   3.83629  1       10
siesta:      4.65629   8.06493  11.50888  1       11
siesta:      2.32814   4.03246   3.83629  1       12
siesta:     -2.32814   4.03246  11.50888  1       13
siesta:     -4.65629   8.06493   3.83629  1       14
siesta:      0.00000   8.06493   3.83629  1       15
siesta:      6.98443   4.03246  11.50888  1       16
siesta:      6.98443   4.03246   3.83629  1       17
siesta:      0.00000   8.06493  11.50888  1       18
siesta:      0.00000   2.68831   3.83629  1       19
siesta:      6.98443   9.40908  11.50888  1       20
siesta:      4.65629  10.75324   3.83629  1       21
siesta:      2.32814   1.34415  11.50888  1       22
siesta:     -4.65629  10.75324   3.83629  1       23
siesta:     11.64072   1.34415  11.50888  1       24
siesta:     -2.32814   6.72077   3.83629  1       25
siesta:      9.31257   5.37662  11.50888  1       26
siesta:      2.32815   6.72077   3.83629  1       27
siesta:      4.65628   5.37662  11.50888  1       28
siesta:     -0.00000  10.75324   3.83629  1       29
siesta:      6.98443   1.34415  11.50888  1       30
siesta:      4.65629   2.68831   3.83629  1       31
siesta:      2.32814   9.40908  11.50888  1       32
siesta:      9.31258   2.68831   3.83629  1       33
siesta:     -2.32815   9.40908  11.50888  1       34
siesta:      6.98443   6.72077   3.83629  1       35
siesta:      0.00000   5.37662  11.50888  1       36

siesta: System type = bulk      

initatomlists: Number of atoms, orbitals, and projectors:     36   468   324

siesta: ******************** Simulation parameters ****************************
siesta:
siesta: The following are some of the parameters of the simulation.
siesta: A complete list of the parameters used, including default values,
siesta: can be found in file out.fdf
siesta:
redata: Spin configuration                          = none
redata: Number of spin components                   = 1
redata: Time-Reversal Symmetry                      = T
redata: Spin spiral                                 = F
redata: Long output                                 =   F
redata: Number of Atomic Species                    =        1
redata: Charge density info will appear in .RHO file
redata: Write Mulliken Pop.                         = NO
redata: Matel table size (NRTAB)                    =     1024
redata: Mesh Cutoff                                 =   300.0000 Ry
redata: Net charge of the system                    =     0.0000 |e|
redata: Min. number of SCF Iter                     =        0
redata: Max. number of SCF Iter                     =     1000
redata: SCF convergence failure will abort job
redata: SCF mix quantity                            = Hamiltonian
redata: Mix DM or H after convergence               =   F
redata: Recompute H after scf cycle                 =   F
redata: Mix DM in first SCF step                    =   T
redata: Write Pulay info on disk                    =   F
redata: New DM Occupancy tolerance                  = 0.000000000001
redata: No kicks to SCF
redata: DM Mixing Weight for Kicks                  =     0.5000
redata: Require Harris convergence for SCF          =   F
redata: Harris energy tolerance for SCF             =     0.000100 eV
redata: Require DM convergence for SCF              =   T
redata: DM tolerance for SCF                        =     0.001000
redata: Require EDM convergence for SCF             =   F
redata: EDM tolerance for SCF                       =     0.005000 eV
redata: Require H convergence for SCF               =   T
redata: Hamiltonian tolerance for SCF               =     0.001000 eV
redata: Require (free) Energy convergence for SCF   =   T
redata: (free) Energy tolerance for SCF             =     0.001000 eV
redata: Using Saved Data (generic)                  =   F
redata: Use continuation files for DM               =   F
redata: Neglect nonoverlap interactions             =   F
redata: Method of Calculation                       = Diagonalization
redata: Electronic Temperature                      =   299.9869 K
redata: Fix the spin of the system                  =   F
redata: Dynamics option                             = Single-point calculation
mix.SCF: Pulay mixing                            = Pulay
mix.SCF:    Variant                              = stable
mix.SCF:    History steps                        = 4
mix.SCF:    Linear mixing weight                 =     0.250000
mix.SCF:    Mixing weight                        =     0.250000
mix.SCF:    SVD condition                        = 0.1000E-07
redata: ***********************************************************************

%block SCF.Mixers
  Pulay
%endblock SCF.Mixers

%block SCF.Mixer.Pulay
  # Mixing method
  method pulay
  variant stable

  # Mixing options
  weight 0.2500
  weight.linear 0.2500
  history 4
%endblock SCF.Mixer.Pulay

DM_history_depth set to one: no extrapolation allowed by default for geometry relaxation
Size of DM history Fstack: 1
Total number of electrons:   144.000000
Total ionic charge:   144.000000

* ProcessorY, Blocksize:    4   1


* Orbital distribution balance (max,min):    24    23

k-point displ. along   1 input, could be:     0.00    0.50
k-point displ. along   2 input, could be:     0.00    0.50
k-point displ. along   3 input, could be:     0.00    0.50
 Kpoints in:           48 . Kpoints trimmed:           44

siesta: k-grid: Number of k-points =    44
siesta: k-grid: Cutoff (effective) =    14.784 Ang
siesta: k-grid: Supercell and displacements
siesta: k-grid:    4   0   0      0.000
siesta: k-grid:    0   4   0      0.000
siesta: k-grid:    0   0   4      0.000

diag: Algorithm                                     = Expert
diag: Parallel over k                               =   T
diag: Use parallel 2D distribution                  =   T
diag: Parallel block-size                           = 1
diag: Parallel distribution                         =     4 x     5
diag: Used triangular part                          = Lower
diag: Absolute tolerance                            =  0.100E-15
diag: Orthogonalization factor                      =  0.100E-05
diag: Memory factor                                 =  1.0000

superc: Internal auxiliary supercell:     5 x     5 x     3  =      75
superc: Number of atoms, orbitals, and projectors:   2700  35100  24300


ts: **************************************************************
ts: Save H and S matrices                           =    F
ts: Save DM and EDM matrices                        =    F
ts: Only save the overlap matrix S                  =    F
ts: **************************************************************

************************ Begin: TS CHECKS AND WARNINGS ************************
************************ End: TS CHECKS AND WARNINGS **************************


                     ====================================
                        Single-point calculation
                     ====================================

outcoor: Atomic coordinates (Ang):                          
    0.00000000    0.00000000    2.03007750   1       1  C-gga
    0.00000000    0.00000000    6.09023250   1       2  C-gga
   -1.23200000    2.13388659    2.03007750   1       3  C-gga
   -2.46400000    4.26777319    6.09023250   1       4  C-gga
    2.46400000    4.26777319    2.03007750   1       5  C-gga
    1.23200000    2.13388659    6.09023250   1       6  C-gga
    2.46400000    0.00000000    2.03007750   1       7  C-gga
    4.92800000    0.00000000    6.09023250   1       8  C-gga
    2.46400000    0.00000000    6.09023250   1       9  C-gga
    4.92800000    0.00000000    2.03007750   1      10  C-gga
    2.46400000    4.26777319    6.09023250   1      11  C-gga
    1.23200000    2.13388659    2.03007750   1      12  C-gga
   -1.23200000    2.13388659    6.09023250   1      13  C-gga
   -2.46400000    4.26777319    2.03007750   1      14  C-gga
    0.00000000    4.26777319    2.03007750   1      15  C-gga
    3.69600000    2.13388659    6.09023250   1      16  C-gga
    3.69600000    2.13388659    2.03007750   1      17  C-gga
    0.00000000    4.26777319    6.09023250   1      18  C-gga
    0.00000000    1.42258964    2.03007750   1      19  C-gga
    3.69600000    4.97907014    6.09023250   1      20  C-gga
    2.46400123    5.69036496    2.03007750   1      21  C-gga
    1.23199877    0.71129482    6.09023250   1      22  C-gga
   -2.46400123    5.69036496    2.03007750   1      23  C-gga
    6.16000123    0.71129482    6.09023250   1      24  C-gga
   -1.23200000    3.55647624    2.03007750   1      25  C-gga
    4.92800000    2.84518355    6.09023250   1      26  C-gga
    1.23200123    3.55647837    2.03007750   1      27  C-gga
    2.46399877    2.84518142    6.09023250   1      28  C-gga
   -0.00000123    5.69036496    2.03007750   1      29  C-gga
    3.69600123    0.71129482    6.09023250   1      30  C-gga
    2.46400000    1.42258964    2.03007750   1      31  C-gga
    1.23200000    4.97907014    6.09023250   1      32  C-gga
    4.92800123    1.42259177    2.03007750   1      33  C-gga
   -1.23200123    4.97906801    6.09023250   1      34  C-gga
    3.69599877    3.55647837    2.03007750   1      35  C-gga
    0.00000123    2.84518142    6.09023250   1      36  C-gga

superc: Internal auxiliary supercell:     5 x     5 x     3  =      75
superc: Number of atoms, orbitals, and projectors:   2700  35100  24300

outcell: Unit cell vectors (Ang):
        7.392000    0.000000    0.000000
       -3.696000    6.401660    0.000000
        0.000000    0.000000    8.120310

outcell: Cell vector modules (Ang)   :    7.392000    7.392000    8.120310
outcell: Cell angles (23,13,12) (deg):     90.0000     90.0000    120.0000
outcell: Cell volume (Ang**3)        :    384.2618
<dSpData1D:S at geom step 0
  <sparsity:sparsity for geom step 0
    nrows_g=468 nrows=24 sparsity=.3011 nnzs=65950, refcount: 7>
  <dData1D:(new from dSpData1D) n=65950, refcount: 1>
refcount: 1>
new_DM -- step:     1
Initializing Density Matrix...
DM filled with atomic data:
<dSpData2D:DM initialized from atoms
  <sparsity:sparsity for geom step 0
    nrows_g=468 nrows=24 sparsity=.3011 nnzs=65950, refcount: 8>
  <dData2D:DM n=65950 m=1, refcount: 1>
refcount: 1>
No. of atoms with KB's overlaping orbs in proc 0. Max # of overlaps:     228     526
New grid distribution:   1
           1       1:   36    1:    9    1:    9
           2       1:   36    1:    9   10:   18
           3       1:   36    1:    9   19:   27
           4       1:   36    1:    9   28:   36
           5       1:   36    1:    9   37:   45
           6       1:   36   10:   18    1:    9
           7       1:   36   10:   18   10:   18
           8       1:   36   10:   18   19:   27
           9       1:   36   10:   18   28:   36
          10       1:   36   10:   18   37:   45
          11       1:   36   19:   27    1:    9
          12       1:   36   19:   27   10:   18
          13       1:   36   19:   27   19:   27
          14       1:   36   19:   27   28:   36
          15       1:   36   19:   27   37:   45
          16       1:   36   28:   36    1:    9
          17       1:   36   28:   36   10:   18
          18       1:   36   28:   36   19:   27
          19       1:   36   28:   36   28:   36
          20       1:   36   28:   36   37:   45

InitMesh: MESH =    72 x    72 x    90 =      466560
InitMesh: (bp) =    36 x    36 x    45 =       58320
InitMesh: Mesh cutoff (required, used) =   300.000   339.501 Ry
ExtMesh (bp) on 0 =   128 x   101 x   101 =     1305728
New grid distribution:   2
           1       1:   15    1:   18    1:   12
           2       1:   15    1:   18   13:   23
           3      15:   36    1:   18   24:   30
           4      15:   36    1:    9   31:   45
           5      16:   36    1:    9    8:   23
           6      15:   36   10:   18   31:   45
           7      16:   36   28:   36   31:   45
           8      16:   36    1:   18    1:    7
           9       1:   14    1:   18   24:   34
          10       1:   14    1:   18   35:   45
          11       1:   15   19:   36    1:   12
          12      16:   36   19:   27    8:   23
          13      16:   36   10:   18    8:   23
          14       1:   15   19:   36   24:   34
          15      16:   36   19:   27   31:   45
          16      16:   36   19:   36    1:    7
          17      16:   36   28:   36    8:   23
          18       1:   15   19:   36   13:   23
          19      16:   36   19:   36   24:   30
          20       1:   15   19:   36   35:   45
New grid distribution:   3
           1       1:   15    1:   18    1:   12
           2       1:   15    1:   18   13:   23
           3      16:   36   28:   36    9:   23
           4       1:   15    1:   18   24:   34
           5       1:   15    1:   18   35:   45
           6      16:   36    1:    9   32:   45
           7      16:   36   10:   18    9:   23
           8      16:   36    1:   18   24:   31
           9       1:   15   19:   36   35:   45
          10      16:   36   10:   18   32:   45
          11       1:   15   19:   36    1:   12
          12       1:   15   19:   36   13:   23
          13      16:   36   19:   36   24:   31
          14      16:   36    1:    9    9:   23
          15      16:   36   19:   27   32:   45
          16      16:   36   19:   36    1:    8
          17      16:   36    1:   18    1:    8
          18      16:   36   19:   27    9:   23
          19       1:   15   19:   36   24:   34
          20      16:   36   28:   36   32:   45
Setting up quadratic distribution...
ExtMesh (bp) on 0 =   107 x   110 x   104 =     1224080
PhiOnMesh: Number of (b)points on node 0 =                 3240
PhiOnMesh: nlist on node 0 =               791854

stepf: Fermi-Dirac step function

siesta: Program's energy decomposition (eV):
siesta: Ebs     =     -2090.693995
siesta: Eions   =      9434.507561
siesta: Ena     =      2224.171079
siesta: Ekin    =      4043.406924
siesta: Enl     =      -409.447262
siesta: Eso     =         0.000000
siesta: Edftu   =         0.000000
siesta: DEna    =      -290.822076
siesta: DUscf   =        29.978208
siesta: DUext   =         0.000000
siesta: Exc     =     -1735.725877
siesta: eta*DQ  =         0.000000
siesta: Emadel  =         0.000000
siesta: Emeta   =         0.000000
siesta: Emolmec =        -3.090377
siesta: Ekinion =         0.000000
siesta: Eharris =     -5478.703703
siesta: Etot    =     -5576.036943
siesta: FreeEng =     -5576.049231

        iscf     Eharris(eV)        E_KS(eV)     FreeEng(eV)     dDmax    Ef(eV) dHmax(eV)
   scf:    1    -5478.703703    -5576.036943    -5576.049231  1.807450 -7.877260  3.706525
timer: Routine,Calls,Time,% = IterSCF        1       9.099  70.44
   scf:    2    -5581.049588    -5578.609781    -5578.621717  0.073982 -7.301343  2.449123
   scf:    3    -5582.287800    -5580.757279    -5580.768759  0.130210 -6.211107  0.071083
   scf:    4    -5580.757239    -5580.757587    -5580.769078  0.003614 -6.252746  0.020680
   scf:    5    -5580.759228    -5580.758483    -5580.769971  0.003881 -6.257641  0.001917
   scf:    6    -5580.758482    -5580.758483    -5580.769971  0.000028 -6.257906  0.002115
   scf:    7    -5580.758486    -5580.758484    -5580.769973  0.000089 -6.257103  0.000087

SCF Convergence by FreeE+DM+H criterion
|FreeE_i-FreeE_(i-1)| (eV) <     0.00100000
max |DM_out - DM_in|         :     0.0000885629
max |H_out - H_in|      (eV) :     0.0000872008
SCF cycle converged after 7 iterations

Using DM_out to compute the final energy and forces
No. of atoms with KB's overlaping orbs in proc 0. Max # of overlaps:     228     526

MM-Stress (kbar):        5.11        5.11       19.22        0.00        0.00       -0.00

siesta: E_KS(eV) =            -5580.7585

siesta: E_KS - E_eggbox =     -5580.7585

siesta: Atomic forces (eV/Ang):
     1   -0.000076    0.000044    0.000000
     2    0.000076   -0.000044    0.000000
     3   -0.000024   -0.000000   -0.000000
     4    0.000024    0.000001    0.000000
     5   -0.000063    0.000111   -0.000000
     6    0.000063   -0.000111    0.000000
     7   -0.000140    0.000021    0.000000
     8    0.000140   -0.000022    0.000000
     9    0.000060   -0.000062    0.000000
    10   -0.000060    0.000062    0.000000
    11    0.000068   -0.000021    0.000000
    12   -0.000068    0.000022    0.000000
    13    0.000099   -0.000048    0.000000
    14   -0.000099    0.000049    0.000000
    15   -0.000076    0.000044   -0.000000
    16    0.000076   -0.000044    0.000000
    17   -0.000076    0.000044    0.000000
    18    0.000076   -0.000044    0.000000
    19    0.000085    0.000067    0.000000
    20   -0.000085   -0.000066    0.000000
    21   -0.000024   -0.000090    0.000000
    22    0.000024    0.000091   -0.000000
    23    0.000167   -0.000107    0.000000
    24   -0.000167    0.000107    0.000000
    25    0.000084    0.000052    0.000000
    26   -0.000084   -0.000053   -0.000000
    27   -0.000011   -0.000085    0.000000
    28    0.000011    0.000084    0.000000
    29    0.000155   -0.000099    0.000000
    30   -0.000155    0.000099    0.000000
    31    0.000084    0.000052    0.000000
    32   -0.000084   -0.000052    0.000000
    33   -0.000011   -0.000085    0.000000
    34    0.000011    0.000085    0.000000
    35    0.000155   -0.000099    0.000000
    36   -0.000155    0.000099    0.000000
----------------------------------------
   Tot   -0.000000   -0.000000    0.000000
----------------------------------------
   Max    0.000167
   Res    0.000068    sqrt( Sum f_i^2 / 3N )
----------------------------------------
   Max    0.000167    constrained

Stress tensor Voigt[x,y,z,yz,xz,xy] (kbar):     -118.16     -118.26       23.57       -0.00        0.00       -0.09
(Free)E + p*V (eV/cell)    -5563.7530
Target enthalpy (eV/cell)    -5580.7700

siesta: Eigenvalues (eV):
  ik is       eps
   1  1  -25.3148  -25.2674  -24.6663  -24.6663  -24.6200  -24.6200  -22.7589  -22.7589  -22.7180  -22.7180
         -21.5343  -21.4963  -20.9717  -20.9717  -20.9372  -20.9372  -20.1501  -20.1308  -19.1365  -19.1224
  -18.8827  -18.8827  -18.8518  -18.8518  -16.8418  -16.8273  -15.8116  -15.8116  -15.7922  -15.7922
  -15.2481  -15.2357  -14.5343  -14.5188  -13.7789  -13.7789  -13.7677  -13.7677  -13.5262  -13.2116
  -13.2116  -13.2069  -13.2069  -12.9035  -12.7666  -12.7666  -12.7601  -12.7601  -12.7559  -12.7559
  -12.1559  -12.1559  -11.3825  -11.3825  -11.3787  -11.3787  -11.0708  -11.0704  -10.5468  -10.5468
  -10.3994  -10.3958  -10.0346  -10.0346   -9.1837   -8.8603   -8.8603   -8.7454   -8.5596   -8.5596
   -8.1140   -7.9209   -4.8440   -4.7017   -4.3957   -4.3957   -4.1297   -4.1297   -3.5214   -3.3611
   -1.8976   -1.8976   -1.7277   -1.7277   -1.6218   -0.7265   -0.7265    1.8554    1.8554    1.9220
    1.9220    1.9500    1.9500    2.0341    2.0341    2.2895    2.3938    2.3938    2.4125    2.4569
    2.5960    2.5960    2.6629    2.6629    2.9703    2.9703    3.6094    3.6124    3.6268    3.6561
    3.7047    3.8516    4.0018    4.0018    4.1466    4.1466    4.3425    4.7327    4.7327    5.1710
    5.1710    5.1935    5.1935    5.3098    5.3098    5.4672    5.8815    6.1443    6.4257    6.4930
    6.6064    6.6553    6.6554    6.7178    6.7854    6.7854    6.9558    6.9558    7.0205    7.1745
    7.4663    7.4962    7.5745    7.5745    7.6677    7.9353    7.9353    8.2796    8.8085    8.8085
    8.9812    8.9812    9.0789    9.0789    9.9788    9.9788   10.2892   10.3901   10.3901   10.8093
   10.9347   10.9347   11.0847   11.5308   11.5308   11.6371   11.9721   12.8513   12.8513   12.8584
   12.8584   12.9082   13.2057   13.2057   13.4312   13.4313   13.5636   13.5636   13.7875   13.7925
   13.9828   13.9828   14.1304   14.1305   14.7690   14.9539   15.5541   16.6611   16.6992   16.6993
   17.0611   17.1101   17.1159   17.1159   17.3780   17.3780   17.5979   17.6555   17.7345   17.7345
   18.0131   18.3895   18.4682   18.4682   18.6644   18.6644   18.9597   19.0135   19.0135   19.2472
   19.7996   19.7996   20.0609   20.0609   20.4864   20.4864   20.5121   20.5121   20.6528   20.6528
   20.7653   20.7653   20.9604   20.9774   21.0913   21.0913   21.2509   21.6356   21.7638   21.7638
   21.8836   23.0128   23.0501   23.1579   23.3173   23.3173   23.4118   23.4118   23.5362   23.5362
   24.5308   24.5308   24.5770   24.5770   24.9703   25.1916   25.1916   25.3463   28.4151   28.4151
   30.1013   30.9042   31.0813   31.6672   31.6672   31.8285   32.0966   32.0966   32.2217   32.9760
   32.9760   33.2558   33.9042   33.9042   34.1281   34.1281   35.3629   35.3629   36.0423   36.0423
   36.5926   36.5926   36.8948   37.0413   37.3156   37.3156   37.4252   37.6577   37.6577   37.7353
   38.4126   38.4126   40.6703   40.7507   41.7591   41.8530   41.8530   42.1581   42.1581   42.1662
   42.1663   42.7041   42.7041   42.7503   42.8847   42.8847   43.2352   43.3052   43.3052   43.6153
   43.8550   43.8550   44.1694   44.1694   44.4390   44.6496   44.7429   44.7429   44.8747   45.0714
   45.2027   45.2328   45.4981   45.8550   45.8550   46.3399   46.3399   46.4403   46.4503   46.4968
   46.4968   46.7241   46.7241   47.4500   47.5791   48.3124   48.3124   48.8703   48.9583   48.9583
   49.0860   49.6084   49.6084   50.0173   52.1931   52.1932   52.3307   52.3307   52.5434   52.9248
   52.9248   52.9552   53.1769   53.1769   53.3055   53.3055   53.8449   53.8449   54.1731   54.1732
   54.6886   55.7896   56.0799   56.2046   56.2046   57.9267   57.9267   59.0543   59.3351   59.8328
   59.8328   59.8747   60.1858   60.4755   60.4755   60.7100   61.3215   61.6137   61.6138   61.6378
   61.6378   61.9698   61.9698   62.1015   62.2974   63.7746   63.8789   63.8789   65.4860   65.7893
   65.7893   66.4762   66.4763   66.5072   66.5072   69.2357   69.2357   69.4774   69.4774   69.5091
   69.5092   70.0282   71.8433   71.8433   72.6054   72.6183   73.5775   73.6694   73.6822   74.6019
   74.6019   75.5532   75.8330   79.2732   79.2733   80.1633   80.1634   81.7358   82.2569   82.2571
   83.6391   84.5281   84.5281   88.6985   88.6986   88.8730   88.8730   92.5353   93.7593   95.1021
   95.1023   96.5054   96.8030   97.1325   97.1325   98.3705   98.3706   99.0959   99.0960  100.5173
  100.5179  103.6637  104.6529  104.6619  104.7828  106.0267  106.7055  106.7056  107.9396  107.9398
  109.3566  109.3567  110.5244  110.5246  112.5186  112.5189  113.6796  113.6804  113.8428  113.8429
  114.0905  114.4206  114.4209  114.7777  115.4873  115.5384  116.6721  117.3432  117.3441  117.6591
  118.7994  118.7995  119.9851  119.9858  123.1019  123.8478  124.9872  128.0837
   2  1  -25.6377  -25.5929  -24.3439  -24.2984  -23.7039  -23.7039  -23.6605  -23.6604  -22.4475  -22.4475
         -22.4075  -22.4074  -21.8369  -21.7985  -20.1155  -20.1154  -20.0829  -20.0828  -18.2580  -18.2579
  -18.2344  -18.2343  -18.0464  -18.0140  -16.9490  -16.9488  -16.9197  -16.9196  -15.9552  -15.9550
  -15.9361  -15.9359  -14.8315  -14.8313  -14.8123  -14.8120  -13.9162  -13.7550  -13.7406  -13.2832
  -12.8869  -12.8865  -12.8829  -12.8826  -12.5714  -12.5701  -12.3776  -12.2586  -12.2583  -12.2551
  -12.2548  -11.7907  -11.6322  -11.6322  -11.3785  -11.3774  -11.0731  -11.0731  -10.2326  -10.2326
  -10.0480  -10.0454   -9.7497   -9.7497   -9.7357   -9.7316   -9.6397   -9.2232   -7.7510   -7.7510
   -7.4535   -7.4535   -5.0288   -5.0288   -4.8798   -4.8798   -3.6023   -3.2932   -2.6468   -2.6468
   -2.3756   -2.3756   -1.9241   -0.3747   -0.3747   -0.2587   -0.1930   -0.1930    0.7836    0.7836
    0.9632    1.1010    1.3046    1.3805    1.8527    1.9320    1.9605    2.0903    2.0988    2.0990
    2.1117    2.1619    2.1620    2.3864    2.3867    2.4814    2.4816    2.6984    2.7040    2.9573
    2.9574    3.3638    3.9279    3.9681    3.9681    4.6273    4.6426    5.2740    5.2740    5.7786
    5.7787    5.9463    5.9463    6.0604    6.1030    6.1030    6.4028    6.4029    6.7403    6.7627
    6.8251    6.8578    6.8578    7.1270    7.1403    7.2247    7.2248    7.2469    7.2472    7.4169
    7.4172    8.2441    8.5051    8.5190    8.5191    8.7681    8.7682    8.9662    9.0428    9.0428
    9.2196    9.6340    9.6342   10.0787   10.3991   10.3992   10.6942   10.6944   10.7119   10.7119
   10.7150   10.7153   10.8369   11.0972   11.0972   11.3219   11.3219   11.7973   11.9840   11.9845
   12.2796   12.2796   12.5736   12.5851   12.8343   12.9532   13.0254   13.0255   13.2242   13.2244
   14.2013   14.2013   14.4761   14.7944   14.7944   15.7424   15.7424   15.8516   15.8516   16.6763
   16.6763   16.8333   16.8338   16.9119   17.4395   17.4395   17.6561   17.6561   17.7803   17.7807
   17.8241   17.8243   18.3439   18.3440   18.4371   18.5255   18.7404   18.7404   18.9042   19.1498
   19.2820   19.3196   19.3631   19.3631   19.4637   19.4638   19.8183   19.8191   20.7673   20.8638
   20.8771   20.8771   21.0867   21.1696   21.1701   21.3878   21.5224   21.5224   21.8383   22.0557
   22.0557   22.5151   22.9270   22.9270   23.1108   23.1108   23.5221   23.5221   24.8909   25.0925
   25.3681   25.3794   25.3798   25.6903   25.8375   26.3222   26.3223   26.6020   27.9759   27.9876
   29.9248   29.9249   29.9584   30.1128   30.3285   30.3285   31.4262   32.1408   32.1411   32.1428
   32.1432   33.9474   33.9478   34.4568   34.4572   34.5259   35.3221   35.3222   37.1834   37.7815
   38.0129   38.0130   38.0507   38.3265   38.3265   38.6283   38.6295   38.8200   39.2617   39.2629
   39.6239   39.6718   40.4373   40.4373   40.6451   40.6462   40.9191   40.9203   41.1098   41.3291
   41.3291   41.4506   41.4861   41.6542   42.4370   42.5467   42.6362   42.7220   44.0057   44.1772
   44.2518   44.5239   44.5244   44.9504   45.0060   45.0065   45.0633   45.0633   45.6428   46.0239
   46.0635   46.1005   46.1006   46.1984   46.3395   46.8510   46.8511   46.8559   46.8559   47.4480
   47.4481   47.4765   47.4766   47.8419   47.9571   47.9572   48.4871   48.4872   49.6169   49.6170
   49.7364   50.2810   50.2811   51.1264   51.1267   51.3338   51.3346   51.3959   51.3961   52.0527
   52.0530   52.3584   52.3585   52.5205   52.9215   53.2872   54.1346   54.2038   54.3182   54.3200
   54.3594   54.9803   54.9805   55.6011   55.8696   57.3398   57.3398   57.5784   57.5787   58.4693
   58.4693   59.4277   59.6530   59.6532   59.6840   59.6842   60.2480   60.2481   61.1821   61.1821
   61.4996   62.6839   62.6840   62.7462   63.2943   63.3761   63.3770   65.0622   65.0636   65.7358
   65.7361   65.8001   65.8004   65.8855   66.0864   66.1606   66.8460   67.0027   67.8894   67.8903
   68.4877   70.0411   70.3545   70.3826   70.3827   70.5046   70.8592   71.5257   73.2639   73.2668
   73.9935   75.5714   76.3004   76.3005   76.3076   76.3077   76.6403   77.1291   78.9775   78.9781
   79.6318   79.6328   80.5650   89.7010   92.2333   93.1015   93.1038   93.5081   93.8264   93.8284
   95.6158   97.3042   97.3074   97.5753   99.5835   99.5864  102.8779  104.2668  104.2671  104.5264
  104.5266  105.3981  105.3990  106.4272  106.7339  106.7341  107.5653  107.5661  107.7015  107.7020
  108.9748  110.4758  110.4777  111.0901  111.0902  111.9658  112.2465  112.3679  112.3703  113.1838
  113.5472  113.5474  115.0000  117.0545  117.0569  118.4810  118.4833  119.7072  119.7087  120.6508
  122.6577  129.3069  130.8776  130.8788  135.4322  135.4345  138.1281  138.1296
   3  1  -25.6377  -25.5929  -24.3439  -24.2984  -23.7039  -23.7039  -23.6605  -23.6605  -22.4475  -22.4475
         -22.4075  -22.4075  -21.8369  -21.7984  -20.1154  -20.1154  -20.0828  -20.0828  -18.2580  -18.2580
  -18.2344  -18.2344  -18.0463  -18.0139  -16.9490  -16.9490  -16.9197  -16.9197  -15.9551  -15.9551
  -15.9359  -15.9359  -14.8315  -14.8315  -14.8123  -14.8123  -13.9162  -13.7548  -13.7404  -13.2832
  -12.8865  -12.8865  -12.8826  -12.8826  -12.5717  -12.5705  -12.3776  -12.2583  -12.2583  -12.2548
  -12.2548  -11.7907  -11.6322  -11.6322  -11.3788  -11.3778  -11.0731  -11.0731  -10.2326  -10.2326
  -10.0477  -10.0450   -9.7497   -9.7497   -9.7361   -9.7320   -9.6397   -9.2232   -7.7510   -7.7510
   -7.4535   -7.4535   -5.0288   -5.0288   -4.8798   -4.8798   -3.6023   -3.2932   -2.6468   -2.6468
   -2.3756   -2.3756   -1.9241   -0.3747   -0.3747   -0.2586   -0.1930   -0.1930    0.7836    0.7836
    0.9632    1.1010    1.3048    1.3807    1.8531    1.9323    1.9605    2.0908    2.0987    2.0987
    2.1122    2.1618    2.1618    2.3865    2.3865    2.4815    2.4815    2.6979    2.7034    2.9574
    2.9574    3.3638    3.9279    3.9681    3.9681    4.6273    4.6426    5.2740    5.2740    5.7787
    5.7787    5.9463    5.9463    6.0604    6.1030    6.1030    6.4030    6.4030    6.7403    6.7627
    6.8251    6.8578    6.8578    7.1263    7.1396    7.2245    7.2245    7.2473    7.2473    7.4173
    7.4173    8.2442    8.5054    8.5189    8.5189    8.7679    8.7679    8.9664    9.0428    9.0428
    9.2200    9.6340    9.6340   10.0787   10.3990   10.3990   10.6942   10.6942   10.7119   10.7119
   10.7153   10.7153   10.8372   11.0970   11.0970   11.3219   11.3219   11.7978   11.9848   11.9848
   12.2796   12.2796   12.5726   12.5840   12.8343   12.9532   13.0258   13.0258   13.2244   13.2244
   14.2013   14.2013   14.4761   14.7944   14.7944   15.7424   15.7424   15.8519   15.8519   16.6763
   16.6763   16.8333   16.8333   16.9126   17.4395   17.4395   17.6561   17.6561   17.7803   17.7803
   17.8240   17.8240   18.3440   18.3440   18.4371   18.5255   18.7404   18.7404   18.9045   19.1497
   19.2820   19.3203   19.3631   19.3631   19.4637   19.4637   19.8184   19.8184   20.7674   20.8638
   20.8771   20.8771   21.0868   21.1692   21.1692   21.3877   21.5224   21.5224   21.8390   22.0558
   22.0558   22.5152   22.9270   22.9270   23.1107   23.1107   23.5220   23.5220   24.8908   25.0924
   25.3682   25.3797   25.3797   25.6904   25.8374   26.3220   26.3220   26.6025   27.9766   27.9883
   29.9248   29.9248   29.9586   30.1127   30.3284   30.3284   31.4259   32.1409   32.1409   32.1427
   32.1427   33.9471   33.9472   34.4570   34.4570   34.5260   35.3221   35.3221   37.1834   37.7803
   38.0129   38.0129   38.0502   38.3265   38.3265   38.6293   38.6293   38.8200   39.2627   39.2627
   39.6240   39.6709   40.4373   40.4373   40.6464   40.6464   40.9204   40.9204   41.1100   41.3291
   41.3291   41.4507   41.4863   41.6527   42.4359   42.5465   42.6360   42.7218   44.0059   44.1776
   44.2526   44.5242   44.5243   44.9514   45.0063   45.0063   45.0633   45.0633   45.6411   46.0220
   46.0650   46.1005   46.1005   46.1987   46.3400   46.8508   46.8508   46.8559   46.8559   47.4479
   47.4479   47.4765   47.4765   47.8421   47.9570   47.9570   48.4869   48.4869   49.6169   49.6169
   49.7376   50.2810   50.2810   51.1266   51.1266   51.3343   51.3343   51.3959   51.3959   52.0528
   52.0528   52.3581   52.3581   52.5204   52.9218   53.2874   54.1348   54.2035   54.3182   54.3204
   54.3591   54.9802   54.9802   55.6025   55.8701   57.3399   57.3399   57.5784   57.5784   58.4692
   58.4692   59.4282   59.6533   59.6533   59.6843   59.6843   60.2482   60.2482   61.1822   61.1822
   61.4996   62.6836   62.6836   62.7444   63.2926   63.3766   63.3766   65.0636   65.0637   65.7361
   65.7361   65.8004   65.8004   65.8867   66.0860   66.1602   66.8467   67.0040   67.8912   67.8913
   68.4877   70.0381   70.3513   70.3841   70.3842   70.5015   70.8561   71.5289   73.2649   73.2649
   73.9956   75.5735   76.3005   76.3005   76.3076   76.3076   76.6408   77.1273   78.9785   78.9786
   79.6308   79.6309   80.5658   89.7033   92.2345   93.1011   93.1011   93.5064   93.8261   93.8261
   95.6181   97.3048   97.3049   97.5771   99.5838   99.5838  102.8747  104.2681  104.2682  104.5261
  104.5263  105.3998  105.4000  106.4291  106.7336  106.7338  107.5657  107.5657  107.7004  107.7004
  108.9758  110.4775  110.4779  111.0914  111.0916  111.9614  112.2470  112.3687  112.3693  113.1793
  113.5479  113.5480  115.0009  117.0569  117.0574  118.4847  118.4852  119.7074  119.7075  120.6511
  122.6537  129.3071  130.8783  130.8785  135.4328  135.4343  138.1288  138.1303
   4  1  -25.3148  -25.2674  -24.6663  -24.6663  -24.6200  -24.6200  -22.7589  -22.7589  -22.7180  -22.7180
         -21.5342  -21.4962  -20.9717  -20.9717  -20.9372  -20.9371  -20.1501  -20.1308  -19.1366  -19.1226
  -18.8827  -18.8826  -18.8518  -18.8517  -16.8418  -16.8273  -15.8118  -15.8118  -15.7923  -15.7923
  -15.2482  -15.2359  -14.5341  -14.5186  -13.7787  -13.7787  -13.7675  -13.7674  -13.5262  -13.2119
  -13.2116  -13.2072  -13.2069  -12.9035  -12.7667  -12.7664  -12.7602  -12.7599  -12.7559  -12.7559
  -12.1559  -12.1559  -11.3828  -11.3824  -11.3790  -11.3786  -11.0705  -11.0701  -10.5468  -10.5468
  -10.3997  -10.3961  -10.0346  -10.0345   -9.1837   -8.8603   -8.8603   -8.7454   -8.5596   -8.5596
   -8.1140   -7.9209   -4.8440   -4.7017   -4.3957   -4.3957   -4.1297   -4.1297   -3.5214   -3.3611
   -1.8977   -1.8976   -1.7278   -1.7277   -1.6218   -0.7265   -0.7265    1.8554    1.8554    1.9220
    1.9220    1.9500    1.9501    2.0341    2.0343    2.2895    2.3938    2.3938    2.4129    2.4572
    2.5960    2.5964    2.6629    2.6632    2.9703    2.9703    3.6089    3.6120    3.6268    3.6561
    3.7046    3.8515    4.0016    4.0017    4.1464    4.1466    4.3426    4.7327    4.7327    5.1706
    5.1711    5.1931    5.1936    5.3098    5.3099    5.4671    5.8814    6.1441    6.4256    6.4929
    6.6063    6.6554    6.6555    6.7178    6.7854    6.7854    6.9559    6.9561    7.0204    7.1745
    7.4664    7.4963    7.5744    7.5747    7.6677    7.9353    7.9353    8.2796    8.8085    8.8085
    8.9811    8.9812    9.0789    9.0790    9.9787    9.9788   10.2891   10.3901   10.3901   10.8096
   10.9346   10.9348   11.0845   11.5307   11.5310   11.6371   11.9721   12.8513   12.8516   12.8584
   12.8584   12.9082   13.2057   13.2057   13.4303   13.4312   13.5635   13.5637   13.7875   13.7929
   13.9828   13.9828   14.1299   14.1308   14.7691   14.9544   15.5541   16.6613   16.6992   16.6992
   17.0611   17.1103   17.1154   17.1154   17.3780   17.3787   17.5979   17.6555   17.7345   17.7345
   18.0127   18.3890   18.4680   18.4684   18.6643   18.6651   18.9600   19.0134   19.0135   19.2472
   19.7996   19.7996   20.0609   20.0609   20.4863   20.4864   20.5119   20.5124   20.6528   20.6528
   20.7648   20.7650   20.9604   20.9773   21.0914   21.0914   21.2512   21.6360   21.7633   21.7640
   21.8836   23.0127   23.0501   23.1579   23.3172   23.3174   23.4118   23.4118   23.5362   23.5362
   24.5310   24.5311   24.5769   24.5770   24.9703   25.1915   25.1916   25.3464   28.4151   28.4151
   30.1013   30.9042   31.0813   31.6671   31.6671   31.8285   32.0966   32.0971   32.2216   32.9760
   32.9761   33.2558   33.9040   33.9047   34.1278   34.1279   35.3629   35.3630   36.0424   36.0425
   36.5925   36.5925   36.8947   37.0414   37.3147   37.3154   37.4252   37.6577   37.6578   37.7353
   38.4116   38.4125   40.6701   40.7508   41.7592   41.8535   41.8539   42.1581   42.1581   42.1665
   42.1670   42.7028   42.7038   42.7505   42.8832   42.8845   43.2352   43.3052   43.3053   43.6151
   43.8555   43.8559   44.1701   44.1703   44.4388   44.6506   44.7428   44.7429   44.8742   45.0712
   45.2016   45.2324   45.4981   45.8548   45.8552   46.3399   46.3399   46.4402   46.4502   46.4968
   46.4968   46.7238   46.7244   47.4500   47.5787   48.3124   48.3124   48.8702   48.9582   48.9584
   49.0859   49.6084   49.6085   50.0173   52.1930   52.1932   52.3307   52.3308   52.5435   52.9247
   52.9249   52.9554   53.1769   53.1770   53.3055   53.3057   53.8454   53.8458   54.1731   54.1733
   54.6884   55.7895   56.0799   56.2048   56.2050   57.9267   57.9267   59.0546   59.3350   59.8324
   59.8326   59.8749   60.1858   60.4754   60.4758   60.7104   61.3220   61.6128   61.6136   61.6373
   61.6373   61.9687   61.9699   62.1014   62.2977   63.7744   63.8794   63.8797   65.4860   65.7894
   65.7900   66.4763   66.4764   66.5072   66.5074   69.2353   69.2375   69.4771   69.4774   69.5088
   69.5091   70.0257   71.8436   71.8436   72.6053   72.6182   73.5769   73.6696   73.6824   74.5987
   74.5999   75.5554   75.8358   79.2705   79.2727   80.1636   80.1637   81.7364   82.2574   82.2591
   83.6395   84.5274   84.5302   88.6990   88.7006   88.8723   88.8733   92.5357   93.7564   95.1023
   95.1038   96.5057   96.8029   97.1291   97.1304   98.3708   98.3734   99.0932   99.0937  100.5174
  100.5201  103.6623  104.6506  104.6631  104.7834  106.0243  106.7051  106.7057  107.9400  107.9402
  109.3563  109.3579  110.5249  110.5253  112.5156  112.5180  113.6812  113.6827  113.8427  113.8431
  114.0899  114.4171  114.4205  114.7772  115.4880  115.5390  116.6740  117.3423  117.3446  117.6618
  118.7991  118.7997  119.9872  119.9885  123.1013  123.8484  124.9883  128.0823
   5  1  -25.6377  -25.5929  -24.3439  -24.2984  -23.7039  -23.7039  -23.6605  -23.6604  -22.4475  -22.4475
         -22.4075  -22.4074  -21.8369  -21.7985  -20.1155  -20.1154  -20.0829  -20.0828  -18.2580  -18.2579
  -18.2344  -18.2343  -18.0464  -18.0140  -16.9490  -16.9488  -16.9197  -16.9196  -15.9552  -15.9550
  -15.9361  -15.9359  -14.8315  -14.8313  -14.8123  -14.8120  -13.9162  -13.7550  -13.7406  -13.2832
  -12.8869  -12.8865  -12.8829  -12.8826  -12.5714  -12.5701  -12.3776  -12.2586  -12.2583  -12.2551
  -12.2548  -11.7907  -11.6322  -11.6322  -11.3785  -11.3774  -11.0731  -11.0731  -10.2326  -10.2326
  -10.0480  -10.0454   -9.7497   -9.7497   -9.7357   -9.7316   -9.6397   -9.2232   -7.7510   -7.7510
   -7.4535   -7.4535   -5.0288   -5.0288   -4.8798   -4.8798   -3.6023   -3.2932   -2.6468   -2.6468
   -2.3756   -2.3756   -1.9241   -0.3747   -0.3747   -0.2587   -0.1930   -0.1930    0.7836    0.7836
    0.9632    1.1010    1.3046    1.3805    1.8527    1.9320    1.9605    2.0903    2.0988    2.0990
    2.1117    2.1619    2.1620    2.3864    2.3867    2.4814    2.4816    2.6984    2.7040    2.9573
    2.9574    3.3638    3.9279    3.9681    3.9681    4.6273    4.6426    5.2740    5.2740    5.7786
    5.7787    5.9463    5.9463    6.0604    6.1030    6.1030    6.4028    6.4029    6.7403    6.7627
    6.8251    6.8578    6.8578    7.1270    7.1403    7.2247    7.2248    7.2469    7.2472    7.4169
    7.4172    8.2441    8.5051    8.5190    8.5191    8.7681    8.7682    8.9662    9.0428    9.0428
    9.2196    9.6340    9.6342   10.0787   10.3991   10.3992   10.6942   10.6944   10.7119   10.7119
   10.7150   10.7153   10.8369   11.0972   11.0972   11.3219   11.3219   11.7973   11.9840   11.9845
   12.2796   12.2796   12.5736   12.5851   12.8343   12.9532   13.0254   13.0255   13.2242   13.2244
   14.2013   14.2013   14.4761   14.7944   14.7944   15.7424   15.7424   15.8516   15.8516   16.6763
   16.6763   16.8333   16.8338   16.9119   17.4395   17.4395   17.6561   17.6561   17.7803   17.7807
   17.8241   17.8243   18.3439   18.3440   18.4371   18.5255   18.7404   18.7404   18.9042   19.1498
   19.2820   19.3196   19.3631   19.3631   19.4637   19.4638   19.8183   19.8191   20.7673   20.8638
   20.8771   20.8771   21.0867   21.1696   21.1701   21.3878   21.5224   21.5224   21.8383   22.0557
   22.0557   22.5151   22.9270   22.9270   23.1108   23.1108   23.5221   23.5221   24.8909   25.0925
   25.3681   25.3794   25.3798   25.6903   25.8375   26.3222   26.3223   26.6020   27.9759   27.9876
   29.9248   29.9249   29.9584   30.1128   30.3285   30.3285   31.4262   32.1408   32.1411   32.1428
   32.1432   33.9474   33.9478   34.4568   34.4572   34.5259   35.3221   35.3222   37.1834   37.7815
   38.0129   38.0130   38.0507   38.3265   38.3265   38.6283   38.6295   38.8200   39.2617   39.2629
   39.6239   39.6718   40.4373   40.4373   40.6451   40.6463   40.9191   40.9203   41.1098   41.3291
   41.3291   41.4506   41.4861   41.6542   42.4370   42.5466   42.6362   42.7220   44.0056   44.1772
   44.2518   44.5240   44.5244   44.9505   45.0060   45.0065   45.0633   45.0633   45.6428   46.0239
   46.0636   46.1005   46.1006   46.1984   46.3395   46.8510   46.8511   46.8559   46.8559   47.4480
   47.4480   47.4765   47.4766   47.8419   47.9571   47.9572   48.4871   48.4872   49.6169   49.6170
   49.7364   50.2810   50.2811   51.1264   51.1267   51.3338   51.3346   51.3959   51.3961   52.0527
   52.0530   52.3584   52.3585   52.5205   52.9215   53.2872   54.1346   54.2038   54.3182   54.3200
   54.3594   54.9803   54.9805   55.6011   55.8696   57.3398   57.3398   57.5784   57.5787   58.4693
   58.4693   59.4277   59.6530   59.6532   59.6840   59.6842   60.2480   60.2481   61.1821   61.1822
   61.4996   62.6839   62.6840   62.7461   63.2942   63.3761   63.3770   65.0622   65.0637   65.7358
   65.7361   65.8001   65.8004   65.8855   66.0864   66.1606   66.8459   67.0027   67.8894   67.8903
   68.4877   70.0410   70.3545   70.3826   70.3828   70.5046   70.8592   71.5257   73.2640   73.2669
   73.9935   75.5714   76.3004   76.3005   76.3076   76.3077   76.6402   77.1287   78.9776   78.9781
   79.6319   79.6330   80.5651   89.7010   92.2333   93.1015   93.1038   93.5077   93.8264   93.8284
   95.6157   97.3043   97.3074   97.5752   99.5835   99.5864  102.8774  104.2667  104.2672  104.5265
  104.5267  105.3982  105.3994  106.4273  106.7340  106.7342  107.5653  107.5661  107.7014  107.7019
  108.9747  110.4756  110.4779  111.0904  111.0906  111.9653  112.2464  112.3676  112.3706  113.1834
  113.5471  113.5474  115.0000  117.0544  117.0573  118.4814  118.4842  119.7072  119.7088  120.6508
  122.6569  129.3069  130.8776  130.8789  135.4325  135.4340  138.1283  138.1294
   6  1  -25.7937  -25.7556  -23.2283  -23.2282  -23.2282  -23.2282  -23.2282  -23.2282  -23.1861  -23.1861
         -23.1861  -23.1861  -23.1861  -23.1861  -18.9067  -18.9067  -18.8882  -18.8882  -18.8882  -18.8882
  -18.8708  -18.8708  -16.8314  -16.8314  -16.8314  -16.8314  -15.9524  -15.9524  -15.9524  -15.9524
  -15.9522  -15.9522  -15.9261  -15.9261  -15.9261  -15.9261  -15.9259  -15.9259  -14.1121  -13.4743
  -12.1037  -12.1037  -12.1033  -12.1033  -12.1033  -12.1033  -12.1024  -12.1024  -12.1020  -12.1020
  -12.1020  -12.1020  -11.0972  -11.0972  -11.0972  -11.0972  -11.0972  -11.0972  -10.5650  -10.5650
  -10.5650  -10.5650  -10.5650  -10.5650   -9.4054   -9.4048   -9.3999   -9.3993   -6.4344   -6.4344
   -6.2580   -6.2580   -6.2580   -6.2580   -6.0712   -6.0712   -1.9104   -1.4396   -1.4396   -1.4396
   -1.4396   -1.4396   -1.4396   -1.1799   -1.1799   -1.1799   -1.1799   -1.1798   -1.1798    1.3690
    1.3690    1.3690    1.3690    1.3692    1.3692    1.5535    1.5535    1.5535    1.5535    1.5537
    1.5537    1.7958    1.8121    1.8121    1.8121    1.8121    1.8122    1.8122    1.9999    2.0006
    2.0044    2.0051    4.5532    4.5532    4.5532    4.5532    4.5532    4.5532    5.1673    5.1766
    5.9495    5.9495    5.9495    5.9495    6.4397    6.4519    6.6130    6.6130    6.6784    7.0664
    7.0664    7.0666    7.0666    8.1218    8.1218    9.2002    9.2002    9.2002    9.2002    9.2005
    9.2005    9.2471    9.2471    9.2474    9.2474    9.8457    9.8457    9.8457    9.8457    9.8459
    9.8459    9.9991    9.9991    9.9999    9.9999    9.9999   10.0000   10.0164   10.0164   10.0172
   10.0172   10.0173   10.0173   10.7445   10.7445   10.7445   10.7445   10.7450   10.7450   11.3978
   11.3978   12.1725   12.1725   12.1725   12.1725   12.1725   12.1725   12.5397   12.5397   12.7729
   14.8538   14.8538   14.8538   14.8538   15.5821   15.5821   15.5821   15.5821   15.5821   15.5821
   16.0909   16.0909   16.0909   16.0909   16.9540   16.9540   16.9540   16.9540   16.9545   16.9545
   18.1598   18.1598   18.5235   18.5235   18.5235   18.5235   19.3604   19.3604   19.3605   19.3605
   19.3605   19.3605   20.0004   20.0004   20.0005   20.0005   20.0005   20.0005   20.2058   20.2058
   20.2058   20.2058   20.2058   20.2058   20.5161   20.6363   20.7766   20.7766   20.7766   20.7766
   20.7773   20.7773   23.2208   23.2208   25.9443   25.9445   26.0062   26.0064   27.2615   27.2615
   27.2615   27.2615   27.2623   27.2623   27.4356   27.4356   27.4357   27.4357   27.4357   27.4357
   28.6677   28.6677   28.6677   28.6677   28.6682   28.6682   29.3698   29.3698   29.3698   29.3698
   34.2326   34.2326   34.2330   34.2330   34.2330   34.2330   35.8412   35.8412   35.8412   35.8412
   35.8413   35.8413   39.4413   39.4413   39.4426   39.4426   39.4426   39.4426   40.5751   40.5751
   40.5762   40.5762   40.5762   40.5762   40.5930   40.5932   40.6753   40.6755   40.8057   40.8057
   40.8057   40.8057   40.8058   40.8058   41.0012   41.0012   42.0855   42.0855   42.0855   42.0855
   44.9814   44.9814   45.2382   45.2382   45.2383   45.2383   45.2383   45.2383   45.3110   45.3110
   45.3111   45.3111   45.3116   45.3116   46.3720   46.3743   46.7311   46.7335   50.1985   50.1985
   50.1985   50.1985   50.1987   50.1987   50.6735   50.6740   51.0839   51.0839   51.1823   51.1823
   51.1823   51.1823   51.1830   51.1830   51.4591   51.4591   51.4591   51.4591   51.4593   51.4593
   51.8209   51.8209   51.8211   51.8211   52.3845   52.3845   54.1002   54.1002   54.1002   54.1002
   54.1007   54.1007   56.3711   56.5264   56.5271   57.9702   58.0717   58.0717   58.7198   58.7198
   58.7198   58.7198   59.4875   59.4876   60.9121   60.9121   60.9124   60.9124   60.9124   60.9125
   61.0425   61.0425   61.0428   61.0428   61.0428   61.0429   64.1680   64.9976   64.9977   64.9977
   64.9977   64.9986   64.9986   67.0052   67.0052   67.0075   67.0075   67.0075   67.0076   67.0169
   67.0169   67.0192   67.0193   67.0193   67.0194   69.2785   69.2814   69.3137   70.0795   70.0837
   71.8157   71.8183   75.8199   75.8199   75.8200   75.8200   75.8209   75.8210   77.0831   77.0844
   78.0469   78.0469   78.0469   78.0469   94.7894   94.7894   94.7895   94.7895   94.7918   94.7918
   96.7496   96.7497   96.7497   96.7497   96.7524   96.7524  105.3987  105.3988  105.3988  105.3988
  105.3992  105.3992  108.4717  108.4718  108.4718  108.4719  108.8341  108.8342  108.8375  108.8376
  108.8379  108.8381  111.2990  111.2990  111.2990  111.2991  111.2997  111.2999  116.1341  116.1341
  116.1377  116.1378  116.1382  116.1386  118.1032  118.1034  125.1554  125.4444  125.4445  125.4448
  125.4449  132.2441  141.0140  141.0143  162.9607  162.9609  162.9630  162.9632
   7  1  -25.1525  -25.1525  -25.1051  -25.1051  -23.8634  -23.8634  -23.8196  -23.8196  -21.3873  -21.3873
         -21.3872  -21.3872  -21.3499  -21.3499  -21.3499  -21.3499  -20.5695  -20.5496  -19.5378  -19.5219
  -17.7170  -17.7170  -17.7169  -17.7169  -17.6880  -17.6880  -17.6878  -17.6878  -14.3511  -14.3511
  -14.3509  -14.3509  -14.3369  -14.3369  -14.3366  -14.3366  -14.0889  -14.0889  -14.0817  -14.0817
  -13.3325  -13.3325  -12.7320  -12.7309  -12.7304  -12.7304  -12.7216  -12.7216  -12.7153  -12.7153
  -11.8131  -11.8131  -11.6689  -11.6689  -11.6653  -11.6653  -11.2454  -11.2454  -10.5122  -10.5122
  -10.5107  -10.5107   -9.0880   -9.0880   -9.0880   -9.0880   -8.7106   -8.6826   -8.6826   -8.6826
   -8.6826   -8.5130   -4.6546   -4.3940   -3.8356   -3.8356   -3.8356   -3.8356   -3.6136   -3.6136
   -3.6136   -3.6136   -1.4236   -1.4236    0.1058    0.1058    0.2130    0.2130    0.5628    0.5628
    1.2221    1.3041    2.0901    2.0901    2.1395    2.1395    2.4255    2.4255    3.1395    3.1395
    3.2210    3.2210    3.7164    3.7164    3.7741    3.7741    3.7846    3.7846    3.7847    3.7847
    3.8756    3.8756    3.9071    3.9071    3.9072    3.9072    4.5529    4.5530    4.5615    4.5616
    4.6547    4.6547    4.6548    4.6548    5.3374    5.3374    5.3670    5.3670    5.8753    5.8753
    5.8753    5.8754    6.1400    6.7276    7.3345    7.3345    7.5178    7.6948    7.6948    7.6954
    7.6954    7.6954    7.6954    7.7518    7.7518    8.3301    8.6759    8.6759    8.6759    8.6759
    8.8595    8.8595    9.0697    9.0697    9.0699    9.0699   10.9902   10.9902   10.9905   10.9905
   11.1501   11.1501   11.3092   11.3092   11.5267   12.0043   12.0479   12.0479   12.2047   12.2047
   12.2047   12.2047   12.9562   12.9562   13.0545   13.0546   13.0550   13.0550   13.7220   13.7238
   14.2874   15.1222   15.1222   15.1223   15.1223   16.2886   16.2886   16.2886   16.2886   16.8072
   16.8072   17.3141   17.3141   17.3146   17.3146   17.3889   17.4377   17.4377   17.4381   17.4381
   17.9531   18.1270   18.5038   18.6937   18.6937   18.8643   19.1058   19.1058   19.1062   19.1062
   19.1259   19.1259   19.1259   19.1259   19.2781   19.2781   19.7335   19.7335   21.1637   21.1637
   21.7513   21.7514   21.7849   21.7849   21.7850   21.7850   22.2792   22.2792   22.4134   22.4134
   22.4134   22.4134   22.4866   22.4866   22.8340   22.8340   23.2076   23.2076   23.2819   23.2819
   24.4649   24.4649   24.5322   24.5322   25.1675   25.4335   25.4335   27.7192   28.0038   28.0038
   28.3776   30.2220   31.5021   31.5021   31.5021   31.5021   31.6878   31.6878   32.6740   32.6740
   32.6740   32.6740   34.0810   34.0810   34.8182   34.8182   34.8331   34.8331   34.8906   36.3117
   36.3117   36.3117   36.3117   37.1326   37.2323   39.2013   39.2013   39.2014   39.2014   39.4536
   39.4537   39.4641   40.2586   40.2586   42.1042   42.1042   42.1048   42.1048   42.5563   42.5563
   42.7193   42.7193   42.8133   42.8133   42.8148   42.8148   42.8151   42.8151   42.9126   42.9126
   43.3642   43.3642   43.9139   43.9139   44.0118   44.0118   44.4147   44.4147   44.5334   44.5334
   44.6197   44.6197   45.2311   45.2311   45.4617   45.4617   45.8734   46.2012   47.6599   47.6599
   47.7931   47.7931   48.1406   48.1406   48.1406   48.1406   49.4535   49.4535   49.4536   49.4536
   49.5316   49.5316   49.7858   49.7858   49.7859   49.7859   50.5758   50.5758   50.5896   50.5896
   50.5899   50.5899   53.1348   53.1348   53.5082   54.4720   54.7038   55.1975   55.2872   55.2872
   56.4100   56.4100   56.4100   56.4100   57.0536   57.0537   57.0539   57.0539   58.2729   58.2729
   59.6723   59.6723   59.8769   59.8769   61.2319   61.2902   61.2902   61.2902   61.2902   61.5291
   61.9587   61.9588   62.2459   62.2459   63.3349   63.3349   63.3354   63.3354   63.5457   63.5457
   67.1677   67.1678   67.1855   67.1855   68.0702   68.0780   70.5771   70.8528   70.8528   71.2059
   71.2059   71.6838   71.6838   71.6840   71.6840   71.6993   71.6993   71.6995   71.6995   74.2091
   74.2091   78.3413   81.2113   81.2114   82.1736   82.1736   82.2487   82.2488   82.2490   82.2491
   86.7305   86.7306   88.8174   88.8174   88.9317   88.9318   89.6285   90.6834   90.6834   90.6836
   90.6837   90.9950   90.9950   92.2083   92.2083   96.3220  103.2298  103.2299  103.2329  103.2329
  103.6538  103.6539  103.8543  103.8543  103.8569  103.8569  107.8037  107.8039  109.4705  109.4706
  109.4709  109.4710  110.3899  111.3894  111.3897  112.0846  112.7586  112.7587  113.9967  114.1661
  114.1661  114.1685  114.1685  115.4972  115.4974  115.9814  115.9815  116.6202  116.6203  116.6222
  116.6222  116.7905  121.5462  121.5462  123.2591  123.2592  123.2610  123.2612
   8  1  -25.3148  -25.2674  -24.6663  -24.6663  -24.6200  -24.6200  -22.7589  -22.7589  -22.7180  -22.7180
         -21.5342  -21.4962  -20.9717  -20.9717  -20.9372  -20.9371  -20.1501  -20.1308  -19.1366  -19.1226
  -18.8827  -18.8826  -18.8518  -18.8517  -16.8418  -16.8273  -15.8118  -15.8118  -15.7923  -15.7923
  -15.2482  -15.2359  -14.5341  -14.5186  -13.7787  -13.7787  -13.7675  -13.7674  -13.5262  -13.2119
  -13.2116  -13.2072  -13.2069  -12.9035  -12.7667  -12.7664  -12.7602  -12.7599  -12.7559  -12.7559
  -12.1559  -12.1559  -11.3828  -11.3824  -11.3790  -11.3786  -11.0705  -11.0701  -10.5468  -10.5468
  -10.3997  -10.3961  -10.0346  -10.0345   -9.1837   -8.8603   -8.8603   -8.7454   -8.5596   -8.5596
   -8.1140   -7.9209   -4.8440   -4.7017   -4.3957   -4.3957   -4.1297   -4.1297   -3.5214   -3.3611
   -1.8977   -1.8976   -1.7278   -1.7277   -1.6218   -0.7265   -0.7265    1.8554    1.8554    1.9220
    1.9220    1.9500    1.9501    2.0341    2.0343    2.2895    2.3938    2.3938    2.4129    2.4572
    2.5960    2.5964    2.6629    2.6632    2.9703    2.9703    3.6089    3.6120    3.6268    3.6561
    3.7046    3.8515    4.0016    4.0017    4.1464    4.1466    4.3426    4.7327    4.7327    5.1706
    5.1711    5.1931    5.1936    5.3098    5.3099    5.4671    5.8814    6.1441    6.4256    6.4929
    6.6063    6.6554    6.6555    6.7178    6.7854    6.7854    6.9559    6.9561    7.0204    7.1745
    7.4664    7.4963    7.5744    7.5747    7.6677    7.9353    7.9353    8.2796    8.8085    8.8085
    8.9811    8.9812    9.0789    9.0790    9.9787    9.9788   10.2891   10.3901   10.3901   10.8096
   10.9346   10.9348   11.0845   11.5307   11.5310   11.6371   11.9721   12.8513   12.8516   12.8584
   12.8584   12.9082   13.2057   13.2057   13.4303   13.4312   13.5635   13.5637   13.7875   13.7929
   13.9828   13.9828   14.1299   14.1308   14.7691   14.9544   15.5541   16.6613   16.6992   16.6992
   17.0611   17.1103   17.1154   17.1154   17.3780   17.3787   17.5979   17.6555   17.7345   17.7345
   18.0127   18.3890   18.4680   18.4684   18.6643   18.6651   18.9600   19.0134   19.0135   19.2472
   19.7996   19.7996   20.0609   20.0609   20.4863   20.4864   20.5119   20.5124   20.6528   20.6528
   20.7648   20.7650   20.9604   20.9773   21.0914   21.0914   21.2512   21.6360   21.7633   21.7640
   21.8836   23.0127   23.0501   23.1579   23.3172   23.3174   23.4118   23.4118   23.5362   23.5362
   24.5310   24.5311   24.5769   24.5770   24.9703   25.1915   25.1916   25.3464   28.4151   28.4151
   30.1013   30.9042   31.0813   31.6671   31.6671   31.8285   32.0966   32.0971   32.2216   32.9760
   32.9761   33.2558   33.9040   33.9047   34.1278   34.1279   35.3629   35.3630   36.0424   36.0425
   36.5925   36.5925   36.8947   37.0414   37.3147   37.3154   37.4252   37.6577   37.6578   37.7353
   38.4116   38.4125   40.6701   40.7508   41.7592   41.8535   41.8539   42.1581   42.1581   42.1665
   42.1670   42.7028   42.7038   42.7505   42.8832   42.8845   43.2352   43.3052   43.3053   43.6151
   43.8555   43.8559   44.1701   44.1703   44.4388   44.6506   44.7428   44.7429   44.8742   45.0712
   45.2016   45.2324   45.4981   45.8548   45.8552   46.3399   46.3399   46.4402   46.4502   46.4968
   46.4968   46.7238   46.7244   47.4500   47.5787   48.3124   48.3124   48.8702   48.9582   48.9584
   49.0859   49.6084   49.6085   50.0173   52.1930   52.1932   52.3307   52.3308   52.5435   52.9247
   52.9249   52.9554   53.1769   53.1770   53.3055   53.3057   53.8454   53.8458   54.1731   54.1733
   54.6884   55.7895   56.0799   56.2048   56.2050   57.9267   57.9267   59.0546   59.3350   59.8324
   59.8326   59.8749   60.1858   60.4754   60.4758   60.7104   61.3220   61.6128   61.6136   61.6373
   61.6373   61.9687   61.9699   62.1014   62.2977   63.7744   63.8794   63.8797   65.4860   65.7894
   65.7900   66.4763   66.4764   66.5072   66.5074   69.2353   69.2375   69.4771   69.4774   69.5088
   69.5091   70.0257   71.8436   71.8436   72.6053   72.6182   73.5769   73.6696   73.6824   74.5987
   74.5999   75.5554   75.8358   79.2705   79.2727   80.1636   80.1637   81.7364   82.2574   82.2591
   83.6395   84.5274   84.5302   88.6990   88.7006   88.8723   88.8733   92.5357   93.7564   95.1023
   95.1038   96.5057   96.8029   97.1291   97.1304   98.3708   98.3734   99.0932   99.0937  100.5174
  100.5201  103.6623  104.6506  104.6631  104.7834  106.0243  106.7051  106.7057  107.9400  107.9402
  109.3563  109.3579  110.5249  110.5253  112.5156  112.5180  113.6812  113.6827  113.8427  113.8431
  114.0899  114.4171  114.4205  114.7772  115.4880  115.5390  116.6740  117.3423  117.3446  117.6618
  118.7991  118.7997  119.9872  119.9885  123.1013  123.8484  124.9883  128.0823
   9  1  -25.3148  -25.2674  -24.6663  -24.6663  -24.6200  -24.6200  -22.7589  -22.7589  -22.7180  -22.7180
         -21.5342  -21.4962  -20.9717  -20.9717  -20.9372  -20.9371  -20.1501  -20.1308  -19.1366  -19.1226
  -18.8827  -18.8826  -18.8518  -18.8517  -16.8418  -16.8273  -15.8118  -15.8118  -15.7923  -15.7923
  -15.2482  -15.2359  -14.5341  -14.5186  -13.7787  -13.7787  -13.7675  -13.7674  -13.5262  -13.2119
  -13.2116  -13.2072  -13.2069  -12.9035  -12.7667  -12.7664  -12.7602  -12.7599  -12.7559  -12.7559
  -12.1559  -12.1559  -11.3828  -11.3824  -11.3790  -11.3786  -11.0705  -11.0701  -10.5468  -10.5468
  -10.3997  -10.3961  -10.0346  -10.0345   -9.1837   -8.8603   -8.8603   -8.7454   -8.5596   -8.5596
   -8.1140   -7.9209   -4.8440   -4.7017   -4.3957   -4.3957   -4.1297   -4.1297   -3.5214   -3.3611
   -1.8977   -1.8976   -1.7278   -1.7277   -1.6218   -0.7265   -0.7265    1.8554    1.8554    1.9220
    1.9220    1.9500    1.9501    2.0341    2.0343    2.2895    2.3938    2.3938    2.4129    2.4572
    2.5960    2.5964    2.6629    2.6632    2.9703    2.9703    3.6089    3.6120    3.6268    3.6561
    3.7046    3.8515    4.0016    4.0017    4.1464    4.1466    4.3426    4.7327    4.7327    5.1706
    5.1711    5.1931    5.1936    5.3098    5.3099    5.4671    5.8814    6.1441    6.4256    6.4929
    6.6063    6.6554    6.6555    6.7178    6.7854    6.7854    6.9559    6.9561    7.0204    7.1745
    7.4664    7.4963    7.5744    7.5747    7.6677    7.9353    7.9353    8.2796    8.8085    8.8085
    8.9811    8.9812    9.0789    9.0790    9.9787    9.9788   10.2891   10.3901   10.3901   10.8096
   10.9346   10.9348   11.0845   11.5307   11.5310   11.6371   11.9721   12.8513   12.8516   12.8584
   12.8584   12.9082   13.2057   13.2057   13.4303   13.4312   13.5635   13.5637   13.7875   13.7929
   13.9828   13.9828   14.1299   14.1308   14.7691   14.9544   15.5541   16.6613   16.6992   16.6992
   17.0611   17.1103   17.1154   17.1154   17.3780   17.3787   17.5979   17.6555   17.7345   17.7345
   18.0127   18.3890   18.4680   18.4684   18.6643   18.6651   18.9600   19.0134   19.0135   19.2472
   19.7996   19.7996   20.0609   20.0609   20.4863   20.4864   20.5119   20.5124   20.6528   20.6528
   20.7648   20.7650   20.9604   20.9773   21.0914   21.0914   21.2512   21.6360   21.7633   21.7640
   21.8836   23.0127   23.0501   23.1579   23.3172   23.3174   23.4118   23.4118   23.5362   23.5362
   24.5310   24.5311   24.5769   24.5770   24.9703   25.1915   25.1916   25.3464   28.4151   28.4151
   30.1013   30.9042   31.0813   31.6671   31.6671   31.8285   32.0966   32.0971   32.2216   32.9760
   32.9761   33.2558   33.9040   33.9047   34.1278   34.1279   35.3629   35.3630   36.0424   36.0425
   36.5925   36.5925   36.8947   37.0414   37.3147   37.3154   37.4252   37.6577   37.6578   37.7353
   38.4116   38.4125   40.6701   40.7508   41.7592   41.8535   41.8539   42.1581   42.1581   42.1665
   42.1670   42.7028   42.7038   42.7505   42.8832   42.8845   43.2352   43.3052   43.3053   43.6151
   43.8555   43.8559   44.1701   44.1703   44.4388   44.6506   44.7428   44.7429   44.8742   45.0712
   45.2016   45.2324   45.4981   45.8548   45.8552   46.3399   46.3399   46.4402   46.4502   46.4968
   46.4968   46.7238   46.7244   47.4500   47.5787   48.3124   48.3124   48.8702   48.9582   48.9584
   49.0859   49.6084   49.6085   50.0173   52.1930   52.1932   52.3307   52.3308   52.5435   52.9247
   52.9249   52.9554   53.1769   53.1770   53.3055   53.3057   53.8454   53.8458   54.1731   54.1733
   54.6884   55.7895   56.0799   56.2048   56.2050   57.9267   57.9267   59.0546   59.3350   59.8324
   59.8326   59.8749   60.1858   60.4754   60.4757   60.7104   61.3220   61.6128   61.6137   61.6373
   61.6373   61.9687   61.9700   62.1014   62.2978   63.7744   63.8794   63.8797   65.4860   65.7894
   65.7900   66.4763   66.4764   66.5072   66.5074   69.2354   69.2376   69.4771   69.4774   69.5088
   69.5091   70.0256   71.8436   71.8437   72.6053   72.6182   73.5770   73.6696   73.6824   74.5986
   74.5999   75.5554   75.8358   79.2705   79.2726   80.1637   80.1637   81.7363   82.2574   82.2589
   83.6394   84.5274   84.5302   88.6990   88.7005   88.8723   88.8733   92.5356   93.7570   95.1025
   95.1038   96.5058   96.8030   97.1291   97.1303   98.3709   98.3734   99.0932   99.0937  100.5170
  100.5202  103.6621  104.6505  104.6630  104.7834  106.0248  106.7050  106.7056  107.9398  107.9401
  109.3562  109.3579  110.5249  110.5251  112.5157  112.5184  113.6802  113.6825  113.8428  113.8430
  114.0899  114.4172  114.4209  114.7771  115.4880  115.5392  116.6734  117.3416  117.3449  117.6613
  118.7990  118.7998  119.9862  119.9882  123.1026  123.8485  124.9882  128.0834
  10  1  -25.1525  -25.1525  -25.1051  -25.1051  -23.8634  -23.8634  -23.8196  -23.8196  -21.3873  -21.3873
         -21.3872  -21.3872  -21.3499  -21.3499  -21.3499  -21.3499  -20.5695  -20.5496  -19.5378  -19.5219
  -17.7170  -17.7170  -17.7169  -17.7169  -17.6880  -17.6880  -17.6878  -17.6878  -14.3511  -14.3511
  -14.3509  -14.3509  -14.3369  -14.3369  -14.3366  -14.3366  -14.0889  -14.0889  -14.0817  -14.0817
  -13.3325  -13.3325  -12.7320  -12.7309  -12.7304  -12.7304  -12.7216  -12.7216  -12.7153  -12.7153
  -11.8131  -11.8131  -11.6689  -11.6689  -11.6653  -11.6653  -11.2454  -11.2454  -10.5122  -10.5122
  -10.5107  -10.5107   -9.0880   -9.0880   -9.0880   -9.0880   -8.7106   -8.6826   -8.6826   -8.6826
   -8.6826   -8.5130   -4.6546   -4.3940   -3.8356   -3.8356   -3.8356   -3.8356   -3.6136   -3.6136
   -3.6136   -3.6136   -1.4236   -1.4236    0.1058    0.1058    0.2130    0.2130    0.5628    0.5628
    1.2221    1.3041    2.0901    2.0901    2.1395    2.1395    2.4255    2.4255    3.1395    3.1395
    3.2210    3.2210    3.7164    3.7164    3.7741    3.7741    3.7846    3.7846    3.7846    3.7847
    3.8756    3.8756    3.9071    3.9071    3.9072    3.9072    4.5529    4.5530    4.5615    4.5616
    4.6547    4.6547    4.6548    4.6548    5.3374    5.3374    5.3670    5.3670    5.8753    5.8753
    5.8753    5.8753    6.1400    6.7276    7.3345    7.3345    7.5178    7.6948    7.6948    7.6954
    7.6954    7.6954    7.6954    7.7518    7.7518    8.3301    8.6759    8.6759    8.6759    8.6759
    8.8595    8.8595    9.0697    9.0697    9.0699    9.0699   10.9902   10.9902   10.9905   10.9905
   11.1501   11.1501   11.3092   11.3092   11.5267   12.0043   12.0479   12.0479   12.2047   12.2047
   12.2047   12.2047   12.9562   12.9562   13.0545   13.0545   13.0550   13.0550   13.7220   13.7238
   14.2874   15.1222   15.1222   15.1223   15.1224   16.2886   16.2886   16.2886   16.2886   16.8072
   16.8072   17.3141   17.3141   17.3146   17.3146   17.3889   17.4377   17.4377   17.4381   17.4381
   17.9531   18.1270   18.5038   18.6937   18.6937   18.8643   19.1058   19.1058   19.1062   19.1062
   19.1259   19.1259   19.1259   19.1259   19.2781   19.2781   19.7335   19.7335   21.1637   21.1637
   21.7513   21.7514   21.7849   21.7849   21.7850   21.7850   22.2792   22.2792   22.4134   22.4134
   22.4134   22.4134   22.4866   22.4866   22.8340   22.8340   23.2076   23.2076   23.2819   23.2819
   24.4649   24.4649   24.5322   24.5322   25.1674   25.4335   25.4335   27.7192   28.0038   28.0038
   28.3776   30.2220   31.5021   31.5021   31.5021   31.5021   31.6878   31.6878   32.6740   32.6740
   32.6740   32.6740   34.0810   34.0810   34.8182   34.8182   34.8331   34.8331   34.8906   36.3117
   36.3117   36.3117   36.3117   37.1326   37.2323   39.2013   39.2013   39.2014   39.2014   39.4536
   39.4537   39.4641   40.2586   40.2586   42.1042   42.1042   42.1048   42.1048   42.5562   42.5562
   42.7193   42.7193   42.8133   42.8133   42.8148   42.8148   42.8151   42.8151   42.9126   42.9126
   43.3642   43.3642   43.9139   43.9139   44.0118   44.0118   44.4147   44.4147   44.5334   44.5334
   44.6197   44.6197   45.2311   45.2311   45.4617   45.4617   45.8734   46.2013   47.6599   47.6599
   47.7931   47.7931   48.1406   48.1406   48.1406   48.1406   49.4535   49.4535   49.4536   49.4536
   49.5316   49.5316   49.7857   49.7858   49.7859   49.7859   50.5758   50.5758   50.5896   50.5896
   50.5899   50.5899   53.1348   53.1348   53.5082   54.4720   54.7038   55.1975   55.2872   55.2872
   56.4100   56.4100   56.4100   56.4100   57.0537   57.0537   57.0539   57.0539   58.2729   58.2729
   59.6723   59.6723   59.8769   59.8769   61.2320   61.2902   61.2902   61.2902   61.2902   61.5292
   61.9587   61.9587   62.2459   62.2459   63.3349   63.3349   63.3354   63.3354   63.5457   63.5458
   67.1678   67.1678   67.1855   67.1856   68.0702   68.0780   70.5771   70.8528   70.8529   71.2059
   71.2059   71.6838   71.6838   71.6840   71.6840   71.6993   71.6993   71.6995   71.6995   74.2091
   74.2091   78.3414   81.2113   81.2113   82.1736   82.1736   82.2488   82.2489   82.2490   82.2491
   86.7305   86.7305   88.8174   88.8174   88.9316   88.9316   89.6287   90.6835   90.6835   90.6836
   90.6836   90.9949   90.9950   92.2088   92.2088   96.3222  103.2298  103.2298  103.2329  103.2330
  103.6536  103.6536  103.8543  103.8543  103.8570  103.8570  107.8036  107.8036  109.4705  109.4705
  109.4708  109.4708  110.3898  111.3887  111.3889  112.0850  112.7587  112.7587  113.9971  114.1663
  114.1665  114.1683  114.1684  115.4962  115.4965  115.9821  115.9822  116.6206  116.6209  116.6217
  116.6219  116.7905  121.5462  121.5463  123.2592  123.2593  123.2608  123.2609
  11  1  -25.3148  -25.2674  -24.6663  -24.6663  -24.6200  -24.6200  -22.7589  -22.7589  -22.7180  -22.7180
         -21.5342  -21.4962  -20.9717  -20.9717  -20.9372  -20.9371  -20.1501  -20.1308  -19.1366  -19.1226
  -18.8827  -18.8826  -18.8518  -18.8517  -16.8418  -16.8273  -15.8118  -15.8118  -15.7923  -15.7923
  -15.2482  -15.2359  -14.5341  -14.5186  -13.7787  -13.7787  -13.7675  -13.7674  -13.5262  -13.2119
  -13.2116  -13.2072  -13.2069  -12.9035  -12.7667  -12.7664  -12.7602  -12.7599  -12.7559  -12.7559
  -12.1559  -12.1559  -11.3828  -11.3824  -11.3790  -11.3786  -11.0705  -11.0701  -10.5468  -10.5468
  -10.3997  -10.3961  -10.0346  -10.0345   -9.1837   -8.8603   -8.8603   -8.7454   -8.5596   -8.5596
   -8.1140   -7.9209   -4.8440   -4.7017   -4.3957   -4.3957   -4.1297   -4.1297   -3.5214   -3.3611
   -1.8977   -1.8976   -1.7278   -1.7277   -1.6218   -0.7265   -0.7265    1.8554    1.8554    1.9220
    1.9220    1.9500    1.9501    2.0341    2.0343    2.2895    2.3938    2.3938    2.4129    2.4572
    2.5960    2.5964    2.6629    2.6632    2.9703    2.9703    3.6089    3.6120    3.6268    3.6561
    3.7046    3.8515    4.0016    4.0017    4.1464    4.1466    4.3426    4.7327    4.7327    5.1706
    5.1711    5.1931    5.1936    5.3098    5.3099    5.4671    5.8814    6.1441    6.4256    6.4929
    6.6063    6.6554    6.6555    6.7178    6.7854    6.7854    6.9559    6.9561    7.0204    7.1745
    7.4664    7.4963    7.5744    7.5747    7.6677    7.9353    7.9353    8.2796    8.8085    8.8085
    8.9811    8.9812    9.0789    9.0790    9.9787    9.9788   10.2891   10.3901   10.3901   10.8096
   10.9346   10.9348   11.0845   11.5307   11.5310   11.6371   11.9721   12.8513   12.8516   12.8584
   12.8584   12.9082   13.2057   13.2057   13.4303   13.4312   13.5635   13.5637   13.7875   13.7929
   13.9828   13.9828   14.1299   14.1308   14.7691   14.9544   15.5541   16.6613   16.6992   16.6992
   17.0611   17.1103   17.1154   17.1154   17.3780   17.3787   17.5979   17.6555   17.7345   17.7345
   18.0127   18.3890   18.4680   18.4684   18.6643   18.6651   18.9600   19.0134   19.0135   19.2472
   19.7996   19.7996   20.0609   20.0609   20.4863   20.4864   20.5119   20.5124   20.6528   20.6528
   20.7648   20.7650   20.9604   20.9773   21.0914   21.0914   21.2512   21.6360   21.7633   21.7640
   21.8836   23.0127   23.0501   23.1579   23.3172   23.3174   23.4118   23.4118   23.5362   23.5362
   24.5310   24.5311   24.5769   24.5770   24.9703   25.1915   25.1916   25.3464   28.4151   28.4151
   30.1013   30.9042   31.0813   31.6671   31.6671   31.8285   32.0966   32.0971   32.2216   32.9760
   32.9761   33.2558   33.9040   33.9047   34.1278   34.1279   35.3629   35.3630   36.0424   36.0425
   36.5925   36.5925   36.8947   37.0414   37.3147   37.3154   37.4252   37.6577   37.6578   37.7353
   38.4116   38.4125   40.6701   40.7508   41.7592   41.8535   41.8539   42.1581   42.1581   42.1665
   42.1670   42.7028   42.7038   42.7505   42.8832   42.8845   43.2352   43.3052   43.3053   43.6151
   43.8555   43.8559   44.1701   44.1703   44.4388   44.6506   44.7428   44.7429   44.8742   45.0712
   45.2016   45.2324   45.4981   45.8548   45.8552   46.3399   46.3399   46.4402   46.4502   46.4968
   46.4968   46.7238   46.7244   47.4500   47.5787   48.3124   48.3124   48.8702   48.9582   48.9584
   49.0859   49.6084   49.6085   50.0173   52.1930   52.1932   52.3307   52.3308   52.5435   52.9247
[...]
    5.1837    5.1837    5.1842    5.1842    5.9184    5.9184    5.9185    5.9185    6.1462    6.1462
    6.3116    6.3116    6.4552    6.4552    6.8141    6.8141    6.8143    6.8143    7.4818    7.4818
    7.7581    7.7581    8.1722    8.1722    8.1724    8.1724    9.0250    9.0250    9.0252    9.0252
    9.2353    9.2353    9.9512    9.9512   10.1688   10.1688   10.4952   10.4952   10.4953   10.4953
   10.5860   10.5860   10.5861   10.5861   11.2599   11.2599   11.2600   11.2600   13.1451   13.1451
   13.1453   13.1453   13.2285   13.2285   13.4910   13.4910   13.4916   13.4916   13.9335   13.9335
   15.3735   15.3735   15.3735   15.3735   15.4693   15.4693   15.4693   15.4693   15.5432   15.5432
   15.7184   15.7184   15.9907   15.9907   17.1690   17.1690   17.3780   17.3780   17.3781   17.3781
   17.6667   17.6667   17.6670   17.6670   18.5125   18.5125   18.5935   18.5935   19.4285   19.4285
   19.4288   19.4288   19.8493   19.8493   19.8494   19.8494   20.4607   20.4607   20.4608   20.4608
   21.0030   21.0030   21.2606   21.2606   21.2611   21.2611   21.5024   21.5024   21.9770   21.9770
   22.8955   22.8955   23.3140   23.3140   23.3140   23.3140   23.3705   23.3705   23.3706   23.3706
   23.6745   23.6745   23.6747   23.6747   24.9871   24.9871   27.6209   27.6209   27.6210   27.6210
   31.8772   31.8772   32.0661   32.0661   32.6706   32.6706   32.6707   32.6707   32.6839   32.6839
   32.6843   32.6843   33.2613   33.2613   33.3592   33.3592   33.3592   33.3592   35.9170   35.9170
   35.9173   35.9173   36.9055   36.9055   37.5070   37.5070   37.9418   37.9418   37.9426   37.9426
   39.5085   39.5085   40.4816   40.4816   40.4817   40.4817   42.2239   42.2239   42.2244   42.2244
   42.6289   42.6289   42.6298   42.6298   43.1179   43.1179   43.5610   43.5610   43.5612   43.5612
   43.7242   43.7242   44.3801   44.3801   44.5840   44.5840   44.5844   44.5844   44.9066   44.9066
   44.9955   44.9955   45.4664   45.4664   45.6363   45.6363   45.6365   45.6365   46.4737   46.4737
   48.0623   48.0623   48.0624   48.0624   49.0841   49.0841   49.5656   49.5656   49.5659   49.5659
   49.9849   49.9849   51.0832   51.0832   51.0832   51.0832   52.0881   52.0881   52.0882   52.0882
   52.5408   52.5408   53.3978   53.3978   53.3979   53.3979   53.9950   53.9950   53.9952   53.9952
   55.1652   55.1652   59.5776   59.5776   59.6743   59.6743   59.9073   59.9073   59.9076   59.9076
   60.7983   60.7983   60.7985   60.7985   61.2466   61.2466   61.6719   61.6719   61.9384   61.9384
   61.9395   61.9396   62.1126   62.1126   63.3798   63.3798   63.3804   63.3804   66.5076   66.5076
   66.5077   66.5077   66.5174   66.5174   66.5185   66.5185   67.8892   67.8892   69.4866   69.4866
   69.4869   69.4869   72.6141   72.6141   73.6735   73.6735   75.6748   75.6748   77.5465   77.5465
   77.5472   77.5472   77.6586   77.6586   80.3970   80.3970   80.3971   80.3971   87.1846   87.1846
   87.1867   87.1867   89.8124   89.8124   89.8145   89.8146   91.2324   91.2324   97.1733   97.1734
   97.1755   97.1755   97.8702   97.8703   98.7889   98.7889   98.7893   98.7893  100.6301  100.6301
  104.4421  104.4421  104.4662  104.4662  106.7304  106.7305  106.7335  106.7335  107.4208  107.4208
  107.4213  107.4213  112.3472  112.3473  112.3474  112.3474  112.3897  112.3898  112.3913  112.3914
  113.9715  113.9715  115.1361  115.1362  115.1387  115.1388  116.2670  116.2670  116.2684  116.2685
  116.8899  116.8900  118.8665  118.8665  121.2548  121.2548  123.5869  123.5869
  42  1  -25.1287  -25.1287  -25.1287  -25.1287  -23.8414  -23.8414  -23.8414  -23.8414  -21.3686  -21.3686
         -21.3686  -21.3686  -21.3685  -21.3685  -21.3685  -21.3685  -20.5595  -20.5595  -19.5303  -19.5303
  -17.7027  -17.7027  -17.7027  -17.7027  -17.7026  -17.7026  -17.7026  -17.7026  -14.3440  -14.3440
  -14.3440  -14.3440  -14.3438  -14.3438  -14.3438  -14.3438  -14.0851  -14.0851  -14.0851  -14.0851
  -13.0383  -13.0383  -13.0383  -13.0383  -12.7315  -12.7315  -12.7262  -12.7262  -12.7262  -12.7262
  -11.6671  -11.6671  -11.6671  -11.6671  -11.5407  -11.5407  -11.5407  -11.5407  -10.5114  -10.5114
  -10.5113  -10.5113   -8.8894   -8.8894   -8.8894   -8.8894   -8.8894   -8.8894   -8.8894   -8.8894
   -8.6072   -8.6072   -4.5486   -4.5486   -3.7314   -3.7314   -3.7314   -3.7314   -3.7314   -3.7314
   -3.7314   -3.7314    0.1568    0.1568    0.1568    0.1568    0.1780    0.1780    0.1780    0.1780
    1.2630    1.2630    1.9603    1.9603    1.9603    1.9603    2.1317    2.1317    2.1317    2.1317
    3.1649    3.1649    3.1649    3.1649    3.8484    3.8484    3.8484    3.8485    3.8485    3.8485
    3.8485    3.8485    3.8580    3.8580    3.8580    3.8580    4.5578    4.5578    4.5578    4.5578
    5.1770    5.1770    5.1770    5.1770    5.1770    5.1770    5.1770    5.1770    5.3512    5.3512
    5.3512    5.3512    6.6200    6.6200    7.4966    7.4966    7.7071    7.7071    7.7071    7.7071
    8.1920    8.1920    8.1920    8.1920    8.1921    8.1921    8.1921    8.1921    9.7952    9.7952
    9.7952    9.7952    9.7952    9.7952    9.7952    9.7952   10.2932   10.2932   10.2932   10.2932
   10.8011   10.8011   10.8011   10.8011   11.2419   11.2419   11.2420   11.2420   12.1341   12.1341
   13.2904   13.2904   13.2904   13.2904   13.2906   13.2906   13.2906   13.2906   13.7229   13.7229
   15.2191   15.2191   15.6833   15.6833   15.6833   15.6833   15.6833   15.6833   15.6833   15.6833
   16.8264   16.8264   16.8264   16.8264   16.8267   16.8267   16.8267   16.8267   17.0967   17.0967
   17.0967   17.0967   18.4213   18.4213   18.5205   18.5205   19.0763   19.0763   19.0763   19.0763
   19.0765   19.0765   19.0765   19.0765   19.4864   19.4864   19.4864   19.4864   21.4777   21.4777
   21.4777   21.4777   21.7641   21.7641   21.7641   21.7641   21.7642   21.7642   21.7642   21.7642
   22.3048   22.3048   22.3048   22.3048   22.9844   22.9844   22.9844   22.9844   23.4719   23.4719
   23.4719   23.4719   24.8937   24.8937   24.8937   24.8937   27.8928   27.8928   28.7440   28.7440
   31.0565   31.0565   31.0566   31.0566   32.2218   32.2218   32.2218   32.2218   32.2218   32.2218
   32.2218   32.2218   32.4594   32.4594   32.4594   32.4594   33.9158   33.9158   37.9612   37.9612
   38.2173   38.2173   38.2173   38.2173   38.2173   38.2173   38.2173   38.2173   39.4274   39.4274
   39.4274   39.4274   41.1667   41.1667   41.1668   41.1668   42.4471   42.4471   42.4472   42.4472
   42.6821   42.6821   42.6822   42.6822   42.6824   42.6824   42.6824   42.6824   43.3870   43.3870
   43.3870   43.3870   44.2084   44.2084   44.2084   44.2084   44.5537   44.5537   44.5537   44.5537
   44.7308   44.7308   44.7308   44.7308   46.9160   46.9160   47.1307   47.1307   47.1307   47.1307
   47.7424   47.7424   47.7424   47.7424   48.0943   48.0943   48.0943   48.0943   48.0943   48.0943
   48.0943   48.0943   50.7831   50.7831   50.7831   50.7831   50.7833   50.7833   50.7833   50.7833
   53.2257   53.2258   53.2258   53.2258   53.6586   53.6586   54.5495   54.5495   56.9782   56.9782
   56.9782   56.9782   56.9784   56.9784   56.9784   56.9784   59.7257   59.7257   59.7257   59.7257
   61.1294   61.1294   61.1294   61.1295   61.3806   61.3806   62.0689   62.0689   62.0689   62.0689
   62.5983   62.5983   62.5983   62.5983   62.5986   62.5986   62.5987   62.5987   63.4886   63.4886
   63.4886   63.4886   68.0741   68.0741   70.6893   70.6894   70.6894   70.6894   71.0435   71.0435
   71.0435   71.0435   71.6871   71.6871   71.6871   71.6871   71.6873   71.6873   71.6873   71.6873
   78.2606   78.2606   84.8003   84.8003   84.8003   84.8003   88.5385   88.5385   88.5386   88.5386
   89.3949   89.3949   89.3950   89.3950   90.7600   90.7600   90.7600   90.7600   90.7602   90.7602
   90.7603   90.7603   94.2504   94.2505  102.2980  102.2980  102.2981  102.2981  103.4877  103.4877
  103.4878  103.4878  103.4906  103.4906  103.4906  103.4906  106.9172  106.9172  106.9172  106.9172
  111.7250  111.7251  111.7254  111.7256  113.0217  113.0218  113.3478  113.3478  113.3479  113.3479
  113.3482  113.3482  113.3483  113.3484  115.1266  115.1267  116.4156  116.4156  116.4157  116.4157
  117.6286  117.6287  117.6288  117.6288  117.6311  117.6311  117.6312  117.6313
  43  1  -25.2910  -25.2910  -24.6431  -24.6431  -24.6431  -24.6431  -22.7384  -22.7384  -22.7384  -22.7384
         -21.5152  -21.5152  -20.9545  -20.9545  -20.9544  -20.9544  -20.1404  -20.1404  -19.1299  -19.1299
  -18.8675  -18.8675  -18.8674  -18.8674  -16.8345  -16.8345  -15.8021  -15.8021  -15.8021  -15.8021
  -15.2424  -15.2424  -14.5263  -14.5263  -13.7734  -13.7734  -13.7733  -13.7733  -13.2296  -13.2296
  -13.2095  -13.2095  -13.2092  -13.2092  -12.7633  -12.7633  -12.7631  -12.7631  -12.4692  -12.4692
  -12.4692  -12.4692  -11.3809  -11.3809  -11.3805  -11.3805  -11.0704  -11.0704  -10.3979  -10.3979
  -10.2993  -10.2993  -10.2993  -10.2993   -8.9703   -8.9703   -8.7092   -8.7092   -8.7092   -8.7092
   -8.0127   -8.0127   -4.7888   -4.7888   -4.2810   -4.2810   -4.2810   -4.2810   -3.4414   -3.4413
   -1.8149   -1.8149   -1.8149   -1.8149   -0.0087   -0.0087    0.8218    0.8218    0.8218    0.8218
    1.9045    1.9045    1.9045    1.9045    1.9918    1.9918    1.9920    1.9920    2.4472    2.4472
    2.6553    2.6553    2.6556    2.6556    3.4203    3.4203    3.4203    3.4203    3.6106    3.6106
    3.6407    3.6407    3.7751    3.7751    4.1356    4.1356    4.1357    4.1357    4.7914    4.7914
    5.1837    5.1837    5.1842    5.1842    5.9184    5.9184    5.9185    5.9185    6.1462    6.1462
    6.3116    6.3116    6.4552    6.4552    6.8141    6.8141    6.8143    6.8143    7.4818    7.4818
    7.7581    7.7581    8.1722    8.1722    8.1724    8.1724    9.0250    9.0250    9.0252    9.0252
    9.2353    9.2353    9.9512    9.9512   10.1688   10.1688   10.4952   10.4952   10.4953   10.4953
   10.5860   10.5860   10.5861   10.5861   11.2599   11.2599   11.2600   11.2600   13.1451   13.1451
   13.1453   13.1453   13.2285   13.2285   13.4910   13.4910   13.4916   13.4916   13.9335   13.9335
   15.3735   15.3735   15.3735   15.3735   15.4693   15.4693   15.4693   15.4693   15.5432   15.5432
   15.7184   15.7184   15.9907   15.9907   17.1690   17.1690   17.3780   17.3780   17.3781   17.3781
   17.6667   17.6667   17.6670   17.6670   18.5125   18.5125   18.5935   18.5935   19.4285   19.4285
   19.4288   19.4288   19.8493   19.8493   19.8494   19.8494   20.4607   20.4607   20.4608   20.4608
   21.0030   21.0030   21.2606   21.2606   21.2611   21.2611   21.5024   21.5024   21.9770   21.9770
   22.8955   22.8955   23.3140   23.3140   23.3140   23.3140   23.3705   23.3705   23.3706   23.3706
   23.6745   23.6745   23.6747   23.6747   24.9871   24.9871   27.6209   27.6209   27.6210   27.6210
   31.8772   31.8772   32.0661   32.0661   32.6706   32.6706   32.6707   32.6707   32.6839   32.6839
   32.6843   32.6843   33.2613   33.2613   33.3592   33.3592   33.3592   33.3592   35.9170   35.9170
   35.9173   35.9173   36.9055   36.9055   37.5070   37.5070   37.9418   37.9418   37.9426   37.9426
   39.5085   39.5085   40.4816   40.4816   40.4817   40.4817   42.2239   42.2239   42.2244   42.2244
   42.6289   42.6289   42.6298   42.6298   43.1179   43.1179   43.5610   43.5610   43.5612   43.5612
   43.7242   43.7242   44.3801   44.3801   44.5840   44.5840   44.5844   44.5844   44.9066   44.9066
   44.9955   44.9955   45.4664   45.4664   45.6363   45.6363   45.6365   45.6365   46.4737   46.4737
   48.0623   48.0623   48.0624   48.0624   49.0841   49.0841   49.5656   49.5656   49.5659   49.5659
   49.9849   49.9849   51.0832   51.0832   51.0832   51.0832   52.0881   52.0881   52.0882   52.0882
   52.5408   52.5408   53.3978   53.3978   53.3979   53.3979   53.9950   53.9950   53.9952   53.9952
   55.1652   55.1652   59.5776   59.5776   59.6743   59.6743   59.9073   59.9073   59.9076   59.9076
   60.7983   60.7983   60.7985   60.7985   61.2466   61.2466   61.6719   61.6719   61.9384   61.9384
   61.9395   61.9396   62.1126   62.1126   63.3798   63.3798   63.3804   63.3804   66.5076   66.5076
   66.5077   66.5077   66.5174   66.5174   66.5185   66.5185   67.8892   67.8892   69.4866   69.4866
   69.4869   69.4869   72.6141   72.6141   73.6735   73.6735   75.6748   75.6748   77.5465   77.5465
   77.5472   77.5472   77.6586   77.6586   80.3970   80.3970   80.3971   80.3971   87.1846   87.1846
   87.1867   87.1867   89.8124   89.8124   89.8145   89.8146   91.2324   91.2324   97.1733   97.1734
   97.1755   97.1755   97.8702   97.8703   98.7889   98.7889   98.7893   98.7893  100.6301  100.6301
  104.4421  104.4421  104.4662  104.4662  106.7304  106.7305  106.7335  106.7335  107.4208  107.4208
  107.4213  107.4213  112.3472  112.3473  112.3474  112.3474  112.3897  112.3898  112.3913  112.3914
  113.9715  113.9715  115.1361  115.1362  115.1387  115.1388  116.2670  116.2670  116.2684  116.2685
  116.8899  116.8900  118.8665  118.8665  121.2548  121.2548  123.5869  123.5869
  44  1  -25.1287  -25.1287  -25.1287  -25.1287  -23.8415  -23.8415  -23.8415  -23.8415  -21.3686  -21.3686
         -21.3685  -21.3685  -21.3685  -21.3685  -21.3685  -21.3685  -20.5594  -20.5594  -19.5301  -19.5301
  -17.7027  -17.7027  -17.7027  -17.7027  -17.7027  -17.7027  -17.7027  -17.7027  -14.3438  -14.3438
  -14.3438  -14.3438  -14.3438  -14.3438  -14.3438  -14.3438  -14.0853  -14.0853  -14.0853  -14.0853
  -13.0383  -13.0383  -13.0383  -13.0383  -12.7318  -12.7318  -12.7260  -12.7260  -12.7260  -12.7260
  -11.6668  -11.6668  -11.6667  -11.6667  -11.5407  -11.5407  -11.5407  -11.5407  -10.5117  -10.5117
  -10.5117  -10.5117   -8.8894   -8.8894   -8.8894   -8.8894   -8.8894   -8.8894   -8.8894   -8.8894
   -8.6072   -8.6072   -4.5486   -4.5486   -3.7314   -3.7314   -3.7314   -3.7314   -3.7314   -3.7314
   -3.7314   -3.7314    0.1568    0.1568    0.1568    0.1568    0.1780    0.1780    0.1780    0.1780
    1.2632    1.2632    1.9603    1.9603    1.9603    1.9603    2.1321    2.1321    2.1321    2.1321
    3.1649    3.1649    3.1649    3.1649    3.8484    3.8484    3.8484    3.8484    3.8484    3.8484
    3.8484    3.8484    3.8580    3.8580    3.8580    3.8580    4.5571    4.5571    4.5572    4.5572
    5.1770    5.1770    5.1770    5.1770    5.1770    5.1770    5.1770    5.1770    5.3514    5.3514
    5.3514    5.3514    6.6200    6.6200    7.4967    7.4967    7.7073    7.7073    7.7073    7.7073
    8.1918    8.1918    8.1919    8.1919    8.1919    8.1919    8.1919    8.1919    9.7952    9.7952
    9.7952    9.7952    9.7952    9.7952    9.7952    9.7952   10.2932   10.2932   10.2932   10.2932
   10.8010   10.8010   10.8010   10.8010   11.2418   11.2418   11.2418   11.2418   12.1344   12.1344
   13.2908   13.2908   13.2908   13.2908   13.2908   13.2908   13.2908   13.2908   13.7218   13.7218
   15.2194   15.2194   15.6835   15.6835   15.6835   15.6835   15.6835   15.6835   15.6835   15.6835
   16.8264   16.8264   16.8264   16.8264   16.8264   16.8264   16.8264   16.8264   17.0967   17.0967
   17.0967   17.0967   18.4213   18.4213   18.5211   18.5211   19.0763   19.0763   19.0763   19.0763
   19.0763   19.0763   19.0763   19.0763   19.4860   19.4860   19.4861   19.4861   21.4781   21.4781
   21.4781   21.4781   21.7642   21.7642   21.7642   21.7642   21.7642   21.7642   21.7642   21.7642
   22.3046   22.3046   22.3046   22.3046   22.9843   22.9843   22.9843   22.9843   23.4720   23.4720
   23.4720   23.4720   24.8937   24.8937   24.8937   24.8937   27.8927   27.8927   28.7447   28.7447
   31.0566   31.0566   31.0566   31.0566   32.2218   32.2218   32.2218   32.2218   32.2218   32.2218
   32.2218   32.2218   32.4592   32.4592   32.4592   32.4592   33.9159   33.9159   37.9601   37.9601
   38.2173   38.2173   38.2173   38.2173   38.2173   38.2173   38.2173   38.2173   39.4271   39.4271
   39.4271   39.4271   41.1670   41.1670   41.1670   41.1670   42.4479   42.4479   42.4479   42.4479
   42.6820   42.6820   42.6820   42.6820   42.6820   42.6820   42.6820   42.6820   43.3872   43.3872
   43.3872   43.3872   44.2069   44.2069   44.2069   44.2069   44.5546   44.5546   44.5546   44.5546
   44.7308   44.7308   44.7308   44.7308   46.9165   46.9165   47.1307   47.1307   47.1307   47.1307
   47.7422   47.7422   47.7422   47.7422   48.0942   48.0942   48.0942   48.0942   48.0942   48.0942
   48.0942   48.0942   50.7831   50.7831   50.7831   50.7831   50.7831   50.7831   50.7831   50.7831
   53.2265   53.2265   53.2265   53.2265   53.6589   53.6589   54.5497   54.5497   56.9783   56.9783
   56.9783   56.9783   56.9783   56.9783   56.9783   56.9783   59.7258   59.7258   59.7258   59.7258
   61.1297   61.1297   61.1297   61.1297   61.3791   61.3791   62.0685   62.0685   62.0685   62.0685
   62.5985   62.5985   62.5985   62.5985   62.5986   62.5986   62.5986   62.5986   63.4897   63.4897
   63.4897   63.4898   68.0737   68.0737   70.6917   70.6917   70.6917   70.6917   71.0402   71.0402
   71.0403   71.0403   71.6872   71.6872   71.6872   71.6872   71.6872   71.6872   71.6872   71.6872
   78.2608   78.2608   84.8014   84.8014   84.8014   84.8014   88.5378   88.5379   88.5379   88.5379
   89.3924   89.3924   89.3924   89.3925   90.7615   90.7615   90.7615   90.7616   90.7616   90.7616
   90.7617   90.7617   94.2526   94.2526  102.2951  102.2953  102.2954  102.2954  103.4879  103.4879
  103.4880  103.4880  103.4880  103.4880  103.4881  103.4881  106.9170  106.9171  106.9171  106.9171
  111.7284  111.7285  111.7289  111.7289  113.0171  113.0172  113.3475  113.3475  113.3477  113.3477
  113.3480  113.3481  113.3482  113.3483  115.1280  115.1281  116.4164  116.4164  116.4164  116.4165
  117.6304  117.6304  117.6305  117.6306  117.6310  117.6311  117.6312  117.6312
siesta: Fermi energy =      -6.257103 eV

siesta: Program's energy decomposition (eV):
siesta: Ebs     =     -2220.628643
siesta: Eions   =      9434.507561
siesta: Ena     =      2224.171079
siesta: Ekin    =      3905.402799
siesta: Enl     =      -379.244501
siesta: Eso     =         0.000000
siesta: Edftu   =         0.000000
siesta: DEna    =      -201.851869
siesta: DUscf   =        17.991309
siesta: DUext   =         0.000000
siesta: Exc     =     -1709.629363
siesta: eta*DQ  =         0.000000
siesta: Emadel  =         0.000000
siesta: Emeta   =         0.000000
siesta: Emolmec =        -3.090377
siesta: Ekinion =         0.000000
siesta: Eharris =     -5580.758486
siesta: Etot    =     -5580.758484
siesta: FreeEng =     -5580.769973

siesta: Final energy (eV):
siesta:  Band Struct. =   -2220.628643
siesta:       Kinetic =    3905.402799
siesta:       Hartree =    2504.657284
siesta:       Edftu   =       0.000000
siesta:       Eso     =       0.000000
siesta:    Ext. field =       0.000000
siesta:   Exch.-corr. =   -1709.629363
siesta:  Ion-electron =   -8909.339627
siesta:       Ion-ion =   -1368.759200
siesta:       Ekinion =       0.000000
siesta:         Total =   -5580.758484
siesta:         Fermi =      -6.257103

siesta: Stress tensor (static) (eV/Ang**3):
siesta:    -0.073750   -0.000055    0.000000
siesta:    -0.000055   -0.073814   -0.000000
siesta:     0.000000   -0.000000    0.014710

siesta: Cell volume =        384.261751 Ang**3

siesta: Pressure (static):
siesta:                Solid            Molecule  Units
siesta:           0.00048232          0.00048235  Ry/Bohr**3
siesta:           0.04428474          0.04428764  eV/Ang**3
siesta:          70.95273671         70.95739110  kBar
(Free)E+ p_basis*V_orbitals  =       -5547.240167
(Free)Eharris+ p_basis*V_orbitals  =       -5547.240168

cite: Please see "graphite_scf.bib" for an exhaustive BiBTeX file.
cite: Please clearly indicate Siesta version in published work: 4.1.5
cite: This calculation has made use of the following articles
cite: which are encouraged to be cited in a published work.
        Primary SIESTA paper
          DOI: www.doi.org/10.1088/0953-8984/14/11/302

>> End of run:   1-NOV-2022  18:46:13
Job completed
