Siesta Version  : 4.1.5
Architecture    : x86_64-unknown-linux-gnu--unknown
Compiler version: GNU Fortran (GCC) 11.3.0
Compiler flags  : mpif90 -g -O2 -fallow-argument-mismatch
PP flags        : -DMPI -DFC_HAVE_FLUSH -DFC_HAVE_ABORT
Libraries       :  -I/global/software/sl-7.x86_64/modules/intel/2020.4.304/mkl/include  /globall/software/sl-7.x86_64/modules/intel/2020.4.304/mkl/lib/intel64/libmkl_scalapack_lp64.a -Wl,--start-group /global/software/sl-7.x86_64/modules/intel/2020.4.304/mkl/lib/intel64/libmkl_intel_lp64.a /global/software/sl-7.x86_64/modules/intel/2020.4.304/mkl/lib/intel64/libmkl_sequential.a /global/software/sl-7.x86_64/modules/intel/2020.4.304/mkl/lib/intel64/libmkl_core.a /global/software/sl-7.x86_64/modules/intel/2020.4.304/mkl/lib/intel64/libmkl_blacs_openmpi_lp64.a -Wl,--end-group -lpthread -lm -ldl
PARALLEL version

* Running on 20 nodes in parallel
>> Start of run:   1-NOV-2022  18:40:02

                           ***********************       
                           *  WELCOME TO SIESTA  *       
                           ***********************       

reinit: Reading from standard input
reinit: Dumped input in INPUT_TMP.87515
************************** Dump of input data file ****************************
SystemName graphite_scf
SystemLabel graphite_scf
NumberOfAtoms   36
NumberOfSpecies 1
%block ChemicalSpeciesLabel
1  6   C-gga
%endblock ChemicalSpeciesLabel
PAO.BasisSize  DZP
PAO.EnergyShift  10 meV
%block PS.Lmax
C-gga   2
%endblock PS.Lmax
LatticeConstant 1.000000 Ang
%block LatticeVectors
	7.3920000000	0.0000000000	0.0000000000
	-3.6960000000	6.4016597848	0.0000000000
	0.0000000000	0.0000000000	7.8518700000
%endblock LatticeVectors
AtomicCoordinatesFormat Ang
%block AtomicCoordinatesAndAtomicSpecies
	0.00000000	0.00000000	1.96296750	1
	0.00000000	0.00000000	5.88890250	1
	-1.23200000	2.13388659	1.96296750	1
	-2.46400000	4.26777319	5.88890250	1
	2.46400000	4.26777319	1.96296750	1
	1.23200000	2.13388659	5.88890250	1
	2.46400000	0.00000000	1.96296750	1
	4.92800000	0.00000000	5.88890250	1
	2.46400000	0.00000000	5.88890250	1
	4.92800000	0.00000000	1.96296750	1
	2.46400000	4.26777319	5.88890250	1
	1.23200000	2.13388659	1.96296750	1
	-1.23200000	2.13388659	5.88890250	1
	-2.46400000	4.26777319	1.96296750	1
	0.00000000	4.26777319	1.96296750	1
	3.69600000	2.13388659	5.88890250	1
	3.69600000	2.13388659	1.96296750	1
	0.00000000	4.26777319	5.88890250	1
	0.00000000	1.42258964	1.96296750	1
	3.69600000	4.97907014	5.88890250	1
	2.46400123	5.69036496	1.96296750	1
	1.23199877	0.71129482	5.88890250	1
	-2.46400123	5.69036496	1.96296750	1
	6.16000123	0.71129482	5.88890250	1
	-1.23200000	3.55647624	1.96296750	1
	4.92800000	2.84518355	5.88890250	1
	1.23200123	3.55647837	1.96296750	1
	2.46399877	2.84518142	5.88890250	1
	-0.00000123	5.69036496	1.96296750	1
	3.69600123	0.71129482	5.88890250	1
	2.46400000	1.42258964	1.96296750	1
	1.23200000	4.97907014	5.88890250	1
	4.92800123	1.42259177	1.96296750	1
	-1.23200123	4.97906801	5.88890250	1
	3.69599877	3.55647837	1.96296750	1
	0.00000123	2.84518142	5.88890250	1
%endblock AtomicCoordinatesAndAtomicSpecies
Kgrid_NoTRS  T
%block kgrid_MonkhorstPack
4       0       0       0.0
0       4       0       0.0
0       0       4       0.0
%endblock kgrid_MonkhorstPack
AtomCoorFormatOut Ang
BlockSize 1
#ProcessorY 12
Diag.ParallelOverK   T
Diag.DivideAndConquer F
MeshCutoff   300 Ry
SCF.FreeE.Tolerance 1E-3 eV
SCF.EDM.Tolerance   5E-3 eV
DM.Tolerance  1E-3
DM.Require.Energy.Convergence T
DM.NumberPulay 4
XC.Functional GGA
XC.Authors    PBE
UseSaveData        F
SolutionMethod     diagon
MD.TypeOfRun       CG
MD.VariableCell    F
MD.NumCGsteps      00
MD.MaxCGDispl      0.200000 Bohr
#MD.MaxStressTol    1.000000 GPa
#MD.MaxForceTol     0.010000 eV/Ang
WriteMDHistory T
WriteCoorStep T
WriteForces T
WriteCoorStep    T
WriteEigenValues T
WriteDM    F
MM.UnitsDistance Ang  # what this program prints out DO NOT CHANGE
MM.UnitsEnergy    eV  # what this program prints out DO NOT CHANGE
MM.Grimme.S6     0.75 # Grimme-paper for PBE (correct for your functional)
MM.Grimme.D     20.   # Grimme-paper (correct for your functional)
%block MM.Potentials
  1   1 Grimme     18.14      2.904 # C, 10.1002/jcc.20495
%endblock MM.Potentials
#%block ProjectedDensityOfStates
# -200.0  120.0  0.4  12800  eV
#%endblock ProjectedDensityOfStates
************************** End of input data file *****************************

reinit: -----------------------------------------------------------------------
reinit: System Name: graphite_scf
reinit: -----------------------------------------------------------------------
reinit: System Label: graphite_scf
reinit: -----------------------------------------------------------------------
Reading two-body potentials
Grimme - two-body potential between 1 and 1

initatom: Reading input for the pseudopotentials and atomic orbitals ----------
Species number:   1 Atomic number:    6 Label: C-gga

Ground state valence configuration:   2s02  2p02
Reading pseudopotential information in formatted form from C-gga.psf

Valence configuration for pseudopotential generation:
2s( 2.00) rc: 1.56
2p( 2.00) rc: 1.56
3d( 0.00) rc: 1.56
4f( 0.00) rc: 1.56
relmxkb: Read Max KB Ang. Momentum=    2 for species C-gga

<basis_specs>
===============================================================================
C-gga                Z=   6    Mass=  12.010        Charge= 0.17977+309
Lmxo=1 Lmxkb= 2    BasisType=split      Semic=F
L=0  Nsemic=0  Cnfigmx=2
          i=1  nzeta=2  polorb=0  (2s)
            splnorm:   0.15000    
               vcte:    0.0000    
               rinn:    0.0000    
               qcoe:    0.0000    
               qyuk:    0.0000    
               qwid:   0.10000E-01
                rcs:    0.0000      0.0000    
            lambdas:    1.0000      1.0000    
L=1  Nsemic=0  Cnfigmx=2
          i=1  nzeta=2  polorb=1  (2p)
            splnorm:   0.15000    
               vcte:    0.0000    
               rinn:    0.0000    
               qcoe:    0.0000    
               qyuk:    0.0000    
               qwid:   0.10000E-01
                rcs:    0.0000      0.0000    
            lambdas:    1.0000      1.0000    
-------------------------------------------------------------------------------
L=0  Nkbl=1  erefs: 0.17977+309
L=1  Nkbl=1  erefs: 0.17977+309
L=2  Nkbl=1  erefs: 0.17977+309
===============================================================================
</basis_specs>

atom: Called for C-gga                 (Z =   6)

read_vps: Pseudopotential generation method:
read_vps: ATM 3.2.2 Troullier-Martins                       
Valence charge for ps generation:    4.00000

xc_check: Exchange-correlation functional:
xc_check: GGA Perdew, Burke & Ernzerhof 1996
V l=0 = -2*Zval/r beyond r=  1.5227
V l=1 = -2*Zval/r beyond r=  1.5227
V l=2 = -2*Zval/r beyond r=  1.5227
All V_l potentials equal beyond r=  1.4851
This should be close to max(r_c) in ps generation
All pots = -2*Zval/r beyond r=  1.5227

VLOCAL1: 99.0% of the norm of Vloc inside     19.682 Ry
VLOCAL1: 99.9% of the norm of Vloc inside     44.856 Ry
atom: Maximum radius for 4*pi*r*r*local-pseudopot. charge    1.79142
atom: Maximum radius for r*vlocal+2*Zval:    1.54183
GHOST: No ghost state for L =  0
GHOST: No ghost state for L =  1
GHOST: No ghost state for L =  2

KBgen: Kleinman-Bylander projectors: 
   l= 0   rc=  1.661951   el= -1.010689   Ekb=  5.289847   kbcos=  0.316429
   l= 1   rc=  1.661951   el= -0.388490   Ekb= -4.102504   kbcos= -0.351025
   l= 2   rc=  1.747182   el=  0.001971   Ekb= -1.006005   kbcos= -0.008530

KBgen: Total number of Kleinman-Bylander projectors:    9
atom: -------------------------------------------------------------------------

atom: SANKEY-TYPE ORBITALS:
atom: Selected multiple-zeta basis: split     

SPLIT: Orbitals with angular momentum L= 0

SPLIT: Basis orbitals for state 2s

SPLIT: PAO cut-off radius determined from an
SPLIT: energy shift=  0.000735 Ry

   izeta = 1
                 lambda =    1.000000
                     rc =    5.948690
                 energy =   -1.010099
                kinetic =    0.827121
    potential(screened) =   -1.837220
       potential(ionic) =   -5.392783

   izeta = 2
                 rmatch =    3.518811
              splitnorm =    0.150000
                 energy =   -0.877891
                kinetic =    1.289227
    potential(screened) =   -2.167118
       potential(ionic) =   -5.982073

SPLIT: Orbitals with angular momentum L= 1

SPLIT: Basis orbitals for state 2p

SPLIT: PAO cut-off radius determined from an
SPLIT: energy shift=  0.000735 Ry

   izeta = 1
                 lambda =    1.000000
                     rc =    7.638387
                 energy =   -0.387843
                kinetic =    2.314739
    potential(screened) =   -2.702582
       potential(ionic) =   -6.092371

   izeta = 2
                 rmatch =    3.840617
              splitnorm =    0.150000
                 energy =   -0.270479
                kinetic =    3.438347
    potential(screened) =   -3.708826
       potential(ionic) =   -7.497707

POLgen: Perturbative polarization orbital with L=  2

POLgen: Polarization orbital for state 2p

   izeta = 1
                     rc =    7.638387
                 energy =    0.921402
                kinetic =    1.955040
    potential(screened) =   -1.033637
       potential(ionic) =   -3.679558
atom: Total number of Sankey-type orbitals: 13

atm_pop: Valence configuration (for local Pseudopot. screening):
 2s( 2.00)                                                            
 2p( 2.00)                                                            
Vna: chval, zval:    4.00000   4.00000

Vna:  Cut-off radius for the neutral-atom potential:   7.638387

atom: _________________________________________________________________________

prinput: Basis input ----------------------------------------------------------

PAO.BasisType split     

%block ChemicalSpeciesLabel
    1    6 C-gga                   # Species index, atomic number, species label
%endblock ChemicalSpeciesLabel

%block PAO.Basis                 # Define Basis set
C-gga                 2                    # Species label, number of l-shells
 n=2   0   2                         # n, l, Nzeta 
   5.949      3.519   
   1.000      1.000   
 n=2   1   2 P   1                   # n, l, Nzeta, Polarization, NzetaPol
   7.638      3.841   
   1.000      1.000   
%endblock PAO.Basis

prinput: ----------------------------------------------------------------------

coor:   Atomic-coordinates input format  =     Cartesian coordinates
coor:                                          (in Angstroms)

siesta: Atomic coordinates (Bohr) and species
siesta:      0.00000   0.00000   3.70947  1        1
siesta:      0.00000   0.00000  11.12842  1        2
siesta:     -2.32814   4.03246   3.70947  1        3
siesta:     -4.65629   8.06493  11.12842  1        4
siesta:      4.65629   8.06493   3.70947  1        5
siesta:      2.32814   4.03246  11.12842  1        6
siesta:      4.65629   0.00000   3.70947  1        7
siesta:      9.31257   0.00000  11.12842  1        8
siesta:      4.65629   0.00000  11.12842  1        9
siesta:      9.31257   0.00000   3.70947  1       10
siesta:      4.65629   8.06493  11.12842  1       11
siesta:      2.32814   4.03246   3.70947  1       12
siesta:     -2.32814   4.03246  11.12842  1       13
siesta:     -4.65629   8.06493   3.70947  1       14
siesta:      0.00000   8.06493   3.70947  1       15
siesta:      6.98443   4.03246  11.12842  1       16
siesta:      6.98443   4.03246   3.70947  1       17
siesta:      0.00000   8.06493  11.12842  1       18
siesta:      0.00000   2.68831   3.70947  1       19
siesta:      6.98443   9.40908  11.12842  1       20
siesta:      4.65629  10.75324   3.70947  1       21
siesta:      2.32814   1.34415  11.12842  1       22
siesta:     -4.65629  10.75324   3.70947  1       23
siesta:     11.64072   1.34415  11.12842  1       24
siesta:     -2.32814   6.72077   3.70947  1       25
siesta:      9.31257   5.37662  11.12842  1       26
siesta:      2.32815   6.72077   3.70947  1       27
siesta:      4.65628   5.37662  11.12842  1       28
siesta:     -0.00000  10.75324   3.70947  1       29
siesta:      6.98443   1.34415  11.12842  1       30
siesta:      4.65629   2.68831   3.70947  1       31
siesta:      2.32814   9.40908  11.12842  1       32
siesta:      9.31258   2.68831   3.70947  1       33
siesta:     -2.32815   9.40908  11.12842  1       34
siesta:      6.98443   6.72077   3.70947  1       35
siesta:      0.00000   5.37662  11.12842  1       36

siesta: System type = bulk      

initatomlists: Number of atoms, orbitals, and projectors:     36   468   324

siesta: ******************** Simulation parameters ****************************
siesta:
siesta: The following are some of the parameters of the simulation.
siesta: A complete list of the parameters used, including default values,
siesta: can be found in file out.fdf
siesta:
redata: Spin configuration                          = none
redata: Number of spin components                   = 1
redata: Time-Reversal Symmetry                      = T
redata: Spin spiral                                 = F
redata: Long output                                 =   F
redata: Number of Atomic Species                    =        1
redata: Charge density info will appear in .RHO file
redata: Write Mulliken Pop.                         = NO
redata: Matel table size (NRTAB)                    =     1024
redata: Mesh Cutoff                                 =   300.0000 Ry
redata: Net charge of the system                    =     0.0000 |e|
redata: Min. number of SCF Iter                     =        0
redata: Max. number of SCF Iter                     =     1000
redata: SCF convergence failure will abort job
redata: SCF mix quantity                            = Hamiltonian
redata: Mix DM or H after convergence               =   F
redata: Recompute H after scf cycle                 =   F
redata: Mix DM in first SCF step                    =   T
redata: Write Pulay info on disk                    =   F
redata: New DM Occupancy tolerance                  = 0.000000000001
redata: No kicks to SCF
redata: DM Mixing Weight for Kicks                  =     0.5000
redata: Require Harris convergence for SCF          =   F
redata: Harris energy tolerance for SCF             =     0.000100 eV
redata: Require DM convergence for SCF              =   T
redata: DM tolerance for SCF                        =     0.001000
redata: Require EDM convergence for SCF             =   F
redata: EDM tolerance for SCF                       =     0.005000 eV
redata: Require H convergence for SCF               =   T
redata: Hamiltonian tolerance for SCF               =     0.001000 eV
redata: Require (free) Energy convergence for SCF   =   T
redata: (free) Energy tolerance for SCF             =     0.001000 eV
redata: Using Saved Data (generic)                  =   F
redata: Use continuation files for DM               =   F
redata: Neglect nonoverlap interactions             =   F
redata: Method of Calculation                       = Diagonalization
redata: Electronic Temperature                      =   299.9869 K
redata: Fix the spin of the system                  =   F
redata: Dynamics option                             = Single-point calculation
mix.SCF: Pulay mixing                            = Pulay
mix.SCF:    Variant                              = stable
mix.SCF:    History steps                        = 4
mix.SCF:    Linear mixing weight                 =     0.250000
mix.SCF:    Mixing weight                        =     0.250000
mix.SCF:    SVD condition                        = 0.1000E-07
redata: ***********************************************************************

%block SCF.Mixers
  Pulay
%endblock SCF.Mixers

%block SCF.Mixer.Pulay
  # Mixing method
  method pulay
  variant stable

  # Mixing options
  weight 0.2500
  weight.linear 0.2500
  history 4
%endblock SCF.Mixer.Pulay

DM_history_depth set to one: no extrapolation allowed by default for geometry relaxation
Size of DM history Fstack: 1
Total number of electrons:   144.000000
Total ionic charge:   144.000000

* ProcessorY, Blocksize:    4   1


* Orbital distribution balance (max,min):    24    23

k-point displ. along   1 input, could be:     0.00    0.50
k-point displ. along   2 input, could be:     0.00    0.50
k-point displ. along   3 input, could be:     0.00    0.50
 Kpoints in:           48 . Kpoints trimmed:           44

siesta: k-grid: Number of k-points =    44
siesta: k-grid: Cutoff (effective) =    14.784 Ang
siesta: k-grid: Supercell and displacements
siesta: k-grid:    4   0   0      0.000
siesta: k-grid:    0   4   0      0.000
siesta: k-grid:    0   0   4      0.000

diag: Algorithm                                     = Expert
diag: Parallel over k                               =   T
diag: Use parallel 2D distribution                  =   T
diag: Parallel block-size                           = 1
diag: Parallel distribution                         =     4 x     5
diag: Used triangular part                          = Lower
diag: Absolute tolerance                            =  0.100E-15
diag: Orthogonalization factor                      =  0.100E-05
diag: Memory factor                                 =  1.0000

superc: Internal auxiliary supercell:     5 x     5 x     3  =      75
superc: Number of atoms, orbitals, and projectors:   2700  35100  24300


ts: **************************************************************
ts: Save H and S matrices                           =    F
ts: Save DM and EDM matrices                        =    F
ts: Only save the overlap matrix S                  =    F
ts: **************************************************************

************************ Begin: TS CHECKS AND WARNINGS ************************
************************ End: TS CHECKS AND WARNINGS **************************


                     ====================================
                        Single-point calculation
                     ====================================

outcoor: Atomic coordinates (Ang):                          
    0.00000000    0.00000000    1.96296750   1       1  C-gga
    0.00000000    0.00000000    5.88890250   1       2  C-gga
   -1.23200000    2.13388659    1.96296750   1       3  C-gga
   -2.46400000    4.26777319    5.88890250   1       4  C-gga
    2.46400000    4.26777319    1.96296750   1       5  C-gga
    1.23200000    2.13388659    5.88890250   1       6  C-gga
    2.46400000    0.00000000    1.96296750   1       7  C-gga
    4.92800000    0.00000000    5.88890250   1       8  C-gga
    2.46400000    0.00000000    5.88890250   1       9  C-gga
    4.92800000    0.00000000    1.96296750   1      10  C-gga
    2.46400000    4.26777319    5.88890250   1      11  C-gga
    1.23200000    2.13388659    1.96296750   1      12  C-gga
   -1.23200000    2.13388659    5.88890250   1      13  C-gga
   -2.46400000    4.26777319    1.96296750   1      14  C-gga
    0.00000000    4.26777319    1.96296750   1      15  C-gga
    3.69600000    2.13388659    5.88890250   1      16  C-gga
    3.69600000    2.13388659    1.96296750   1      17  C-gga
    0.00000000    4.26777319    5.88890250   1      18  C-gga
    0.00000000    1.42258964    1.96296750   1      19  C-gga
    3.69600000    4.97907014    5.88890250   1      20  C-gga
    2.46400123    5.69036496    1.96296750   1      21  C-gga
    1.23199877    0.71129482    5.88890250   1      22  C-gga
   -2.46400123    5.69036496    1.96296750   1      23  C-gga
    6.16000123    0.71129482    5.88890250   1      24  C-gga
   -1.23200000    3.55647624    1.96296750   1      25  C-gga
    4.92800000    2.84518355    5.88890250   1      26  C-gga
    1.23200123    3.55647837    1.96296750   1      27  C-gga
    2.46399877    2.84518142    5.88890250   1      28  C-gga
   -0.00000123    5.69036496    1.96296750   1      29  C-gga
    3.69600123    0.71129482    5.88890250   1      30  C-gga
    2.46400000    1.42258964    1.96296750   1      31  C-gga
    1.23200000    4.97907014    5.88890250   1      32  C-gga
    4.92800123    1.42259177    1.96296750   1      33  C-gga
   -1.23200123    4.97906801    5.88890250   1      34  C-gga
    3.69599877    3.55647837    1.96296750   1      35  C-gga
    0.00000123    2.84518142    5.88890250   1      36  C-gga

superc: Internal auxiliary supercell:     5 x     5 x     3  =      75
superc: Number of atoms, orbitals, and projectors:   2700  35100  24300

outcell: Unit cell vectors (Ang):
        7.392000    0.000000    0.000000
       -3.696000    6.401660    0.000000
        0.000000    0.000000    7.851870

outcell: Cell vector modules (Ang)   :    7.392000    7.392000    7.851870
outcell: Cell angles (23,13,12) (deg):     90.0000     90.0000    120.0000
outcell: Cell volume (Ang**3)        :    371.5589
<dSpData1D:S at geom step 0
  <sparsity:sparsity for geom step 0
    nrows_g=468 nrows=24 sparsity=.3011 nnzs=65950, refcount: 7>
  <dData1D:(new from dSpData1D) n=65950, refcount: 1>
refcount: 1>
new_DM -- step:     1
Initializing Density Matrix...
DM filled with atomic data:
<dSpData2D:DM initialized from atoms
  <sparsity:sparsity for geom step 0
    nrows_g=468 nrows=24 sparsity=.3011 nnzs=65950, refcount: 8>
  <dData2D:DM n=65950 m=1, refcount: 1>
refcount: 1>
No. of atoms with KB's overlaping orbs in proc 0. Max # of overlaps:     228     526
New grid distribution:   1
           1       1:   36    1:    9    1:    9
           2       1:   36    1:    9   10:   18
           3       1:   36    1:    9   19:   27
           4       1:   36    1:    9   28:   36
           5       1:   36    1:    9   37:   45
           6       1:   36   10:   18    1:    9
           7       1:   36   10:   18   10:   18
           8       1:   36   10:   18   19:   27
           9       1:   36   10:   18   28:   36
          10       1:   36   10:   18   37:   45
          11       1:   36   19:   27    1:    9
          12       1:   36   19:   27   10:   18
          13       1:   36   19:   27   19:   27
          14       1:   36   19:   27   28:   36
          15       1:   36   19:   27   37:   45
          16       1:   36   28:   36    1:    9
          17       1:   36   28:   36   10:   18
          18       1:   36   28:   36   19:   27
          19       1:   36   28:   36   28:   36
          20       1:   36   28:   36   37:   45

InitMesh: MESH =    72 x    72 x    90 =      466560
InitMesh: (bp) =    36 x    36 x    45 =       58320
InitMesh: Mesh cutoff (required, used) =   300.000   349.608 Ry
ExtMesh (bp) on 0 =   128 x   101 x   105 =     1357440
New grid distribution:   2
           1       1:   15   19:   36   12:   22
           2      16:   36   10:   18    8:   22
           3      15:   36    1:   18   23:   29
           4       1:   14    1:   18   34:   45
           5      15:   36    1:    9   30:   45
           6       1:   15    1:   18    1:   11
           7       1:   15    1:   18   12:   22
           8      16:   36    1:   18    1:    7
           9       1:   14    1:   18   23:   33
          10      15:   36   10:   18   30:   45
          11       1:   15   19:   36    1:   11
          12      16:   36   19:   27    8:   22
          13      16:   36    1:    9    8:   22
          14       1:   15   19:   36   23:   33
          15       1:   15   19:   36   34:   45
          16      16:   36   19:   36    1:    7
          17      16:   36   19:   27   30:   45
          18      16:   36   28:   36    8:   22
          19      16:   36   19:   36   23:   29
          20      16:   36   28:   36   30:   45
New grid distribution:   3
           1       1:   15    1:   18    1:   12
           2       1:   15    1:   18   13:   23
           3      16:   36   28:   36    9:   23
           4       1:   15    1:   18   24:   34
           5       1:   15    1:   18   35:   45
           6      16:   36    1:    9   32:   45
           7      16:   36   10:   18    9:   23
           8      16:   36    1:   18   24:   31
           9       1:   15   19:   36   35:   45
          10      16:   36   10:   18   32:   45
          11       1:   15   19:   36    1:   12
          12       1:   15   19:   36   13:   23
          13      16:   36   19:   36   24:   31
          14      16:   36    1:    9    9:   23
          15      16:   36   19:   27   32:   45
          16      16:   36   19:   36    1:    8
          17      16:   36    1:   18    1:    8
          18      16:   36   19:   27    9:   23
          19       1:   15   19:   36   24:   34
          20      16:   36   28:   36   32:   45
Setting up quadratic distribution...
ExtMesh (bp) on 0 =   107 x   110 x   107 =     1259390
PhiOnMesh: Number of (b)points on node 0 =                 2970
PhiOnMesh: nlist on node 0 =               740981

stepf: Fermi-Dirac step function

siesta: Program's energy decomposition (eV):
siesta: Ebs     =     -2104.684906
siesta: Eions   =      9434.507561
siesta: Ena     =      2224.038246
siesta: Ekin    =      4042.403300
siesta: Enl     =      -409.146299
siesta: Eso     =         0.000000
siesta: Edftu   =         0.000000
siesta: DEna    =      -290.071710
siesta: DUscf   =        29.851818
siesta: DUext   =         0.000000
siesta: Exc     =     -1735.615800
siesta: eta*DQ  =         0.000000
siesta: Emadel  =         0.000000
siesta: Emeta   =         0.000000
siesta: Emolmec =        -3.257027
siesta: Ekinion =         0.000000
siesta: Eharris =     -5478.831882
siesta: Etot    =     -5576.305032
siesta: FreeEng =     -5576.316671

        iscf     Eharris(eV)        E_KS(eV)     FreeEng(eV)     dDmax    Ef(eV) dHmax(eV)
   scf:    1    -5478.831882    -5576.305032    -5576.316671  1.796083 -7.881070  3.610042
timer: Routine,Calls,Time,% = IterSCF        1       9.158  70.48
   scf:    2    -5581.234907    -5578.834770    -5578.846236  0.074251 -7.328684  2.388213
   scf:    3    -5582.465552    -5580.949950    -5580.961228  0.131320 -6.279519  0.065654
   scf:    4    -5580.950182    -5580.950305    -5580.961586  0.003145 -6.314567  0.013901
   scf:    5    -5580.951596    -5580.951001    -5580.962282  0.003500 -6.321868  0.001365
   scf:    6    -5580.951000    -5580.951001    -5580.962281  0.000027 -6.322281  0.001893
   scf:    7    -5580.951003    -5580.951002    -5580.962282  0.000082 -6.321604  0.000116

SCF Convergence by FreeE+DM+H criterion
|FreeE_i-FreeE_(i-1)| (eV) <     0.00100000
max |DM_out - DM_in|         :     0.0000816063
max |H_out - H_in|      (eV) :     0.0001156270
SCF cycle converged after 7 iterations

Using DM_out to compute the final energy and forces
No. of atoms with KB's overlaping orbs in proc 0. Max # of overlaps:     228     526

MM-Stress (kbar):        6.01        6.01       22.74        0.00       -0.00       -0.00

siesta: E_KS(eV) =            -5580.9510

siesta: E_KS - E_eggbox =     -5580.9510

siesta: Atomic forces (eV/Ang):
     1   -0.000075    0.000043    0.000000
     2    0.000075   -0.000043    0.000000
     3   -0.000023   -0.000001    0.000000
     4    0.000023    0.000001    0.000000
     5   -0.000062    0.000110    0.000000
     6    0.000062   -0.000110    0.000000
     7   -0.000140    0.000021   -0.000000
     8    0.000140   -0.000021    0.000000
     9    0.000059   -0.000061   -0.000000
    10   -0.000059    0.000061   -0.000000
    11    0.000068   -0.000021   -0.000000
    12   -0.000068    0.000021   -0.000000
    13    0.000099   -0.000048   -0.000000
    14   -0.000099    0.000048    0.000000
    15   -0.000075    0.000043    0.000000
    16    0.000075   -0.000043   -0.000000
    17   -0.000075    0.000044   -0.000000
    18    0.000075   -0.000043    0.000000
    19    0.000085    0.000067    0.000000
    20   -0.000085   -0.000067   -0.000000
    21   -0.000025   -0.000090    0.000000
    22    0.000025    0.000090   -0.000000
    23    0.000166   -0.000107   -0.000000
    24   -0.000166    0.000107    0.000000
    25    0.000083    0.000052    0.000000
    26   -0.000083   -0.000053    0.000000
    27   -0.000012   -0.000085    0.000000
    28    0.000012    0.000084   -0.000000
    29    0.000154   -0.000098    0.000000
    30   -0.000154    0.000099    0.000000
    31    0.000083    0.000053    0.000000
    32   -0.000083   -0.000052    0.000000
    33   -0.000012   -0.000084    0.000000
    34    0.000012    0.000084   -0.000000
    35    0.000154   -0.000099    0.000000
    36   -0.000154    0.000098    0.000000
----------------------------------------
   Tot   -0.000000    0.000000    0.000000
----------------------------------------
   Max    0.000166
   Res    0.000067    sqrt( Sum f_i^2 / 3N )
----------------------------------------
   Max    0.000166    constrained

Stress tensor Voigt[x,y,z,yz,xz,xy] (kbar):     -121.55     -121.66       24.52        0.00        0.00       -0.09
(Free)E + p*V (eV/cell)    -5564.0574
Target enthalpy (eV/cell)    -5580.9623

siesta: Eigenvalues (eV):
  ik is       eps
   1  1  -25.3869  -25.3190  -24.7380  -24.7380  -24.6718  -24.6718  -22.8295  -22.8295  -22.7706  -22.7706
         -21.6041  -21.5494  -21.0408  -21.0408  -20.9912  -20.9911  -20.2160  -20.1883  -19.2005  -19.1808
  -18.9502  -18.9502  -18.9071  -18.9071  -16.9057  -16.8863  -15.8760  -15.8760  -15.8505  -15.8505
  -15.3110  -15.2954  -14.5981  -14.5775  -13.8421  -13.8421  -13.8274  -13.8274  -13.6607  -13.2744
  -13.2744  -13.2664  -13.2664  -12.8884  -12.8880  -12.8880  -12.8295  -12.8295  -12.8196  -12.8196
  -12.1439  -12.1439  -11.4454  -11.4454  -11.4384  -11.4384  -11.1336  -11.1300  -10.6708  -10.6708
  -10.4621  -10.4555  -10.0332  -10.0332   -9.3010   -8.9643   -8.9643   -8.7525   -8.5859   -8.5859
   -8.2077   -7.9618   -4.9144   -4.7455   -4.4835   -4.4835   -4.1568   -4.1567   -3.6074   -3.4026
   -1.9830   -1.9830   -1.7682   -1.7682   -1.5957   -0.7007   -0.7007    1.7817    1.7817    1.8740
    1.8740    1.8757    1.8757    1.9862    1.9862    2.3305    2.3305    2.3499    2.3995    2.5084
    2.5309    2.5309    2.6089    2.6089    3.1657    3.1657    3.5462    3.5530    3.5579    3.6008
    3.6246    3.8077    3.9278    3.9278    4.0978    4.0979    4.2054    4.8473    4.8473    5.1066
    5.1066    5.1360    5.1360    5.1422    5.1422    5.4999    5.7948    6.0551    6.2295    6.4494
    6.5704    6.5704    6.5720    6.6554    6.8064    6.8064    6.8197    6.9188    6.9188    7.3645
    7.3645    7.3974    7.4402    7.7013    8.0299    8.2572    8.7240    8.7240    8.8585    8.8585
    8.9353    8.9353    9.0297    9.0297   10.4186   10.4855   10.4855   10.6564   10.6564   11.1456
   11.1456   11.2531   11.3250   11.8170   11.8732   11.8732   12.0688   12.7127   12.7127   13.4327
   13.4328   13.5065   13.5065   13.5310   13.5310   13.5603   13.7421   13.7421   13.8628   14.0246
   14.0464   14.0464   14.2016   14.2016   14.6376   15.1626   15.8881   16.6529   16.8197   16.9222
   16.9222   17.0663   17.0835   17.0836   17.3487   17.3487   17.8432   17.9791   18.1948   18.1948
   18.4152   18.4377   18.4969   18.4969   18.8768   18.8768   19.0929   19.2244   19.2244   19.7205
   20.0501   20.0501   20.0574   20.0574   20.2046   20.2046   20.7196   20.7196   20.8209   20.8209
   20.9850   20.9850   21.0255   21.0255   21.3043   21.4688   21.5115   21.5227   21.7587   21.7587
   22.7499   22.9675   23.0420   23.3917   23.3917   23.8473   23.8473   23.8668   23.8669   23.8726
   24.5946   24.5946   24.8729   24.8729   24.9192   24.9199   24.9199   25.2929   28.4599   28.4599
   29.4687   31.3101   31.6525   32.0100   32.0100   32.1401   32.6697   32.7859   32.7859   32.8636
   34.4627   34.4627   34.5690   34.5691   34.5959   34.5960   35.7163   35.7163   36.5901   36.5901
   36.9013   37.1595   37.1595   37.2201   37.2201   37.2907   38.1036   38.5758   38.5758   38.7726
   38.7726   39.8278   41.2598   41.5462   41.7719   41.8149   41.8149   42.2334   42.2334   42.6482
   42.6482   42.6781   42.6781   42.8501   42.8502   42.8969   43.3128   43.3486   43.3486   43.6000
   43.8758   43.8758   44.2794   44.2794   44.4559   44.6509   44.7864   44.8633   44.8633   45.2381
   45.2710   45.2725   45.3232   45.7594   45.7594   46.3334   46.3334   46.3589   46.4073   46.7114
   46.7114   47.1632   47.1633   48.3921   48.4085   48.7408   48.7408   48.7775   49.0215   49.1702
   49.1703   50.1786   50.1786   50.6995   52.1492   52.1492   52.2896   52.2896   52.4517   52.8836
   52.8836   52.9570   53.1752   53.1752   53.6860   53.6860   54.2916   54.2916   54.3592   55.7664
   55.7664   56.1632   56.8337   57.6090   57.6091   58.6012   58.6012   58.9011   59.3517   59.7001
   59.7001   60.0699   60.2691   60.2691   60.5512   60.6385   61.4247   61.5351   61.5351   61.9518
   61.9518   62.0323   62.0323   62.9668   63.4602   63.9139   64.5485   64.5485   64.5628   65.8626
   65.8627   66.4254   66.4254   66.4512   66.4512   69.2445   69.2445   69.3847   69.3848   69.4823
   69.4823   70.0063   72.5175   72.5176   72.5512   72.5537   73.5829   73.6058   73.6466   74.8372
   74.8373   75.6667   76.3000   79.6452   79.6453   80.1391   82.1783   82.2694   82.2696   84.5546
   84.5547   85.1169   85.1169   87.8413   87.8413   90.8171   90.8172   94.0217   95.1353   96.4236
   96.4237   96.8099   96.8100   97.9656   98.3937   98.3939   98.8671   99.3734   99.3734   99.9424
   99.9430  103.9913  104.6105  104.7395  105.0225  106.5632  106.5634  107.9228  107.9229  110.2236
  110.5300  110.5302  110.6780  110.6782  112.8759  112.8762  113.5482  113.5490  114.3913  115.1031
  115.1033  115.2511  115.3798  115.3799  115.7209  116.3124  116.9941  117.9573  117.9575  118.7834
  120.0461  120.0471  122.4748  122.4755  122.5455  124.3448  125.5838  131.0179
   2  1  -25.7103  -25.6444  -24.4154  -24.3504  -23.7750  -23.7750  -23.7127  -23.7127  -22.5179  -22.5179
         -22.4602  -22.4602  -21.9069  -21.8515  -20.1839  -20.1838  -20.1374  -20.1373  -18.3239  -18.3238
  -18.2913  -18.2912  -18.1137  -18.0695  -17.0152  -17.0150  -16.9762  -16.9760  -16.0194  -16.0192
  -15.9944  -15.9942  -14.8957  -14.8955  -14.8708  -14.8706  -14.0518  -13.8187  -13.7997  -13.2666
  -12.9497  -12.9494  -12.9425  -12.9421  -12.6326  -12.6310  -12.5086  -12.3215  -12.3212  -12.3148
  -12.3144  -11.7803  -11.7605  -11.7605  -11.4408  -11.4374  -11.0663  -11.0663  -10.3538  -10.3538
  -10.1113  -10.1045   -9.7989   -9.7908   -9.7547   -9.7521   -9.7521   -9.2341   -7.8550   -7.8549
   -7.4792   -7.4792   -5.1110   -5.1110   -4.9211   -4.9211   -3.6992   -3.3144   -2.7420   -2.7420
   -2.4023   -2.4023   -1.9190   -0.4600   -0.4600   -0.2369   -0.2312   -0.2311    0.7785    0.7785
    0.8838    1.0607    1.2295    1.3317    1.7850    1.8805    2.0252    2.0254    2.0276    2.0526
    2.1102    2.1103    2.1875    2.3167    2.3170    2.4315    2.4318    2.6358    2.6441    2.8880
    2.8881    3.5493    3.8191    4.1322    4.1322    4.5613    4.5844    5.3845    5.3845    5.6703
    5.6704    5.9011    5.9011    5.9895    5.9896    6.1487    6.3130    6.3131    6.6752    6.7074
    6.8125    6.8125    7.0646    7.0721    7.0722    7.0801    7.1758    7.1760    7.3706    7.3710
    7.6893    8.3044    8.3940    8.3941    8.7106    8.7808    8.7809    9.1153    9.2788    9.6480
    9.6482    9.7822    9.7823   10.1048   10.6033   10.6035   10.7614   10.7614   10.8868   10.8872
   11.0118   11.0120   11.0684   11.0684   11.3747   11.4561   11.4561   11.8717   11.8722   11.9974
   12.5107   12.5248   12.6973   12.6973   13.0409   13.0409   13.0911   13.0912   13.7547   14.0250
   14.5161   14.5161   14.7452   14.7452   15.0720   16.0315   16.0315   16.0909   16.0909   16.6995
   16.7000   16.8359   16.8359   16.8370   17.5096   17.5099   17.8945   17.8947   17.9174   17.9175
   18.1690   18.1690   18.2932   18.2933   18.3306   18.5823   19.1346   19.1753   19.1754   19.3019
   19.4042   19.5086   19.5087   19.6429   19.9893   19.9893   20.0514   20.0522   20.7697   20.8399
   20.8873   20.8874   21.0086   21.2441   21.2445   21.3576   21.7203   21.7203   21.8983   21.8983
   22.0153   22.8133   23.2504   23.2505   23.2990   23.2990   23.9938   23.9938   24.8174   25.0402
   25.0437   25.3009   25.6447   25.8119   25.8123   26.6723   26.7780   26.7781   27.8197   28.3590
   29.0920   30.3365   30.3366   30.8829   30.8901   30.8901   32.0189   32.4891   32.4896   33.0201
   33.0205   34.5960   34.5963   34.7627   35.3604   35.3607   35.4332   35.4332   36.5001   37.6116
   37.8940   37.8940   38.2102   38.2102   38.5327   38.5339   38.9389   39.3469   39.3481   40.2011
   40.3036   40.5688   40.5699   40.7683   40.7684   40.9302   40.9314   41.0715   41.0822   41.1726
   41.4489   41.5168   41.5513   42.5650   42.5650   42.5754   42.6570   42.8449   44.2894   44.4891
   44.4897   44.8330   44.8938   44.9195   44.9195   45.1635   45.2384   45.2387   45.6331   45.9291
   46.1931   46.2508   46.2509   46.5044   46.5302   46.7009   46.7011   47.8530   47.8530   47.8881
   47.8881   47.9598   47.9599   48.0343   48.0343   48.2335   48.5890   48.5892   50.3396   50.3397
   50.8529   50.8530   51.2905   51.2909   51.3162   51.9271   51.9274   51.9490   51.9491   52.7760
   53.3041   53.5927   53.5932   53.6165   53.6165   54.0274   54.1471   54.2912   54.5803   55.0907
   55.3580   55.3582   56.0003   56.1352   57.1080   57.1080   57.5857   57.5860   57.7649   58.6323
   58.6323   58.7835   59.6132   59.6134   59.6438   59.6439   60.2146   60.2146   61.4009   61.4009
   62.6747   62.9383   63.0464   63.0468   63.2323   63.9377   63.9386   65.1030   65.1044   65.6687
   65.6690   65.7519   65.7522   66.0123   66.1104   66.2461   67.0248   67.4553   67.9262   67.9272
   69.0286   69.9938   70.2137   70.4375   70.9743   71.3970   71.5648   71.5652   73.6996   73.7022
   73.7891   75.1461   75.9180   76.2311   76.2312   76.2535   76.2536   78.8705   80.5931   80.5943
   80.9792   80.9800   82.8713   90.6087   92.1091   93.1707   93.1725   94.1959   94.1984   96.1456
   97.3718   97.3751   98.3687   98.5781  100.3603  100.3630  102.0216  102.7777  102.7781  104.8324
  104.8332  105.1996  105.1997  107.1820  107.1822  107.5359  107.5366  107.5853  107.5859  108.0083
  108.6481  110.1769  110.1781  111.2932  111.2933  111.8953  112.5425  112.5455  113.0844  113.3949
  114.2796  115.9494  115.9500  116.7706  116.7731  119.7551  119.7573  119.9320  122.2978  122.2986
  124.5019  130.0316  131.1658  131.1671  135.7809  135.7831  138.3203  138.3218
   3  1  -25.7103  -25.6444  -24.4153  -24.3503  -23.7750  -23.7750  -23.7127  -23.7127  -22.5179  -22.5179
         -22.4602  -22.4602  -21.9068  -21.8515  -20.1839  -20.1839  -20.1374  -20.1374  -18.3239  -18.3239
  -18.2913  -18.2913  -18.1136  -18.0693  -17.0152  -17.0152  -16.9762  -16.9762  -16.0192  -16.0192
  -15.9942  -15.9942  -14.8957  -14.8957  -14.8708  -14.8708  -14.0518  -13.8184  -13.7994  -13.2666
  -12.9494  -12.9494  -12.9421  -12.9421  -12.6330  -12.6314  -12.5086  -12.3212  -12.3212  -12.3144
  -12.3144  -11.7803  -11.7605  -11.7605  -11.4412  -11.4378  -11.0663  -11.0663  -10.3538  -10.3538
  -10.1109  -10.1041   -9.7993   -9.7912   -9.7547   -9.7521   -9.7521   -9.2341   -7.8549   -7.8549
   -7.4792   -7.4792   -5.1110   -5.1110   -4.9211   -4.9211   -3.6992   -3.3143   -2.7420   -2.7420
   -2.4023   -2.4023   -1.9190   -0.4600   -0.4600   -0.2368   -0.2312   -0.2312    0.7785    0.7785
    0.8838    1.0607    1.2297    1.3319    1.7854    1.8809    2.0251    2.0251    2.0281    2.0532
    2.1101    2.1101    2.1875    2.3168    2.3168    2.4316    2.4316    2.6352    2.6436    2.8881
    2.8881    3.5493    3.8192    4.1322    4.1322    4.5613    4.5844    5.3845    5.3845    5.6703
    5.6703    5.9011    5.9011    5.9895    5.9895    6.1487    6.3132    6.3132    6.6752    6.7075
    6.8125    6.8125    7.0639    7.0720    7.0720    7.0794    7.1762    7.1762    7.3711    7.3711
    7.6893    8.3047    8.3938    8.3938    8.7109    8.7806    8.7806    9.1155    9.2789    9.6480
    9.6480    9.7822    9.7822   10.1048   10.6033   10.6033   10.7614   10.7614   10.8872   10.8872
   11.0118   11.0118   11.0682   11.0682   11.3750   11.4561   11.4561   11.8725   11.8725   11.9979
   12.5097   12.5237   12.6973   12.6973   13.0412   13.0412   13.0912   13.0912   13.7547   14.0250
   14.5161   14.5161   14.7452   14.7452   15.0720   16.0318   16.0318   16.0909   16.0909   16.6994
   16.6994   16.8359   16.8359   16.8377   17.5095   17.5095   17.8944   17.8944   17.9175   17.9175
   18.1690   18.1690   18.2933   18.2933   18.3305   18.5826   19.1345   19.1754   19.1754   19.3019
   19.4042   19.5087   19.5087   19.6436   19.9893   19.9893   20.0516   20.0516   20.7696   20.8400
   20.8873   20.8874   21.0087   21.2437   21.2437   21.3575   21.7204   21.7204   21.8983   21.8983
   22.0160   22.8133   23.2503   23.2503   23.2990   23.2990   23.9938   23.9938   24.8173   25.0401
   25.0436   25.3010   25.6448   25.8122   25.8123   26.6728   26.7778   26.7778   27.8204   28.3598
   29.0919   30.3366   30.3366   30.8830   30.8901   30.8901   32.0185   32.4891   32.4891   33.0201
   33.0201   34.5957   34.5957   34.7628   35.3607   35.3607   35.4332   35.4332   36.5001   37.6104
   37.8940   37.8940   38.2102   38.2102   38.5336   38.5336   38.9382   39.3479   39.3479   40.2002
   40.3037   40.5701   40.5701   40.7683   40.7683   40.9315   40.9315   41.0717   41.0822   41.1727
   41.4487   41.5170   41.5498   42.5650   42.5650   42.5752   42.6568   42.8441   44.2903   44.4895
   44.4895   44.8333   44.8951   44.9195   44.9195   45.1643   45.2386   45.2386   45.6314   45.9273
   46.1933   46.2508   46.2508   46.5048   46.5310   46.7007   46.7007   47.8530   47.8530   47.8879
   47.8879   47.9598   47.9598   48.0341   48.0341   48.2337   48.5888   48.5888   50.3396   50.3396
   50.8529   50.8529   51.2907   51.2907   51.3172   51.9273   51.9273   51.9490   51.9490   52.7762
   53.3043   53.5932   53.5932   53.6163   53.6163   54.0272   54.1468   54.2909   54.5805   55.0911
   55.3579   55.3579   56.0003   56.1358   57.1081   57.1081   57.5857   57.5857   57.7662   58.6322
   58.6322   58.7840   59.6135   59.6135   59.6440   59.6440   60.2147   60.2147   61.4010   61.4010
   62.6730   62.9383   63.0463   63.0464   63.2305   63.9384   63.9384   65.1044   65.1045   65.6690
   65.6690   65.7522   65.7522   66.0119   66.1100   66.2461   67.0262   67.4567   67.9280   67.9281
   69.0293   69.9908   70.2105   70.4344   70.9712   71.4002   71.5660   71.5662   73.7001   73.7001
   73.7911   75.1444   75.9201   76.2311   76.2311   76.2536   76.2536   78.8712   80.5921   80.5922
   80.9805   80.9807   82.8722   90.6107   92.1105   93.1700   93.1700   94.1960   94.1960   96.1482
   97.3725   97.3726   98.3702   98.5762  100.3606  100.3606  102.0184  102.7788  102.7788  104.8341
  104.8344  105.1992  105.1993  107.1816  107.1818  107.5361  107.5361  107.5845  107.5845  108.0100
  108.6491  110.1780  110.1783  111.2946  111.2949  111.8909  112.5439  112.5445  113.0800  113.3954
  114.2804  115.9502  115.9505  116.7730  116.7735  119.7586  119.7591  119.9324  122.2977  122.2978
  124.4978  130.0318  131.1665  131.1667  135.7814  135.7829  138.3210  138.3225
   4  1  -25.3869  -25.3190  -24.7380  -24.7380  -24.6718  -24.6718  -22.8295  -22.8295  -22.7706  -22.7706
         -21.6040  -21.5494  -21.0408  -21.0407  -20.9911  -20.9911  -20.2160  -20.1883  -19.2006  -19.1809
  -18.9502  -18.9500  -18.9071  -18.9070  -16.9056  -16.8862  -15.8762  -15.8762  -15.8506  -15.8506
  -15.3111  -15.2955  -14.5979  -14.5773  -13.8419  -13.8418  -13.8272  -13.8271  -13.6607  -13.2747
  -13.2744  -13.2667  -13.2664  -12.8884  -12.8880  -12.8880  -12.8296  -12.8293  -12.8197  -12.8194
  -12.1439  -12.1439  -11.4456  -11.4453  -11.4387  -11.4383  -11.1333  -11.1297  -10.6708  -10.6708
  -10.4624  -10.4558  -10.0332  -10.0332   -9.3010   -8.9643   -8.9643   -8.7525   -8.5859   -8.5859
   -8.2077   -7.9618   -4.9145   -4.7455   -4.4835   -4.4835   -4.1568   -4.1567   -3.6074   -3.4026
   -1.9830   -1.9830   -1.7683   -1.7682   -1.5957   -0.7007   -0.7007    1.7817    1.7817    1.8740
    1.8742    1.8757    1.8757    1.9862    1.9864    2.3304    2.3305    2.3503    2.3998    2.5084
    2.5309    2.5312    2.6089    2.6092    3.1657    3.1657    3.5458    3.5525    3.5579    3.6008
    3.6245    3.8077    3.9277    3.9278    4.0977    4.0978    4.2055    4.8473    4.8473    5.1062
    5.1067    5.1356    5.1361    5.1422    5.1423    5.4998    5.7947    6.0549    6.2294    6.4493
    6.5705    6.5706    6.5719    6.6554    6.8064    6.8064    6.8196    6.9190    6.9191    7.3644
    7.3646    7.3974    7.4403    7.7014    8.0299    8.2572    8.7240    8.7240    8.8585    8.8585
    8.9352    8.9353    9.0296    9.0298   10.4186   10.4855   10.4855   10.6563   10.6563   11.1454
   11.1456   11.2530   11.3253   11.8170   11.8733   11.8734   12.0688   12.7127   12.7130   13.4318
   13.4326   13.5065   13.5065   13.5309   13.5311   13.5603   13.7421   13.7421   13.8632   14.0246
   14.0464   14.0464   14.2012   14.2020   14.6377   15.1631   15.8881   16.6531   16.8197   16.9217
   16.9217   17.0666   17.0835   17.0835   17.3487   17.3494   17.8432   17.9787   18.1946   18.1950
   18.4152   18.4372   18.4969   18.4969   18.8768   18.8775   19.0932   19.2243   19.2244   19.7205
   20.0501   20.0501   20.0574   20.0574   20.2044   20.2048   20.7197   20.7197   20.8209   20.8209
   20.9844   20.9847   21.0255   21.0255   21.3046   21.4687   21.5115   21.5230   21.7582   21.7589
   22.7499   22.9674   23.0419   23.3917   23.3917   23.8473   23.8473   23.8668   23.8670   23.8726
   24.5945   24.5946   24.8728   24.8729   24.9193   24.9201   24.9202   25.2929   28.4599   28.4600
   29.4686   31.3101   31.6524   32.0100   32.0105   32.1401   32.6697   32.7858   32.7858   32.8635
   34.4624   34.4625   34.5689   34.5696   34.5959   34.5960   35.7163   35.7163   36.5901   36.5901
   36.9013   37.1585   37.1593   37.2202   37.2203   37.2906   38.1036   38.5748   38.5757   38.7726
   38.7727   39.8279   41.2598   41.5459   41.7720   41.8152   41.8157   42.2336   42.2341   42.6469
   42.6479   42.6781   42.6781   42.8488   42.8500   42.8970   43.3128   43.3485   43.3487   43.5999
   43.8764   43.8769   44.2800   44.2802   44.4554   44.6518   44.7859   44.8632   44.8633   45.2382
   45.2706   45.2715   45.3232   45.7593   45.7596   46.3333   46.3334   46.3587   46.4072   46.7113
   46.7114   47.1630   47.1635   48.3921   48.4081   48.7408   48.7410   48.7775   49.0213   49.1702
   49.1702   50.1786   50.1787   50.6994   52.1491   52.1493   52.2896   52.2897   52.4518   52.8835
   52.8837   52.9571   53.1751   53.1753   53.6860   53.6861   54.2915   54.2917   54.3591   55.7669
   55.7671   56.1631   56.8337   57.6094   57.6096   58.6012   58.6013   58.9013   59.3518   59.6997
   59.7000   60.0701   60.2690   60.2693   60.5512   60.6389   61.4253   61.5341   61.5351   61.9512
   61.9513   62.0312   62.0324   62.9671   63.4594   63.9138   64.5493   64.5495   64.5628   65.8628
   65.8633   66.4254   66.4255   66.4513   66.4514   69.2441   69.2463   69.3844   69.3847   69.4820
   69.4823   70.0037   72.5178   72.5178   72.5510   72.5536   73.5831   73.6067   73.6467   74.8343
   74.8348   75.6693   76.3011   79.6425   79.6446   80.1397   82.1787   82.2698   82.2715   84.5551
   84.5552   85.1161   85.1183   87.8408   87.8420   90.8176   90.8193   94.0190   95.1351   96.4236
   96.4255   96.8066   96.8082   97.9660   98.3940   98.3966   98.8676   99.3708   99.3710   99.9428
   99.9453  103.9895  104.6081  104.7400  105.0232  106.5629  106.5635  107.9229  107.9233  110.2213
  110.5302  110.5308  110.6774  110.6774  112.8737  112.8754  113.5497  113.5511  114.3920  115.1005
  115.1032  115.2517  115.3794  115.3801  115.7206  116.3145  116.9949  117.9569  117.9577  118.7851
  120.0451  120.0480  122.4767  122.4780  122.5450  124.3458  125.5845  131.0165
   5  1  -25.7103  -25.6444  -24.4154  -24.3504  -23.7750  -23.7750  -23.7127  -23.7127  -22.5179  -22.5179
         -22.4602  -22.4602  -21.9069  -21.8515  -20.1839  -20.1838  -20.1374  -20.1373  -18.3239  -18.3238
  -18.2913  -18.2912  -18.1137  -18.0695  -17.0152  -17.0150  -16.9762  -16.9760  -16.0194  -16.0192
  -15.9944  -15.9942  -14.8957  -14.8955  -14.8708  -14.8706  -14.0518  -13.8187  -13.7997  -13.2666
  -12.9497  -12.9494  -12.9425  -12.9421  -12.6326  -12.6310  -12.5086  -12.3215  -12.3212  -12.3148
  -12.3144  -11.7803  -11.7605  -11.7605  -11.4408  -11.4374  -11.0663  -11.0663  -10.3538  -10.3538
  -10.1113  -10.1045   -9.7989   -9.7908   -9.7547   -9.7521   -9.7521   -9.2341   -7.8550   -7.8549
   -7.4792   -7.4792   -5.1110   -5.1110   -4.9211   -4.9211   -3.6992   -3.3144   -2.7420   -2.7420
   -2.4023   -2.4023   -1.9190   -0.4600   -0.4600   -0.2369   -0.2312   -0.2311    0.7785    0.7785
    0.8838    1.0607    1.2295    1.3317    1.7850    1.8805    2.0252    2.0254    2.0276    2.0526
    2.1102    2.1103    2.1875    2.3167    2.3170    2.4315    2.4318    2.6358    2.6441    2.8880
    2.8881    3.5493    3.8191    4.1322    4.1322    4.5613    4.5844    5.3845    5.3845    5.6703
    5.6704    5.9011    5.9011    5.9895    5.9896    6.1487    6.3130    6.3131    6.6752    6.7074
    6.8125    6.8125    7.0646    7.0721    7.0722    7.0801    7.1758    7.1760    7.3706    7.3710
    7.6893    8.3044    8.3940    8.3941    8.7106    8.7808    8.7809    9.1153    9.2788    9.6480
    9.6482    9.7822    9.7823   10.1048   10.6033   10.6035   10.7614   10.7614   10.8868   10.8872
   11.0118   11.0120   11.0684   11.0684   11.3747   11.4561   11.4561   11.8717   11.8722   11.9974
   12.5107   12.5248   12.6973   12.6973   13.0409   13.0409   13.0911   13.0912   13.7547   14.0250
   14.5161   14.5161   14.7452   14.7452   15.0720   16.0315   16.0315   16.0909   16.0909   16.6995
   16.7000   16.8359   16.8359   16.8370   17.5096   17.5099   17.8945   17.8947   17.9174   17.9175
   18.1690   18.1690   18.2932   18.2933   18.3306   18.5823   19.1346   19.1753   19.1754   19.3019
   19.4042   19.5086   19.5087   19.6429   19.9893   19.9893   20.0514   20.0522   20.7697   20.8399
   20.8873   20.8874   21.0086   21.2441   21.2445   21.3576   21.7203   21.7203   21.8983   21.8983
   22.0153   22.8133   23.2504   23.2505   23.2990   23.2990   23.9938   23.9938   24.8174   25.0402
   25.0437   25.3009   25.6447   25.8119   25.8123   26.6723   26.7780   26.7781   27.8197   28.3590
   29.0920   30.3365   30.3366   30.8829   30.8901   30.8901   32.0189   32.4891   32.4896   33.0201
   33.0205   34.5960   34.5963   34.7627   35.3604   35.3607   35.4332   35.4332   36.5001   37.6116
   37.8940   37.8940   38.2102   38.2102   38.5327   38.5339   38.9389   39.3469   39.3481   40.2011
   40.3036   40.5688   40.5699   40.7683   40.7684   40.9302   40.9314   41.0715   41.0822   41.1726
   41.4488   41.5168   41.5513   42.5650   42.5650   42.5754   42.6570   42.8449   44.2894   44.4891
   44.4897   44.8330   44.8938   44.9195   44.9195   45.1635   45.2384   45.2388   45.6331   45.9291
   46.1931   46.2508   46.2509   46.5044   46.5302   46.7009   46.7011   47.8530   47.8530   47.8881
   47.8881   47.9598   47.9599   48.0343   48.0343   48.2335   48.5890   48.5892   50.3396   50.3397
   50.8529   50.8530   51.2905   51.2909   51.3162   51.9271   51.9274   51.9490   51.9491   52.7760
   53.3041   53.5927   53.5932   53.6165   53.6165   54.0274   54.1471   54.2912   54.5803   55.0907
   55.3580   55.3582   56.0003   56.1351   57.1080   57.1080   57.5857   57.5860   57.7650   58.6323
   58.6323   58.7836   59.6132   59.6134   59.6438   59.6439   60.2146   60.2146   61.4009   61.4009
   62.6746   62.9383   63.0464   63.0468   63.2322   63.9377   63.9385   65.1030   65.1045   65.6687
   65.6690   65.7519   65.7522   66.0123   66.1104   66.2461   67.0247   67.4553   67.9262   67.9272
   69.0286   69.9937   70.2137   70.4375   70.9743   71.3970   71.5649   71.5651   73.6997   73.7023
   73.7891   75.1457   75.9180   76.2311   76.2312   76.2535   76.2536   78.8704   80.5932   80.5944
   80.9793   80.9799   82.8715   90.6087   92.1091   93.1707   93.1725   94.1959   94.1984   96.1454
   97.3719   97.3750   98.3686   98.5777  100.3603  100.3629  102.0211  102.7776  102.7782  104.8325
  104.8336  105.1996  105.1997  107.1820  107.1823  107.5359  107.5366  107.5853  107.5858  108.0084
  108.6481  110.1767  110.1782  111.2935  111.2938  111.8949  112.5422  112.5458  113.0840  113.3948
  114.2796  115.9493  115.9501  116.7706  116.7735  119.7555  119.7582  119.9320  122.2978  122.2987
  124.5011  130.0316  131.1658  131.1672  135.7811  135.7826  138.3204  138.3215
   6  1  -25.8672  -25.8073  -23.2991  -23.2991  -23.2991  -23.2991  -23.2990  -23.2990  -23.2385  -23.2385
         -23.2385  -23.2385  -23.2385  -23.2385  -18.9754  -18.9754  -18.9496  -18.9496  -18.9496  -18.9496
  -18.9251  -18.9251  -16.8925  -16.8925  -16.8925  -16.8925  -16.0178  -16.0178  -16.0178  -16.0178
  -16.0176  -16.0176  -15.9834  -15.9834  -15.9834  -15.9834  -15.9833  -15.9832  -14.2483  -13.4570
  -12.1651  -12.1651  -12.1648  -12.1648  -12.1648  -12.1648  -12.1631  -12.1631  -12.1628  -12.1628
  -12.1628  -12.1628  -11.2230  -11.2230  -11.2230  -11.2230  -11.2230  -11.2230  -10.5615  -10.5615
  -10.5615  -10.5615  -10.5615  -10.5615   -9.4683   -9.4677   -9.4592   -9.4586   -6.5472   -6.5472
   -6.3235   -6.3235   -6.3235   -6.3235   -6.0823   -6.0823   -1.9406   -1.5332   -1.5332   -1.5332
   -1.5332   -1.5332   -1.5332   -1.2083   -1.2083   -1.2083   -1.2082   -1.2082   -1.2082    1.3245
    1.3245    1.3245    1.3245    1.3247    1.3247    1.4878    1.4878    1.4878    1.4878    1.4880
    1.4880    1.7805    1.7805    1.7805    1.7805    1.7806    1.7806    1.9369    1.9376    1.9448
    1.9455    2.0264    4.7020    4.7020    4.7020    4.7020    4.7020    4.7020    5.1031    5.1165
    5.8889    5.8889    5.8889    5.8889    6.3688    6.3990    6.4530    6.4530    6.9314    6.9314
    6.9316    6.9316    7.5470    8.1411    8.1411    9.2378    9.2378    9.2381    9.2381    9.2687
    9.2687    9.2688    9.2688    9.2691    9.2691    9.9359    9.9359    9.9368    9.9368    9.9368
    9.9368    9.9565    9.9565    9.9573    9.9573    9.9573    9.9573   10.3176   10.3176   10.3176
   10.3176   10.3178   10.3178   10.7983   10.7983   10.7983   10.7983   10.7988   10.7988   11.5077
   11.5077   12.3525   12.3525   12.3879   12.3879   12.3879   12.3879   12.3879   12.3879   13.9904
   14.9425   14.9425   14.9425   14.9425   16.1292   16.1292   16.1292   16.1292   16.1292   16.1292
   16.5042   16.5042   16.5042   16.5042   16.7495   16.7495   16.7496   16.7496   16.7500   16.7500
   18.4623   18.4623   18.4623   18.4623   18.9178   18.9178   19.2585   19.2585   19.2586   19.2586
   19.2586   19.2586   19.9794   19.9794   19.9795   19.9795   19.9795   19.9795   20.5548   20.6168
   20.7771   20.7771   20.7771   20.7771   20.7772   20.7772   21.1047   21.1047   21.1047   21.1047
   21.1054   21.1055   24.4419   24.4419   25.8755   25.8757   25.9491   25.9493   26.5234   26.5234
   26.5235   26.5235   26.5235   26.5235   27.4505   27.4505   27.4505   27.4505   27.4514   27.4514
   28.9983   28.9983   28.9983   28.9983   28.9987   28.9987   29.8757   29.8757   29.8757   29.8757
   35.0111   35.0111   35.0116   35.0116   35.0116   35.0116   35.7472   35.7472   35.7472   35.7472
   35.7473   35.7473   39.3242   39.3242   39.3255   39.3255   39.3255   39.3255   40.5470   40.5473
   40.5951   40.5954   40.6105   40.6105   40.9911   40.9911   40.9920   40.9920   40.9920   40.9920
   42.0849   42.0849   42.0849   42.0849   42.2711   42.2711   42.2712   42.2712   42.2713   42.2713
   45.3644   45.3644   45.3644   45.3644   45.3650   45.3650   46.3263   46.3286   46.3879   46.3879
   46.5831   46.5853   46.8348   46.8348   46.8348   46.8348   46.8349   46.8349   49.7215   49.7222
   50.4055   50.4055   50.4055   50.4055   50.4057   50.4057   51.2630   51.2630   51.8093   51.8093
   51.8094   51.8094   51.9788   51.9788   51.9788   51.9788   51.9790   51.9790   52.0778   52.0778
   52.0778   52.0778   52.0782   52.0782   52.2378   52.2378   55.1025   55.1025   55.1025   55.1025
   55.1031   55.1031   55.6480   56.1451   56.1459   57.6271   57.6271   58.4615   58.6967   58.6967
   58.6967   58.6968   59.9361   59.9361   60.8603   60.8603   60.8606   60.8606   60.8607   60.8607
   60.9697   60.9697   60.9700   60.9700   60.9700   60.9701   66.1768   66.2340   66.6962   66.6962
   66.6962   66.6962   66.6974   66.6974   66.8836   66.8837   66.8860   66.8860   66.8860   66.8861
   67.0052   67.0053   67.0075   67.0076   67.0076   67.0077   69.3124   69.3159   69.9550   69.9591
   73.5930   73.5950   76.6164   76.6165   76.6165   76.6165   76.6175   76.6176   77.9849   77.9849
   77.9850   77.9850   79.4510   79.4524   94.7778   94.7778   94.7779   94.7779   94.7803   94.7803
   97.7910   97.7910   97.7910   97.7911   97.7936   97.7936  106.2421  106.2421  106.2422  106.2422
  106.2425  106.2425  108.4110  108.4110  108.4110  108.4111  109.3128  109.3128  109.3161  109.3162
  109.3165  109.3168  110.6883  110.6883  110.6883  110.6884  110.6890  110.6891  115.2908  115.2909
  115.2945  115.2946  115.2950  115.2953  118.9273  118.9275  125.5460  126.6437  126.6438  126.6441
  126.6442  132.0202  140.5712  140.5715  162.9348  162.9351  162.9371  162.9374
   7  1  -25.2245  -25.2245  -25.1567  -25.1567  -23.9347  -23.9347  -23.8718  -23.8718  -21.4569  -21.4569
         -21.4569  -21.4569  -21.4032  -21.4032  -21.4032  -21.4032  -20.6357  -20.6069  -19.6023  -19.5798
  -17.7836  -17.7836  -17.7835  -17.7835  -17.7441  -17.7441  -17.7439  -17.7439  -14.4148  -14.4148
  -14.4145  -14.4145  -14.3958  -14.3958  -14.3955  -14.3955  -14.1514  -14.1514  -14.1416  -14.1416
  -13.4664  -13.4664  -12.7933  -12.7929  -12.7929  -12.7918  -12.7821  -12.7821  -12.7009  -12.7009
  -11.9421  -11.9421  -11.7321  -11.7321  -11.7245  -11.7245  -11.2375  -11.2375  -10.5756  -10.5756
  -10.5698  -10.5698   -9.2021   -9.2021   -9.2021   -9.2021   -8.8046   -8.6943   -8.6943   -8.6943
   -8.6943   -8.5530   -4.7361   -4.4222   -3.9258   -3.9258   -3.9258   -3.9257   -3.6467   -3.6467
   -3.6467   -3.6467   -1.3934   -1.3934    0.0283    0.0283    0.1654    0.1654    0.5590    0.5590
    1.1463    1.2563    2.0263    2.0263    2.0833    2.0833    2.6228    2.6228    3.0697    3.0697
    3.1841    3.1841    3.7050    3.7050    3.7050    3.7050    3.7083    3.7083    3.8222    3.8222
    3.8589    3.8589    3.8589    3.8589    3.8851    3.8851    4.4907    4.4907    4.5013    4.5013
    4.5135    4.5135    4.5136    4.5136    5.2708    5.2708    5.3110    5.3110    5.9084    5.9084
    5.9084    5.9084    5.9425    6.5201    7.4757    7.5499    7.5499    7.5499    7.5499    7.5864
    7.5864    7.6925    7.6925    8.2249    8.2249    8.4727    8.6690    8.6690    8.6690    8.6690
    9.0861    9.0861    9.0862    9.0862    9.6273    9.6273   11.0647   11.0647   11.2618   11.2618
   11.4448   11.4448   11.4451   11.4451   11.9022   12.3460   12.3460   12.3460   12.3460   12.4036
   12.4875   12.4875   12.9631   12.9631   12.9636   12.9636   13.6602   13.6633   14.0388   14.0388
   14.8100   15.1823   15.1823   15.1824   15.1824   16.6878   16.6878   16.6878   16.6878   16.8141
   16.8141   17.1652   17.1652   17.1655   17.1655   17.3267   17.3267   17.3271   17.3271   17.4132
   18.0189   18.7403   18.8035   18.8511   18.9804   18.9804   19.2420   19.2420   19.2424   19.2424
   19.3318   19.3318   19.3853   19.3853   19.6533   19.6533   19.6533   19.6533   21.0384   21.0384
   21.7450   21.7450   22.2794   22.2794   22.2795   22.2795   22.3679   22.3679   22.6160   22.6160
   22.7500   22.7500   23.0838   23.0838   23.0838   23.0838   23.1662   23.1662   23.2527   23.2527
   24.4271   24.5126   24.5126   24.5901   24.5901   25.9454   25.9454   27.5790   27.6278   27.6278
   28.6323   30.7389   31.9738   31.9738   31.9738   31.9738   33.2006   33.2006   33.2007   33.2007
   33.4285   33.4285   33.7578   33.7578   35.2193   35.2682   35.2682   35.6503   35.6503   36.4496
   36.4496   36.4497   36.4497   36.9279   38.7091   39.5598   39.5598   39.7795   39.7795   39.7795
   39.7795   40.0471   41.2011   41.2011   42.2272   42.2272   42.2277   42.2277   42.4858   42.4858
   42.7306   42.7306   42.7978   42.7978   42.7980   42.7980   42.8337   42.8337   43.2661   43.2661
   43.2805   43.2805   43.9146   43.9146   44.0694   44.0694   44.5008   44.5008   44.5714   44.5715
   44.6292   44.6292   45.4580   45.4580   45.9256   46.5273   46.5273   46.7778   47.5945   47.5945
   47.7332   47.7332   48.0743   48.0743   48.0744   48.0744   49.6642   49.6642   49.6644   49.6644
   50.1776   50.1776   50.1776   50.1776   50.4429   50.4429   50.9570   50.9570   50.9573   50.9573
   52.4005   52.4005   53.3399   53.3692   53.3692   54.4325   54.5201   55.6486   56.4661   56.4661
   56.4662   56.4662   57.2571   57.2571   57.2573   57.2573   57.3694   57.3694   57.9500   57.9500
   59.6246   59.6246   59.8712   59.8712   61.2456   61.3799   61.4529   61.4529   61.4529   61.4530
   61.7566   61.7566   62.6583   62.6584   63.4435   63.4435   63.4440   63.4441   63.5189   63.5190
   67.1981   67.1981   67.9584   67.9965   67.9965   68.0655   70.7084   70.7084   71.1081   71.2618
   71.2619   71.6077   71.6078   71.6079   71.6080   71.6560   71.6560   71.6562   71.6562   74.2721
   74.2722   81.6736   81.6736   81.6739   81.6740   82.7587   82.7588   83.0787   83.0787   83.6846
   84.9078   84.9079   88.8528   88.8528   89.4603   89.4604   89.9034   89.9035   91.2406   91.4171
   91.4171   95.1257   95.1257   95.1259   95.1259   96.3293  103.1922  103.1923  103.1953  103.1954
  103.7304  103.7305  104.0872  104.0872  104.0898  104.0898  107.6524  107.6526  110.3499  110.3500
  110.3505  110.3506  111.5461  111.5464  111.8546  111.9901  111.9901  112.8555  114.1175  114.2072
  114.2072  114.2094  114.2094  115.9094  116.7358  116.7359  116.7376  116.7377  118.8770  118.8771
  122.1242  122.1243  122.8618  122.8618  123.5484  123.5484  123.5504  123.5506
   8  1  -25.3869  -25.3190  -24.7380  -24.7380  -24.6718  -24.6718  -22.8295  -22.8295  -22.7706  -22.7706
         -21.6040  -21.5494  -21.0408  -21.0407  -20.9911  -20.9911  -20.2160  -20.1883  -19.2006  -19.1809
  -18.9502  -18.9500  -18.9071  -18.9070  -16.9056  -16.8862  -15.8762  -15.8762  -15.8506  -15.8506
  -15.3111  -15.2955  -14.5979  -14.5773  -13.8419  -13.8418  -13.8272  -13.8271  -13.6607  -13.2747
  -13.2744  -13.2667  -13.2664  -12.8884  -12.8880  -12.8880  -12.8296  -12.8293  -12.8197  -12.8194
  -12.1439  -12.1439  -11.4456  -11.4453  -11.4387  -11.4383  -11.1333  -11.1297  -10.6708  -10.6708
  -10.4624  -10.4558  -10.0332  -10.0332   -9.3010   -8.9643   -8.9643   -8.7525   -8.5859   -8.5859
   -8.2077   -7.9618   -4.9145   -4.7455   -4.4835   -4.4835   -4.1568   -4.1567   -3.6074   -3.4026
   -1.9830   -1.9830   -1.7683   -1.7682   -1.5957   -0.7007   -0.7007    1.7817    1.7817    1.8740
    1.8742    1.8757    1.8757    1.9862    1.9864    2.3304    2.3305    2.3503    2.3998    2.5084
    2.5309    2.5312    2.6089    2.6092    3.1657    3.1657    3.5458    3.5525    3.5579    3.6008
    3.6245    3.8077    3.9277    3.9278    4.0977    4.0978    4.2055    4.8473    4.8473    5.1062
    5.1067    5.1356    5.1361    5.1422    5.1423    5.4998    5.7947    6.0549    6.2294    6.4493
    6.5705    6.5706    6.5719    6.6554    6.8064    6.8064    6.8196    6.9190    6.9191    7.3644
    7.3646    7.3974    7.4403    7.7014    8.0299    8.2572    8.7240    8.7240    8.8585    8.8585
    8.9352    8.9353    9.0296    9.0298   10.4186   10.4855   10.4855   10.6563   10.6563   11.1454
   11.1456   11.2530   11.3253   11.8170   11.8733   11.8734   12.0688   12.7127   12.7130   13.4318
   13.4326   13.5065   13.5065   13.5309   13.5311   13.5603   13.7421   13.7421   13.8632   14.0246
   14.0464   14.0464   14.2012   14.2020   14.6377   15.1631   15.8881   16.6531   16.8197   16.9217
   16.9217   17.0666   17.0835   17.0835   17.3487   17.3494   17.8432   17.9787   18.1946   18.1950
   18.4152   18.4372   18.4969   18.4969   18.8768   18.8775   19.0932   19.2243   19.2244   19.7205
   20.0501   20.0501   20.0574   20.0574   20.2044   20.2048   20.7197   20.7197   20.8209   20.8209
   20.9844   20.9847   21.0255   21.0255   21.3046   21.4687   21.5115   21.5230   21.7582   21.7589
   22.7499   22.9674   23.0419   23.3917   23.3917   23.8473   23.8473   23.8668   23.8670   23.8726
   24.5945   24.5946   24.8728   24.8729   24.9193   24.9201   24.9202   25.2929   28.4599   28.4600
   29.4686   31.3101   31.6524   32.0100   32.0105   32.1401   32.6697   32.7858   32.7858   32.8635
   34.4624   34.4625   34.5689   34.5696   34.5959   34.5960   35.7163   35.7163   36.5901   36.5901
   36.9013   37.1585   37.1593   37.2202   37.2203   37.2906   38.1036   38.5748   38.5757   38.7726
   38.7727   39.8279   41.2598   41.5459   41.7720   41.8152   41.8157   42.2336   42.2341   42.6469
   42.6479   42.6781   42.6781   42.8488   42.8500   42.8970   43.3128   43.3485   43.3487   43.5999
   43.8764   43.8769   44.2800   44.2802   44.4554   44.6518   44.7859   44.8632   44.8633   45.2382
   45.2706   45.2715   45.3232   45.7593   45.7596   46.3333   46.3334   46.3587   46.4072   46.7113
   46.7114   47.1630   47.1635   48.3921   48.4081   48.7408   48.7410   48.7775   49.0213   49.1702
   49.1702   50.1786   50.1787   50.6994   52.1491   52.1493   52.2896   52.2897   52.4518   52.8835
   52.8837   52.9571   53.1751   53.1753   53.6860   53.6861   54.2915   54.2917   54.3591   55.7669
   55.7671   56.1631   56.8337   57.6094   57.6096   58.6012   58.6013   58.9013   59.3518   59.6997
   59.7000   60.0701   60.2690   60.2693   60.5512   60.6389   61.4253   61.5341   61.5351   61.9512
   61.9513   62.0312   62.0324   62.9671   63.4594   63.9138   64.5493   64.5495   64.5628   65.8628
   65.8633   66.4254   66.4255   66.4513   66.4514   69.2441   69.2463   69.3844   69.3847   69.4820
   69.4823   70.0037   72.5178   72.5178   72.5510   72.5536   73.5831   73.6067   73.6467   74.8343
   74.8348   75.6693   76.3011   79.6425   79.6446   80.1397   82.1787   82.2698   82.2715   84.5551
   84.5552   85.1161   85.1183   87.8408   87.8420   90.8176   90.8193   94.0190   95.1351   96.4236
   96.4255   96.8066   96.8082   97.9660   98.3940   98.3966   98.8676   99.3708   99.3710   99.9428
   99.9453  103.9895  104.6081  104.7400  105.0232  106.5629  106.5635  107.9229  107.9233  110.2213
  110.5302  110.5308  110.6774  110.6774  112.8737  112.8754  113.5497  113.5511  114.3920  115.1005
  115.1032  115.2517  115.3794  115.3801  115.7206  116.3145  116.9949  117.9569  117.9577  118.7851
  120.0451  120.0480  122.4767  122.4780  122.5450  124.3458  125.5845  131.0165
   9  1  -25.3869  -25.3190  -24.7380  -24.7380  -24.6718  -24.6718  -22.8295  -22.8295  -22.7706  -22.7706
         -21.6040  -21.5494  -21.0408  -21.0407  -20.9911  -20.9911  -20.2160  -20.1883  -19.2006  -19.1809
  -18.9502  -18.9500  -18.9071  -18.9070  -16.9056  -16.8862  -15.8762  -15.8762  -15.8506  -15.8506
  -15.3111  -15.2955  -14.5979  -14.5773  -13.8419  -13.8418  -13.8272  -13.8271  -13.6607  -13.2747
  -13.2744  -13.2667  -13.2664  -12.8884  -12.8880  -12.8880  -12.8296  -12.8293  -12.8197  -12.8194
  -12.1439  -12.1439  -11.4456  -11.4453  -11.4387  -11.4383  -11.1333  -11.1297  -10.6708  -10.6708
  -10.4624  -10.4558  -10.0332  -10.0332   -9.3010   -8.9643   -8.9643   -8.7525   -8.5859   -8.5859
   -8.2077   -7.9618   -4.9145   -4.7455   -4.4835   -4.4835   -4.1568   -4.1567   -3.6074   -3.4026
   -1.9830   -1.9830   -1.7683   -1.7682   -1.5957   -0.7007   -0.7007    1.7817    1.7817    1.8740
    1.8742    1.8757    1.8757    1.9862    1.9864    2.3304    2.3305    2.3503    2.3998    2.5084
    2.5309    2.5312    2.6089    2.6092    3.1657    3.1657    3.5458    3.5525    3.5579    3.6008
    3.6245    3.8077    3.9277    3.9278    4.0977    4.0978    4.2055    4.8473    4.8473    5.1062
    5.1067    5.1356    5.1361    5.1422    5.1423    5.4998    5.7947    6.0549    6.2294    6.4493
    6.5705    6.5706    6.5719    6.6554    6.8064    6.8064    6.8196    6.9190    6.9191    7.3644
    7.3646    7.3974    7.4403    7.7014    8.0299    8.2572    8.7240    8.7240    8.8585    8.8585
    8.9352    8.9353    9.0296    9.0298   10.4186   10.4855   10.4855   10.6563   10.6563   11.1454
   11.1456   11.2530   11.3253   11.8170   11.8733   11.8734   12.0688   12.7127   12.7130   13.4318
   13.4326   13.5065   13.5065   13.5309   13.5311   13.5603   13.7421   13.7421   13.8632   14.0246
   14.0464   14.0464   14.2012   14.2020   14.6377   15.1631   15.8881   16.6531   16.8197   16.9217
   16.9217   17.0666   17.0835   17.0835   17.3487   17.3494   17.8432   17.9787   18.1946   18.1950
   18.4152   18.4372   18.4969   18.4969   18.8768   18.8775   19.0932   19.2243   19.2244   19.7205
   20.0501   20.0501   20.0574   20.0574   20.2044   20.2048   20.7197   20.7197   20.8209   20.8209
   20.9844   20.9847   21.0255   21.0255   21.3046   21.4687   21.5115   21.5230   21.7582   21.7589
   22.7499   22.9674   23.0419   23.3917   23.3917   23.8473   23.8473   23.8668   23.8670   23.8726
   24.5945   24.5946   24.8728   24.8729   24.9193   24.9201   24.9202   25.2929   28.4599   28.4600
   29.4686   31.3101   31.6524   32.0100   32.0105   32.1401   32.6697   32.7858   32.7858   32.8635
   34.4624   34.4625   34.5689   34.5696   34.5959   34.5960   35.7163   35.7163   36.5901   36.5901
   36.9013   37.1585   37.1593   37.2202   37.2203   37.2906   38.1036   38.5748   38.5757   38.7726
   38.7727   39.8279   41.2598   41.5459   41.7720   41.8152   41.8157   42.2336   42.2341   42.6469
   42.6479   42.6781   42.6781   42.8488   42.8500   42.8970   43.3128   43.3485   43.3487   43.5999
   43.8763   43.8769   44.2800   44.2802   44.4554   44.6518   44.7859   44.8632   44.8633   45.2382
   45.2706   45.2715   45.3232   45.7593   45.7596   46.3333   46.3334   46.3587   46.4072   46.7113
   46.7114   47.1630   47.1635   48.3921   48.4081   48.7408   48.7410   48.7775   49.0213   49.1702
   49.1702   50.1786   50.1787   50.6994   52.1491   52.1493   52.2896   52.2897   52.4518   52.8835
   52.8837   52.9571   53.1751   53.1753   53.6860   53.6861   54.2915   54.2917   54.3591   55.7669
   55.7671   56.1631   56.8337   57.6094   57.6096   58.6012   58.6012   58.9013   59.3519   59.6997
   59.7000   60.0701   60.2690   60.2693   60.5512   60.6389   61.4253   61.5342   61.5351   61.9512
   61.9513   62.0312   62.0325   62.9671   63.4594   63.9138   64.5493   64.5495   64.5628   65.8628
   65.8633   66.4254   66.4255   66.4513   66.4514   69.2441   69.2464   69.3844   69.3847   69.4820
   69.4823   70.0037   72.5178   72.5178   72.5510   72.5536   73.5831   73.6067   73.6467   74.8342
   74.8348   75.6693   76.3011   79.6425   79.6445   80.1396   82.1786   82.2698   82.2713   84.5552
   84.5553   85.1161   85.1183   87.8408   87.8420   90.8176   90.8192   94.0196   95.1352   96.4238
   96.4255   96.8066   96.8081   97.9659   98.3942   98.3966   98.8677   99.3708   99.3710   99.9423
   99.9455  103.9894  104.6080  104.7400  105.0232  106.5628  106.5633  107.9228  107.9232  110.2218
  110.5302  110.5306  110.6773  110.6775  112.8738  112.8757  113.5487  113.5509  114.3921  115.1006
  115.1035  115.2520  115.3794  115.3800  115.7205  116.3138  116.9944  117.9569  117.9577  118.7849
  120.0444  120.0483  122.4757  122.4777  122.5463  124.3457  125.5846  131.0176
  10  1  -25.2245  -25.2245  -25.1567  -25.1567  -23.9347  -23.9347  -23.8718  -23.8718  -21.4570  -21.4569
         -21.4569  -21.4569  -21.4032  -21.4032  -21.4032  -21.4032  -20.6357  -20.6069  -19.6023  -19.5798
  -17.7836  -17.7836  -17.7835  -17.7835  -17.7441  -17.7441  -17.7439  -17.7439  -14.4148  -14.4148
  -14.4145  -14.4145  -14.3958  -14.3958  -14.3955  -14.3955  -14.1514  -14.1514  -14.1416  -14.1416
  -13.4664  -13.4664  -12.7933  -12.7929  -12.7929  -12.7918  -12.7821  -12.7821  -12.7009  -12.7009
  -11.9421  -11.9421  -11.7321  -11.7321  -11.7245  -11.7245  -11.2375  -11.2375  -10.5756  -10.5756
  -10.5698  -10.5698   -9.2021   -9.2021   -9.2021   -9.2021   -8.8046   -8.6943   -8.6943   -8.6943
   -8.6943   -8.5530   -4.7361   -4.4222   -3.9258   -3.9258   -3.9258   -3.9258   -3.6467   -3.6467
   -3.6467   -3.6467   -1.3934   -1.3934    0.0283    0.0283    0.1654    0.1654    0.5590    0.5590
    1.1463    1.2563    2.0263    2.0263    2.0833    2.0833    2.6228    2.6228    3.0697    3.0697
    3.1841    3.1841    3.7050    3.7050    3.7050    3.7050    3.7083    3.7083    3.8222    3.8222
    3.8589    3.8589    3.8589    3.8590    3.8851    3.8851    4.4907    4.4907    4.5013    4.5013
    4.5135    4.5135    4.5136    4.5136    5.2708    5.2708    5.3110    5.3110    5.9084    5.9084
    5.9084    5.9084    5.9425    6.5201    7.4757    7.5499    7.5499    7.5499    7.5499    7.5864
    7.5864    7.6925    7.6925    8.2249    8.2249    8.4727    8.6690    8.6690    8.6690    8.6690
    9.0861    9.0861    9.0862    9.0863    9.6273    9.6273   11.0647   11.0647   11.2618   11.2618
   11.4448   11.4448   11.4451   11.4451   11.9022   12.3460   12.3460   12.3460   12.3460   12.4036
   12.4875   12.4875   12.9631   12.9631   12.9636   12.9636   13.6602   13.6633   14.0388   14.0388
   14.8100   15.1823   15.1823   15.1824   15.1824   16.6878   16.6878   16.6878   16.6878   16.8141
   16.8141   17.1652   17.1652   17.1655   17.1655   17.3267   17.3267   17.3271   17.3271   17.4132
   18.0189   18.7403   18.8035   18.8511   18.9804   18.9804   19.2420   19.2420   19.2424   19.2424
   19.3318   19.3318   19.3853   19.3853   19.6533   19.6533   19.6533   19.6533   21.0384   21.0384
   21.7450   21.7450   22.2794   22.2794   22.2795   22.2795   22.3679   22.3679   22.6160   22.6160
   22.7500   22.7500   23.0838   23.0838   23.0838   23.0838   23.1662   23.1662   23.2527   23.2527
   24.4271   24.5126   24.5126   24.5901   24.5901   25.9454   25.9454   27.5790   27.6278   27.6278
   28.6323   30.7389   31.9738   31.9738   31.9738   31.9738   33.2006   33.2006   33.2007   33.2007
   33.4285   33.4285   33.7578   33.7578   35.2193   35.2682   35.2682   35.6503   35.6503   36.4496
   36.4496   36.4496   36.4497   36.9279   38.7091   39.5598   39.5598   39.7795   39.7795   39.7795
   39.7795   40.0470   41.2011   41.2011   42.2272   42.2272   42.2277   42.2277   42.4858   42.4858
   42.7306   42.7306   42.7978   42.7978   42.7980   42.7980   42.8337   42.8337   43.2661   43.2661
   43.2805   43.2805   43.9146   43.9146   44.0694   44.0694   44.5008   44.5008   44.5714   44.5715
   44.6292   44.6292   45.4580   45.4580   45.9256   46.5273   46.5273   46.7778   47.5945   47.5945
   47.7332   47.7332   48.0743   48.0743   48.0744   48.0744   49.6642   49.6642   49.6644   49.6644
   50.1776   50.1776   50.1776   50.1776   50.4429   50.4429   50.9570   50.9570   50.9572   50.9573
   52.4005   52.4005   53.3399   53.3691   53.3692   54.4325   54.5201   55.6486   56.4661   56.4661
   56.4662   56.4662   57.2571   57.2571   57.2573   57.2573   57.3694   57.3695   57.9500   57.9500
   59.6246   59.6246   59.8712   59.8712   61.2457   61.3800   61.4529   61.4529   61.4529   61.4529
   61.7566   61.7566   62.6583   62.6583   63.4435   63.4435   63.4440   63.4440   63.5189   63.5190
   67.1981   67.1981   67.9584   67.9965   67.9965   68.0655   70.7084   70.7085   71.1082   71.2618
   71.2619   71.6077   71.6078   71.6079   71.6080   71.6560   71.6560   71.6562   71.6562   74.2722
   74.2722   81.6737   81.6737   81.6739   81.6739   82.7586   82.7587   83.0787   83.0787   83.6846
   84.9078   84.9078   88.8528   88.8528   89.4602   89.4603   89.9039   89.9039   91.2408   91.4171
   91.4171   95.1258   95.1258   95.1258   95.1259   96.3294  103.1922  103.1922  103.1954  103.1954
  103.7302  103.7302  104.0873  104.0873  104.0898  104.0899  107.6523  107.6523  110.3499  110.3501
  110.3503  110.3504  111.5454  111.5456  111.8550  111.9901  111.9902  112.8554  114.1179  114.2074
  114.2075  114.2092  114.2094  115.9094  116.7363  116.7366  116.7372  116.7374  118.8760  118.8763
  122.1250  122.1251  122.8618  122.8619  123.5484  123.5485  123.5502  123.5502
  11  1  -25.3869  -25.3190  -24.7380  -24.7380  -24.6718  -24.6718  -22.8295  -22.8295  -22.7706  -22.7706
         -21.6040  -21.5494  -21.0408  -21.0407  -20.9911  -20.9911  -20.2160  -20.1883  -19.2006  -19.1809
  -18.9502  -18.9500  -18.9071  -18.9070  -16.9056  -16.8862  -15.8762  -15.8762  -15.8506  -15.8506
  -15.3111  -15.2955  -14.5979  -14.5773  -13.8419  -13.8418  -13.8272  -13.8271  -13.6607  -13.2747
  -13.2744  -13.2667  -13.2664  -12.8884  -12.8880  -12.8880  -12.8296  -12.8293  -12.8197  -12.8194
  -12.1439  -12.1439  -11.4456  -11.4453  -11.4387  -11.4383  -11.1333  -11.1297  -10.6708  -10.6708
  -10.4624  -10.4558  -10.0332  -10.0332   -9.3010   -8.9643   -8.9643   -8.7525   -8.5859   -8.5859
   -8.2077   -7.9618   -4.9145   -4.7455   -4.4835   -4.4835   -4.1568   -4.1567   -3.6074   -3.4026
   -1.9830   -1.9830   -1.7683   -1.7682   -1.5957   -0.7007   -0.7007    1.7817    1.7817    1.8740
    1.8742    1.8757    1.8757    1.9862    1.9864    2.3304    2.3305    2.3503    2.3998    2.5084
    2.5309    2.5312    2.6089    2.6092    3.1657    3.1657    3.5458    3.5525    3.5579    3.6008
    3.6245    3.8077    3.9277    3.9278    4.0977    4.0978    4.2055    4.8473    4.8473    5.1062
    5.1067    5.1356    5.1361    5.1422    5.1423    5.4998    5.7947    6.0549    6.2294    6.4493
    6.5705    6.5706    6.5719    6.6554    6.8064    6.8064    6.8196    6.9190    6.9191    7.3644
    7.3646    7.3974    7.4403    7.7014    8.0299    8.2572    8.7240    8.7240    8.8585    8.8585
    8.9352    8.9353    9.0296    9.0298   10.4186   10.4855   10.4855   10.6563   10.6563   11.1454
   11.1456   11.2530   11.3253   11.8170   11.8733   11.8734   12.0688   12.7127   12.7130   13.4318
   13.4326   13.5065   13.5065   13.5309   13.5311   13.5603   13.7421   13.7421   13.8632   14.0246
   14.0464   14.0464   14.2012   14.2020   14.6377   15.1631   15.8881   16.6531   16.8197   16.9217
   16.9217   17.0666   17.0835   17.0835   17.3487   17.3494   17.8432   17.9787   18.1946   18.1950
   18.4152   18.4372   18.4969   18.4969   18.8768   18.8775   19.0932   19.2243   19.2244   19.7205
   20.0501   20.0501   20.0574   20.0574   20.2044   20.2048   20.7197   20.7197   20.8209   20.8209
   20.9844   20.9847   21.0255   21.0255   21.3046   21.4687   21.5115   21.5230   21.7582   21.7589
   22.7499   22.9674   23.0419   23.3917   23.3917   23.8473   23.8473   23.8668   23.8670   23.8726
   24.5945   24.5946   24.8728   24.8729   24.9193   24.9201   24.9202   25.2929   28.4599   28.4600
   29.4686   31.3101   31.6524   32.0100   32.0105   32.1401   32.6697   32.7858   32.7858   32.8635
   34.4624   34.4625   34.5689   34.5696   34.5959   34.5960   35.7163   35.7163   36.5901   36.5901
   36.9013   37.1585   37.1593   37.2202   37.2203   37.2906   38.1036   38.5748   38.5757   38.7726
   38.7727   39.8279   41.2598   41.5459   41.7720   41.8152   41.8157   42.2336   42.2341   42.6469
   42.6479   42.6781   42.6781   42.8488   42.8500   42.8970   43.3128   43.3485   43.3487   43.5999
   43.8763   43.8769   44.2800   44.2802   44.4554   44.6518   44.7859   44.8632   44.8633   45.2382
   45.2706   45.2715   45.3232   45.7593   45.7596   46.3333   46.3334   46.3587   46.4072   46.7113
   46.7114   47.1630   47.1635   48.3921   48.4081   48.7408   48.7410   48.7775   49.0213   49.1702
   49.1702   50.1786   50.1787   50.6994   52.1491   52.1493   52.2896   52.2897   52.4518   52.8835
[...]
    5.1227    5.1227    5.1232    5.1232    5.8305    5.8305    5.8305    5.8305    6.0905    6.0906
    6.1761    6.1761    6.3883    6.3883    6.7525    6.7525    6.7526    6.7526    7.4192    7.4192
    7.6560    7.6560    8.0472    8.0472    8.0473    8.0473    8.9629    8.9629    8.9630    8.9631
    9.3225    9.3225   10.0877   10.0877   10.7964   10.7964   10.7964   10.7964   11.1530   11.1530
   11.4884   11.4884   11.4885   11.4885   11.4917   11.4917   11.4917   11.4917   13.1323   13.1324
   13.1325   13.1325   13.2190   13.2190   13.5643   13.5643   13.5650   13.5650   13.9021   13.9021
   15.7152   15.7152   15.7742   15.7742   15.7744   15.7744   15.8316   15.8316   15.8316   15.8316
   16.1062   16.1062   16.1946   16.1946   17.1851   17.1851   17.2040   17.2040   17.2041   17.2041
   17.7205   17.7205   17.7208   17.7208   18.5776   18.5776   18.6752   18.6752   19.6891   19.6891
   19.6894   19.6894   19.7703   19.7703   19.7703   19.7703   20.5654   20.5654   20.5656   20.5656
   21.1345   21.1345   21.1349   21.1349   21.4288   21.4288   21.7221   21.7221   22.7018   22.7018
   22.8272   22.8272   23.5114   23.5115   23.5115   23.5115   23.6653   23.6653   23.6654   23.6655
   23.8530   23.8530   23.8531   23.8531   24.9023   24.9023   27.7552   27.7552   27.7552   27.7552
   32.0757   32.0757   32.3833   32.3833   32.8384   32.8384   32.8385   32.8385   32.8427   32.8427
   32.8431   32.8431   33.2064   33.2064   33.7133   33.7133   33.7134   33.7134   36.4224   36.4224
   36.4226   36.4226   37.4378   37.4378   38.1606   38.1607   38.1614   38.1614   38.2673   38.2673
   40.1264   40.1264   41.1030   41.1030   41.1032   41.1032   42.5776   42.5776   42.5784   42.5784
   42.6256   42.6256   42.6260   42.6260   43.0865   43.0865   43.4982   43.4982   43.4984   43.4984
   43.7683   43.7683   44.4440   44.4440   44.7333   44.7333   44.7338   44.7338   44.8513   44.8514
   45.0069   45.0070   45.8409   45.8409   46.0964   46.0964   46.0966   46.0966   46.4203   46.4203
   47.9184   47.9184   47.9185   47.9185   49.1547   49.1547   49.5853   49.5853   49.5855   49.5855
   49.9450   49.9450   51.6015   51.6015   51.6015   51.6015   52.2878   52.2878   52.2880   52.2880
   52.3734   52.3734   53.7054   53.7054   53.7055   53.7055   53.7687   53.7687   53.7689   53.7689
   55.1205   55.1205   59.5630   59.5630   60.1004   60.1004   60.1007   60.1007   60.1944   60.1944
   61.3418   61.3418   61.6380   61.6380   61.6459   61.6459   61.6462   61.6462   61.9302   61.9302
   61.9314   61.9314   62.4864   62.4864   63.9483   63.9483   63.9489   63.9489   66.4584   66.4584
   66.4585   66.4585   67.6812   67.6812   67.6830   67.6830   69.1791   69.1791   69.4251   69.4251
   69.4254   69.4254   72.5562   72.5562   73.6093   73.6093   75.6105   75.6105   78.8237   78.8237
   78.8253   78.8253   80.8478   80.8478   81.4218   81.4218   81.4219   81.4219   89.4818   89.4818
   89.4834   89.4834   91.7031   91.7031   91.7054   91.7054   91.8873   91.8873   97.6473   97.6474
   97.6497   97.6497   98.4351   98.4351   99.0313   99.0313   99.0314   99.0314  101.8966  101.8966
  104.4388  104.4388  104.4852  104.4852  107.1414  107.1415  107.1444  107.1444  107.7116  107.7116
  107.7120  107.7120  112.2098  112.2098  112.2100  112.2101  112.6775  112.6775  112.6799  112.6800
  114.3701  114.3701  115.2751  115.2752  115.2777  115.2778  116.9505  116.9505  117.5062  117.5063
  117.5070  117.5070  118.7264  118.7264  123.0424  123.0425  123.6672  123.6673
  42  1  -25.1906  -25.1906  -25.1906  -25.1906  -23.9031  -23.9031  -23.9031  -23.9031  -21.4301  -21.4301
         -21.4301  -21.4301  -21.4301  -21.4301  -21.4301  -21.4301  -20.6211  -20.6210  -19.5918  -19.5918
  -17.7641  -17.7640  -17.7640  -17.7640  -17.7639  -17.7639  -17.7639  -17.7639  -14.4052  -14.4052
  -14.4052  -14.4052  -14.4050  -14.4050  -14.4050  -14.4050  -14.1463  -14.1463  -14.1463  -14.1463
  -13.1041  -13.1041  -13.1041  -13.1041  -12.7925  -12.7925  -12.7880  -12.7880  -12.7880  -12.7880
  -11.7284  -11.7284  -11.7284  -11.7284  -11.6064  -11.6064  -11.6064  -11.6064  -10.5725  -10.5725
  -10.5725  -10.5724   -8.9545   -8.9545   -8.9545   -8.9545   -8.9545   -8.9545   -8.9545   -8.9545
   -8.6714   -8.6714   -4.6151   -4.6151   -3.7961   -3.7961   -3.7961   -3.7961   -3.7961   -3.7961
   -3.7961   -3.7961    0.0918    0.0918    0.0918    0.0918    0.3237    0.3237    0.3237    0.3237
    1.2012    1.2012    2.0358    2.0358    2.0358    2.0358    2.0727    2.0727    2.0727    2.0727
    3.1029    3.1029    3.1029    3.1029    3.7848    3.7848    3.7848    3.7848    3.7848    3.7849
    3.7849    3.7849    3.8024    3.8024    3.8024    3.8024    4.4967    4.4967    4.4967    4.4967
    5.0988    5.0988    5.0988    5.0988    5.0989    5.0989    5.0989    5.0989    5.2895    5.2895
    5.2895    5.2895    6.5156    6.5156    7.3838    7.3838    7.6453    7.6453    7.6453    7.6453
    8.1001    8.1001    8.1001    8.1001    8.1001    8.1001    8.1001    8.1001    9.9080    9.9080
    9.9080    9.9080    9.9080    9.9080    9.9080    9.9080   11.1247   11.1247   11.1248   11.1248
   11.2628   11.2628   11.2628   11.2628   11.5639   11.5639   11.5639   11.5639   12.5045   12.5045
   13.3465   13.3465   13.3465   13.3465   13.3467   13.3467   13.3467   13.3467   13.6618   13.6618
   15.7463   15.7463   16.0588   16.0588   16.0588   16.0588   16.0590   16.0590   16.0590   16.0590
   16.7961   16.7961   16.7961   16.7961   16.7963   16.7963   16.7963   16.7963   17.2309   17.2309
   17.2309   17.2309   18.3281   18.3281   18.8761   18.8761   19.1688   19.1688   19.1688   19.1688
   19.1730   19.1730   19.1730   19.1730   19.1732   19.1732   19.1732   19.1732   21.3578   21.3578
   21.3578   21.3578   22.3818   22.3819   22.3819   22.3819   22.3990   22.3990   22.3990   22.3990
   22.3991   22.3991   22.3991   22.3991   22.9094   22.9094   22.9094   22.9094   23.4541   23.4541
   23.4541   23.4541   25.1883   25.1883   25.1883   25.1883   27.8865   27.8865   28.9812   28.9812
   31.2490   31.2490   31.2490   31.2490   32.3932   32.3932   32.3932   32.3932   32.3933   32.3933
   32.3933   32.3933   32.7434   32.7434   32.7434   32.7434   34.4115   34.4115   37.9170   37.9170
   39.0236   39.0236   39.0236   39.0236   39.0237   39.0237   39.0237   39.0237   39.3811   39.3812
   39.3812   39.3812   41.4771   41.4771   41.4771   41.4771   42.3845   42.3845   42.3846   42.3846
   42.7959   42.7959   42.7959   42.7959   42.7961   42.7961   42.7961   42.7961   43.4658   43.4658
   43.4658   43.4658   44.1469   44.1469   44.1469   44.1469   44.6652   44.6652   44.6652   44.6652
   45.0163   45.0163   45.0163   45.0163   47.2764   47.2764   47.6843   47.6843   47.6844   47.6844
   48.2857   48.2857   48.2857   48.2857   48.3406   48.3406   48.3406   48.3406   48.3407   48.3407
   48.3407   48.3407   50.5630   50.5630   50.5630   50.5630   50.5632   50.5632   50.5632   50.5632
   53.4294   53.4294   53.5394   53.5394   53.5394   53.5395   54.5939   54.5939   56.9912   56.9912
   56.9912   56.9912   56.9913   56.9914   56.9914   56.9914   59.6755   59.6755   59.6756   59.6756
   61.3132   61.3132   62.0802   62.0802   62.0802   62.0802   62.7032   62.7032   62.7032   62.7032
   62.8010   62.8010   62.8010   62.8010   62.8014   62.8014   62.8014   62.8014   64.8276   64.8276
   64.8276   64.8276   68.0122   68.0122   70.9813   70.9813   70.9814   70.9814   71.6242   71.6242
   71.6242   71.6242   71.6244   71.6244   71.6244   71.6244   72.4536   72.4536   72.4536   72.4536
   79.1533   79.1533   87.0495   87.0496   87.0496   87.0496   89.2884   89.2885   89.2885   89.2885
   91.8471   91.8471   91.8472   91.8472   91.9112   91.9112   91.9112   91.9112   91.9114   91.9115
   91.9115   91.9115   95.0774   95.0774  102.2126  102.2126  102.2127  102.2127  103.4305  103.4305
  103.4305  103.4305  103.4333  103.4334  103.4334  103.4334  106.9912  106.9912  106.9912  106.9912
  111.9491  111.9491  111.9495  111.9497  112.9493  112.9493  114.3139  114.3140  114.3141  114.3141
  114.3144  114.3144  114.3146  114.3146  116.3442  116.3442  116.3442  116.3442  116.6107  116.6108
  117.9940  117.9940  117.9942  117.9942  117.9963  117.9964  117.9965  117.9966
  43  1  -25.3530  -25.3530  -24.7049  -24.7049  -24.7048  -24.7048  -22.8000  -22.8000  -22.8000  -22.8000
         -21.5768  -21.5768  -21.0160  -21.0160  -21.0160  -21.0160  -20.2019  -20.2019  -19.1914  -19.1914
  -18.9290  -18.9290  -18.9289  -18.9289  -16.8957  -16.8957  -15.8633  -15.8633  -15.8633  -15.8633
  -15.3037  -15.3037  -14.5875  -14.5874  -13.8348  -13.8348  -13.8347  -13.8347  -13.2954  -13.2954
  -13.2706  -13.2706  -13.2703  -13.2703  -12.8246  -12.8246  -12.8244  -12.8244  -12.5350  -12.5350
  -12.5349  -12.5349  -11.4424  -11.4424  -11.4421  -11.4420  -11.1315  -11.1315  -10.4592  -10.4592
  -10.3650  -10.3650  -10.3650  -10.3650   -9.0356   -9.0356   -8.7737   -8.7737   -8.7737   -8.7737
   -8.0769   -8.0769   -4.8543   -4.8543   -4.3469   -4.3469   -4.3469   -4.3469   -3.5052   -3.5052
   -1.8793   -1.8793   -1.8793   -1.8793    0.1383    0.1383    0.9464    0.9464    0.9464    0.9464
    1.8420    1.8420    1.8420    1.8420    1.9299    1.9299    1.9300    1.9300    2.3871    2.3871
    2.5998    2.5998    2.6001    2.6001    3.4122    3.4122    3.4122    3.4122    3.5491    3.5491
    3.5785    3.5785    3.7117    3.7117    4.0843    4.0843    4.0844    4.0844    4.7086    4.7086
    5.1227    5.1227    5.1232    5.1232    5.8305    5.8305    5.8305    5.8305    6.0905    6.0906
    6.1761    6.1761    6.3883    6.3883    6.7525    6.7525    6.7526    6.7526    7.4192    7.4192
    7.6560    7.6560    8.0472    8.0472    8.0473    8.0473    8.9629    8.9629    8.9630    8.9631
    9.3225    9.3225   10.0877   10.0877   10.7964   10.7964   10.7964   10.7964   11.1530   11.1530
   11.4884   11.4884   11.4885   11.4885   11.4917   11.4917   11.4917   11.4917   13.1323   13.1324
   13.1325   13.1325   13.2190   13.2190   13.5643   13.5643   13.5650   13.5650   13.9021   13.9021
   15.7152   15.7152   15.7742   15.7742   15.7744   15.7744   15.8316   15.8316   15.8316   15.8316
   16.1062   16.1062   16.1946   16.1946   17.1851   17.1851   17.2040   17.2040   17.2041   17.2041
   17.7205   17.7205   17.7208   17.7208   18.5776   18.5776   18.6752   18.6752   19.6891   19.6891
   19.6894   19.6894   19.7703   19.7703   19.7703   19.7703   20.5654   20.5654   20.5656   20.5656
   21.1345   21.1345   21.1349   21.1349   21.4288   21.4288   21.7221   21.7221   22.7018   22.7018
   22.8272   22.8272   23.5114   23.5115   23.5115   23.5115   23.6653   23.6653   23.6654   23.6655
   23.8530   23.8530   23.8531   23.8531   24.9023   24.9023   27.7552   27.7552   27.7552   27.7552
   32.0757   32.0757   32.3833   32.3833   32.8384   32.8384   32.8385   32.8385   32.8427   32.8427
   32.8431   32.8431   33.2064   33.2064   33.7133   33.7133   33.7134   33.7134   36.4224   36.4224
   36.4226   36.4226   37.4378   37.4378   38.1606   38.1607   38.1614   38.1614   38.2673   38.2673
   40.1264   40.1264   41.1030   41.1030   41.1032   41.1032   42.5776   42.5776   42.5784   42.5784
   42.6256   42.6256   42.6260   42.6260   43.0865   43.0865   43.4982   43.4982   43.4984   43.4984
   43.7683   43.7683   44.4440   44.4440   44.7333   44.7333   44.7338   44.7338   44.8513   44.8514
   45.0069   45.0070   45.8409   45.8409   46.0964   46.0964   46.0966   46.0966   46.4203   46.4203
   47.9184   47.9184   47.9185   47.9185   49.1547   49.1547   49.5853   49.5853   49.5855   49.5855
   49.9450   49.9450   51.6015   51.6015   51.6015   51.6015   52.2878   52.2878   52.2880   52.2880
   52.3734   52.3734   53.7054   53.7054   53.7055   53.7055   53.7687   53.7687   53.7689   53.7689
   55.1205   55.1205   59.5630   59.5630   60.1004   60.1004   60.1007   60.1007   60.1944   60.1944
   61.3418   61.3418   61.6380   61.6380   61.6459   61.6459   61.6462   61.6462   61.9302   61.9302
   61.9314   61.9314   62.4864   62.4864   63.9483   63.9483   63.9489   63.9489   66.4584   66.4584
   66.4585   66.4585   67.6812   67.6812   67.6830   67.6830   69.1791   69.1791   69.4251   69.4251
   69.4254   69.4254   72.5562   72.5562   73.6093   73.6093   75.6105   75.6105   78.8237   78.8237
   78.8253   78.8253   80.8478   80.8478   81.4218   81.4218   81.4219   81.4219   89.4818   89.4818
   89.4834   89.4834   91.7031   91.7031   91.7054   91.7054   91.8873   91.8873   97.6473   97.6474
   97.6497   97.6497   98.4351   98.4351   99.0313   99.0313   99.0314   99.0314  101.8966  101.8966
  104.4388  104.4388  104.4852  104.4852  107.1414  107.1415  107.1444  107.1444  107.7116  107.7116
  107.7120  107.7120  112.2098  112.2098  112.2100  112.2101  112.6775  112.6775  112.6799  112.6800
  114.3701  114.3701  115.2751  115.2752  115.2777  115.2778  116.9505  116.9505  117.5062  117.5063
  117.5070  117.5070  118.7264  118.7264  123.0424  123.0425  123.6672  123.6673
  44  1  -25.1906  -25.1906  -25.1906  -25.1906  -23.9032  -23.9032  -23.9032  -23.9031  -21.4301  -21.4301
         -21.4301  -21.4301  -21.4301  -21.4301  -21.4301  -21.4301  -20.6210  -20.6210  -19.5917  -19.5916
  -17.7641  -17.7641  -17.7641  -17.7641  -17.7641  -17.7641  -17.7641  -17.7641  -14.4050  -14.4050
  -14.4050  -14.4050  -14.4050  -14.4050  -14.4050  -14.4050  -14.1465  -14.1465  -14.1465  -14.1465
  -13.1041  -13.1041  -13.1041  -13.1041  -12.7929  -12.7929  -12.7878  -12.7878  -12.7878  -12.7878
  -11.7281  -11.7281  -11.7281  -11.7281  -11.6064  -11.6064  -11.6064  -11.6064  -10.5729  -10.5729
  -10.5728  -10.5728   -8.9545   -8.9545   -8.9545   -8.9545   -8.9545   -8.9545   -8.9545   -8.9545
   -8.6714   -8.6714   -4.6151   -4.6151   -3.7961   -3.7961   -3.7961   -3.7961   -3.7961   -3.7961
   -3.7961   -3.7961    0.0918    0.0918    0.0918    0.0918    0.3237    0.3237    0.3237    0.3238
    1.2014    1.2014    2.0358    2.0358    2.0358    2.0358    2.0731    2.0731    2.0731    2.0731
    3.1029    3.1029    3.1029    3.1029    3.7847    3.7847    3.7847    3.7847    3.7847    3.7847
    3.7847    3.7848    3.8024    3.8024    3.8024    3.8024    4.4960    4.4961    4.4961    4.4961
    5.0989    5.0989    5.0989    5.0989    5.0989    5.0989    5.0989    5.0989    5.2897    5.2897
    5.2897    5.2897    6.5157    6.5157    7.3839    7.3839    7.6454    7.6454    7.6454    7.6455
    8.0999    8.0999    8.0999    8.0999    8.0999    8.0999    8.0999    8.0999    9.9080    9.9080
    9.9080    9.9080    9.9080    9.9080    9.9080    9.9080   11.1246   11.1246   11.1246   11.1247
   11.2628   11.2628   11.2628   11.2628   11.5639   11.5639   11.5639   11.5639   12.5048   12.5048
   13.3469   13.3469   13.3469   13.3469   13.3469   13.3469   13.3469   13.3469   13.6607   13.6607
   15.7467   15.7467   16.0590   16.0590   16.0590   16.0590   16.0590   16.0590   16.0590   16.0590
   16.7961   16.7961   16.7961   16.7961   16.7961   16.7961   16.7962   16.7962   17.2309   17.2309
   17.2309   17.2309   18.3281   18.3281   18.8766   18.8767   19.1684   19.1684   19.1685   19.1685
   19.1731   19.1731   19.1731   19.1731   19.1731   19.1731   19.1731   19.1731   21.3582   21.3582
   21.3582   21.3582   22.3816   22.3816   22.3816   22.3816   22.3990   22.3990   22.3990   22.3990
   22.3990   22.3990   22.3990   22.3990   22.9093   22.9093   22.9093   22.9093   23.4542   23.4542
   23.4542   23.4543   25.1883   25.1883   25.1883   25.1883   27.8864   27.8864   28.9818   28.9818
   31.2491   31.2491   31.2491   31.2491   32.3932   32.3932   32.3932   32.3932   32.3932   32.3932
   32.3932   32.3932   32.7432   32.7432   32.7432   32.7432   34.4116   34.4116   37.9159   37.9159
   39.0236   39.0236   39.0236   39.0236   39.0236   39.0236   39.0237   39.0237   39.3809   39.3809
   39.3809   39.3809   41.4773   41.4773   41.4774   41.4774   42.3853   42.3853   42.3853   42.3853
   42.7957   42.7957   42.7957   42.7957   42.7957   42.7957   42.7957   42.7957   43.4660   43.4660
   43.4660   43.4660   44.1454   44.1454   44.1454   44.1455   44.6661   44.6661   44.6662   44.6662
   45.0163   45.0163   45.0163   45.0163   47.2768   47.2768   47.6841   47.6841   47.6841   47.6841
   48.2856   48.2856   48.2856   48.2856   48.3406   48.3406   48.3406   48.3406   48.3406   48.3406
   48.3406   48.3406   50.5630   50.5630   50.5630   50.5630   50.5630   50.5630   50.5630   50.5630
   53.4297   53.4297   53.5400   53.5400   53.5400   53.5400   54.5941   54.5941   56.9913   56.9913
   56.9913   56.9913   56.9913   56.9913   56.9913   56.9913   59.6757   59.6757   59.6757   59.6757
   61.3117   61.3118   62.0798   62.0798   62.0798   62.0798   62.7035   62.7035   62.7035   62.7035
   62.8013   62.8013   62.8013   62.8013   62.8013   62.8013   62.8013   62.8013   64.8287   64.8288
   64.8288   64.8288   68.0118   68.0118   70.9781   70.9781   70.9782   70.9782   71.6243   71.6243
   71.6243   71.6243   71.6243   71.6244   71.6244   71.6244   72.4562   72.4562   72.4563   72.4563
   79.1536   79.1536   87.0504   87.0504   87.0504   87.0504   89.2859   89.2859   89.2859   89.2859
   91.8464   91.8464   91.8465   91.8465   91.9127   91.9127   91.9128   91.9128   91.9128   91.9128
   91.9129   91.9129   95.0798   95.0798  102.2098  102.2099  102.2100  102.2100  103.4307  103.4307
  103.4307  103.4307  103.4308  103.4308  103.4308  103.4308  106.9909  106.9909  106.9910  106.9910
  111.9526  111.9527  111.9531  111.9532  112.9447  112.9447  114.3137  114.3137  114.3139  114.3139
  114.3142  114.3144  114.3146  114.3146  116.3449  116.3450  116.3450  116.3450  116.6120  116.6121
  117.9958  117.9958  117.9958  117.9960  117.9963  117.9963  117.9965  117.9965
siesta: Fermi energy =      -6.321604 eV

siesta: Program's energy decomposition (eV):
siesta: Ebs     =     -2229.562874
siesta: Eions   =      9434.507561
siesta: Ena     =      2224.038246
siesta: Ekin    =      3905.453142
siesta: Enl     =      -379.154675
siesta: Eso     =         0.000000
siesta: Edftu   =         0.000000
siesta: DEna    =      -201.708396
siesta: DUscf   =        17.978769
siesta: DUext   =         0.000000
siesta: Exc     =     -1709.793501
siesta: eta*DQ  =         0.000000
siesta: Emadel  =         0.000000
siesta: Emeta   =         0.000000
siesta: Emolmec =        -3.257027
siesta: Ekinion =         0.000000
siesta: Eharris =     -5580.951003
siesta: Etot    =     -5580.951002
siesta: FreeEng =     -5580.962282

siesta: Final energy (eV):
siesta:  Band Struct. =   -2229.562874
siesta:       Kinetic =    3905.453142
siesta:       Hartree =    2329.173948
siesta:       Edftu   =       0.000000
siesta:       Eso     =       0.000000
siesta:    Ext. field =       0.000000
siesta:   Exch.-corr. =   -1709.793501
siesta:  Ion-electron =   -8567.119811
siesta:       Ion-ion =   -1535.407754
siesta:       Ekinion =       0.000000
siesta:         Total =   -5580.951002
siesta:         Fermi =      -6.321604

siesta: Stress tensor (static) (eV/Ang**3):
siesta:    -0.075866   -0.000057   -0.000000
siesta:    -0.000057   -0.075932   -0.000000
siesta:     0.000000    0.000000    0.015306

siesta: Cell volume =        371.558883 Ang**3

siesta: Pressure (static):
siesta:                Solid            Molecule  Units
siesta:           0.00049552          0.00049556  Ry/Bohr**3
siesta:           0.04549731          0.04550031  eV/Ang**3
siesta:          72.89551587         72.90031790  kBar
(Free)E+ p_basis*V_orbitals  =       -5547.432477
(Free)Eharris+ p_basis*V_orbitals  =       -5547.432478

cite: Please see "graphite_scf.bib" for an exhaustive BiBTeX file.
cite: Please clearly indicate Siesta version in published work: 4.1.5
cite: This calculation has made use of the following articles
cite: which are encouraged to be cited in a published work.
        Primary SIESTA paper
          DOI: www.doi.org/10.1088/0953-8984/14/11/302

>> End of run:   1-NOV-2022  18:41:17
Job completed
