Siesta Version  : 4.1.5
Architecture    : x86_64-unknown-linux-gnu--unknown
Compiler version: GNU Fortran (GCC) 11.3.0
Compiler flags  : mpif90 -g -O2 -fallow-argument-mismatch
PP flags        : -DMPI -DFC_HAVE_FLUSH -DFC_HAVE_ABORT
Libraries       :  -I/global/software/sl-7.x86_64/modules/intel/2020.4.304/mkl/include  /globall/software/sl-7.x86_64/modules/intel/2020.4.304/mkl/lib/intel64/libmkl_scalapack_lp64.a -Wl,--start-group /global/software/sl-7.x86_64/modules/intel/2020.4.304/mkl/lib/intel64/libmkl_intel_lp64.a /global/software/sl-7.x86_64/modules/intel/2020.4.304/mkl/lib/intel64/libmkl_sequential.a /global/software/sl-7.x86_64/modules/intel/2020.4.304/mkl/lib/intel64/libmkl_core.a /global/software/sl-7.x86_64/modules/intel/2020.4.304/mkl/lib/intel64/libmkl_blacs_openmpi_lp64.a -Wl,--end-group -lpthread -lm -ldl
PARALLEL version

* Running on 20 nodes in parallel
>> Start of run:   1-NOV-2022  18:59:31

                           ***********************       
                           *  WELCOME TO SIESTA  *       
                           ***********************       

reinit: Reading from standard input
reinit: Dumped input in INPUT_TMP.56852
************************** Dump of input data file ****************************
SystemName graphite_scf
SystemLabel graphite_scf
NumberOfAtoms   36
NumberOfSpecies 1
%block ChemicalSpeciesLabel
1  6   C-gga
%endblock ChemicalSpeciesLabel
PAO.BasisSize  DZP
PAO.EnergyShift  10 meV
%block PS.Lmax
C-gga   2
%endblock PS.Lmax
LatticeConstant 1.000000 Ang
%block LatticeVectors
	7.3920000000	0.0000000000	0.0000000000
	-3.6960000000	6.4016597848	0.0000000000
	0.0000000000	0.0000000000	9.0598500000
%endblock LatticeVectors
AtomicCoordinatesFormat Ang
%block AtomicCoordinatesAndAtomicSpecies
	0.00000000	0.00000000	2.26496250	1
	0.00000000	0.00000000	6.79488750	1
	-1.23200000	2.13388659	2.26496250	1
	-2.46400000	4.26777319	6.79488750	1
	2.46400000	4.26777319	2.26496250	1
	1.23200000	2.13388659	6.79488750	1
	2.46400000	0.00000000	2.26496250	1
	4.92800000	0.00000000	6.79488750	1
	2.46400000	0.00000000	6.79488750	1
	4.92800000	0.00000000	2.26496250	1
	2.46400000	4.26777319	6.79488750	1
	1.23200000	2.13388659	2.26496250	1
	-1.23200000	2.13388659	6.79488750	1
	-2.46400000	4.26777319	2.26496250	1
	0.00000000	4.26777319	2.26496250	1
	3.69600000	2.13388659	6.79488750	1
	3.69600000	2.13388659	2.26496250	1
	0.00000000	4.26777319	6.79488750	1
	0.00000000	1.42258964	2.26496250	1
	3.69600000	4.97907014	6.79488750	1
	2.46400123	5.69036496	2.26496250	1
	1.23199877	0.71129482	6.79488750	1
	-2.46400123	5.69036496	2.26496250	1
	6.16000123	0.71129482	6.79488750	1
	-1.23200000	3.55647624	2.26496250	1
	4.92800000	2.84518355	6.79488750	1
	1.23200123	3.55647837	2.26496250	1
	2.46399877	2.84518142	6.79488750	1
	-0.00000123	5.69036496	2.26496250	1
	3.69600123	0.71129482	6.79488750	1
	2.46400000	1.42258964	2.26496250	1
	1.23200000	4.97907014	6.79488750	1
	4.92800123	1.42259177	2.26496250	1
	-1.23200123	4.97906801	6.79488750	1
	3.69599877	3.55647837	2.26496250	1
	0.00000123	2.84518142	6.79488750	1
%endblock AtomicCoordinatesAndAtomicSpecies
Kgrid_NoTRS  T
%block kgrid_MonkhorstPack
4       0       0       0.0
0       4       0       0.0
0       0       4       0.0
%endblock kgrid_MonkhorstPack
AtomCoorFormatOut Ang
BlockSize 1
#ProcessorY 12
Diag.ParallelOverK   T
Diag.DivideAndConquer F
MeshCutoff   300 Ry
SCF.FreeE.Tolerance 1E-3 eV
SCF.EDM.Tolerance   5E-3 eV
DM.Tolerance  1E-3
DM.Require.Energy.Convergence T
DM.NumberPulay 4
XC.Functional GGA
XC.Authors    PBE
UseSaveData        F
SolutionMethod     diagon
MD.TypeOfRun       CG
MD.VariableCell    F
MD.NumCGsteps      00
MD.MaxCGDispl      0.200000 Bohr
#MD.MaxStressTol    1.000000 GPa
#MD.MaxForceTol     0.010000 eV/Ang
WriteMDHistory T
WriteCoorStep T
WriteForces T
WriteCoorStep    T
WriteEigenValues T
WriteDM    F
MM.UnitsDistance Ang  # what this program prints out DO NOT CHANGE
MM.UnitsEnergy    eV  # what this program prints out DO NOT CHANGE
MM.Grimme.S6     0.75 # Grimme-paper for PBE (correct for your functional)
MM.Grimme.D     20.   # Grimme-paper (correct for your functional)
%block MM.Potentials
  1   1 Grimme     18.14      2.904 # C, 10.1002/jcc.20495
%endblock MM.Potentials
#%block ProjectedDensityOfStates
# -200.0  120.0  0.4  12800  eV
#%endblock ProjectedDensityOfStates
************************** End of input data file *****************************

reinit: -----------------------------------------------------------------------
reinit: System Name: graphite_scf
reinit: -----------------------------------------------------------------------
reinit: System Label: graphite_scf
reinit: -----------------------------------------------------------------------
Reading two-body potentials
Grimme - two-body potential between 1 and 1

initatom: Reading input for the pseudopotentials and atomic orbitals ----------
Species number:   1 Atomic number:    6 Label: C-gga

Ground state valence configuration:   2s02  2p02
Reading pseudopotential information in formatted form from C-gga.psf

Valence configuration for pseudopotential generation:
2s( 2.00) rc: 1.56
2p( 2.00) rc: 1.56
3d( 0.00) rc: 1.56
4f( 0.00) rc: 1.56
relmxkb: Read Max KB Ang. Momentum=    2 for species C-gga

<basis_specs>
===============================================================================
C-gga                Z=   6    Mass=  12.010        Charge= 0.17977+309
Lmxo=1 Lmxkb= 2    BasisType=split      Semic=F
L=0  Nsemic=0  Cnfigmx=2
          i=1  nzeta=2  polorb=0  (2s)
            splnorm:   0.15000    
               vcte:    0.0000    
               rinn:    0.0000    
               qcoe:    0.0000    
               qyuk:    0.0000    
               qwid:   0.10000E-01
                rcs:    0.0000      0.0000    
            lambdas:    1.0000      1.0000    
L=1  Nsemic=0  Cnfigmx=2
          i=1  nzeta=2  polorb=1  (2p)
            splnorm:   0.15000    
               vcte:    0.0000    
               rinn:    0.0000    
               qcoe:    0.0000    
               qyuk:    0.0000    
               qwid:   0.10000E-01
                rcs:    0.0000      0.0000    
            lambdas:    1.0000      1.0000    
-------------------------------------------------------------------------------
L=0  Nkbl=1  erefs: 0.17977+309
L=1  Nkbl=1  erefs: 0.17977+309
L=2  Nkbl=1  erefs: 0.17977+309
===============================================================================
</basis_specs>

atom: Called for C-gga                 (Z =   6)

read_vps: Pseudopotential generation method:
read_vps: ATM 3.2.2 Troullier-Martins                       
Valence charge for ps generation:    4.00000

xc_check: Exchange-correlation functional:
xc_check: GGA Perdew, Burke & Ernzerhof 1996
V l=0 = -2*Zval/r beyond r=  1.5227
V l=1 = -2*Zval/r beyond r=  1.5227
V l=2 = -2*Zval/r beyond r=  1.5227
All V_l potentials equal beyond r=  1.4851
This should be close to max(r_c) in ps generation
All pots = -2*Zval/r beyond r=  1.5227

VLOCAL1: 99.0% of the norm of Vloc inside     19.682 Ry
VLOCAL1: 99.9% of the norm of Vloc inside     44.856 Ry
atom: Maximum radius for 4*pi*r*r*local-pseudopot. charge    1.79142
atom: Maximum radius for r*vlocal+2*Zval:    1.54183
GHOST: No ghost state for L =  0
GHOST: No ghost state for L =  1
GHOST: No ghost state for L =  2

KBgen: Kleinman-Bylander projectors: 
   l= 0   rc=  1.661951   el= -1.010689   Ekb=  5.289847   kbcos=  0.316429
   l= 1   rc=  1.661951   el= -0.388490   Ekb= -4.102504   kbcos= -0.351025
   l= 2   rc=  1.747182   el=  0.001971   Ekb= -1.006005   kbcos= -0.008530

KBgen: Total number of Kleinman-Bylander projectors:    9
atom: -------------------------------------------------------------------------

atom: SANKEY-TYPE ORBITALS:
atom: Selected multiple-zeta basis: split     

SPLIT: Orbitals with angular momentum L= 0

SPLIT: Basis orbitals for state 2s

SPLIT: PAO cut-off radius determined from an
SPLIT: energy shift=  0.000735 Ry

   izeta = 1
                 lambda =    1.000000
                     rc =    5.948690
                 energy =   -1.010099
                kinetic =    0.827121
    potential(screened) =   -1.837220
       potential(ionic) =   -5.392783

   izeta = 2
                 rmatch =    3.518811
              splitnorm =    0.150000
                 energy =   -0.877891
                kinetic =    1.289227
    potential(screened) =   -2.167118
       potential(ionic) =   -5.982073

SPLIT: Orbitals with angular momentum L= 1

SPLIT: Basis orbitals for state 2p

SPLIT: PAO cut-off radius determined from an
SPLIT: energy shift=  0.000735 Ry

   izeta = 1
                 lambda =    1.000000
                     rc =    7.638387
                 energy =   -0.387843
                kinetic =    2.314739
    potential(screened) =   -2.702582
       potential(ionic) =   -6.092371

   izeta = 2
                 rmatch =    3.840617
              splitnorm =    0.150000
                 energy =   -0.270479
                kinetic =    3.438347
    potential(screened) =   -3.708826
       potential(ionic) =   -7.497707

POLgen: Perturbative polarization orbital with L=  2

POLgen: Polarization orbital for state 2p

   izeta = 1
                     rc =    7.638387
                 energy =    0.921402
                kinetic =    1.955040
    potential(screened) =   -1.033637
       potential(ionic) =   -3.679558
atom: Total number of Sankey-type orbitals: 13

atm_pop: Valence configuration (for local Pseudopot. screening):
 2s( 2.00)                                                            
 2p( 2.00)                                                            
Vna: chval, zval:    4.00000   4.00000

Vna:  Cut-off radius for the neutral-atom potential:   7.638387

atom: _________________________________________________________________________

prinput: Basis input ----------------------------------------------------------

PAO.BasisType split     

%block ChemicalSpeciesLabel
    1    6 C-gga                   # Species index, atomic number, species label
%endblock ChemicalSpeciesLabel

%block PAO.Basis                 # Define Basis set
C-gga                 2                    # Species label, number of l-shells
 n=2   0   2                         # n, l, Nzeta 
   5.949      3.519   
   1.000      1.000   
 n=2   1   2 P   1                   # n, l, Nzeta, Polarization, NzetaPol
   7.638      3.841   
   1.000      1.000   
%endblock PAO.Basis

prinput: ----------------------------------------------------------------------

coor:   Atomic-coordinates input format  =     Cartesian coordinates
coor:                                          (in Angstroms)

siesta: Atomic coordinates (Bohr) and species
siesta:      0.00000   0.00000   4.28016  1        1
siesta:      0.00000   0.00000  12.84048  1        2
siesta:     -2.32814   4.03246   4.28016  1        3
siesta:     -4.65629   8.06493  12.84048  1        4
siesta:      4.65629   8.06493   4.28016  1        5
siesta:      2.32814   4.03246  12.84048  1        6
siesta:      4.65629   0.00000   4.28016  1        7
siesta:      9.31257   0.00000  12.84048  1        8
siesta:      4.65629   0.00000  12.84048  1        9
siesta:      9.31257   0.00000   4.28016  1       10
siesta:      4.65629   8.06493  12.84048  1       11
siesta:      2.32814   4.03246   4.28016  1       12
siesta:     -2.32814   4.03246  12.84048  1       13
siesta:     -4.65629   8.06493   4.28016  1       14
siesta:      0.00000   8.06493   4.28016  1       15
siesta:      6.98443   4.03246  12.84048  1       16
siesta:      6.98443   4.03246   4.28016  1       17
siesta:      0.00000   8.06493  12.84048  1       18
siesta:      0.00000   2.68831   4.28016  1       19
siesta:      6.98443   9.40908  12.84048  1       20
siesta:      4.65629  10.75324   4.28016  1       21
siesta:      2.32814   1.34415  12.84048  1       22
siesta:     -4.65629  10.75324   4.28016  1       23
siesta:     11.64072   1.34415  12.84048  1       24
siesta:     -2.32814   6.72077   4.28016  1       25
siesta:      9.31257   5.37662  12.84048  1       26
siesta:      2.32815   6.72077   4.28016  1       27
siesta:      4.65628   5.37662  12.84048  1       28
siesta:     -0.00000  10.75324   4.28016  1       29
siesta:      6.98443   1.34415  12.84048  1       30
siesta:      4.65629   2.68831   4.28016  1       31
siesta:      2.32814   9.40908  12.84048  1       32
siesta:      9.31258   2.68831   4.28016  1       33
siesta:     -2.32815   9.40908  12.84048  1       34
siesta:      6.98443   6.72077   4.28016  1       35
siesta:      0.00000   5.37662  12.84048  1       36

siesta: System type = bulk      

initatomlists: Number of atoms, orbitals, and projectors:     36   468   324

siesta: ******************** Simulation parameters ****************************
siesta:
siesta: The following are some of the parameters of the simulation.
siesta: A complete list of the parameters used, including default values,
siesta: can be found in file out.fdf
siesta:
redata: Spin configuration                          = none
redata: Number of spin components                   = 1
redata: Time-Reversal Symmetry                      = T
redata: Spin spiral                                 = F
redata: Long output                                 =   F
redata: Number of Atomic Species                    =        1
redata: Charge density info will appear in .RHO file
redata: Write Mulliken Pop.                         = NO
redata: Matel table size (NRTAB)                    =     1024
redata: Mesh Cutoff                                 =   300.0000 Ry
redata: Net charge of the system                    =     0.0000 |e|
redata: Min. number of SCF Iter                     =        0
redata: Max. number of SCF Iter                     =     1000
redata: SCF convergence failure will abort job
redata: SCF mix quantity                            = Hamiltonian
redata: Mix DM or H after convergence               =   F
redata: Recompute H after scf cycle                 =   F
redata: Mix DM in first SCF step                    =   T
redata: Write Pulay info on disk                    =   F
redata: New DM Occupancy tolerance                  = 0.000000000001
redata: No kicks to SCF
redata: DM Mixing Weight for Kicks                  =     0.5000
redata: Require Harris convergence for SCF          =   F
redata: Harris energy tolerance for SCF             =     0.000100 eV
redata: Require DM convergence for SCF              =   T
redata: DM tolerance for SCF                        =     0.001000
redata: Require EDM convergence for SCF             =   F
redata: EDM tolerance for SCF                       =     0.005000 eV
redata: Require H convergence for SCF               =   T
redata: Hamiltonian tolerance for SCF               =     0.001000 eV
redata: Require (free) Energy convergence for SCF   =   T
redata: (free) Energy tolerance for SCF             =     0.001000 eV
redata: Using Saved Data (generic)                  =   F
redata: Use continuation files for DM               =   F
redata: Neglect nonoverlap interactions             =   F
redata: Method of Calculation                       = Diagonalization
redata: Electronic Temperature                      =   299.9869 K
redata: Fix the spin of the system                  =   F
redata: Dynamics option                             = Single-point calculation
mix.SCF: Pulay mixing                            = Pulay
mix.SCF:    Variant                              = stable
mix.SCF:    History steps                        = 4
mix.SCF:    Linear mixing weight                 =     0.250000
mix.SCF:    Mixing weight                        =     0.250000
mix.SCF:    SVD condition                        = 0.1000E-07
redata: ***********************************************************************

%block SCF.Mixers
  Pulay
%endblock SCF.Mixers

%block SCF.Mixer.Pulay
  # Mixing method
  method pulay
  variant stable

  # Mixing options
  weight 0.2500
  weight.linear 0.2500
  history 4
%endblock SCF.Mixer.Pulay

DM_history_depth set to one: no extrapolation allowed by default for geometry relaxation
Size of DM history Fstack: 1
Total number of electrons:   144.000000
Total ionic charge:   144.000000

* ProcessorY, Blocksize:    4   1


* Orbital distribution balance (max,min):    24    23

k-point displ. along   1 input, could be:     0.00    0.50
k-point displ. along   2 input, could be:     0.00    0.50
k-point displ. along   3 input, could be:     0.00    0.50
 Kpoints in:           48 . Kpoints trimmed:           44

siesta: k-grid: Number of k-points =    44
siesta: k-grid: Cutoff (effective) =    14.784 Ang
siesta: k-grid: Supercell and displacements
siesta: k-grid:    4   0   0      0.000
siesta: k-grid:    0   4   0      0.000
siesta: k-grid:    0   0   4      0.000

diag: Algorithm                                     = Expert
diag: Parallel over k                               =   T
diag: Use parallel 2D distribution                  =   T
diag: Parallel block-size                           = 1
diag: Parallel distribution                         =     4 x     5
diag: Used triangular part                          = Lower
diag: Absolute tolerance                            =  0.100E-15
diag: Orthogonalization factor                      =  0.100E-05
diag: Memory factor                                 =  1.0000

superc: Internal auxiliary supercell:     5 x     5 x     3  =      75
superc: Number of atoms, orbitals, and projectors:   2700  35100  24300


ts: **************************************************************
ts: Save H and S matrices                           =    F
ts: Save DM and EDM matrices                        =    F
ts: Only save the overlap matrix S                  =    F
ts: **************************************************************

************************ Begin: TS CHECKS AND WARNINGS ************************
************************ End: TS CHECKS AND WARNINGS **************************


                     ====================================
                        Single-point calculation
                     ====================================

outcoor: Atomic coordinates (Ang):                          
    0.00000000    0.00000000    2.26496250   1       1  C-gga
    0.00000000    0.00000000    6.79488750   1       2  C-gga
   -1.23200000    2.13388659    2.26496250   1       3  C-gga
   -2.46400000    4.26777319    6.79488750   1       4  C-gga
    2.46400000    4.26777319    2.26496250   1       5  C-gga
    1.23200000    2.13388659    6.79488750   1       6  C-gga
    2.46400000    0.00000000    2.26496250   1       7  C-gga
    4.92800000    0.00000000    6.79488750   1       8  C-gga
    2.46400000    0.00000000    6.79488750   1       9  C-gga
    4.92800000    0.00000000    2.26496250   1      10  C-gga
    2.46400000    4.26777319    6.79488750   1      11  C-gga
    1.23200000    2.13388659    2.26496250   1      12  C-gga
   -1.23200000    2.13388659    6.79488750   1      13  C-gga
   -2.46400000    4.26777319    2.26496250   1      14  C-gga
    0.00000000    4.26777319    2.26496250   1      15  C-gga
    3.69600000    2.13388659    6.79488750   1      16  C-gga
    3.69600000    2.13388659    2.26496250   1      17  C-gga
    0.00000000    4.26777319    6.79488750   1      18  C-gga
    0.00000000    1.42258964    2.26496250   1      19  C-gga
    3.69600000    4.97907014    6.79488750   1      20  C-gga
    2.46400123    5.69036496    2.26496250   1      21  C-gga
    1.23199877    0.71129482    6.79488750   1      22  C-gga
   -2.46400123    5.69036496    2.26496250   1      23  C-gga
    6.16000123    0.71129482    6.79488750   1      24  C-gga
   -1.23200000    3.55647624    2.26496250   1      25  C-gga
    4.92800000    2.84518355    6.79488750   1      26  C-gga
    1.23200123    3.55647837    2.26496250   1      27  C-gga
    2.46399877    2.84518142    6.79488750   1      28  C-gga
   -0.00000123    5.69036496    2.26496250   1      29  C-gga
    3.69600123    0.71129482    6.79488750   1      30  C-gga
    2.46400000    1.42258964    2.26496250   1      31  C-gga
    1.23200000    4.97907014    6.79488750   1      32  C-gga
    4.92800123    1.42259177    2.26496250   1      33  C-gga
   -1.23200123    4.97906801    6.79488750   1      34  C-gga
    3.69599877    3.55647837    2.26496250   1      35  C-gga
    0.00000123    2.84518142    6.79488750   1      36  C-gga

superc: Internal auxiliary supercell:     5 x     5 x     3  =      75
superc: Number of atoms, orbitals, and projectors:   2700  35100  24300

outcell: Unit cell vectors (Ang):
        7.392000    0.000000    0.000000
       -3.696000    6.401660    0.000000
        0.000000    0.000000    9.059850

outcell: Cell vector modules (Ang)   :    7.392000    7.392000    9.059850
outcell: Cell angles (23,13,12) (deg):     90.0000     90.0000    120.0000
outcell: Cell volume (Ang**3)        :    428.7218
<dSpData1D:S at geom step 0
  <sparsity:sparsity for geom step 0
    nrows_g=468 nrows=24 sparsity=.2293 nnzs=50226, refcount: 7>
  <dData1D:(new from dSpData1D) n=50226, refcount: 1>
refcount: 1>
new_DM -- step:     1
Initializing Density Matrix...
DM filled with atomic data:
<dSpData2D:DM initialized from atoms
  <sparsity:sparsity for geom step 0
    nrows_g=468 nrows=24 sparsity=.2293 nnzs=50226, refcount: 8>
  <dData2D:DM n=50226 m=1, refcount: 1>
refcount: 1>
No. of atoms with KB's overlaping orbs in proc 0. Max # of overlaps:     191     412
New grid distribution:   1
           1       1:   36    1:    9    1:   10
           2       1:   36    1:    9   11:   20
           3       1:   36    1:    9   21:   30
           4       1:   36    1:    9   31:   39
           5       1:   36    1:    9   40:   48
           6       1:   36   10:   18    1:   10
           7       1:   36   10:   18   11:   20
           8       1:   36   10:   18   21:   30
           9       1:   36   10:   18   31:   39
          10       1:   36   10:   18   40:   48
          11       1:   36   19:   27    1:   10
          12       1:   36   19:   27   11:   20
          13       1:   36   19:   27   21:   30
          14       1:   36   19:   27   31:   39
          15       1:   36   19:   27   40:   48
          16       1:   36   28:   36    1:   10
          17       1:   36   28:   36   11:   20
          18       1:   36   28:   36   21:   30
          19       1:   36   28:   36   31:   39
          20       1:   36   28:   36   40:   48

InitMesh: MESH =    72 x    72 x    96 =      497664
InitMesh: (bp) =    36 x    36 x    48 =       62208
InitMesh: Mesh cutoff (required, used) =   300.000   310.315 Ry
ExtMesh (bp) on 0 =   128 x   101 x    98 =     1266944
New grid distribution:   2
           1       1:   15   19:   36   37:   48
           2       1:   15    1:   18   13:   24
           3       1:   14    1:   18   25:   36
           4       1:   14    1:   18   37:   48
           5      15:   36    1:    9   32:   48
           6       1:   15    1:   18    1:   12
           7      16:   36   10:   18    8:   24
           8      15:   36    1:   18   25:   31
           9      16:   36    1:    9    8:   24
          10      15:   36   10:   18   32:   48
          11      16:   36   19:   36    1:    7
          12      16:   36   19:   27    8:   24
          13       1:   15   19:   36   25:   36
          14      16:   36    1:   18    1:    7
          15      16:   36   19:   27   32:   48
          16       1:   15   19:   36    1:   12
          17       1:   15   19:   36   13:   24
          18      16:   36   28:   36    8:   24
          19      16:   36   19:   36   25:   31
          20      16:   36   28:   36   32:   48
New grid distribution:   3
           1      16:   36   19:   36   25:   32
           2       1:   15    1:   18   13:   24
           3       1:   15    1:   18   25:   36
           4      16:   36   19:   36    1:    8
           5       1:   15   19:   36   37:   48
           6       1:   15    1:   18    1:   12
           7      16:   36   28:   36    9:   24
           8      16:   36   10:   18    9:   24
           9      16:   36    1:   18    1:    8
          10       1:   15    1:   18   37:   48
          11      16:   36   19:   27    9:   24
          12       1:   15   19:   36   13:   24
          13      16:   36    1:    9   33:   48
          14      16:   36    1:   18   25:   32
          15      16:   36   19:   27   33:   48
          16       1:   15   19:   36    1:   12
          17      16:   36   10:   18   33:   48
          18       1:   15   19:   36   25:   36
          19      16:   36    1:    9    9:   24
          20      16:   36   28:   36   33:   48
Setting up quadratic distribution...
ExtMesh (bp) on 0 =   107 x   110 x   100 =     1177000
PhiOnMesh: Number of (b)points on node 0 =                 3240
PhiOnMesh: nlist on node 0 =               715735

stepf: Fermi-Dirac step function

siesta: Program's energy decomposition (eV):
siesta: Ebs     =     -2049.384509
siesta: Eions   =      9434.507561
siesta: Ena     =      2224.353236
siesta: Ekin    =      4046.023507
siesta: Enl     =      -410.363004
siesta: Eso     =         0.000000
siesta: Edftu   =         0.000000
siesta: DEna    =      -292.414033
siesta: DUscf   =        30.207791
siesta: DUext   =         0.000000
siesta: Exc     =     -1735.952832
siesta: eta*DQ  =         0.000000
siesta: Emadel  =         0.000000
siesta: Emeta   =         0.000000
siesta: Emolmec =        -2.680070
siesta: Ekinion =         0.000000
siesta: Eharris =     -5478.077081
siesta: Etot    =     -5575.332966
siesta: FreeEng =     -5575.348682

        iscf     Eharris(eV)        E_KS(eV)     FreeEng(eV)     dDmax    Ef(eV) dHmax(eV)
   scf:    1    -5478.077081    -5575.332966    -5575.348682  1.826337 -7.870666  3.992154
timer: Routine,Calls,Time,% = IterSCF        1       7.219  69.37
   scf:    2    -5580.501726    -5577.987091    -5578.002293  0.073351 -7.224122  2.630243
   scf:    3    -5581.756045    -5580.196522    -5580.210526  0.128401 -6.008952  0.085166
   scf:    4    -5580.189856    -5580.194264    -5580.208346  0.006375 -6.091108  0.082165
   scf:    5    -5580.200684    -5580.197941    -5580.211988  0.005976 -6.068276  0.003447
   scf:    6    -5580.197943    -5580.197942    -5580.211989  0.000036 -6.068226  0.003017
   scf:    7    -5580.197949    -5580.197946    -5580.211991  0.000116 -6.066903  0.000302

SCF Convergence by FreeE+DM+H criterion
|FreeE_i-FreeE_(i-1)| (eV) <     0.00100000
max |DM_out - DM_in|         :     0.0001163394
max |H_out - H_in|      (eV) :     0.0003022256
SCF cycle converged after 7 iterations

Using DM_out to compute the final energy and forces
No. of atoms with KB's overlaping orbs in proc 0. Max # of overlaps:     191     412

MM-Stress (kbar):        3.05        3.05       11.09        0.00        0.00       -0.00

siesta: E_KS(eV) =            -5580.1979

siesta: E_KS - E_eggbox =     -5580.1979

siesta: Atomic forces (eV/Ang):
     1   -0.000079    0.000045    0.000000
     2    0.000079   -0.000046    0.000000
     3   -0.000027    0.000001    0.000000
     4    0.000027   -0.000001    0.000000
     5   -0.000066    0.000113    0.000000
     6    0.000066   -0.000112    0.000000
     7   -0.000143    0.000023    0.000000
     8    0.000143   -0.000023    0.000000
     9    0.000063   -0.000064    0.000000
    10   -0.000063    0.000063    0.000000
    11    0.000071   -0.000023    0.000000
    12   -0.000071    0.000023    0.000000
    13    0.000102   -0.000050    0.000000
    14   -0.000102    0.000050    0.000000
    15   -0.000079    0.000046    0.000000
    16    0.000079   -0.000045    0.000000
    17   -0.000079    0.000046    0.000000
    18    0.000079   -0.000046    0.000000
    19    0.000088    0.000066    0.000000
    20   -0.000088   -0.000065    0.000000
    21   -0.000022   -0.000093    0.000000
    22    0.000022    0.000093    0.000000
    23    0.000170   -0.000109    0.000000
    24   -0.000170    0.000109    0.000000
    25    0.000087    0.000051    0.000000
    26   -0.000087   -0.000051    0.000000
    27   -0.000009   -0.000087    0.000000
    28    0.000009    0.000086   -0.000000
    29    0.000158   -0.000101   -0.000000
    30   -0.000158    0.000101    0.000000
    31    0.000088    0.000051    0.000000
    32   -0.000087   -0.000051    0.000000
    33   -0.000009   -0.000086    0.000000
    34    0.000009    0.000087    0.000000
    35    0.000158   -0.000101    0.000000
    36   -0.000158    0.000101   -0.000000
----------------------------------------
   Tot   -0.000000    0.000000    0.000000
----------------------------------------
   Max    0.000170
   Res    0.000069    sqrt( Sum f_i^2 / 3N )
----------------------------------------
   Max    0.000170    constrained

Stress tensor Voigt[x,y,z,yz,xz,xy] (kbar):     -107.62     -107.71       15.57       -0.00       -0.00       -0.08
(Free)E + p*V (eV/cell)    -5562.3953
Target enthalpy (eV/cell)    -5580.2120

siesta: Eigenvalues (eV):
  ik is       eps
   1  1  -25.1133  -25.1012  -24.4657  -24.4657  -24.4535  -24.4535  -22.5604  -22.5604  -22.5502  -22.5502
         -21.3368  -21.3278  -20.7754  -20.7754  -20.7676  -20.7676  -19.9591  -19.9554  -18.9486  -18.9449
  -18.6879  -18.6879  -18.6808  -18.6807  -16.6540  -16.6495  -15.6231  -15.6231  -15.6151  -15.6151
  -15.0625  -15.0564  -14.3479  -14.3402  -13.5945  -13.5945  -13.5866  -13.5866  -13.1732  -13.0284
  -13.0284  -13.0250  -13.0250  -12.8864  -12.5831  -12.5831  -12.5780  -12.5780  -12.4081  -12.4081
  -12.1325  -12.1325  -11.1991  -11.1991  -11.1965  -11.1965  -10.8879  -10.8879  -10.2192  -10.2192
  -10.2153  -10.2143   -9.9869   -9.9869   -8.8740   -8.6780   -8.5844   -8.5844   -8.4517   -8.4517
   -7.8650   -7.7815   -4.6284   -4.5559   -4.1450   -4.1450   -4.0193   -4.0193   -3.2856   -3.2204
   -1.6603   -1.6603   -1.5908   -1.5908   -1.4731   -0.5698   -0.5698    2.0613    2.0613    2.0822
    2.0822    2.1579    2.1579    2.1715    2.1934    2.1934    2.5852    2.6329    2.7744    2.7744
    2.7849    2.7849    2.8342    2.8342    2.8785    2.8785    3.7933    3.7936    3.8212    3.8316
    3.9266    3.9981    4.2055    4.2055    4.3118    4.3118    4.7897    4.7897    4.8971    4.8979
    5.3399    5.3399    5.3701    5.3701    5.6575    5.7726    5.7726    5.9448    5.9448    6.1189
    6.4006    6.6474    6.7280    6.8783    6.8783    7.0539    7.0539    7.0766    7.0766    7.0805
    7.0874    7.6575    7.6745    7.6888    7.7976    8.2334    8.2334    8.2393    8.2393    8.2504
    9.0494    9.0494    9.1904    9.1904    9.2385    9.2385    9.4102    9.7433    9.7433    9.7747
    9.8520   10.0263   10.0263   10.1179   10.1179   10.5046   10.7826   10.7826   11.5005   12.0809
   12.3350   12.3350   13.2381   13.2381   13.5762   13.5762   13.6546   13.6546   13.7509   13.9920
   13.9920   14.0338   14.0338   14.4606   14.4704   14.5393   15.1174   15.1174   15.1583   15.6536
   15.9711   15.9711   16.7187   17.1962   17.4907   17.5240   17.5240   17.7459   17.7755   17.7755
   18.1472   18.1492   18.2437   18.2437   18.3559   18.6117   18.6117   18.7738   19.1167   19.1167
   19.2594   19.2594   19.2855   19.8142   19.8142   19.8542   20.0202   20.1738   20.1738   20.3472
   20.3472   20.5010   20.5010   20.7090   20.8009   21.1346   21.1346   21.6372   21.6372   21.7508
   22.0272   22.0272   22.1466   22.1466   22.2902   22.2902   23.1472   23.1729   23.6866   23.6866
   23.7297   23.7297   24.4085   24.4085   25.1798   25.1897   25.1897   25.4515   27.1738   27.1738
   28.4072   28.4072   29.0973   29.0973   29.1792   29.5117   30.7589   30.8824   31.1534   31.7027
   31.7027   32.9162   32.9162   33.1288   33.1733   33.1733   34.2202   34.4502   34.4502   34.7471
   34.7471   35.2257   35.2257   36.2500   36.6496   37.3281   37.3281   37.6463   37.6463   37.7345
   38.2415   38.2415   39.1963   39.6506   40.0126   40.0126   41.3866   41.3866   41.5655   42.1467
   42.1467   42.6195   42.8910   42.8911   42.9967   42.9967   43.1172   43.1379   43.1380   43.5331
   43.8171   43.8171   43.8372   44.0303   44.0303   44.5054   44.5163   44.5163   44.5390   44.7023
   44.7023   45.0501   45.0869   45.1467   45.2609   45.5185   46.0125   46.0125   46.0159   46.0159
   46.3938   46.6096   46.6515   47.3143   47.3143   47.8859   47.8859   48.0479   48.0479   48.8172
   49.0892   49.2061   49.2061   49.2248   49.3145   49.3145   51.1026   51.1026   51.4046   51.7410
   51.7410   52.0519   52.3549   52.3549   52.7125   52.7125   53.1485   53.1485   53.6382   53.6382
   53.9902   53.9902   54.5777   54.6959   54.6959   55.8753   55.9918   57.5920   59.5642   59.7959
   60.0372   60.0372   60.3053   60.7779   60.7779   60.9952   61.2753   61.6784   61.6785   61.6874
   61.6874   61.8414   61.8543   61.9647   61.9648   62.7361   62.8754   63.6119   63.6120   64.6709
   64.6710   66.3748   66.3748   66.6394   66.6395   66.6868   66.6868   68.5792   68.5793   69.6606
   69.6606   69.6887   69.6888   69.7880   72.6241   72.7853   72.8006   73.4281   73.4281   73.8577
   73.8612   73.9917   73.9918   75.7641   75.9580   76.9493   76.9494   79.4073   79.4074   81.6734
   81.6815   83.7746   83.7746   85.1851   86.4155   90.4815   90.4817   90.7655   90.7656   91.5161
   91.5161   96.5847   97.6587   97.6589   98.1722   98.1760   98.1760   99.0732   99.0733  100.9759
  101.9536  104.2216  104.2221  104.4601  104.6396  105.0867  105.7397  105.7398  107.2857  107.2858
  107.3884  107.6099  107.6106  108.9402  108.9403  111.1891  111.1895  112.6394  112.6397  113.6862
  113.6866  114.2145  114.3654  114.3657  114.9580  114.9588  115.1373  115.3077  115.3085  116.3466
  116.8785  117.2720  117.6397  117.6399  121.2133  122.4381  123.2229  124.4255
   2  1  -25.4353  -25.4263  -24.1437  -24.1316  -23.5044  -23.5044  -23.4932  -23.4932  -22.2494  -22.2493
         -22.2394  -22.2394  -21.6393  -21.6301  -19.9197  -19.9196  -19.9127  -19.9126  -18.0662  -18.0661
  -18.0604  -18.0604  -17.8515  -17.8431  -16.7563  -16.7561  -16.7467  -16.7465  -15.7667  -15.7666
  -15.7595  -15.7593  -14.6440  -14.6438  -14.6340  -14.6338  -13.5695  -13.5606  -13.5602  -13.2689
  -12.7039  -12.7035  -12.7007  -12.7003  -12.3884  -12.3882  -12.0756  -12.0753  -12.0726  -12.0723
  -12.0329  -11.7636  -11.2938  -11.2938  -11.1962  -11.1946  -11.0383  -11.0383   -9.9119   -9.9119
   -9.8648   -9.8631   -9.6940   -9.6940   -9.5523   -9.5493   -9.3351   -9.1488   -7.4765   -7.4765
   -7.3464   -7.3464   -4.7995   -4.7995   -4.7372   -4.7372   -3.3352   -3.1973   -2.3848   -2.3848
   -2.2700   -2.2700   -1.7078   -0.1341   -0.1341   -0.0887   -0.0612   -0.0612    1.0290    1.0290
    1.1887    1.2458    1.5105    1.5417    1.8402    2.0397    2.1007    2.2693    2.2915    2.3043
    2.3045    2.3326    2.3328    2.5788    2.5791    2.6491    2.6493    2.8831    2.8849    3.2831
    3.3651    3.3651    3.9306    3.9306    4.4334    4.5298    4.8171    4.8223    5.3510    5.3510
    6.0758    6.0758    6.1605    6.2004    6.2192    6.2192    6.3000    6.3001    6.9130    6.9130
    6.9330    6.9408    6.9409    6.9410    7.0199    7.0199    7.3147    7.3190    7.5369    7.5372
    7.6078    7.6080    7.6753    7.6753    8.3273    8.3275    8.7557    8.7558    8.8226    9.1800
    9.2344    9.2344    9.3265    9.5677    9.6975    9.7282    9.7284   10.1159   10.1162   10.2911
   10.3410   10.3410   10.3569   10.4474   10.4474   10.9732   10.9734   11.1986   11.1986   11.2984
   11.6052   11.6052   12.3521   12.3526   12.7609   12.7648   12.9653   12.9865   12.9866   13.6716
   13.6716   13.6893   13.6894   14.9065   14.9065   15.1778   15.1780   15.3418   15.3419   16.0677
   16.0677   16.2061   16.5405   16.5405   16.7885   16.7885   17.2478   17.2852   17.2854   17.3558
   17.3564   17.9947   17.9947   18.5190   18.5192   18.5893   18.6701   18.6705   18.7581   18.8121
   18.8122   19.1134   19.1141   19.1889   19.2626   19.2627   19.5477   19.5477   19.7669   19.8659
   20.0841   20.4871   20.4871   20.7012   20.7017   21.1118   21.1119   21.1172   21.1447   21.2996
   21.4734   21.5799   22.4450   22.4451   23.0367   23.0369   24.4192   24.4192   24.4292   24.4296
   24.7373   24.8259   24.8259   25.1021   25.2531   25.5927   25.8115   27.0701   27.9922   28.1504
   28.2349   28.2349   28.2563   28.9800   28.9801   29.3939   29.3940   29.4776   29.6989   29.6991
   33.3467   33.3473   33.3959   33.3964   33.5473   34.0711   34.8684   35.0721   35.4651   35.4652
   35.9726   37.4196   37.9897   37.9898   38.3271   38.7434   38.7434   38.8689   38.8735   38.8747
   39.2269   39.2281   39.3241   39.3242   39.4046   39.4046   40.3601   40.8585   40.8597   41.0140
   41.0151   41.1296   41.4318   41.5355   42.0052   42.0829   42.8325   42.8970   43.6431   43.7206
   43.7207   43.7464   43.7636   43.7636   44.1805   44.1806   44.7255   44.8389   44.8395   45.3164
   45.3164   45.6815   45.6815   45.7749   45.8259   45.8981   45.9917   46.0961   46.1088   46.1100
   46.5152   46.5153   46.7249   47.0898   47.1925   47.1926   47.1940   47.1942   47.4071   48.0193
   48.0194   48.0970   48.0970   48.2225   48.2227   48.7958   49.5168   49.7838   49.9599   49.9600
   50.0631   50.0632   50.9608   50.9609   51.6051   51.7891   51.7894   53.0811   53.4115   53.8552
   54.4476   54.4858   55.2302   55.2304   55.9536   57.6805   57.6805   57.9297   57.9300   58.3791
   58.3791   59.8028   59.8030   59.8399   59.8401   60.3009   60.6556   60.6557   60.9287   60.9288
   61.9468   62.5670   62.5674   63.0417   63.2879   63.3148   63.3156   63.3904   64.7637   64.7650
   65.2148   65.6525   65.9258   65.9261   65.9620   65.9623   66.2921   66.3250   67.2094   67.2099
   67.7301   67.7311   67.7645   70.3232   70.6297   70.7073   70.8346   71.7329   71.7359   71.7734
   73.6067   73.7325   74.0277   76.4858   76.4859   76.4910   76.4911   77.3539   77.3545   79.3147
   79.3158   80.2688   84.4209   85.0951   88.7194   91.8453   92.5366   92.5392   93.3373   94.9981
   94.9998   96.1710   96.9449   96.9479   97.7905   97.7907   98.6418   98.6448  102.6879  102.6885
  103.3888  106.3328  106.3333  107.3780  107.3794  107.7577  107.7585  107.8852  108.0176  108.0177
  109.1892  110.3383  110.3393  110.7229  110.8934  110.8936  111.1449  111.1466  111.8415  112.1061
  112.1099  113.6656  113.6788  113.6942  113.6964  113.7141  113.7163  113.7450  115.1843  115.1872
  121.1981  126.1596  126.1607  128.3077  135.2523  135.2545  137.2339  137.2358
   3  1  -25.4353  -25.4263  -24.1437  -24.1316  -23.5044  -23.5044  -23.4932  -23.4932  -22.2493  -22.2493
         -22.2394  -22.2394  -21.6392  -21.6300  -19.9196  -19.9196  -19.9126  -19.9126  -18.0662  -18.0662
  -18.0605  -18.0605  -17.8514  -17.8429  -16.7563  -16.7563  -16.7467  -16.7467  -15.7666  -15.7666
  -15.7594  -15.7594  -14.6440  -14.6440  -14.6340  -14.6340  -13.5693  -13.5606  -13.5600  -13.2689
  -12.7035  -12.7035  -12.7003  -12.7003  -12.3888  -12.3885  -12.0753  -12.0753  -12.0723  -12.0723
  -12.0329  -11.7636  -11.2938  -11.2938  -11.1966  -11.1950  -11.0383  -11.0383   -9.9119   -9.9119
   -9.8644   -9.8627   -9.6940   -9.6940   -9.5527   -9.5497   -9.3351   -9.1488   -7.4765   -7.4765
   -7.3464   -7.3464   -4.7995   -4.7995   -4.7372   -4.7372   -3.3352   -3.1973   -2.3848   -2.3848
   -2.2700   -2.2700   -1.7078   -0.1341   -0.1341   -0.0886   -0.0612   -0.0612    1.0290    1.0290
    1.1887    1.2458    1.5107    1.5420    1.8402    2.0401    2.1010    2.2698    2.2920    2.3043
    2.3043    2.3325    2.3325    2.5789    2.5789    2.6492    2.6492    2.8826    2.8843    3.2831
    3.3651    3.3651    3.9306    3.9306    4.4334    4.5298    4.8171    4.8223    5.3509    5.3509
    6.0758    6.0758    6.1605    6.2004    6.2192    6.2192    6.3000    6.3000    6.9132    6.9132
    6.9330    6.9408    6.9409    6.9409    7.0199    7.0199    7.3140    7.3183    7.5373    7.5373
    7.6082    7.6082    7.6751    7.6751    8.3274    8.3274    8.7555    8.7555    8.8228    9.1803
    9.2342    9.2342    9.3268    9.5677    9.6978    9.7281    9.7281   10.1161   10.1161   10.2911
   10.3410   10.3410   10.3569   10.4474   10.4474   10.9732   10.9732   11.1985   11.1985   11.2989
   11.6052   11.6052   12.3529   12.3529   12.7599   12.7638   12.9653   12.9869   12.9869   13.6716
   13.6716   13.6895   13.6895   14.9065   14.9065   15.1779   15.1779   15.3421   15.3421   16.0677
   16.0677   16.2061   16.5405   16.5405   16.7885   16.7885   17.2486   17.2852   17.2852   17.3558
   17.3558   17.9947   17.9947   18.5191   18.5191   18.5901   18.6700   18.6700   18.7581   18.8121
   18.8121   19.1134   19.1134   19.1888   19.2627   19.2627   19.5477   19.5477   19.7670   19.8663
   20.0842   20.4872   20.4872   20.7009   20.7009   21.1118   21.1118   21.1173   21.1446   21.3003
   21.4733   21.5800   22.4450   22.4450   23.0370   23.0370   24.4189   24.4189   24.4296   24.4296
   24.7374   24.8257   24.8257   25.1020   25.2530   25.5928   25.8116   27.0708   27.9926   28.1512
   28.2349   28.2349   28.2562   28.9800   28.9800   29.3939   29.3939   29.4774   29.6988   29.6988
   33.3466   33.3466   33.3961   33.3961   33.5471   34.0712   34.8685   35.0718   35.4651   35.4651
   35.9727   37.4196   37.9897   37.9897   38.3260   38.7434   38.7434   38.8677   38.8744   38.8744
   39.2278   39.2278   39.3241   39.3241   39.4046   39.4046   40.3601   40.8599   40.8599   41.0153
   41.0153   41.1298   41.4319   41.5357   42.0039   42.0815   42.8323   42.8968   43.6432   43.7206
   43.7206   43.7472   43.7636   43.7636   44.1803   44.1803   44.7263   44.8393   44.8393   45.3164
   45.3164   45.6815   45.6815   45.7732   45.8261   45.8997   45.9921   46.0942   46.1094   46.1094
   46.5152   46.5152   46.7262   47.0895   47.1923   47.1923   47.1940   47.1940   47.4073   48.0193
   48.0193   48.0968   48.0968   48.2222   48.2222   48.7957   49.5168   49.7844   49.9599   49.9599
   50.0631   50.0631   50.9608   50.9608   51.6068   51.7892   51.7892   53.0813   53.4117   53.8554
   54.4473   54.4855   55.2301   55.2301   55.9541   57.6805   57.6805   57.9297   57.9297   58.3792
   58.3792   59.8031   59.8031   59.8402   59.8402   60.3014   60.6556   60.6556   60.9289   60.9289
   61.9468   62.5669   62.5669   63.0400   63.2885   63.3151   63.3151   63.3887   64.7649   64.7649
   65.2157   65.6533   65.9261   65.9261   65.9623   65.9623   66.2917   66.3247   67.2110   67.2110
   67.7321   67.7323   67.7645   70.3202   70.6266   70.7042   70.8315   71.7346   71.7346   71.7765
   73.6091   73.7330   74.0298   76.4859   76.4859   76.4911   76.4911   77.3548   77.3549   79.3136
   79.3137   80.2696   84.4193   85.0932   88.7218   91.8464   92.5361   92.5361   93.3385   94.9977
   94.9978   96.1731   96.9456   96.9457   97.7914   97.7915   98.6423   98.6423  102.6876  102.6877
  103.3914  106.3325  106.3325  107.3797  107.3798  107.7578  107.7579  107.8862  108.0172  108.0173
  109.1857  110.3369  110.3370  110.7236  110.8925  110.8928  111.1486  111.1490  111.8371  112.1091
  112.1097  113.6666  113.6752  113.6955  113.6956  113.7179  113.7184  113.7405  115.1871  115.1876
  121.1985  126.1603  126.1605  128.3079  135.2528  135.2543  137.2345  137.2361
   4  1  -25.1133  -25.1012  -24.4657  -24.4657  -24.4535  -24.4535  -22.5605  -22.5604  -22.5502  -22.5502
         -21.3367  -21.3278  -20.7753  -20.7753  -20.7676  -20.7675  -19.9591  -19.9554  -18.9487  -18.9450
  -18.6879  -18.6878  -18.6808  -18.6806  -16.6539  -16.6495  -15.6233  -15.6233  -15.6152  -15.6152
  -15.0626  -15.0565  -14.3476  -14.3400  -13.5943  -13.5942  -13.5864  -13.5863  -13.1732  -13.0287
  -13.0284  -13.0253  -13.0250  -12.8864  -12.5832  -12.5829  -12.5781  -12.5778  -12.4081  -12.4081
  -12.1325  -12.1325  -11.1993  -11.1990  -11.1968  -11.1964  -10.8877  -10.8876  -10.2192  -10.2192
  -10.2156  -10.2147   -9.9869   -9.9869   -8.8740   -8.6780   -8.5844   -8.5844   -8.4517   -8.4517
   -7.8650   -7.7815   -4.6284   -4.5559   -4.1450   -4.1450   -4.0193   -4.0193   -3.2856   -3.2204
   -1.6603   -1.6603   -1.5908   -1.5908   -1.4731   -0.5698   -0.5698    2.0613    2.0613    2.0822
    2.0822    2.1579    2.1580    2.1715    2.1934    2.1936    2.5856    2.6332    2.7744    2.7747
    2.7849    2.7849    2.8342    2.8345    2.8785    2.8785    3.7929    3.7932    3.8212    3.8316
    3.9265    3.9980    4.2054    4.2055    4.3116    4.3118    4.7897    4.7897    4.8971    4.8980
    5.3395    5.3400    5.3697    5.3702    5.6575    5.7726    5.7727    5.9449    5.9449    6.1187
    6.4004    6.6473    6.7279    6.8784    6.8785    7.0539    7.0539    7.0767    7.0768    7.0805
    7.0873    7.6575    7.6745    7.6887    7.7976    8.2334    8.2334    8.2392    8.2395    8.2503
    9.0494    9.0494    9.1903    9.1905    9.2385    9.2386    9.4103    9.7433    9.7433    9.7747
    9.8518   10.0264   10.0266   10.1179   10.1179   10.5044   10.7823   10.7827   11.5005   12.0809
   12.3350   12.3350   13.2382   13.2384   13.5753   13.5763   13.6545   13.6547   13.7515   13.9913
   13.9923   14.0338   14.0338   14.4612   14.4705   14.5393   15.1174   15.1174   15.1585   15.6536
   15.9711   15.9711   16.7190   17.1966   17.4907   17.5240   17.5248   17.7457   17.7749   17.7750
   18.1468   18.1492   18.2437   18.2445   18.3554   18.6116   18.6117   18.7739   19.1161   19.1166
   19.2594   19.2594   19.2855   19.8142   19.8142   19.8542   20.0201   20.1738   20.1739   20.3471
   20.3471   20.5010   20.5010   20.7093   20.8009   21.1342   21.1349   21.6369   21.6375   21.7511
   22.0273   22.0274   22.1465   22.1468   22.2902   22.2902   23.1472   23.1728   23.6865   23.6866
   23.7299   23.7300   24.4084   24.4085   25.1798   25.1897   25.1897   25.4515   27.1738   27.1738
   28.4071   28.4071   29.0972   29.0973   29.1792   29.5117   30.7589   30.8823   31.1534   31.7027
   31.7032   32.9161   32.9167   33.1287   33.1730   33.1731   34.2201   34.4502   34.4503   34.7471
   34.7472   35.2257   35.2258   36.2499   36.6495   37.3281   37.3281   37.6454   37.6462   37.7346
   38.2405   38.2414   39.1964   39.6505   40.0126   40.0126   41.3873   41.3875   41.5656   42.1470
   42.1474   42.6197   42.8898   42.8908   42.9953   42.9963   43.1173   43.1379   43.1380   43.5330
   43.8178   43.8179   43.8369   44.0310   44.0312   44.5063   44.5156   44.5163   44.5397   44.7022
   44.7024   45.0496   45.0858   45.1454   45.2604   45.5185   46.0125   46.0125   46.0158   46.0161
   46.3939   46.6094   46.6514   47.3143   47.3143   47.8859   47.8859   48.0478   48.0478   48.8170
   49.0892   49.2061   49.2062   49.2248   49.3148   49.3155   51.1025   51.1028   51.4048   51.7409
   51.7410   52.0519   52.3549   52.3551   52.7125   52.7126   53.1484   53.1486   53.6382   53.6384
   53.9902   53.9903   54.5775   54.6958   54.6960   55.8752   55.9919   57.5920   59.5645   59.7962
   60.0369   60.0372   60.3054   60.7778   60.7781   60.9958   61.2755   61.6779   61.6780   61.6866
   61.6874   61.8417   61.8546   61.9639   61.9648   62.7359   62.8754   63.6122   63.6126   64.6710
   64.6716   66.3748   66.3754   66.6395   66.6396   66.6869   66.6870   68.5793   68.5813   69.6603
   69.6606   69.6884   69.6887   69.7855   72.6224   72.7852   72.8005   73.4250   73.4270   73.8579
   73.8614   73.9918   73.9919   75.7669   75.9608   76.9501   76.9513   79.4044   79.4065   81.6739
   81.6818   83.7736   83.7767   85.1861   86.4157   90.4818   90.4825   90.7658   90.7679   91.5156
   91.5167   96.5819   97.6590   97.6615   98.1694   98.1728   98.1738   99.0702   99.0708  100.9765
  101.9536  104.2214  104.2231  104.4614  104.6374  105.0876  105.7396  105.7425  107.2852  107.2859
  107.3857  107.6099  107.6126  108.9398  108.9402  111.1893  111.1895  112.6368  112.6386  113.6824
  113.6860  114.2141  114.3652  114.3654  114.9602  114.9620  115.1373  115.3099  115.3115  116.3472
  116.8801  117.2746  117.6390  117.6401  121.2140  122.4393  123.2219  124.4245
   5  1  -25.4353  -25.4263  -24.1437  -24.1316  -23.5044  -23.5044  -23.4932  -23.4932  -22.2494  -22.2493
         -22.2394  -22.2394  -21.6393  -21.6301  -19.9197  -19.9196  -19.9127  -19.9126  -18.0662  -18.0661
  -18.0604  -18.0604  -17.8515  -17.8431  -16.7563  -16.7561  -16.7467  -16.7465  -15.7667  -15.7666
  -15.7595  -15.7593  -14.6440  -14.6438  -14.6340  -14.6338  -13.5695  -13.5606  -13.5602  -13.2689
  -12.7039  -12.7035  -12.7007  -12.7003  -12.3884  -12.3882  -12.0756  -12.0753  -12.0726  -12.0723
  -12.0329  -11.7636  -11.2938  -11.2938  -11.1962  -11.1946  -11.0383  -11.0383   -9.9119   -9.9119
   -9.8648   -9.8631   -9.6940   -9.6940   -9.5523   -9.5493   -9.3351   -9.1488   -7.4765   -7.4765
   -7.3464   -7.3464   -4.7995   -4.7995   -4.7372   -4.7372   -3.3352   -3.1973   -2.3848   -2.3848
   -2.2700   -2.2700   -1.7078   -0.1341   -0.1341   -0.0887   -0.0612   -0.0612    1.0290    1.0290
    1.1887    1.2458    1.5105    1.5417    1.8402    2.0397    2.1007    2.2693    2.2915    2.3043
    2.3045    2.3326    2.3328    2.5788    2.5791    2.6491    2.6493    2.8831    2.8849    3.2831
    3.3651    3.3651    3.9306    3.9306    4.4334    4.5298    4.8171    4.8223    5.3510    5.3510
    6.0758    6.0758    6.1605    6.2004    6.2192    6.2192    6.3000    6.3001    6.9130    6.9130
    6.9330    6.9408    6.9409    6.9410    7.0199    7.0199    7.3147    7.3190    7.5369    7.5372
    7.6078    7.6080    7.6753    7.6753    8.3273    8.3275    8.7557    8.7558    8.8226    9.1800
    9.2344    9.2344    9.3265    9.5677    9.6975    9.7282    9.7284   10.1159   10.1162   10.2911
   10.3410   10.3410   10.3569   10.4474   10.4474   10.9732   10.9734   11.1986   11.1986   11.2984
   11.6052   11.6052   12.3521   12.3526   12.7609   12.7648   12.9653   12.9865   12.9866   13.6716
   13.6716   13.6893   13.6894   14.9065   14.9065   15.1778   15.1780   15.3418   15.3419   16.0677
   16.0677   16.2061   16.5405   16.5405   16.7885   16.7885   17.2478   17.2852   17.2854   17.3558
   17.3564   17.9947   17.9947   18.5190   18.5192   18.5893   18.6701   18.6705   18.7581   18.8121
   18.8122   19.1134   19.1141   19.1889   19.2626   19.2627   19.5477   19.5477   19.7669   19.8659
   20.0841   20.4871   20.4871   20.7012   20.7017   21.1118   21.1119   21.1172   21.1447   21.2996
   21.4734   21.5799   22.4450   22.4451   23.0367   23.0369   24.4192   24.4192   24.4292   24.4296
   24.7373   24.8259   24.8259   25.1021   25.2531   25.5927   25.8115   27.0701   27.9922   28.1504
   28.2349   28.2349   28.2563   28.9800   28.9801   29.3939   29.3940   29.4776   29.6989   29.6991
   33.3467   33.3473   33.3959   33.3964   33.5473   34.0711   34.8684   35.0721   35.4651   35.4652
   35.9726   37.4196   37.9897   37.9898   38.3271   38.7434   38.7434   38.8689   38.8735   38.8747
   39.2269   39.2281   39.3241   39.3242   39.4046   39.4046   40.3601   40.8586   40.8597   41.0140
   41.0152   41.1296   41.4318   41.5355   42.0052   42.0828   42.8325   42.8970   43.6431   43.7206
   43.7207   43.7464   43.7636   43.7636   44.1805   44.1806   44.7255   44.8389   44.8395   45.3164
   45.3164   45.6815   45.6815   45.7749   45.8259   45.8981   45.9917   46.0961   46.1088   46.1100
   46.5152   46.5153   46.7249   47.0898   47.1925   47.1926   47.1940   47.1942   47.4071   48.0193
   48.0194   48.0970   48.0970   48.2225   48.2227   48.7958   49.5168   49.7838   49.9599   49.9600
   50.0631   50.0632   50.9608   50.9609   51.6051   51.7891   51.7894   53.0811   53.4115   53.8552
   54.4476   54.4858   55.2301   55.2304   55.9536   57.6805   57.6805   57.9297   57.9300   58.3791
   58.3791   59.8028   59.8030   59.8399   59.8401   60.3009   60.6556   60.6557   60.9287   60.9288
   61.9468   62.5671   62.5674   63.0416   63.2879   63.3148   63.3156   63.3903   64.7637   64.7651
   65.2148   65.6525   65.9258   65.9261   65.9620   65.9623   66.2921   66.3250   67.2093   67.2099
   67.7300   67.7311   67.7645   70.3231   70.6296   70.7073   70.8346   71.7329   71.7360   71.7734
   73.6067   73.7324   74.0277   76.4858   76.4859   76.4910   76.4911   77.3539   77.3544   79.3148
   79.3159   80.2689   84.4206   85.0946   88.7194   91.8451   92.5366   92.5392   93.3373   94.9981
   94.9998   96.1709   96.9450   96.9478   97.7904   97.7907   98.6418   98.6447  102.6879  102.6885
  103.3889  106.3328  106.3333  107.3781  107.3796  107.7577  107.7586  107.8851  108.0177  108.0178
  109.1886  110.3381  110.3392  110.7229  110.8932  110.8937  111.1453  111.1474  111.8411  112.1060
  112.1103  113.6656  113.6781  113.6942  113.6964  113.7146  113.7172  113.7446  115.1842  115.1876
  121.1981  126.1595  126.1608  128.3076  135.2526  135.2541  137.2341  137.2354
   6  1  -25.5890  -25.5882  -23.0293  -23.0293  -23.0293  -23.0293  -23.0293  -23.0292  -23.0185  -23.0185
         -23.0185  -23.0185  -23.0185  -23.0185  -18.7094  -18.7094  -18.7055  -18.7055  -18.7054  -18.7054
  -18.7018  -18.7018  -16.6487  -16.6487  -16.6487  -16.6487  -15.7618  -15.7618  -15.7618  -15.7618
  -15.7616  -15.7616  -15.7510  -15.7510  -15.7510  -15.7510  -15.7508  -15.7508  -13.7554  -13.4613
  -11.9207  -11.9207  -11.9204  -11.9204  -11.9204  -11.9204  -11.9204  -11.9204  -11.9200  -11.9200
  -11.9200  -11.9200  -10.7648  -10.7648  -10.7648  -10.7648  -10.7648  -10.7648  -10.5228  -10.5228
  -10.5228  -10.5228  -10.5228  -10.5228   -9.2200   -9.2194   -9.2194   -9.2189   -6.1442   -6.1442
   -6.0667   -6.0667   -6.0667   -6.0667   -5.9903   -5.9903   -1.5675   -1.1789   -1.1789   -1.1789
   -1.1789   -1.1789   -1.1789   -1.0718   -1.0718   -1.0718   -1.0718   -1.0718   -1.0718    1.6032
    1.6032    1.6032    1.6032    1.6034    1.6034    1.6768    1.7448    1.7448    1.7448    1.7448
    1.7451    1.7451    2.0422    2.0422    2.0422    2.0422    2.0423    2.0423    2.1849    2.1850
    2.1856    2.1857    4.4137    4.5490    4.5490    4.5490    4.5490    4.5490    4.5490    5.3551
    5.3584    6.1818    6.1818    6.1818    6.1818    6.6274    6.6306    7.0979    7.0979    7.4521
    7.4521    7.4522    7.4522    7.5793    7.5793    7.5793    7.5793    7.5794    7.5794    8.0632
    8.0632    9.2987    9.2987    9.2990    9.2990    9.4545   10.0261   10.0262   10.0262   10.0262
   10.0266   10.0266   10.1888   10.1888   10.1897   10.1897   10.1897   10.1897   10.1938   10.1938
   10.1947   10.1947   10.1947   10.1947   10.6837   10.6837   10.6837   10.6837   10.6842   10.6842
   10.8028   10.8028   10.8028   10.8028   10.8028   10.8028   12.0092   12.0092   13.2309   13.2309
   14.7053   14.7053   14.7054   14.7054   15.1345   15.1345   15.1345   15.1345   15.3918   15.3918
   15.3918   15.3918   15.3918   15.3918   16.4341   16.4341   17.7280   17.7280   17.7280   17.7280
   17.7285   17.7285   18.4756   18.4756   18.4756   18.4756   18.4756   18.4756   18.7066   18.7066
   18.7066   18.7066   19.3069   19.3069   19.6663   19.6663   19.6664   19.6664   19.6664   19.6664
   19.7110   19.9322   19.9322   19.9322   19.9322   19.9328   19.9329   20.0574   20.0574   20.0575
   20.0575   20.0575   20.0575   20.6963   25.6628   25.6628   25.6628   25.6628   25.6633   25.6633
   26.1286   26.1287   26.1943   26.1944   28.1696   28.1696   28.1697   28.1697   28.1704   28.1704
   28.4067   28.4067   28.4067   28.4067   30.3292   30.3292   30.3293   30.3294   30.3294   30.3294
   31.7222   31.7222   31.7224   31.7224   31.7224   31.7224   35.8494   35.8494   35.8494   35.8494
   35.8495   35.8495   36.6977   36.6977   36.6977   36.6977   36.6978   36.6978   39.8364   39.8365
   39.8377   39.8377   39.8377   39.8377   40.0916   40.0916   40.0928   40.0928   40.0929   40.0929
   40.7273   40.7273   40.7273   40.7273   40.7274   40.7274   40.7794   40.7796   40.8607   40.8610
   41.9346   41.9346   42.0831   42.0831   42.0831   42.0831   42.7403   42.7403   44.8222   44.8222
   44.8222   44.8222   44.8227   44.8227   46.8480   46.8505   46.9075   46.9100   47.7095   47.7095
   47.7095   47.7095   47.7103   47.7103   49.7142   49.7142   49.7142   49.7142   49.7144   49.7144
   50.1048   50.1049   51.0701   51.0701   51.0701   51.0701   51.0703   51.0703   51.3946   51.3946
   51.3947   51.3947   52.3924   52.3924   53.8602   53.8602   53.8602   53.8603   53.8606   53.8606
   54.3401   54.3405   55.8158   55.8162   57.0872   57.7029   58.4058   58.4058   58.9529   58.9529
   58.9530   58.9530   59.6726   59.6726   61.1409   61.1409   61.1412   61.1412   61.1412   61.1412
   61.1838   61.1838   61.1841   61.1842   61.1842   61.1842   63.6873   63.8810   63.8810   63.8810
   63.8811   63.8818   63.8818   67.0966   67.0967   67.0989   67.0990   67.0990   67.0991   67.3046
   67.3047   67.3070   67.3070   67.3070   67.3071   70.1473   70.5131   70.5172   70.5397   70.5438
   72.1826   72.1840   72.3891   72.3907   74.1141   74.1141   74.1142   74.1142   74.1152   74.1153
   78.2316   78.2316   78.2316   78.2316   94.4812   94.4812   94.4812   94.4813   94.4836   94.4837
   96.1931   96.1931   96.1931   96.1931   96.1957   96.1957  103.8991  103.8992  103.8992  103.8992
  103.8996  103.8997  108.6599  108.6599  108.6600  108.6600  109.7673  109.7674  109.7674  109.7675
  109.7683  109.7684  110.3087  110.3087  110.3121  110.3122  110.3126  110.3129  111.5203  111.5205
  114.6026  114.6026  114.6061  114.6062  114.6066  114.6069  118.6005  118.6006  118.6009  118.6010
  124.0983  133.2205  133.2208  133.7635  163.1812  163.1813  163.1836  163.1836
   7  1  -24.9514  -24.9514  -24.9388  -24.9388  -23.6637  -23.6637  -23.6525  -23.6525  -21.1900  -21.1900
         -21.1899  -21.1899  -21.1813  -21.1813  -21.1812  -21.1812  -20.3783  -20.3744  -19.3490  -19.3454
  -17.5236  -17.5236  -17.5234  -17.5234  -17.5156  -17.5156  -17.5155  -17.5155  -14.1652  -14.1652
  -14.1649  -14.1649  -14.1576  -14.1576  -14.1573  -14.1573  -13.9045  -13.9045  -13.9005  -13.9005
  -12.9808  -12.9808  -12.6967  -12.6967  -12.5492  -12.5488  -12.5467  -12.5467  -12.5391  -12.5391
  -11.4858  -11.4858  -11.4827  -11.4827  -11.4727  -11.4727  -11.2130  -11.2130  -10.3304  -10.3304
  -10.3272  -10.3272   -8.7864   -8.7864   -8.7864   -8.7864   -8.6057   -8.6057   -8.6057   -8.6056
   -8.4604   -8.3748   -4.4129   -4.2804   -3.5866   -3.5866   -3.5866   -3.5866   -3.4917   -3.4917
   -3.4917   -3.4917   -1.2863   -1.2863    0.3235    0.3235    0.3688    0.3688    0.8060    0.8060
    1.4290    1.4639    2.2660    2.2661    2.3152    2.3152    2.3222    2.3222    3.3376    3.3376
    3.3811    3.3811    3.6717    3.6717    3.9535    3.9535    4.0059    4.0059    4.0059    4.0059
    4.0447    4.0447    4.0640    4.0641    4.0641    4.0641    4.7385    4.7385    4.7417    4.7417
    5.0930    5.0930    5.2323    5.2323    5.2323    5.2323    5.5273    5.5273    5.5429    5.5429
    6.0812    6.0812    6.0812    6.0812    6.8330    6.8433    6.8433    7.4551    7.8776    7.8776
    7.9137    7.9137    7.9737    8.0863    8.0863    8.0863    8.0863    8.4548    8.7075    8.7075
    8.7075    8.7075    9.0025    9.0025    9.0026    9.0026    9.7472    9.7472    9.7474    9.7474
    9.8868    9.8868   10.2057   10.2057   10.4657   10.9147   11.3843   11.3843   11.4619   11.4619
   12.1412   12.1412   12.1412   12.1412   12.7983   13.5183   13.5183   13.5187   13.5187   13.9051
   13.9063   14.8679   14.8679   14.8681   14.8681   15.0259   15.0259   15.0259   15.0259   15.3531
   16.8689   16.8689   17.4076   17.5633   17.5633   17.5639   17.5639   17.7166   17.7166   17.8559
   17.8559   17.8565   17.8565   18.0762   18.1693   18.1693   18.1693   18.1693   18.4530   18.8973
   18.9987   18.9987   18.9987   18.9987   20.1460   20.1460   20.3238   20.3238   20.3238   20.3238
   20.5067   20.5067   20.8038   20.8038   20.8039   20.8039   20.9048   20.9048   21.8157   21.8157
   22.3076   22.3076   22.5179   22.5179   23.0815   23.0815   23.3299   23.3299   23.5997   23.5998
   24.0314   24.0314   24.2275   24.2275   24.3114   24.3114   26.6609   26.6609   27.0829   27.0829
   27.3899   27.6051   28.1017   28.5094   30.0306   30.0306   30.0307   30.0307   30.9398   30.9398
   31.9170   31.9170   31.9171   31.9171   33.5216   33.5216   33.8653   34.1072   36.3200   36.3201
   36.3201   36.3201   37.5045   37.5045   37.5045   37.5045   37.7857   37.8804   37.8804   38.4916
   38.7080   38.7080   40.3742   40.3742   40.7302   40.7302   41.4039   41.4039   41.4046   41.4046
   42.5952   42.5952   42.7444   42.7444   42.7836   42.7836   42.8263   42.8264   42.8267   42.8267
   43.5360   43.5360   43.7867   43.7867   43.8808   43.8808   44.1632   44.1632   44.2087   44.2087
   44.3777   44.3777   44.4199   44.4199   44.6321   44.6321   45.1741   45.5205   46.5186   46.5186
   47.6294   47.6294   47.8929   47.8929   47.8985   47.8985   47.8986   47.8986   47.9306   47.9306
   48.1160   48.1160   48.1160   48.1160   48.7151   48.7151   48.7151   48.7151   49.8733   49.8733
   49.8735   49.8735   51.2114   51.2114   52.8081   53.0025   54.6183   54.7045   54.9673   54.9674
   55.8367   55.8367   55.8368   55.8368   57.3365   57.3365   57.3367   57.3367   58.5880   58.5880
   59.8269   59.8269   59.9806   59.9806   60.2415   60.2415   61.2907   61.5182   61.5182   61.5184
   61.5184   61.8508   61.8998   61.8998   62.3382   62.3382   62.7792   62.7792   62.7797   62.7797
   65.3152   66.0373   66.0373   66.4064   66.4065   68.0252   68.2491   68.2691   71.1185   71.1185
   71.3438   71.3438   71.8619   71.8619   71.8621   71.8621   71.8822   71.8822   71.8824   71.8824
   73.3883   73.3883   75.7179   75.7180   75.7185   75.7185   76.9272   76.9272   81.0627   81.0628
   85.2937   88.6281   88.6282   88.6284   88.6284   88.9378   88.9378   89.3222   89.3223   89.4608
   89.4609   93.3314   93.3315   95.3732  102.1503  102.1503  102.8444  102.8445  103.3615  103.3615
  103.3642  103.3642  103.6389  103.6389  103.6414  103.6415  104.6156  104.6156  106.1548  106.1549
  106.1550  106.1551  106.3163  108.1831  108.1832  111.1967  111.1969  112.0001  112.0004  113.1316
  113.3232  113.4299  113.4300  114.5427  114.5427  114.5437  114.5438  115.7368  116.2990  116.2990
  116.3020  116.3022  118.4810  118.4811  119.9213  119.9214  119.9234  119.9237
   8  1  -25.1133  -25.1012  -24.4657  -24.4657  -24.4535  -24.4535  -22.5605  -22.5604  -22.5502  -22.5502
         -21.3367  -21.3278  -20.7753  -20.7753  -20.7676  -20.7675  -19.9591  -19.9554  -18.9487  -18.9450
  -18.6879  -18.6878  -18.6808  -18.6806  -16.6539  -16.6495  -15.6233  -15.6233  -15.6152  -15.6152
  -15.0626  -15.0565  -14.3476  -14.3400  -13.5943  -13.5942  -13.5864  -13.5863  -13.1732  -13.0287
  -13.0284  -13.0253  -13.0250  -12.8864  -12.5832  -12.5829  -12.5781  -12.5778  -12.4081  -12.4081
  -12.1325  -12.1325  -11.1993  -11.1990  -11.1968  -11.1964  -10.8877  -10.8876  -10.2192  -10.2192
  -10.2156  -10.2147   -9.9869   -9.9869   -8.8740   -8.6780   -8.5844   -8.5844   -8.4517   -8.4517
   -7.8650   -7.7815   -4.6284   -4.5559   -4.1450   -4.1450   -4.0193   -4.0193   -3.2856   -3.2204
   -1.6603   -1.6603   -1.5908   -1.5908   -1.4731   -0.5698   -0.5698    2.0613    2.0613    2.0822
    2.0822    2.1579    2.1580    2.1715    2.1934    2.1936    2.5856    2.6332    2.7744    2.7747
    2.7849    2.7849    2.8342    2.8345    2.8785    2.8785    3.7929    3.7932    3.8212    3.8316
    3.9265    3.9980    4.2054    4.2055    4.3116    4.3118    4.7897    4.7897    4.8971    4.8980
    5.3395    5.3400    5.3697    5.3702    5.6575    5.7726    5.7727    5.9449    5.9449    6.1187
    6.4004    6.6473    6.7279    6.8784    6.8785    7.0539    7.0539    7.0767    7.0768    7.0805
    7.0873    7.6575    7.6745    7.6887    7.7976    8.2334    8.2334    8.2392    8.2395    8.2503
    9.0494    9.0494    9.1903    9.1905    9.2385    9.2386    9.4103    9.7433    9.7433    9.7747
    9.8518   10.0264   10.0266   10.1179   10.1179   10.5044   10.7823   10.7827   11.5005   12.0809
   12.3350   12.3350   13.2382   13.2384   13.5753   13.5763   13.6545   13.6547   13.7515   13.9913
   13.9923   14.0338   14.0338   14.4612   14.4705   14.5393   15.1174   15.1174   15.1585   15.6536
   15.9711   15.9711   16.7190   17.1966   17.4907   17.5240   17.5248   17.7457   17.7749   17.7750
   18.1468   18.1492   18.2437   18.2445   18.3554   18.6116   18.6117   18.7739   19.1161   19.1166
   19.2594   19.2594   19.2855   19.8142   19.8142   19.8542   20.0201   20.1738   20.1739   20.3471
   20.3471   20.5010   20.5010   20.7093   20.8009   21.1342   21.1349   21.6369   21.6375   21.7511
   22.0273   22.0274   22.1465   22.1468   22.2902   22.2902   23.1472   23.1728   23.6865   23.6866
   23.7299   23.7300   24.4084   24.4085   25.1798   25.1897   25.1897   25.4515   27.1738   27.1738
   28.4071   28.4071   29.0972   29.0973   29.1792   29.5117   30.7589   30.8823   31.1534   31.7027
   31.7032   32.9161   32.9167   33.1287   33.1730   33.1731   34.2201   34.4502   34.4503   34.7471
   34.7472   35.2257   35.2258   36.2499   36.6495   37.3281   37.3281   37.6454   37.6462   37.7346
   38.2405   38.2414   39.1964   39.6505   40.0126   40.0126   41.3873   41.3875   41.5656   42.1470
   42.1474   42.6197   42.8898   42.8908   42.9953   42.9963   43.1173   43.1379   43.1380   43.5330
   43.8178   43.8179   43.8369   44.0310   44.0312   44.5063   44.5156   44.5163   44.5397   44.7022
   44.7024   45.0496   45.0858   45.1454   45.2604   45.5185   46.0125   46.0125   46.0158   46.0161
   46.3939   46.6094   46.6514   47.3143   47.3143   47.8859   47.8859   48.0478   48.0478   48.8170
   49.0892   49.2061   49.2062   49.2248   49.3148   49.3155   51.1025   51.1028   51.4048   51.7409
   51.7410   52.0519   52.3549   52.3551   52.7125   52.7126   53.1484   53.1486   53.6382   53.6384
   53.9902   53.9903   54.5775   54.6958   54.6960   55.8752   55.9919   57.5920   59.5645   59.7962
   60.0369   60.0372   60.3054   60.7778   60.7781   60.9958   61.2755   61.6779   61.6780   61.6866
   61.6874   61.8417   61.8546   61.9639   61.9648   62.7359   62.8754   63.6122   63.6126   64.6710
   64.6716   66.3748   66.3754   66.6395   66.6396   66.6869   66.6870   68.5793   68.5813   69.6603
   69.6606   69.6884   69.6887   69.7855   72.6224   72.7852   72.8005   73.4250   73.4270   73.8579
   73.8614   73.9918   73.9919   75.7669   75.9608   76.9501   76.9513   79.4044   79.4065   81.6739
   81.6818   83.7736   83.7767   85.1861   86.4157   90.4818   90.4825   90.7658   90.7679   91.5156
   91.5167   96.5819   97.6590   97.6615   98.1694   98.1728   98.1738   99.0702   99.0708  100.9765
  101.9536  104.2214  104.2231  104.4614  104.6374  105.0876  105.7396  105.7425  107.2852  107.2859
  107.3857  107.6099  107.6126  108.9398  108.9402  111.1893  111.1895  112.6368  112.6386  113.6824
  113.6860  114.2141  114.3652  114.3654  114.9602  114.9620  115.1373  115.3099  115.3115  116.3472
  116.8801  117.2746  117.6390  117.6401  121.2140  122.4393  123.2219  124.4245
   9  1  -25.1133  -25.1012  -24.4657  -24.4657  -24.4535  -24.4535  -22.5605  -22.5604  -22.5502  -22.5502
         -21.3367  -21.3278  -20.7753  -20.7753  -20.7676  -20.7675  -19.9591  -19.9554  -18.9487  -18.9450
  -18.6879  -18.6878  -18.6808  -18.6806  -16.6539  -16.6495  -15.6233  -15.6233  -15.6152  -15.6152
  -15.0626  -15.0565  -14.3476  -14.3400  -13.5943  -13.5942  -13.5864  -13.5863  -13.1732  -13.0287
  -13.0284  -13.0253  -13.0250  -12.8864  -12.5832  -12.5829  -12.5781  -12.5778  -12.4081  -12.4081
  -12.1325  -12.1325  -11.1993  -11.1990  -11.1968  -11.1964  -10.8877  -10.8876  -10.2192  -10.2192
  -10.2156  -10.2147   -9.9869   -9.9869   -8.8740   -8.6780   -8.5844   -8.5844   -8.4517   -8.4517
   -7.8650   -7.7815   -4.6284   -4.5559   -4.1450   -4.1450   -4.0193   -4.0193   -3.2856   -3.2204
   -1.6603   -1.6603   -1.5908   -1.5908   -1.4731   -0.5698   -0.5698    2.0613    2.0613    2.0822
    2.0822    2.1579    2.1580    2.1715    2.1934    2.1936    2.5856    2.6332    2.7744    2.7747
    2.7849    2.7849    2.8342    2.8345    2.8785    2.8785    3.7929    3.7932    3.8212    3.8316
    3.9265    3.9980    4.2054    4.2055    4.3116    4.3118    4.7897    4.7897    4.8971    4.8980
    5.3395    5.3400    5.3697    5.3702    5.6575    5.7726    5.7727    5.9449    5.9449    6.1187
    6.4004    6.6473    6.7279    6.8784    6.8785    7.0539    7.0539    7.0767    7.0768    7.0805
    7.0873    7.6575    7.6745    7.6887    7.7976    8.2334    8.2334    8.2392    8.2395    8.2503
    9.0494    9.0494    9.1903    9.1905    9.2385    9.2386    9.4103    9.7433    9.7433    9.7747
    9.8518   10.0264   10.0266   10.1179   10.1179   10.5044   10.7823   10.7827   11.5005   12.0809
   12.3350   12.3350   13.2382   13.2384   13.5753   13.5763   13.6545   13.6547   13.7515   13.9913
   13.9923   14.0338   14.0338   14.4612   14.4705   14.5393   15.1174   15.1174   15.1585   15.6536
   15.9711   15.9711   16.7190   17.1966   17.4907   17.5240   17.5248   17.7457   17.7749   17.7750
   18.1468   18.1492   18.2437   18.2445   18.3554   18.6116   18.6117   18.7739   19.1161   19.1166
   19.2594   19.2594   19.2855   19.8142   19.8142   19.8542   20.0201   20.1738   20.1739   20.3471
   20.3471   20.5010   20.5010   20.7093   20.8009   21.1342   21.1349   21.6369   21.6375   21.7511
   22.0273   22.0274   22.1465   22.1468   22.2902   22.2902   23.1472   23.1728   23.6865   23.6866
   23.7299   23.7300   24.4084   24.4085   25.1798   25.1897   25.1897   25.4515   27.1738   27.1738
   28.4071   28.4071   29.0972   29.0973   29.1792   29.5117   30.7589   30.8823   31.1534   31.7027
   31.7032   32.9161   32.9167   33.1287   33.1730   33.1731   34.2201   34.4502   34.4503   34.7471
   34.7472   35.2257   35.2258   36.2499   36.6495   37.3281   37.3281   37.6454   37.6462   37.7346
   38.2405   38.2414   39.1964   39.6505   40.0126   40.0126   41.3873   41.3875   41.5656   42.1470
   42.1474   42.6197   42.8898   42.8908   42.9953   42.9963   43.1173   43.1379   43.1380   43.5330
   43.8178   43.8179   43.8369   44.0310   44.0312   44.5063   44.5156   44.5163   44.5397   44.7022
   44.7024   45.0496   45.0858   45.1454   45.2604   45.5185   46.0125   46.0125   46.0158   46.0161
   46.3939   46.6094   46.6514   47.3143   47.3143   47.8859   47.8859   48.0478   48.0478   48.8170
   49.0892   49.2061   49.2062   49.2248   49.3148   49.3155   51.1025   51.1028   51.4048   51.7409
   51.7410   52.0519   52.3549   52.3551   52.7125   52.7126   53.1484   53.1486   53.6382   53.6384
   53.9902   53.9903   54.5775   54.6958   54.6960   55.8752   55.9919   57.5920   59.5645   59.7962
   60.0369   60.0372   60.3054   60.7778   60.7781   60.9957   61.2755   61.6779   61.6780   61.6866
   61.6874   61.8417   61.8546   61.9639   61.9648   62.7359   62.8754   63.6122   63.6126   64.6710
   64.6716   66.3748   66.3755   66.6395   66.6396   66.6869   66.6870   68.5794   68.5813   69.6603
   69.6606   69.6884   69.6887   69.7855   72.6224   72.7852   72.8005   73.4250   73.4270   73.8579
   73.8614   73.9918   73.9919   75.7669   75.9609   76.9501   76.9513   79.4044   79.4065   81.6739
   81.6818   83.7736   83.7767   85.1860   86.4157   90.4820   90.4825   90.7658   90.7678   91.5156
   91.5167   96.5824   97.6592   97.6615   98.1699   98.1729   98.1737   99.0702   99.0708  100.9762
  101.9537  104.2211  104.2233  104.4613  104.6373  105.0875  105.7395  105.7424  107.2852  107.2858
  107.3858  107.6094  107.6128  108.9398  108.9401  111.1889  111.1895  112.6369  112.6390  113.6825
  113.6865  114.2141  114.3652  114.3652  114.9591  114.9617  115.1373  115.3088  115.3113  116.3473
  116.8795  117.2741  117.6389  117.6402  121.2141  122.4392  123.2232  124.4258
  10  1  -24.9514  -24.9514  -24.9388  -24.9388  -23.6637  -23.6637  -23.6525  -23.6525  -21.1900  -21.1900
         -21.1899  -21.1899  -21.1813  -21.1813  -21.1812  -21.1812  -20.3783  -20.3744  -19.3490  -19.3454
  -17.5236  -17.5236  -17.5234  -17.5234  -17.5157  -17.5156  -17.5155  -17.5155  -14.1652  -14.1652
  -14.1649  -14.1649  -14.1576  -14.1576  -14.1573  -14.1573  -13.9045  -13.9045  -13.9005  -13.9005
  -12.9808  -12.9808  -12.6967  -12.6967  -12.5492  -12.5488  -12.5467  -12.5467  -12.5391  -12.5391
  -11.4858  -11.4858  -11.4827  -11.4827  -11.4727  -11.4727  -11.2130  -11.2130  -10.3304  -10.3304
  -10.3272  -10.3272   -8.7864   -8.7864   -8.7864   -8.7864   -8.6057   -8.6057   -8.6057   -8.6056
   -8.4604   -8.3748   -4.4129   -4.2804   -3.5866   -3.5866   -3.5866   -3.5866   -3.4917   -3.4917
   -3.4917   -3.4917   -1.2863   -1.2863    0.3235    0.3235    0.3688    0.3688    0.8060    0.8060
    1.4290    1.4639    2.2660    2.2661    2.3152    2.3152    2.3222    2.3222    3.3376    3.3376
    3.3811    3.3811    3.6717    3.6717    3.9535    3.9535    4.0059    4.0059    4.0059    4.0059
    4.0447    4.0447    4.0640    4.0641    4.0641    4.0641    4.7385    4.7385    4.7417    4.7417
    5.0930    5.0930    5.2323    5.2323    5.2323    5.2323    5.5273    5.5273    5.5429    5.5429
    6.0812    6.0812    6.0812    6.0812    6.8330    6.8433    6.8433    7.4551    7.8776    7.8776
    7.9137    7.9137    7.9737    8.0863    8.0863    8.0863    8.0863    8.4548    8.7075    8.7075
    8.7075    8.7075    9.0025    9.0025    9.0026    9.0026    9.7472    9.7472    9.7474    9.7474
    9.8868    9.8868   10.2057   10.2057   10.4657   10.9147   11.3843   11.3843   11.4619   11.4619
   12.1412   12.1412   12.1412   12.1412   12.7983   13.5183   13.5183   13.5187   13.5187   13.9051
   13.9063   14.8679   14.8679   14.8681   14.8682   15.0259   15.0259   15.0259   15.0259   15.3531
   16.8689   16.8689   17.4076   17.5633   17.5633   17.5639   17.5639   17.7166   17.7166   17.8559
   17.8559   17.8565   17.8565   18.0762   18.1693   18.1693   18.1693   18.1693   18.4530   18.8973
   18.9987   18.9987   18.9987   18.9987   20.1460   20.1460   20.3238   20.3238   20.3238   20.3238
   20.5067   20.5067   20.8038   20.8038   20.8039   20.8039   20.9048   20.9048   21.8157   21.8157
   22.3076   22.3076   22.5179   22.5179   23.0815   23.0815   23.3299   23.3299   23.5997   23.5998
   24.0314   24.0314   24.2275   24.2275   24.3114   24.3114   26.6609   26.6609   27.0829   27.0829
   27.3898   27.6051   28.1017   28.5094   30.0306   30.0306   30.0307   30.0307   30.9398   30.9398
   31.9170   31.9170   31.9171   31.9171   33.5216   33.5216   33.8653   34.1072   36.3200   36.3201
   36.3201   36.3201   37.5045   37.5045   37.5045   37.5045   37.7857   37.8804   37.8804   38.4916
   38.7080   38.7080   40.3742   40.3742   40.7302   40.7302   41.4039   41.4039   41.4046   41.4046
   42.5952   42.5952   42.7443   42.7443   42.7836   42.7836   42.8264   42.8264   42.8267   42.8267
   43.5360   43.5360   43.7867   43.7867   43.8808   43.8808   44.1632   44.1632   44.2087   44.2087
   44.3777   44.3777   44.4199   44.4199   44.6321   44.6321   45.1741   45.5205   46.5186   46.5186
   47.6294   47.6294   47.8929   47.8929   47.8985   47.8985   47.8986   47.8986   47.9306   47.9306
   48.1160   48.1160   48.1160   48.1160   48.7151   48.7151   48.7151   48.7151   49.8733   49.8733
   49.8735   49.8735   51.2114   51.2114   52.8081   53.0025   54.6183   54.7045   54.9673   54.9674
   55.8367   55.8367   55.8368   55.8368   57.3365   57.3365   57.3367   57.3367   58.5880   58.5880
   59.8269   59.8269   59.9806   59.9806   60.2415   60.2416   61.2908   61.5182   61.5182   61.5184
   61.5184   61.8509   61.8998   61.8998   62.3382   62.3382   62.7792   62.7792   62.7797   62.7797
   65.3153   66.0373   66.0373   66.4064   66.4065   68.0252   68.2491   68.2691   71.1185   71.1186
   71.3438   71.3438   71.8619   71.8619   71.8621   71.8621   71.8822   71.8822   71.8824   71.8824
   73.3883   73.3883   75.7181   75.7181   75.7185   75.7185   76.9272   76.9272   81.0627   81.0628
   85.2938   88.6282   88.6282   88.6284   88.6284   88.9377   88.9377   89.3221   89.3222   89.4607
   89.4608   93.3314   93.3315   95.3734  102.1509  102.1509  102.8449  102.8450  103.3614  103.3614
  103.3642  103.3642  103.6388  103.6388  103.6415  103.6415  104.6155  104.6155  106.1548  106.1549
  106.1549  106.1550  106.3162  108.1830  108.1830  111.1957  111.1960  111.9992  111.9995  113.1320
  113.3236  113.4300  113.4300  114.5430  114.5432  114.5436  114.5436  115.7368  116.2993  116.2995
  116.3016  116.3017  118.4811  118.4811  119.9214  119.9215  119.9231  119.9233
  11  1  -25.1133  -25.1012  -24.4657  -24.4657  -24.4535  -24.4535  -22.5605  -22.5604  -22.5502  -22.5502
         -21.3367  -21.3278  -20.7753  -20.7753  -20.7676  -20.7675  -19.9591  -19.9554  -18.9487  -18.9450
  -18.6879  -18.6878  -18.6808  -18.6806  -16.6539  -16.6495  -15.6233  -15.6233  -15.6152  -15.6152
  -15.0626  -15.0565  -14.3476  -14.3400  -13.5943  -13.5942  -13.5864  -13.5863  -13.1732  -13.0287
  -13.0284  -13.0253  -13.0250  -12.8864  -12.5832  -12.5829  -12.5781  -12.5778  -12.4081  -12.4081
  -12.1325  -12.1325  -11.1993  -11.1990  -11.1968  -11.1964  -10.8877  -10.8876  -10.2192  -10.2192
  -10.2156  -10.2147   -9.9869   -9.9869   -8.8740   -8.6780   -8.5844   -8.5844   -8.4517   -8.4517
   -7.8650   -7.7815   -4.6284   -4.5559   -4.1450   -4.1450   -4.0193   -4.0193   -3.2856   -3.2204
   -1.6603   -1.6603   -1.5908   -1.5908   -1.4731   -0.5698   -0.5698    2.0613    2.0613    2.0822
    2.0822    2.1579    2.1580    2.1715    2.1934    2.1936    2.5856    2.6332    2.7744    2.7747
    2.7849    2.7849    2.8342    2.8345    2.8785    2.8785    3.7929    3.7932    3.8212    3.8316
    3.9265    3.9980    4.2054    4.2055    4.3116    4.3118    4.7897    4.7897    4.8971    4.8980
    5.3395    5.3400    5.3697    5.3702    5.6575    5.7726    5.7727    5.9449    5.9449    6.1187
    6.4004    6.6473    6.7279    6.8784    6.8785    7.0539    7.0539    7.0767    7.0768    7.0805
    7.0873    7.6575    7.6745    7.6887    7.7976    8.2334    8.2334    8.2392    8.2395    8.2503
    9.0494    9.0494    9.1903    9.1905    9.2385    9.2386    9.4103    9.7433    9.7433    9.7747
    9.8518   10.0264   10.0266   10.1179   10.1179   10.5044   10.7823   10.7827   11.5005   12.0809
   12.3350   12.3350   13.2382   13.2384   13.5753   13.5763   13.6545   13.6547   13.7515   13.9913
   13.9923   14.0338   14.0338   14.4612   14.4705   14.5393   15.1174   15.1174   15.1585   15.6536
   15.9711   15.9711   16.7190   17.1966   17.4907   17.5240   17.5248   17.7457   17.7749   17.7750
   18.1468   18.1492   18.2437   18.2445   18.3554   18.6116   18.6117   18.7739   19.1161   19.1166
   19.2594   19.2594   19.2855   19.8142   19.8142   19.8542   20.0201   20.1738   20.1739   20.3471
   20.3471   20.5010   20.5010   20.7093   20.8009   21.1342   21.1349   21.6369   21.6375   21.7511
   22.0273   22.0274   22.1465   22.1468   22.2902   22.2902   23.1472   23.1728   23.6865   23.6866
   23.7299   23.7300   24.4084   24.4085   25.1798   25.1897   25.1897   25.4515   27.1738   27.1738
   28.4071   28.4071   29.0972   29.0973   29.1792   29.5117   30.7589   30.8823   31.1534   31.7027
   31.7032   32.9161   32.9167   33.1287   33.1730   33.1731   34.2201   34.4502   34.4503   34.7471
   34.7472   35.2257   35.2258   36.2499   36.6495   37.3281   37.3281   37.6454   37.6462   37.7346
   38.2405   38.2414   39.1964   39.6505   40.0126   40.0126   41.3873   41.3875   41.5656   42.1470
   42.1474   42.6197   42.8898   42.8908   42.9953   42.9963   43.1173   43.1379   43.1380   43.5330
   43.8178   43.8179   43.8369   44.0310   44.0312   44.5063   44.5156   44.5163   44.5397   44.7022
   44.7024   45.0496   45.0858   45.1454   45.2604   45.5185   46.0125   46.0125   46.0158   46.0161
   46.3939   46.6094   46.6514   47.3143   47.3143   47.8859   47.8859   48.0478   48.0478   48.8170
   49.0892   49.2061   49.2062   49.2248   49.3148   49.3155   51.1025   51.1028   51.4048   51.7409
[...]
    5.3658    5.3659    5.3663    5.3664    6.3360    6.3361    6.3809    6.3809    6.3810    6.3810
    6.6550    6.6550    6.8355    6.8355    7.0001    7.0001    7.0002    7.0002    7.6180    7.6180
    7.6661    7.6661    8.1743    8.1743    8.1743    8.1743    8.2239    8.2239    8.7116    8.7116
    8.7118    8.7118    8.7913    8.7913    9.2068    9.2068    9.2068    9.2068    9.2156    9.2156
    9.2157    9.2157    9.5463    9.5463   10.4261   10.4261   10.4262   10.4262   13.0976   13.0976
   13.1863   13.1863   13.1866   13.1866   13.3624   13.3624   13.3626   13.3626   13.5663   13.5663
   14.2449   14.2449   14.2455   14.2455   14.6099   14.6099   14.7192   14.7193   14.7193   14.7193
   15.2080   15.2080   16.3278   16.3279   17.3238   17.3238   17.7209   17.7210   17.7215   17.7215
   18.2547   18.2547   18.2549   18.2549   18.4940   18.4940   18.5067   18.5067   18.9306   18.9306
   18.9308   18.9308   19.5073   19.5073   20.0794   20.0794   20.0794   20.0794   20.2548   20.2548
   20.4695   20.4695   20.4696   20.4696   21.4351   21.4351   21.6035   21.6036   21.6042   21.6042
   22.0304   22.0304   22.0305   22.0305   23.0534   23.0534   23.0534   23.0534   23.1346   23.1346
   23.9173   23.9173   23.9174   23.9174   25.2874   25.2875   27.2296   27.2296   27.2296   27.2296
   31.0095   31.0096   31.3274   31.3274   31.3398   31.3398   31.3398   31.3398   31.5916   31.5916
   31.5917   31.5917   32.3908   32.3908   32.3912   32.3912   33.6260   33.6260   34.1442   34.1442
   34.1445   34.1445   34.4225   34.4225   35.9828   35.9829   37.9426   37.9426   37.9434   37.9434
   38.5624   38.5624   38.7422   38.7422   38.7422   38.7423   41.8229   41.8230   41.8233   41.8233
   42.7252   42.7253   42.8069   42.8069   42.8077   42.8077   43.6217   43.6217   43.7254   43.7254
   43.7257   43.7258   44.2393   44.2393   44.2397   44.2397   44.2643   44.2644   44.3483   44.3483
   44.6561   44.6561   44.6565   44.6565   45.0844   45.0845   45.1536   45.1537   46.6342   46.6342
   47.8980   47.8980   47.8982   47.8982   48.8523   48.8523   49.0988   49.0988   49.6131   49.6132
   49.6134   49.6134   49.9503   49.9503   49.9504   49.9504   51.3807   51.3807   51.3808   51.3808
   52.6244   52.6244   53.2104   53.2104   53.2105   53.2106   54.2041   54.2041   54.2042   54.2042
   55.2593   55.2594   55.5841   55.5841   55.5843   55.5843   58.1744   58.1744   58.1744   58.1744
   59.3765   59.3765   59.6854   59.6854   61.1949   61.1949   61.2218   61.2218   61.6311   61.6311
   61.9292   61.9293   61.9562   61.9562   61.9564   61.9564   62.0266   62.0267   62.0277   62.0278
   64.1152   64.1153   64.1155   64.1155   66.6672   66.6672   66.6673   66.6673   69.6389   69.6390
   69.6393   69.6393   72.7924   72.7925   73.5773   73.5773   73.8530   73.8531   74.4424   74.4424
   74.4425   74.4425   74.5186   74.5186   74.5200   74.5201   75.8777   75.8778   81.9153   81.9154
   81.9169   81.9169   84.5076   84.5076   84.5105   84.5106   86.1879   86.1880   93.8492   93.8492
   94.3515   94.3516   94.3528   94.3528   97.2851   97.2851   98.3469   98.3469   98.3478   98.3478
  103.7315  103.7315  104.6006  104.6006  105.6159  105.6159  105.6187  105.6187  106.9703  106.9703
  106.9708  106.9708  109.2861  109.2862  109.2881  109.2882  112.5679  112.5680  112.5684  112.5684
  112.9062  112.9062  113.3190  113.3190  114.2646  114.2647  114.2687  114.2688  114.9694  114.9694
  114.9719  114.9720  117.8397  117.8398  118.8444  118.8444  123.5449  123.5450
  42  1  -24.9451  -24.9451  -24.9450  -24.9450  -23.6582  -23.6582  -23.6582  -23.6582  -21.1857  -21.1857
         -21.1856  -21.1856  -21.1856  -21.1856  -21.1856  -21.1856  -20.3763  -20.3763  -19.3472  -19.3472
  -17.5196  -17.5195  -17.5195  -17.5195  -17.5194  -17.5194  -17.5194  -17.5194  -14.1613  -14.1613
  -14.1613  -14.1613  -14.1611  -14.1611  -14.1610  -14.1610  -13.9025  -13.9025  -13.9025  -13.9025
  -12.8442  -12.8442  -12.8442  -12.8442  -12.5490  -12.5490  -12.5425  -12.5425  -12.5425  -12.5425
  -11.4842  -11.4842  -11.4842  -11.4841  -11.3469  -11.3469  -11.3468  -11.3468  -10.3288  -10.3287
  -10.3287  -10.3287   -8.6970   -8.6970   -8.6970   -8.6970   -8.6969   -8.6969   -8.6969   -8.6969
   -8.4161   -8.4160   -4.3528   -4.3528   -3.5408   -3.5408   -3.5408   -3.5408   -3.5408   -3.5408
   -3.5408   -3.5408    0.0041    0.0041    0.0041    0.0041    0.3462    0.3462    0.3462    0.3462
    1.4465    1.4466    1.9518    1.9518    1.9518    1.9518    2.3124    2.3124    2.3124    2.3124
    3.3488    3.3488    3.3488    3.3488    4.0340    4.0340    4.0341    4.0341    4.0368    4.0368
    4.0369    4.0369    4.0369    4.0369    4.0369    4.0369    4.7401    4.7401    4.7401    4.7402
    5.5348    5.5348    5.5349    5.5349    5.6066    5.6066    5.6066    5.6066    5.6066    5.6066
    5.6066    5.6066    7.1196    7.1196    7.7456    7.7456    7.7456    7.7456    7.9174    7.9174
    7.9175    7.9175    8.0674    8.0674    8.4752    8.4752    8.4752    8.4753    8.4753    8.4753
    8.4753    8.4753    8.7347    8.7347    8.7347    8.7347    9.3090    9.3090    9.3090    9.3090
    9.3090    9.3090    9.3090    9.3090   11.0339   11.0339   11.4229   11.4230   11.4230   11.4230
   13.0901   13.0901   13.0901   13.0901   13.0902   13.0902   13.0902   13.0902   13.5563   13.5563
   13.9057   13.9057   14.7248   14.7248   14.7248   14.7248   14.7249   14.7249   14.7249   14.7249
   16.9592   16.9592   16.9592   16.9592   17.2860   17.2860   17.2860   17.2860   17.2864   17.2864
   17.2864   17.2864   17.9759   17.9760   18.6646   18.6646   18.9321   18.9321   18.9321   18.9321
   18.9323   18.9323   18.9323   18.9323   20.3471   20.3471   20.3471   20.3471   20.3471   20.3471
   20.3471   20.3471   20.5171   20.5171   20.5171   20.5171   21.5645   21.5645   21.5646   21.5646
   22.5395   22.5395   22.5395   22.5395   23.2007   23.2007   23.2007   23.2007   23.7549   23.7549
   23.7549   23.7549   23.9789   23.9789   23.9789   23.9789   27.9608   27.9608   28.3527   28.3527
   30.0126   30.0126   30.0126   30.0126   30.5688   30.5688   30.5688   30.5688   31.6006   31.6006
   31.6006   31.6006   31.6007   31.6007   31.6007   31.6007   32.4100   32.4100   36.6023   36.6023
   36.6024   36.6024   36.6024   36.6024   36.6024   36.6024   38.1081   38.1081   39.5640   39.5641
   39.5641   39.5641   39.9723   39.9723   39.9723   39.9723   42.4099   42.4099   42.4099   42.4099
   42.4103   42.4103   42.4103   42.4103   42.6963   42.6963   42.6963   42.6963   43.2774   43.2775
   43.2775   43.2775   43.4779   43.4779   43.4779   43.4779   44.0355   44.0355   44.0355   44.0355
   44.3915   44.3915   44.3915   44.3916   45.3898   45.3898   45.3898   45.3899   46.3773   46.3773
   47.4779   47.4779   47.4779   47.4779   47.4779   47.4779   47.4779   47.4780   47.9157   47.9158
   47.9158   47.9158   50.5845   50.5845   50.5845   50.5845   50.7263   50.7263   50.7263   50.7263
   50.7265   50.7265   50.7265   50.7265   53.2053   53.2053   55.0730   55.0730   56.7591   56.7591
   56.7591   56.7591   56.7592   56.7592   56.7593   56.7593   57.7882   57.7883   57.7883   57.7883
   57.8719   57.8719   57.8719   57.8719   59.9014   59.9015   59.9015   59.9015   61.5738   61.5738
   62.1036   62.1036   62.1036   62.1036   62.1755   62.1755   62.1755   62.1755   62.1757   62.1757
   62.1757   62.1757   67.4516   67.4516   67.4516   67.4516   68.2595   68.2595   71.2269   71.2269
   71.2270   71.2270   71.8648   71.8648   71.8648   71.8648   71.8650   71.8650   71.8650   71.8650
   73.1975   73.1975   80.2569   80.2570   80.2570   80.2570   82.0499   82.0499   82.0499   82.0499
   83.6766   83.6766   83.6766   83.6767   83.6768   83.6768   83.6769   83.6769   89.4517   89.4517
   89.4517   89.4518   89.6620   89.6620  102.5005  102.5005  102.5005  102.5005  103.5214  103.5214
  103.5215  103.5215  103.5241  103.5242  103.5242  103.5242  106.2930  106.2930  106.2930  106.2930
  109.7712  109.7712  109.7713  109.7713  109.7715  109.7716  109.7717  109.7717  110.0190  110.0191
  111.5369  111.5369  111.5372  111.5374  113.2285  113.2286  115.6086  115.6086  115.6086  115.6087
  117.2532  117.2534  117.2535  117.2535  117.2558  117.2559  117.2559  117.2560
  43  1  -25.1072  -25.1072  -24.4596  -24.4596  -24.4596  -24.4596  -22.5555  -22.5554  -22.5554  -22.5554
         -21.3323  -21.3322  -20.7715  -20.7715  -20.7714  -20.7714  -19.9573  -19.9572  -18.9469  -18.9469
  -18.6844  -18.6843  -18.6842  -18.6842  -16.6516  -16.6516  -15.6192  -15.6192  -15.6191  -15.6191
  -15.0594  -15.0593  -14.3437  -14.3437  -13.5901  -13.5901  -13.5901  -13.5901  -13.0354  -13.0354
  -13.0270  -13.0270  -13.0267  -13.0267  -12.5805  -12.5805  -12.5803  -12.5802  -12.2753  -12.2753
  -12.2753  -12.2753  -11.1978  -11.1978  -11.1975  -11.1974  -10.8876  -10.8876  -10.2150  -10.2150
  -10.1057  -10.1057  -10.1057  -10.1057   -8.7774   -8.7773   -8.5176   -8.5176   -8.5176   -8.5176
   -7.8218   -7.8218   -4.5956   -4.5956   -4.0866   -4.0866   -4.0866   -4.0866   -3.2533   -3.2533
   -1.6264   -1.6264   -1.6264   -1.6264   -0.1750   -0.1750    0.6843    0.6843    0.6843    0.6843
    2.0899    2.0899    2.0899    2.0900    2.1757    2.1758    2.1759    2.1759    2.6293    2.6293
    2.8313    2.8314    2.8316    2.8317    3.6260    3.6260    3.6260    3.6260    3.7931    3.7931
    3.8262    3.8262    3.9620    3.9620    4.3201    4.3201    4.3202    4.3202    5.2132    5.2132
    5.3658    5.3659    5.3663    5.3664    6.3360    6.3361    6.3809    6.3809    6.3810    6.3810
    6.6550    6.6550    6.8355    6.8355    7.0001    7.0001    7.0002    7.0002    7.6180    7.6180
    7.6661    7.6661    8.1743    8.1743    8.1743    8.1743    8.2239    8.2239    8.7116    8.7116
    8.7118    8.7118    8.7913    8.7913    9.2068    9.2068    9.2068    9.2068    9.2156    9.2156
    9.2157    9.2157    9.5463    9.5463   10.4261   10.4261   10.4262   10.4262   13.0976   13.0976
   13.1863   13.1863   13.1866   13.1866   13.3624   13.3624   13.3626   13.3626   13.5663   13.5663
   14.2449   14.2449   14.2455   14.2455   14.6099   14.6099   14.7192   14.7193   14.7193   14.7193
   15.2080   15.2080   16.3278   16.3279   17.3238   17.3238   17.7209   17.7210   17.7215   17.7215
   18.2547   18.2547   18.2549   18.2549   18.4940   18.4940   18.5067   18.5067   18.9306   18.9306
   18.9308   18.9308   19.5073   19.5073   20.0794   20.0794   20.0794   20.0794   20.2548   20.2548
   20.4695   20.4695   20.4696   20.4696   21.4351   21.4351   21.6035   21.6036   21.6042   21.6042
   22.0304   22.0304   22.0305   22.0305   23.0534   23.0534   23.0534   23.0534   23.1346   23.1346
   23.9173   23.9173   23.9174   23.9174   25.2874   25.2875   27.2296   27.2296   27.2296   27.2296
   31.0095   31.0096   31.3274   31.3274   31.3398   31.3398   31.3398   31.3398   31.5916   31.5916
   31.5917   31.5917   32.3908   32.3908   32.3912   32.3912   33.6260   33.6260   34.1442   34.1442
   34.1445   34.1445   34.4225   34.4225   35.9828   35.9829   37.9426   37.9426   37.9434   37.9434
   38.5624   38.5624   38.7422   38.7422   38.7422   38.7423   41.8229   41.8230   41.8233   41.8233
   42.7252   42.7253   42.8069   42.8069   42.8077   42.8077   43.6217   43.6217   43.7254   43.7254
   43.7257   43.7258   44.2393   44.2393   44.2397   44.2397   44.2643   44.2644   44.3483   44.3483
   44.6561   44.6561   44.6565   44.6565   45.0844   45.0845   45.1536   45.1537   46.6342   46.6342
   47.8980   47.8980   47.8982   47.8982   48.8523   48.8523   49.0988   49.0988   49.6131   49.6132
   49.6134   49.6134   49.9503   49.9503   49.9504   49.9504   51.3807   51.3807   51.3808   51.3808
   52.6244   52.6244   53.2104   53.2104   53.2105   53.2106   54.2041   54.2041   54.2042   54.2042
   55.2593   55.2594   55.5841   55.5841   55.5843   55.5843   58.1744   58.1744   58.1744   58.1744
   59.3765   59.3765   59.6854   59.6854   61.1949   61.1949   61.2218   61.2218   61.6311   61.6311
   61.9292   61.9293   61.9562   61.9562   61.9564   61.9564   62.0266   62.0267   62.0277   62.0278
   64.1152   64.1153   64.1155   64.1155   66.6672   66.6672   66.6673   66.6673   69.6389   69.6390
   69.6393   69.6393   72.7924   72.7925   73.5773   73.5773   73.8530   73.8531   74.4424   74.4424
   74.4425   74.4425   74.5186   74.5186   74.5200   74.5201   75.8777   75.8778   81.9153   81.9154
   81.9169   81.9169   84.5076   84.5076   84.5105   84.5106   86.1879   86.1880   93.8492   93.8492
   94.3515   94.3516   94.3528   94.3528   97.2851   97.2851   98.3469   98.3469   98.3478   98.3478
  103.7315  103.7315  104.6006  104.6006  105.6159  105.6159  105.6187  105.6187  106.9703  106.9703
  106.9708  106.9708  109.2861  109.2862  109.2881  109.2882  112.5679  112.5680  112.5684  112.5684
  112.9062  112.9062  113.3190  113.3190  114.2646  114.2647  114.2687  114.2688  114.9694  114.9694
  114.9719  114.9720  117.8397  117.8398  118.8444  118.8444  123.5449  123.5450
  44  1  -24.9451  -24.9451  -24.9450  -24.9450  -23.6582  -23.6582  -23.6582  -23.6582  -21.1856  -21.1856
         -21.1856  -21.1856  -21.1856  -21.1856  -21.1856  -21.1856  -20.3763  -20.3763  -19.3471  -19.3471
  -17.5196  -17.5196  -17.5196  -17.5196  -17.5196  -17.5196  -17.5196  -17.5196  -14.1611  -14.1611
  -14.1611  -14.1611  -14.1610  -14.1610  -14.1610  -14.1610  -13.9027  -13.9027  -13.9026  -13.9026
  -12.8442  -12.8442  -12.8442  -12.8442  -12.5494  -12.5494  -12.5423  -12.5423  -12.5423  -12.5423
  -11.4839  -11.4839  -11.4838  -11.4838  -11.3469  -11.3469  -11.3468  -11.3468  -10.3292  -10.3291
  -10.3291  -10.3291   -8.6970   -8.6970   -8.6970   -8.6970   -8.6969   -8.6969   -8.6969   -8.6969
   -8.4161   -8.4161   -4.3528   -4.3528   -3.5408   -3.5408   -3.5408   -3.5408   -3.5408   -3.5408
   -3.5408   -3.5408    0.0041    0.0041    0.0041    0.0041    0.3462    0.3462    0.3462    0.3462
    1.4467    1.4468    1.9517    1.9517    1.9518    1.9518    2.3128    2.3128    2.3129    2.3129
    3.3488    3.3488    3.3488    3.3488    4.0340    4.0340    4.0340    4.0340    4.0368    4.0368
    4.0368    4.0368    4.0368    4.0368    4.0368    4.0368    4.7395    4.7395    4.7395    4.7395
    5.5351    5.5351    5.5351    5.5351    5.6066    5.6066    5.6066    5.6066    5.6066    5.6066
    5.6066    5.6066    7.1196    7.1196    7.7457    7.7457    7.7457    7.7457    7.9176    7.9176
    7.9176    7.9176    8.0675    8.0675    8.4751    8.4751    8.4751    8.4751    8.4751    8.4751
    8.4751    8.4751    8.7347    8.7347    8.7347    8.7347    9.3090    9.3090    9.3090    9.3090
    9.3090    9.3090    9.3090    9.3090   11.0341   11.0341   11.4228   11.4228   11.4229   11.4229
   13.0902   13.0902   13.0902   13.0903   13.0903   13.0903   13.0903   13.0903   13.5565   13.5565
   13.9046   13.9046   14.7252   14.7252   14.7252   14.7252   14.7252   14.7252   14.7252   14.7252
   16.9592   16.9592   16.9592   16.9592   17.2860   17.2860   17.2860   17.2860   17.2860   17.2860
   17.2860   17.2860   17.9767   17.9768   18.6645   18.6645   18.9322   18.9322   18.9322   18.9322
   18.9322   18.9322   18.9322   18.9322   20.3472   20.3472   20.3472   20.3472   20.3472   20.3472
   20.3472   20.3472   20.5165   20.5165   20.5165   20.5165   21.5649   21.5649   21.5650   21.5650
   22.5395   22.5395   22.5395   22.5395   23.2006   23.2006   23.2006   23.2006   23.7549   23.7550
   23.7550   23.7550   23.9788   23.9789   23.9789   23.9789   27.9607   27.9607   28.3534   28.3534
   30.0126   30.0126   30.0126   30.0126   30.5686   30.5686   30.5687   30.5687   31.6006   31.6006
   31.6006   31.6006   31.6006   31.6006   31.6006   31.6006   32.4101   32.4101   36.6023   36.6023
   36.6023   36.6024   36.6024   36.6024   36.6024   36.6024   38.1070   38.1070   39.5638   39.5638
   39.5638   39.5638   39.9725   39.9725   39.9725   39.9725   42.4098   42.4099   42.4099   42.4099
   42.4099   42.4099   42.4099   42.4099   42.6970   42.6970   42.6970   42.6970   43.2775   43.2775
   43.2775   43.2775   43.4780   43.4780   43.4780   43.4780   44.0360   44.0360   44.0361   44.0361
   44.3901   44.3901   44.3901   44.3901   45.3899   45.3899   45.3899   45.3899   46.3777   46.3778
   47.4778   47.4778   47.4779   47.4779   47.4779   47.4779   47.4779   47.4779   47.9155   47.9155
   47.9155   47.9156   50.5860   50.5860   50.5860   50.5860   50.7263   50.7263   50.7263   50.7263
   50.7263   50.7263   50.7263   50.7263   53.2056   53.2056   55.0733   55.0733   56.7592   56.7592
   56.7592   56.7592   56.7592   56.7592   56.7592   56.7593   57.7883   57.7883   57.7883   57.7884
   57.8725   57.8725   57.8725   57.8726   59.9016   59.9016   59.9016   59.9017   61.5723   61.5723
   62.1032   62.1032   62.1032   62.1032   62.1755   62.1755   62.1755   62.1755   62.1755   62.1756
   62.1756   62.1756   67.4530   67.4530   67.4530   67.4530   68.2591   68.2591   71.2237   71.2237
   71.2237   71.2238   71.8649   71.8649   71.8650   71.8650   71.8650   71.8650   71.8650   71.8650
   73.1978   73.1978   80.2568   80.2568   80.2568   80.2569   82.0517   82.0517   82.0517   82.0517
   83.6780   83.6781   83.6781   83.6781   83.6782   83.6782   83.6783   83.6783   89.4491   89.4491
   89.4491   89.4492   89.6633   89.6634  102.4976  102.4978  102.4978  102.4978  103.5218  103.5218
  103.5218  103.5218  103.5219  103.5219  103.5219  103.5220  106.2932  106.2933  106.2933  106.2933
  109.7709  109.7710  109.7710  109.7711  109.7712  109.7713  109.7713  109.7713  110.0214  110.0214
  111.5399  111.5400  111.5404  111.5404  113.2239  113.2240  115.6093  115.6093  115.6093  115.6094
  117.2550  117.2550  117.2550  117.2552  117.2557  117.2557  117.2560  117.2560
siesta: Fermi energy =      -6.066903 eV

siesta: Program's energy decomposition (eV):
siesta: Ebs     =     -2193.987856
siesta: Eions   =      9434.507561
siesta: Ena     =      2224.353236
siesta: Ekin    =      3905.908684
siesta: Enl     =      -379.676031
siesta: Eso     =         0.000000
siesta: Edftu   =         0.000000
siesta: DEna    =      -202.291743
siesta: DUscf   =        18.008957
siesta: DUext   =         0.000000
siesta: Exc     =     -1709.313417
siesta: eta*DQ  =         0.000000
siesta: Emadel  =         0.000000
siesta: Emeta   =         0.000000
siesta: Emolmec =        -2.680070
siesta: Ekinion =         0.000000
siesta: Eharris =     -5580.197949
siesta: Etot    =     -5580.197946
siesta: FreeEng =     -5580.211991

siesta: Final energy (eV):
siesta:  Band Struct. =   -2193.987856
siesta:       Kinetic =    3905.908684
siesta:       Hartree =    3139.953145
siesta:       Edftu   =       0.000000
siesta:       Eso     =       0.000000
siesta:    Ext. field =       0.000000
siesta:   Exch.-corr. =   -1709.313417
siesta:  Ion-electron =  -10154.255254
siesta:       Ion-ion =    -759.811034
siesta:       Ekinion =       0.000000
siesta:         Total =   -5580.197946
siesta:         Fermi =      -6.066903

siesta: Stress tensor (static) (eV/Ang**3):
siesta:    -0.067168   -0.000049   -0.000000
siesta:    -0.000049   -0.067225   -0.000000
siesta:    -0.000000   -0.000000    0.009720

siesta: Cell volume =        428.721788 Ang**3

siesta: Pressure (static):
siesta:                Solid            Molecule  Units
siesta:           0.00045262          0.00045264  Ry/Bohr**3
siesta:           0.04155763          0.04156028  eV/Ang**3
siesta:          66.58337836         66.58762814  kBar
(Free)E+ p_basis*V_orbitals  =       -5546.682185
(Free)Eharris+ p_basis*V_orbitals  =       -5546.682188

cite: Please see "graphite_scf.bib" for an exhaustive BiBTeX file.
cite: Please clearly indicate Siesta version in published work: 4.1.5
cite: This calculation has made use of the following articles
cite: which are encouraged to be cited in a published work.
        Primary SIESTA paper
          DOI: www.doi.org/10.1088/0953-8984/14/11/302

>> End of run:   1-NOV-2022  19:00:27
Job completed
