Siesta Version  : 4.1.5
Architecture    : x86_64-unknown-linux-gnu--unknown
Compiler version: GNU Fortran (GCC) 11.3.0
Compiler flags  : mpif90 -g -O2 -fallow-argument-mismatch
PP flags        : -DMPI -DFC_HAVE_FLUSH -DFC_HAVE_ABORT
Libraries       :  -I/global/software/sl-7.x86_64/modules/intel/2020.4.304/mkl/include  /globall/software/sl-7.x86_64/modules/intel/2020.4.304/mkl/lib/intel64/libmkl_scalapack_lp64.a -Wl,--start-group /global/software/sl-7.x86_64/modules/intel/2020.4.304/mkl/lib/intel64/libmkl_intel_lp64.a /global/software/sl-7.x86_64/modules/intel/2020.4.304/mkl/lib/intel64/libmkl_sequential.a /global/software/sl-7.x86_64/modules/intel/2020.4.304/mkl/lib/intel64/libmkl_core.a /global/software/sl-7.x86_64/modules/intel/2020.4.304/mkl/lib/intel64/libmkl_blacs_openmpi_lp64.a -Wl,--end-group -lpthread -lm -ldl
PARALLEL version

* Running on 20 nodes in parallel
>> Start of run:   1-NOV-2022  18:19:30

                           ***********************       
                           *  WELCOME TO SIESTA  *       
                           ***********************       

reinit: Reading from standard input
reinit: Dumped input in INPUT_TMP.54990
************************** Dump of input data file ****************************
SystemName graphite_scf
SystemLabel graphite_scf
NumberOfAtoms   36
NumberOfSpecies 1
%block ChemicalSpeciesLabel
1  6   C-gga
%endblock ChemicalSpeciesLabel
PAO.BasisSize  DZP
PAO.EnergyShift  10 meV
%block PS.Lmax
C-gga   2
%endblock PS.Lmax
LatticeConstant 1.000000 Ang
%block LatticeVectors
	7.3920000000	0.0000000000	0.0000000000
	-3.6960000000	6.4016597848	0.0000000000
	0.0000000000	0.0000000000	6.7781100000
%endblock LatticeVectors
AtomicCoordinatesFormat Ang
%block AtomicCoordinatesAndAtomicSpecies
	0.00000000	0.00000000	1.69452750	1
	0.00000000	0.00000000	5.08358250	1
	-1.23200000	2.13388659	1.69452750	1
	-2.46400000	4.26777319	5.08358250	1
	2.46400000	4.26777319	1.69452750	1
	1.23200000	2.13388659	5.08358250	1
	2.46400000	0.00000000	1.69452750	1
	4.92800000	0.00000000	5.08358250	1
	2.46400000	0.00000000	5.08358250	1
	4.92800000	0.00000000	1.69452750	1
	2.46400000	4.26777319	5.08358250	1
	1.23200000	2.13388659	1.69452750	1
	-1.23200000	2.13388659	5.08358250	1
	-2.46400000	4.26777319	1.69452750	1
	0.00000000	4.26777319	1.69452750	1
	3.69600000	2.13388659	5.08358250	1
	3.69600000	2.13388659	1.69452750	1
	0.00000000	4.26777319	5.08358250	1
	0.00000000	1.42258964	1.69452750	1
	3.69600000	4.97907014	5.08358250	1
	2.46400123	5.69036496	1.69452750	1
	1.23199877	0.71129482	5.08358250	1
	-2.46400123	5.69036496	1.69452750	1
	6.16000123	0.71129482	5.08358250	1
	-1.23200000	3.55647624	1.69452750	1
	4.92800000	2.84518355	5.08358250	1
	1.23200123	3.55647837	1.69452750	1
	2.46399877	2.84518142	5.08358250	1
	-0.00000123	5.69036496	1.69452750	1
	3.69600123	0.71129482	5.08358250	1
	2.46400000	1.42258964	1.69452750	1
	1.23200000	4.97907014	5.08358250	1
	4.92800123	1.42259177	1.69452750	1
	-1.23200123	4.97906801	5.08358250	1
	3.69599877	3.55647837	1.69452750	1
	0.00000123	2.84518142	5.08358250	1
%endblock AtomicCoordinatesAndAtomicSpecies
Kgrid_NoTRS  T
%block kgrid_MonkhorstPack
4       0       0       0.0
0       4       0       0.0
0       0       4       0.0
%endblock kgrid_MonkhorstPack
AtomCoorFormatOut Ang
BlockSize 1
#ProcessorY 12
Diag.ParallelOverK   T
Diag.DivideAndConquer F
MeshCutoff   300 Ry
SCF.FreeE.Tolerance 1E-3 eV
SCF.EDM.Tolerance   5E-3 eV
DM.Tolerance  1E-3
DM.Require.Energy.Convergence T
DM.NumberPulay 4
XC.Functional GGA
XC.Authors    PBE
UseSaveData        F
SolutionMethod     diagon
MD.TypeOfRun       CG
MD.VariableCell    F
MD.NumCGsteps      00
MD.MaxCGDispl      0.200000 Bohr
#MD.MaxStressTol    1.000000 GPa
#MD.MaxForceTol     0.010000 eV/Ang
WriteMDHistory T
WriteCoorStep T
WriteForces T
WriteCoorStep    T
WriteEigenValues T
WriteDM    F
MM.UnitsDistance Ang  # what this program prints out DO NOT CHANGE
MM.UnitsEnergy    eV  # what this program prints out DO NOT CHANGE
MM.Grimme.S6     0.75 # Grimme-paper for PBE (correct for your functional)
MM.Grimme.D     20.   # Grimme-paper (correct for your functional)
%block MM.Potentials
  1   1 Grimme     18.14      2.904 # C, 10.1002/jcc.20495
%endblock MM.Potentials
#%block ProjectedDensityOfStates
# -200.0  120.0  0.4  12800  eV
#%endblock ProjectedDensityOfStates
************************** End of input data file *****************************

reinit: -----------------------------------------------------------------------
reinit: System Name: graphite_scf
reinit: -----------------------------------------------------------------------
reinit: System Label: graphite_scf
reinit: -----------------------------------------------------------------------
Reading two-body potentials
Grimme - two-body potential between 1 and 1

initatom: Reading input for the pseudopotentials and atomic orbitals ----------
Species number:   1 Atomic number:    6 Label: C-gga

Ground state valence configuration:   2s02  2p02
Reading pseudopotential information in formatted form from C-gga.psf

Valence configuration for pseudopotential generation:
2s( 2.00) rc: 1.56
2p( 2.00) rc: 1.56
3d( 0.00) rc: 1.56
4f( 0.00) rc: 1.56
relmxkb: Read Max KB Ang. Momentum=    2 for species C-gga

<basis_specs>
===============================================================================
C-gga                Z=   6    Mass=  12.010        Charge= 0.17977+309
Lmxo=1 Lmxkb= 2    BasisType=split      Semic=F
L=0  Nsemic=0  Cnfigmx=2
          i=1  nzeta=2  polorb=0  (2s)
            splnorm:   0.15000    
               vcte:    0.0000    
               rinn:    0.0000    
               qcoe:    0.0000    
               qyuk:    0.0000    
               qwid:   0.10000E-01
                rcs:    0.0000      0.0000    
            lambdas:    1.0000      1.0000    
L=1  Nsemic=0  Cnfigmx=2
          i=1  nzeta=2  polorb=1  (2p)
            splnorm:   0.15000    
               vcte:    0.0000    
               rinn:    0.0000    
               qcoe:    0.0000    
               qyuk:    0.0000    
               qwid:   0.10000E-01
                rcs:    0.0000      0.0000    
            lambdas:    1.0000      1.0000    
-------------------------------------------------------------------------------
L=0  Nkbl=1  erefs: 0.17977+309
L=1  Nkbl=1  erefs: 0.17977+309
L=2  Nkbl=1  erefs: 0.17977+309
===============================================================================
</basis_specs>

atom: Called for C-gga                 (Z =   6)

read_vps: Pseudopotential generation method:
read_vps: ATM 3.2.2 Troullier-Martins                       
Valence charge for ps generation:    4.00000

xc_check: Exchange-correlation functional:
xc_check: GGA Perdew, Burke & Ernzerhof 1996
V l=0 = -2*Zval/r beyond r=  1.5227
V l=1 = -2*Zval/r beyond r=  1.5227
V l=2 = -2*Zval/r beyond r=  1.5227
All V_l potentials equal beyond r=  1.4851
This should be close to max(r_c) in ps generation
All pots = -2*Zval/r beyond r=  1.5227

VLOCAL1: 99.0% of the norm of Vloc inside     19.682 Ry
VLOCAL1: 99.9% of the norm of Vloc inside     44.856 Ry
atom: Maximum radius for 4*pi*r*r*local-pseudopot. charge    1.79142
atom: Maximum radius for r*vlocal+2*Zval:    1.54183
GHOST: No ghost state for L =  0
GHOST: No ghost state for L =  1
GHOST: No ghost state for L =  2

KBgen: Kleinman-Bylander projectors: 
   l= 0   rc=  1.661951   el= -1.010689   Ekb=  5.289847   kbcos=  0.316429
   l= 1   rc=  1.661951   el= -0.388490   Ekb= -4.102504   kbcos= -0.351025
   l= 2   rc=  1.747182   el=  0.001971   Ekb= -1.006005   kbcos= -0.008530

KBgen: Total number of Kleinman-Bylander projectors:    9
atom: -------------------------------------------------------------------------

atom: SANKEY-TYPE ORBITALS:
atom: Selected multiple-zeta basis: split     

SPLIT: Orbitals with angular momentum L= 0

SPLIT: Basis orbitals for state 2s

SPLIT: PAO cut-off radius determined from an
SPLIT: energy shift=  0.000735 Ry

   izeta = 1
                 lambda =    1.000000
                     rc =    5.948690
                 energy =   -1.010099
                kinetic =    0.827121
    potential(screened) =   -1.837220
       potential(ionic) =   -5.392783

   izeta = 2
                 rmatch =    3.518811
              splitnorm =    0.150000
                 energy =   -0.877891
                kinetic =    1.289227
    potential(screened) =   -2.167118
       potential(ionic) =   -5.982073

SPLIT: Orbitals with angular momentum L= 1

SPLIT: Basis orbitals for state 2p

SPLIT: PAO cut-off radius determined from an
SPLIT: energy shift=  0.000735 Ry

   izeta = 1
                 lambda =    1.000000
                     rc =    7.638387
                 energy =   -0.387843
                kinetic =    2.314739
    potential(screened) =   -2.702582
       potential(ionic) =   -6.092371

   izeta = 2
                 rmatch =    3.840617
              splitnorm =    0.150000
                 energy =   -0.270479
                kinetic =    3.438347
    potential(screened) =   -3.708826
       potential(ionic) =   -7.497707

POLgen: Perturbative polarization orbital with L=  2

POLgen: Polarization orbital for state 2p

   izeta = 1
                     rc =    7.638387
                 energy =    0.921402
                kinetic =    1.955040
    potential(screened) =   -1.033637
       potential(ionic) =   -3.679558
atom: Total number of Sankey-type orbitals: 13

atm_pop: Valence configuration (for local Pseudopot. screening):
 2s( 2.00)                                                            
 2p( 2.00)                                                            
Vna: chval, zval:    4.00000   4.00000

Vna:  Cut-off radius for the neutral-atom potential:   7.638387

atom: _________________________________________________________________________

prinput: Basis input ----------------------------------------------------------

PAO.BasisType split     

%block ChemicalSpeciesLabel
    1    6 C-gga                   # Species index, atomic number, species label
%endblock ChemicalSpeciesLabel

%block PAO.Basis                 # Define Basis set
C-gga                 2                    # Species label, number of l-shells
 n=2   0   2                         # n, l, Nzeta 
   5.949      3.519   
   1.000      1.000   
 n=2   1   2 P   1                   # n, l, Nzeta, Polarization, NzetaPol
   7.638      3.841   
   1.000      1.000   
%endblock PAO.Basis

prinput: ----------------------------------------------------------------------

coor:   Atomic-coordinates input format  =     Cartesian coordinates
coor:                                          (in Angstroms)

siesta: Atomic coordinates (Bohr) and species
siesta:      0.00000   0.00000   3.20219  1        1
siesta:      0.00000   0.00000   9.60658  1        2
siesta:     -2.32814   4.03246   3.20219  1        3
siesta:     -4.65629   8.06493   9.60658  1        4
siesta:      4.65629   8.06493   3.20219  1        5
siesta:      2.32814   4.03246   9.60658  1        6
siesta:      4.65629   0.00000   3.20219  1        7
siesta:      9.31257   0.00000   9.60658  1        8
siesta:      4.65629   0.00000   9.60658  1        9
siesta:      9.31257   0.00000   3.20219  1       10
siesta:      4.65629   8.06493   9.60658  1       11
siesta:      2.32814   4.03246   3.20219  1       12
siesta:     -2.32814   4.03246   9.60658  1       13
siesta:     -4.65629   8.06493   3.20219  1       14
siesta:      0.00000   8.06493   3.20219  1       15
siesta:      6.98443   4.03246   9.60658  1       16
siesta:      6.98443   4.03246   3.20219  1       17
siesta:      0.00000   8.06493   9.60658  1       18
siesta:      0.00000   2.68831   3.20219  1       19
siesta:      6.98443   9.40908   9.60658  1       20
siesta:      4.65629  10.75324   3.20219  1       21
siesta:      2.32814   1.34415   9.60658  1       22
siesta:     -4.65629  10.75324   3.20219  1       23
siesta:     11.64072   1.34415   9.60658  1       24
siesta:     -2.32814   6.72077   3.20219  1       25
siesta:      9.31257   5.37662   9.60658  1       26
siesta:      2.32815   6.72077   3.20219  1       27
siesta:      4.65628   5.37662   9.60658  1       28
siesta:     -0.00000  10.75324   3.20219  1       29
siesta:      6.98443   1.34415   9.60658  1       30
siesta:      4.65629   2.68831   3.20219  1       31
siesta:      2.32814   9.40908   9.60658  1       32
siesta:      9.31258   2.68831   3.20219  1       33
siesta:     -2.32815   9.40908   9.60658  1       34
siesta:      6.98443   6.72077   3.20219  1       35
siesta:      0.00000   5.37662   9.60658  1       36

siesta: System type = bulk      

initatomlists: Number of atoms, orbitals, and projectors:     36   468   324

siesta: ******************** Simulation parameters ****************************
siesta:
siesta: The following are some of the parameters of the simulation.
siesta: A complete list of the parameters used, including default values,
siesta: can be found in file out.fdf
siesta:
redata: Spin configuration                          = none
redata: Number of spin components                   = 1
redata: Time-Reversal Symmetry                      = T
redata: Spin spiral                                 = F
redata: Long output                                 =   F
redata: Number of Atomic Species                    =        1
redata: Charge density info will appear in .RHO file
redata: Write Mulliken Pop.                         = NO
redata: Matel table size (NRTAB)                    =     1024
redata: Mesh Cutoff                                 =   300.0000 Ry
redata: Net charge of the system                    =     0.0000 |e|
redata: Min. number of SCF Iter                     =        0
redata: Max. number of SCF Iter                     =     1000
redata: SCF convergence failure will abort job
redata: SCF mix quantity                            = Hamiltonian
redata: Mix DM or H after convergence               =   F
redata: Recompute H after scf cycle                 =   F
redata: Mix DM in first SCF step                    =   T
redata: Write Pulay info on disk                    =   F
redata: New DM Occupancy tolerance                  = 0.000000000001
redata: No kicks to SCF
redata: DM Mixing Weight for Kicks                  =     0.5000
redata: Require Harris convergence for SCF          =   F
redata: Harris energy tolerance for SCF             =     0.000100 eV
redata: Require DM convergence for SCF              =   T
redata: DM tolerance for SCF                        =     0.001000
redata: Require EDM convergence for SCF             =   F
redata: EDM tolerance for SCF                       =     0.005000 eV
redata: Require H convergence for SCF               =   T
redata: Hamiltonian tolerance for SCF               =     0.001000 eV
redata: Require (free) Energy convergence for SCF   =   T
redata: (free) Energy tolerance for SCF             =     0.001000 eV
redata: Using Saved Data (generic)                  =   F
redata: Use continuation files for DM               =   F
redata: Neglect nonoverlap interactions             =   F
redata: Method of Calculation                       = Diagonalization
redata: Electronic Temperature                      =   299.9869 K
redata: Fix the spin of the system                  =   F
redata: Dynamics option                             = Single-point calculation
mix.SCF: Pulay mixing                            = Pulay
mix.SCF:    Variant                              = stable
mix.SCF:    History steps                        = 4
mix.SCF:    Linear mixing weight                 =     0.250000
mix.SCF:    Mixing weight                        =     0.250000
mix.SCF:    SVD condition                        = 0.1000E-07
redata: ***********************************************************************

%block SCF.Mixers
  Pulay
%endblock SCF.Mixers

%block SCF.Mixer.Pulay
  # Mixing method
  method pulay
  variant stable

  # Mixing options
  weight 0.2500
  weight.linear 0.2500
  history 4
%endblock SCF.Mixer.Pulay

DM_history_depth set to one: no extrapolation allowed by default for geometry relaxation
Size of DM history Fstack: 1
Total number of electrons:   144.000000
Total ionic charge:   144.000000

* ProcessorY, Blocksize:    4   1


* Orbital distribution balance (max,min):    24    23

k-point displ. along   1 input, could be:     0.00    0.50
k-point displ. along   2 input, could be:     0.00    0.50
k-point displ. along   3 input, could be:     0.00    0.50
 Kpoints in:           48 . Kpoints trimmed:           44

siesta: k-grid: Number of k-points =    44
siesta: k-grid: Cutoff (effective) =    13.556 Ang
siesta: k-grid: Supercell and displacements
siesta: k-grid:    4   0   0      0.000
siesta: k-grid:    0   4   0      0.000
siesta: k-grid:    0   0   4      0.000

diag: Algorithm                                     = Expert
diag: Parallel over k                               =   T
diag: Use parallel 2D distribution                  =   T
diag: Parallel block-size                           = 1
diag: Parallel distribution                         =     4 x     5
diag: Used triangular part                          = Lower
diag: Absolute tolerance                            =  0.100E-15
diag: Orthogonalization factor                      =  0.100E-05
diag: Memory factor                                 =  1.0000

superc: Internal auxiliary supercell:     5 x     5 x     3  =      75
superc: Number of atoms, orbitals, and projectors:   2700  35100  24300


ts: **************************************************************
ts: Save H and S matrices                           =    F
ts: Save DM and EDM matrices                        =    F
ts: Only save the overlap matrix S                  =    F
ts: **************************************************************

************************ Begin: TS CHECKS AND WARNINGS ************************
************************ End: TS CHECKS AND WARNINGS **************************


                     ====================================
                        Single-point calculation
                     ====================================

outcoor: Atomic coordinates (Ang):                          
    0.00000000    0.00000000    1.69452750   1       1  C-gga
    0.00000000    0.00000000    5.08358250   1       2  C-gga
   -1.23200000    2.13388659    1.69452750   1       3  C-gga
   -2.46400000    4.26777319    5.08358250   1       4  C-gga
    2.46400000    4.26777319    1.69452750   1       5  C-gga
    1.23200000    2.13388659    5.08358250   1       6  C-gga
    2.46400000    0.00000000    1.69452750   1       7  C-gga
    4.92800000    0.00000000    5.08358250   1       8  C-gga
    2.46400000    0.00000000    5.08358250   1       9  C-gga
    4.92800000    0.00000000    1.69452750   1      10  C-gga
    2.46400000    4.26777319    5.08358250   1      11  C-gga
    1.23200000    2.13388659    1.69452750   1      12  C-gga
   -1.23200000    2.13388659    5.08358250   1      13  C-gga
   -2.46400000    4.26777319    1.69452750   1      14  C-gga
    0.00000000    4.26777319    1.69452750   1      15  C-gga
    3.69600000    2.13388659    5.08358250   1      16  C-gga
    3.69600000    2.13388659    1.69452750   1      17  C-gga
    0.00000000    4.26777319    5.08358250   1      18  C-gga
    0.00000000    1.42258964    1.69452750   1      19  C-gga
    3.69600000    4.97907014    5.08358250   1      20  C-gga
    2.46400123    5.69036496    1.69452750   1      21  C-gga
    1.23199877    0.71129482    5.08358250   1      22  C-gga
   -2.46400123    5.69036496    1.69452750   1      23  C-gga
    6.16000123    0.71129482    5.08358250   1      24  C-gga
   -1.23200000    3.55647624    1.69452750   1      25  C-gga
    4.92800000    2.84518355    5.08358250   1      26  C-gga
    1.23200123    3.55647837    1.69452750   1      27  C-gga
    2.46399877    2.84518142    5.08358250   1      28  C-gga
   -0.00000123    5.69036496    1.69452750   1      29  C-gga
    3.69600123    0.71129482    5.08358250   1      30  C-gga
    2.46400000    1.42258964    1.69452750   1      31  C-gga
    1.23200000    4.97907014    5.08358250   1      32  C-gga
    4.92800123    1.42259177    1.69452750   1      33  C-gga
   -1.23200123    4.97906801    5.08358250   1      34  C-gga
    3.69599877    3.55647837    1.69452750   1      35  C-gga
    0.00000123    2.84518142    5.08358250   1      36  C-gga

superc: Internal auxiliary supercell:     5 x     5 x     3  =      75
superc: Number of atoms, orbitals, and projectors:   2700  35100  24300

outcell: Unit cell vectors (Ang):
        7.392000    0.000000    0.000000
       -3.696000    6.401660    0.000000
        0.000000    0.000000    6.778110

outcell: Cell vector modules (Ang)   :    7.392000    7.392000    6.778110
outcell: Cell angles (23,13,12) (deg):     90.0000     90.0000    120.0000
outcell: Cell volume (Ang**3)        :    320.7474
<dSpData1D:S at geom step 0
  <sparsity:sparsity for geom step 0
    nrows_g=468 nrows=24 sparsity=.3090 nnzs=67680, refcount: 7>
  <dData1D:(new from dSpData1D) n=67680, refcount: 1>
refcount: 1>
new_DM -- step:     1
Initializing Density Matrix...
DM filled with atomic data:
<dSpData2D:DM initialized from atoms
  <sparsity:sparsity for geom step 0
    nrows_g=468 nrows=24 sparsity=.3090 nnzs=67680, refcount: 8>
  <dData2D:DM n=67680 m=1, refcount: 1>
refcount: 1>
No. of atoms with KB's overlaping orbs in proc 0. Max # of overlaps:     228     532
New grid distribution:   1
           1       1:   36    1:    9    1:    8
           2       1:   36    1:    9    9:   15
           3       1:   36    1:    9   16:   22
           4       1:   36    1:    9   23:   29
           5       1:   36    1:    9   30:   36
           6       1:   36   10:   18    1:    8
           7       1:   36   10:   18    9:   15
           8       1:   36   10:   18   16:   22
           9       1:   36   10:   18   23:   29
          10       1:   36   10:   18   30:   36
          11       1:   36   19:   27    1:    8
          12       1:   36   19:   27    9:   15
          13       1:   36   19:   27   16:   22
          14       1:   36   19:   27   23:   29
          15       1:   36   19:   27   30:   36
          16       1:   36   28:   36    1:    8
          17       1:   36   28:   36    9:   15
          18       1:   36   28:   36   16:   22
          19       1:   36   28:   36   23:   29
          20       1:   36   28:   36   30:   36

InitMesh: MESH =    72 x    72 x    72 =      373248
InitMesh: (bp) =    36 x    36 x    36 =       46656
InitMesh: Mesh cutoff (required, used) =   300.000   311.853 Ry
ExtMesh (bp) on 0 =   128 x   101 x    96 =     1241088
New grid distribution:   2
           1       1:   15   19:   36   19:   27
           2       1:   15    1:   18   10:   18
           3      16:   36    1:   18    1:    6
           4      16:   36    1:    9    7:   18
           5       1:   14    1:   18   28:   36
           6       1:   15    1:   18    1:    9
           7      16:   36   10:   18    7:   18
           8      15:   36    1:   18   19:   24
           9       1:   14    1:   18   19:   27
          10      15:   36   10:   18   25:   36
          11      16:   36   19:   36    1:    6
          12       1:   15   19:   36   10:   18
          13      15:   36    1:    9   25:   36
          14      16:   36   19:   36   19:   24
          15      16:   36   19:   27    7:   18
          16       1:   15   19:   36    1:    9
          17      16:   36   19:   27   25:   36
          18      16:   36   28:   36    7:   18
          19      16:   36   28:   36   25:   36
          20       1:   15   19:   36   28:   36
New grid distribution:   3
           1      16:   36   19:   36   19:   24
           2       1:   15    1:   18   10:   18
           3      16:   36   19:   36    1:    6
           4       1:   15    1:   18   19:   27
           5       1:   15   19:   36   28:   36
           6       1:   15    1:   18    1:    9
           7      16:   36   28:   36    7:   18
           8      16:   36   10:   18    7:   18
           9      16:   36    1:   18    1:    6
          10       1:   15    1:   18   28:   36
          11      16:   36   19:   27    7:   18
          12       1:   15   19:   36   10:   18
          13      16:   36    1:    9   25:   36
          14      16:   36    1:   18   19:   24
          15      16:   36   19:   27   25:   36
          16       1:   15   19:   36    1:    9
          17      16:   36   10:   18   25:   36
          18      16:   36    1:    9    7:   18
          19       1:   15   19:   36   19:   27
          20      16:   36   28:   36   25:   36
Setting up quadratic distribution...
ExtMesh (bp) on 0 =   107 x   110 x    97 =     1141690
PhiOnMesh: Number of (b)points on node 0 =                 2430
PhiOnMesh: nlist on node 0 =               720180

stepf: Fermi-Dirac step function

siesta: Program's energy decomposition (eV):
siesta: Ebs     =     -2170.580598
siesta: Eions   =      9434.507561
siesta: Ena     =      2222.352420
siesta: Ekin    =      4041.063340
siesta: Enl     =      -408.630691
siesta: Eso     =         0.000000
siesta: Edftu   =         0.000000
siesta: DEna    =      -287.120027
siesta: DUscf   =        29.167696
siesta: DUext   =         0.000000
siesta: Exc     =     -1735.562865
siesta: eta*DQ  =         0.000000
siesta: Emadel  =         0.000000
siesta: Emeta   =         0.000000
siesta: Emolmec =        -4.309568
siesta: Ekinion =         0.000000
siesta: Eharris =     -5477.115821
siesta: Etot    =     -5577.547255
siesta: FreeEng =     -5577.558375

        iscf     Eharris(eV)        E_KS(eV)     FreeEng(eV)     dDmax    Ef(eV) dHmax(eV)
   scf:    1    -5477.115821    -5577.547255    -5577.558375  1.723039 -7.922172  3.164923
timer: Routine,Calls,Time,% = IterSCF        1       9.624  71.84
   scf:    2    -5581.998042    -5579.827034    -5579.838115  0.082066 -7.477179  2.106574
   scf:    3    -5583.198205    -5581.764004    -5581.774958  0.146477 -6.615984  0.041525
   scf:    4    -5581.762279    -5581.763320    -5581.774281  0.002665 -6.647198  0.029646
   scf:    5    -5581.765109    -5581.764364    -5581.775322  0.004005 -6.640572  0.005640
   scf:    6    -5581.764381    -5581.764374    -5581.775332  0.000321 -6.643394  0.000987

SCF Convergence by FreeE+DM+H criterion
|FreeE_i-FreeE_(i-1)| (eV) <     0.00100000
max |DM_out - DM_in|         :     0.0003206530
max |H_out - H_in|      (eV) :     0.0009866781
SCF cycle converged after 6 iterations

Using DM_out to compute the final energy and forces
No. of atoms with KB's overlaping orbs in proc 0. Max # of overlaps:     228     532

MM-Stress (kbar):       12.22       12.22       46.20        0.00        0.00       -0.00

siesta: E_KS(eV) =            -5581.7644

siesta: E_KS - E_eggbox =     -5581.7644

siesta: Atomic forces (eV/Ang):
     1   -0.000074    0.000042   -0.000000
     2    0.000074   -0.000043   -0.000000
     3   -0.000022   -0.000002   -0.000000
     4    0.000022    0.000002   -0.000000
     5   -0.000061    0.000110   -0.000000
     6    0.000061   -0.000110   -0.000000
     7   -0.000138    0.000020   -0.000000
     8    0.000139   -0.000021   -0.000000
     9    0.000058   -0.000061   -0.000000
    10   -0.000058    0.000060   -0.000000
    11    0.000067   -0.000020   -0.000000
    12   -0.000067    0.000020   -0.000000
    13    0.000098   -0.000048   -0.000000
    14   -0.000098    0.000048   -0.000000
    15   -0.000074    0.000043   -0.000000
    16    0.000074   -0.000043   -0.000000
    17   -0.000074    0.000043   -0.000000
    18    0.000074   -0.000043   -0.000000
    19    0.000084    0.000067    0.000000
    20   -0.000084   -0.000067    0.000000
    21   -0.000026   -0.000089    0.000000
    22    0.000026    0.000090    0.000000
    23    0.000165   -0.000106    0.000000
    24   -0.000165    0.000107    0.000000
    25    0.000082    0.000053    0.000000
    26   -0.000082   -0.000054    0.000000
    27   -0.000013   -0.000084    0.000000
    28    0.000013    0.000084    0.000000
    29    0.000154   -0.000098    0.000000
    30   -0.000154    0.000098    0.000000
    31    0.000083    0.000053    0.000000
    32   -0.000083   -0.000053    0.000000
    33   -0.000013   -0.000084    0.000000
    34    0.000013    0.000084    0.000000
    35    0.000154   -0.000098    0.000000
    36   -0.000154    0.000098    0.000000
----------------------------------------
   Tot   -0.000000   -0.000000    0.000000
----------------------------------------
   Max    0.000165
   Res    0.000067    sqrt( Sum f_i^2 / 3N )
----------------------------------------
   Max    0.000165    constrained

Stress tensor Voigt[x,y,z,yz,xz,xy] (kbar):     -130.97     -131.09       22.85       -0.00       -0.00       -0.11
(Free)E + p*V (eV/cell)    -5565.8131
Target enthalpy (eV/cell)    -5581.7753

siesta: Eigenvalues (eV):
  ik is       eps
   1  1  -25.7821  -25.5229  -25.1283  -25.1283  -24.8788  -24.8788  -23.2060  -23.2060  -22.9872  -22.9872
         -21.9719  -21.7734  -21.4012  -21.4012  -21.2232  -21.2232  -20.5510  -20.4537  -19.5137  -19.4472
  -19.2944  -19.2944  -19.1512  -19.1512  -17.2227  -17.1590  -16.1995  -16.1995  -16.1145  -16.1145
  -15.6184  -15.5732  -14.9184  -14.8430  -14.4164  -14.1567  -14.1567  -14.1000  -14.1000  -13.6319
  -13.6319  -13.5902  -13.5902  -13.5370  -13.5370  -13.1442  -13.1442  -13.0907  -13.0907  -12.6511
  -11.9256  -11.9256  -11.7569  -11.7569  -11.7123  -11.7123  -11.4388  -11.4100  -11.3752  -11.3752
  -10.7630  -10.7370   -9.9719   -9.8851   -9.8851   -9.5646   -9.5646   -8.7571   -8.6633   -8.6552
   -8.6552   -8.1421   -5.1992   -4.9156   -4.9097   -4.9097   -4.2030   -4.2030   -4.0953   -3.5488
   -2.4701   -2.4701   -1.9073   -1.9073   -1.2272   -0.3662   -0.3662    1.3474    1.3474    1.4514
    1.4514    1.7010    1.7010    1.8046    1.8046    2.0381    2.1349    2.1926    2.1926    2.2837
    2.2837    2.3728    2.3728    3.1647    3.1829    3.2358    3.2770    3.3843    3.5274    3.5274
    3.6472    3.8836    3.9096    3.9096    4.6588    4.7248    4.7248    4.7787    4.7787    4.8757
    4.8757    5.1705    5.1705    5.3400    5.5981    5.6861    6.0933    6.1323    6.1323    6.1524
    6.1524    6.1877    6.3115    6.4477    6.7214    6.7214    6.7721    6.7721    6.7818    7.0531
    7.1891    7.5623    7.5623    7.8719    7.9262    8.5186    8.5186    8.8103    8.8103    9.6687
    9.6687   10.2947   10.2947   10.8282   11.6346   11.6347   11.7202   12.2204   12.2204   12.6587
   12.6587   12.9721   13.0015   13.2070   13.3674   13.3674   13.4684   13.4685   13.7066   13.7227
   14.2165   14.2165   14.4152   14.5285   14.5285   14.5750   14.5750   14.8883   14.8977   14.8977
   14.9639   14.9639   16.0174   16.1694   16.1694   16.4711   16.6111   16.6111   16.8036   16.9044
   17.4963   17.4963   17.5709   17.5709   18.0300   18.5919   18.6460   18.9648   19.0833   19.0833
   19.4058   19.4058   19.8253   19.8253   19.8547   19.8547   19.9177   20.0796   20.3044   20.3044
   20.7068   20.7068   20.9061   21.1272   21.1272   21.3402   21.5148   21.5148   21.6851   21.7170
   22.1802   22.1802   22.3350   22.3350   22.5036   22.5037   22.5300   22.9770   23.5281   23.5281
   24.3727   24.3727   24.6874   24.7530   24.7530   24.9900   25.1141   25.6331   25.6331   25.7234
   26.3429   26.3429   26.5796   26.9002   26.9002   27.3968   27.3968   27.6005   28.7019   29.2101
   29.2101   32.2672   33.2466   33.2466   33.6422   34.6552   35.7474   36.5426   36.5502   36.5502
   36.6272   36.6272   36.9066   36.9066   37.5347   37.9646   37.9646   38.0819   38.0819   38.9488
   39.9791   39.9791   40.3283   40.3283   40.7879   40.7879   41.3152   41.4732   41.6548   41.6548
   42.0031   42.0842   42.0843   42.4566   42.4567   42.6469   42.6469   42.7848   42.7848   42.8162
   42.8162   42.9109   42.9109   43.0133   43.3074   43.6051   43.7031   43.7112   43.7112   43.8721
   44.3304   44.3304   44.6027   44.7870   44.8441   45.0527   45.0527   45.3998   45.6571   45.6741
   45.8488   45.8488   46.6017   47.0176   47.0176   47.5874   47.5874   47.9007   47.9008   48.4291
   48.4291   48.7403   48.7901   48.9940   48.9940   49.1048   49.6282   50.5618   51.6634   51.9076
   51.9076   52.1128   52.1128   52.1827   52.2755   52.2755   52.7933   52.7933   53.2623   53.2623
   53.3160   54.8183   54.8183   55.9750   55.9750   56.8071   57.4995   58.4501   58.5394   58.5394
   58.5473   58.5473   59.1622   59.1622   59.1993   59.5679   59.7477   60.6090   60.6090   60.7270
   61.3943   61.3944   61.5809   62.2686   62.3004   62.3005   62.6537   62.6921   62.6921   62.7719
   64.0468   64.0468   65.1381   65.1381   65.3372   65.7332   65.7333   66.8319   66.8320   67.2534
   67.2534   67.6705   67.7769   67.7769   68.7841   68.7918   68.7919   69.5373   69.5373   70.0137
   70.0138   70.6304   72.0006   72.2001   72.2001   72.7609   73.1580   73.4880   73.5676   75.0591
   75.0592   75.9058   79.0528   81.6557   81.8058   81.8059   81.8877   81.8878   82.6976   88.8899
   88.8899   93.4307   93.4308   94.9738   96.2159   96.2160   96.3454   96.3457   98.5255   98.5257
   99.5526   99.5526  101.0971  102.4782  102.4782  103.6019  103.6020  104.2786  104.3314  105.1035
  105.1725  105.1727  106.5949  108.3473  108.3478  110.5333  110.5336  111.0890  111.6928  112.8581
  112.8589  113.1316  113.1318  115.3175  115.3179  115.6702  115.8309  116.6844  116.6849  116.7638
  116.7638  117.2658  117.3247  119.8332  120.2432  121.6109  121.6110  123.5014  123.5014  123.8057
  125.3388  130.5774  132.6999  132.7010  134.6325  134.6330  137.2916  139.7622
   2  1  -26.1077  -25.8471  -24.8032  -24.5589  -24.1582  -24.1582  -23.9244  -23.9244  -22.8924  -22.8923
         -22.6786  -22.6786  -22.2768  -22.0740  -20.5374  -20.5373  -20.3754  -20.3753  -18.6554  -18.6553
  -18.5486  -18.5485  -18.4574  -18.3145  -17.3519  -17.3518  -17.2276  -17.2275  -16.3393  -16.3391
  -16.2604  -16.2603  -15.2204  -15.2202  -15.1333  -15.1331  -14.8135  -14.1408  -14.0643  -13.2660
  -13.2657  -13.2462  -13.2127  -13.2124  -13.0204  -12.9472  -12.9036  -12.6376  -12.6373  -12.5854
  -12.5850  -12.4855  -12.4855  -11.7579  -11.7059  -11.5728  -11.0441  -11.0441  -10.8813  -10.8813
  -10.4194  -10.4126  -10.3791  -10.1066  -10.0660   -9.6321   -9.6321   -9.1810   -8.4574   -8.4574
   -7.5410   -7.5410   -5.5454   -5.5454   -5.0538   -5.0538   -4.2167   -3.3199   -3.2708   -3.2708
   -2.4483   -2.4483   -1.6072   -0.9506   -0.9506   -0.3455   -0.3455    0.0540    0.4163    0.8161
    0.9383    0.9476    0.9477    1.1420    1.4296    1.6192    1.6194    1.6708    1.7170    1.7810
    1.9142    1.9144    1.9456    1.9459    2.2364    2.2367    2.3270    2.3678    2.8060    2.8060
    3.6004    4.1846    4.3442    4.4059    5.1658    5.1659    5.4893    5.5194    5.5194    5.8925
    5.8925    5.9276    5.9276    6.1530    6.1530    6.3444    6.4416    6.4834    6.4835    6.5438
    6.5438    6.7543    6.7543    6.7656    6.7870    6.7871    6.7983    7.1646    7.1650    7.4356
    7.6377    7.8209    7.8210    8.3314    8.8541    8.8543    9.0441    9.6208    9.6212   10.1269
   10.1271   10.8789   10.9396   10.9396   11.0038   11.0038   11.3562   11.3564   11.4802   11.4808
   12.2215   12.2371   12.5028   12.7783   12.8252   12.8253   13.0901   13.0902   13.2499   13.2499
   13.5959   13.5959   13.6938   14.0365   14.0366   14.3597   14.3602   14.3807   15.3279   15.3280
   15.6501   15.7651   15.7652   16.6489   16.6493   16.7567   16.7567   16.9982   16.9985   17.0829
   17.2646   17.4035   17.4035   17.8703   17.8705   17.8900   18.1692   18.1694   18.2545   18.9312
   18.9313   19.5983   19.6510   19.7136   19.9719   19.9719   20.2934   20.3163   20.3166   20.8590
   20.8590   20.8746   20.8746   21.0987   21.1100   21.1100   21.1135   21.3162   21.3163   21.4629
   21.8236   21.9559   21.9559   22.3269   22.3275   22.5651   23.6072   23.7297   23.7302   23.8919
   24.0656   24.1408   24.1408   24.4031   24.9662   24.9663   25.2920   25.4553   25.5492   25.5493
   25.9654   27.0690   28.0156   28.0860   28.1794   28.1798   28.4956   28.4956   28.6420   28.6423
   30.9917   33.3389   33.3391   33.3457   34.2921   34.2924   34.5550   34.5551   35.1433   35.6030
   36.4311   36.4312   37.0952   37.5153   37.5157   38.1734   38.1745   38.4147   38.4148   38.5696
   38.5696   38.9898   39.2566   39.2566   39.5910   39.5913   39.8017   40.2331   40.2342   40.4083
   40.8179   41.0778   41.1797   41.2966   41.2971   41.6425   41.7171   41.7426   41.7426   42.1415
   42.1416   43.0294   43.1785   44.6549   44.6557   44.7159   44.7326   44.8522   44.8522   44.9277
   45.1200   45.9300   45.9363   46.3108   46.4975   46.4978   46.6749   46.6894   46.6895   46.7024
   46.7025   47.0505   47.0506   47.8126   48.0591   48.0592   48.2041   48.7822   48.7825   49.1279
   49.4591   49.4591   49.5200   49.6670   49.6671   50.8544   50.8589   50.8592   51.2751   51.2752
   51.6062   51.6065   52.9621   53.6661   54.4448   54.6267   54.6268   54.8869   55.1094   55.5423
   56.5547   56.5548   56.6793   56.6795   56.7628   56.7629   57.6494   57.6494   57.8905   57.8906
   58.3863   58.3864   58.7584   58.9220   58.9221   59.3233   59.5293   60.1163   60.1163   61.0250
   61.0254   61.8175   61.9380   61.9381   61.9525   62.1270   62.1274   62.9934   63.3441   63.6106
   63.6106   63.8007   63.8017   63.9192   65.0140   65.0143   65.1037   65.5314   65.5329   66.1599
   66.1602   66.2574   66.2578   66.4137   67.7558   68.1629   68.6733   68.6747   69.4235   70.0324
   70.8511   71.1054   71.2356   71.3695   71.6038   71.8520   72.9502   72.9509   74.4207   74.4217
   75.8673   75.8674   75.9973   76.0540   76.0541   79.7375   81.1191   88.7808   88.7821   90.7550
   90.9259   92.9647   92.9677   93.4923   93.4941   96.4984   97.3413   97.3444   99.9545   99.9548
  102.3049  102.3058  102.5260  103.8573  103.8582  104.3267  104.3281  104.7688  107.1991  107.1999
  107.2286  107.3459  107.3463  108.8998  108.9023  109.4240  110.5313  111.3747  111.3754  111.5821
  112.0650  112.1194  112.1211  114.2852  115.6443  115.6445  116.9355  116.9368  118.5129  118.8518
  118.8526  119.0271  119.1109  121.7443  121.7473  123.2957  125.6123  125.6128  127.2013  127.2017
  130.8831  132.6193  132.6201  136.3276  136.3288  141.6558  141.8383  141.8398
   3  1  -26.1077  -25.8471  -24.8032  -24.5589  -24.1582  -24.1582  -23.9244  -23.9244  -22.8924  -22.8924
         -22.6786  -22.6786  -22.2767  -22.0739  -20.5373  -20.5373  -20.3754  -20.3754  -18.6554  -18.6554
  -18.5486  -18.5486  -18.4573  -18.3144  -17.3520  -17.3520  -17.2277  -17.2277  -16.3391  -16.3391
  -16.2603  -16.2603  -15.2204  -15.2204  -15.1333  -15.1333  -14.8135  -14.1406  -14.0640  -13.2657
  -13.2657  -13.2462  -13.2124  -13.2124  -13.0204  -12.9476  -12.9040  -12.6373  -12.6373  -12.5850
  -12.5850  -12.4855  -12.4855  -11.7583  -11.7063  -11.5728  -11.0441  -11.0441  -10.8813  -10.8813
  -10.4190  -10.4126  -10.3788  -10.1070  -10.0664   -9.6321   -9.6321   -9.1810   -8.4574   -8.4574
   -7.5410   -7.5410   -5.5454   -5.5454   -5.0538   -5.0538   -4.2167   -3.3199   -3.2708   -3.2708
   -2.4483   -2.4483   -1.6072   -0.9506   -0.9506   -0.3456   -0.3456    0.0541    0.4163    0.8163
    0.9383    0.9476    0.9476    1.1422    1.4299    1.6191    1.6191    1.6711    1.7175    1.7815
    1.9141    1.9141    1.9457    1.9457    2.2365    2.2365    2.3265    2.3673    2.8060    2.8060
    3.6005    4.1846    4.3442    4.4059    5.1658    5.1658    5.4893    5.5195    5.5195    5.8925
    5.8925    5.9276    5.9276    6.1530    6.1530    6.3444    6.4416    6.4833    6.4833    6.5438
    6.5438    6.7543    6.7543    6.7649    6.7873    6.7873    6.7975    7.1651    7.1651    7.4356
    7.6380    7.8208    7.8208    8.3317    8.8540    8.8540    9.0444    9.6209    9.6209   10.1269
   10.1269   10.8789   10.9394   10.9394   11.0038   11.0038   11.3566   11.3566   11.4811   11.4811
   12.2205   12.2361   12.5035   12.7783   12.8252   12.8252   13.0903   13.0903   13.2499   13.2499
   13.5959   13.5959   13.6939   14.0364   14.0364   14.3598   14.3598   14.3813   15.3280   15.3280
   15.6501   15.7652   15.7652   16.6489   16.6489   16.7570   16.7570   16.9982   16.9982   17.0834
   17.2646   17.4035   17.4035   17.8702   17.8702   17.8903   18.1692   18.1692   18.2545   18.9313
   18.9313   19.5983   19.6509   19.7135   19.9720   19.9720   20.2935   20.3166   20.3166   20.8591
   20.8591   20.8746   20.8746   21.0988   21.1095   21.1095   21.1135   21.3162   21.3162   21.4636
   21.8235   21.9559   21.9559   22.3269   22.3269   22.5659   23.6072   23.7296   23.7296   23.8918
   24.0655   24.1408   24.1408   24.4032   24.9662   24.9662   25.2919   25.4553   25.5492   25.5492
   25.9655   27.0695   28.0161   28.0859   28.1796   28.1796   28.4956   28.4956   28.6418   28.6418
   30.9923   33.3391   33.3391   33.3450   34.2921   34.2921   34.5550   34.5550   35.1433   35.6030
   36.4311   36.4311   37.0940   37.5152   37.5153   38.1743   38.1743   38.4147   38.4147   38.5696
   38.5696   38.9899   39.2566   39.2566   39.5918   39.5918   39.8015   40.2343   40.2343   40.4069
   40.8181   41.0778   41.1782   41.2969   41.2969   41.6423   41.7173   41.7426   41.7426   42.1417
   42.1417   43.0292   43.1792   44.6554   44.6554   44.7152   44.7341   44.8522   44.8522   44.9288
   45.1183   45.9283   45.9379   46.3114   46.4972   46.4973   46.6751   46.6894   46.6894   46.7024
   46.7024   47.0506   47.0506   47.8131   48.0589   48.0589   48.2042   48.7820   48.7820   49.1277
   49.4589   49.4589   49.5203   49.6670   49.6670   50.8546   50.8591   50.8591   51.2751   51.2751
   51.6064   51.6064   52.9618   53.6663   54.4450   54.6266   54.6266   54.8866   55.1098   55.5425
   56.5548   56.5548   56.6793   56.6794   56.7628   56.7628   57.6494   57.6494   57.8905   57.8905
   58.3864   58.3864   58.7587   58.9222   58.9222   59.3235   59.5293   60.1162   60.1162   61.0254
   61.0254   61.8180   61.9382   61.9382   61.9509   62.1271   62.1271   62.9926   63.3423   63.6107
   63.6107   63.8014   63.8014   63.9193   65.0142   65.0142   65.1033   65.5330   65.5331   66.1601
   66.1601   66.2586   66.2587   66.4133   67.7574   68.1630   68.6753   68.6754   69.4205   70.0293
   70.8480   71.1060   71.2329   71.3721   71.6057   71.8535   72.9509   72.9509   74.4199   74.4200
   75.8674   75.8674   75.9990   76.0541   76.0541   79.7362   81.1220   88.7790   88.7791   90.7564
   90.9281   92.9662   92.9664   93.4917   93.4917   96.5011   97.3419   97.3420   99.9555   99.9555
  102.3056  102.3057  102.5273  103.8576  103.8578  104.3276  104.3278  104.7692  107.1986  107.1986
  107.2243  107.3458  107.3459  108.9025  108.9029  109.4201  110.5334  111.3751  111.3752  111.5788
  112.0661  112.1210  112.1214  114.2864  115.6441  115.6445  116.9370  116.9374  118.5082  118.8521
  118.8524  119.0272  119.1116  121.7456  121.7464  123.2955  125.6146  125.6149  127.2018  127.2020
  130.8793  132.6192  132.6195  136.3277  136.3288  141.6561  141.8394  141.8410
   4  1  -25.7821  -25.5229  -25.1283  -25.1283  -24.8788  -24.8788  -23.2060  -23.2060  -22.9873  -22.9872
         -21.9718  -21.7733  -21.4012  -21.4012  -21.2232  -21.2231  -20.5510  -20.4537  -19.5139  -19.4474
  -19.2944  -19.2942  -19.1512  -19.1510  -17.2226  -17.1589  -16.1997  -16.1997  -16.1147  -16.1147
  -15.6186  -15.5733  -14.9182  -14.8428  -14.4164  -14.1565  -14.1565  -14.0998  -14.0997  -13.6319
  -13.6319  -13.5905  -13.5902  -13.5373  -13.5370  -13.1443  -13.1440  -13.0908  -13.0905  -12.6511
  -11.9256  -11.9256  -11.7571  -11.7568  -11.7125  -11.7122  -11.4385  -11.4097  -11.3752  -11.3752
  -10.7634  -10.7373   -9.9719   -9.8851   -9.8851   -9.5646   -9.5646   -8.7571   -8.6633   -8.6552
   -8.6552   -8.1421   -5.1992   -4.9156   -4.9097   -4.9097   -4.2030   -4.2030   -4.0953   -3.5488
   -2.4701   -2.4701   -1.9073   -1.9073   -1.2272   -0.3663   -0.3662    1.3474    1.3474    1.4514
    1.4515    1.7010    1.7010    1.8046    1.8047    2.0384    2.1352    2.1926    2.1929    2.2836
    2.2837    2.3728    2.3731    3.1647    3.1828    3.2354    3.2766    3.3843    3.5272    3.5273
    3.6472    3.8837    3.9094    3.9095    4.6588    4.7249    4.7249    4.7783    4.7788    4.8753
    4.8758    5.1705    5.1705    5.3398    5.5980    5.6860    6.0933    6.1323    6.1325    6.1524
    6.1524    6.1876    6.3114    6.4476    6.7213    6.7215    6.7723    6.7724    6.7818    7.0532
    7.1891    7.5623    7.5623    7.8719    7.9262    8.5185    8.5186    8.8103    8.8104    9.6687
    9.6687   10.2947   10.2947   10.8283   11.6343   11.6344   11.7204   12.2205   12.2208   12.6582
   12.6590   12.9722   13.0015   13.2075   13.3672   13.3674   13.4684   13.4685   13.7066   13.7227
   14.2161   14.2164   14.4152   14.5283   14.5286   14.5750   14.5753   14.8883   14.8977   14.8977
   14.9639   14.9639   16.0176   16.1694   16.1694   16.4711   16.6108   16.6108   16.8037   16.9046
   17.4964   17.4970   17.5709   17.5712   18.0296   18.5920   18.6460   18.9643   19.0833   19.0833
   19.4057   19.4061   19.8253   19.8253   19.8549   19.8549   19.9181   20.0796   20.3044   20.3044
   20.7067   20.7071   20.9064   21.1272   21.1272   21.3405   21.5144   21.5149   21.6851   21.7170
   22.1795   22.1799   22.3350   22.3350   22.5036   22.5037   22.5300   22.9769   23.5281   23.5281
   24.3727   24.3727   24.6874   24.7529   24.7530   24.9900   25.1141   25.6331   25.6331   25.7235
   26.3429   26.3429   26.5796   26.9000   26.9002   27.3969   27.3970   27.6005   28.7018   29.2101
   29.2102   32.2672   33.2465   33.2469   33.6425   34.6550   35.7473   36.5424   36.5504   36.5505
   36.6263   36.6271   36.9064   36.9069   37.5347   37.9645   37.9646   38.0815   38.0818   38.9488
   39.9791   39.9792   40.3282   40.3285   40.7873   40.7878   41.3152   41.4732   41.6553   41.6557
   42.0032   42.0832   42.0839   42.4567   42.4575   42.6468   42.6468   42.7848   42.7848   42.8160
   42.8165   42.9104   42.9109   43.0134   43.3081   43.6048   43.7031   43.7112   43.7113   43.8709
   44.3308   44.3317   44.6023   44.7857   44.8450   45.0526   45.0528   45.3995   45.6571   45.6740
   45.8487   45.8491   46.6016   47.0175   47.0175   47.5874   47.5874   47.9007   47.9010   48.4290
   48.4295   48.7402   48.7902   48.9939   48.9939   49.1045   49.6280   50.5618   51.6635   51.9075
   51.9076   52.1128   52.1130   52.1829   52.2754   52.2755   52.7933   52.7934   53.2622   53.2623
   53.3159   54.8184   54.8184   55.9749   55.9750   56.8072   57.4995   58.4503   58.5394   58.5395
   58.5474   58.5475   59.1622   59.1625   59.1993   59.5680   59.7477   60.6089   60.6090   60.7276
   61.3932   61.3943   61.5811   62.2688   62.2994   62.3006   62.6534   62.6926   62.6929   62.7725
   64.0460   64.0464   65.1372   65.1377   65.3371   65.7333   65.7334   66.8321   66.8326   67.2535
   67.2536   67.6710   67.7784   67.7789   68.7819   68.7916   68.7918   69.5370   69.5373   70.0130
   70.0154   70.6284   72.0005   72.2002   72.2004   72.7608   73.1582   73.4882   73.5700   75.0566
   75.0576   75.9070   79.0531   81.6564   81.8041   81.8071   81.8878   81.8897   82.6970   88.8892
   88.8903   93.4305   93.4308   94.9739   96.2126   96.2131   96.3461   96.3484   98.5259   98.5285
   99.5506   99.5521  101.0990  102.4791  102.4800  103.6019  103.6020  104.2759  104.3292  105.1038
  105.1724  105.1730  106.5935  108.3481  108.3488  110.5295  110.5326  111.0889  111.6944  112.8575
  112.8587  113.1318  113.1322  115.3149  115.3172  115.6707  115.8314  116.6864  116.6867  116.7634
  116.7637  117.2679  117.3263  119.8323  120.2433  121.6100  121.6108  123.5013  123.5016  123.8064
  125.3381  130.5783  132.7011  132.7025  134.6327  134.6341  137.2903  139.7609
   5  1  -26.1077  -25.8471  -24.8032  -24.5589  -24.1582  -24.1582  -23.9244  -23.9244  -22.8924  -22.8923
         -22.6786  -22.6786  -22.2768  -22.0740  -20.5374  -20.5373  -20.3754  -20.3753  -18.6554  -18.6553
  -18.5486  -18.5485  -18.4574  -18.3145  -17.3519  -17.3518  -17.2276  -17.2275  -16.3393  -16.3391
  -16.2604  -16.2603  -15.2204  -15.2202  -15.1333  -15.1331  -14.8135  -14.1408  -14.0643  -13.2660
  -13.2657  -13.2462  -13.2127  -13.2124  -13.0204  -12.9472  -12.9036  -12.6376  -12.6373  -12.5854
  -12.5850  -12.4855  -12.4855  -11.7579  -11.7059  -11.5728  -11.0441  -11.0441  -10.8813  -10.8813
  -10.4194  -10.4126  -10.3791  -10.1066  -10.0660   -9.6321   -9.6321   -9.1810   -8.4574   -8.4574
   -7.5410   -7.5410   -5.5454   -5.5454   -5.0538   -5.0538   -4.2167   -3.3199   -3.2708   -3.2708
   -2.4483   -2.4483   -1.6072   -0.9506   -0.9506   -0.3455   -0.3455    0.0540    0.4163    0.8161
    0.9383    0.9476    0.9477    1.1420    1.4296    1.6192    1.6194    1.6708    1.7170    1.7810
    1.9142    1.9144    1.9456    1.9459    2.2364    2.2367    2.3270    2.3678    2.8060    2.8060
    3.6004    4.1846    4.3442    4.4059    5.1658    5.1659    5.4893    5.5194    5.5194    5.8925
    5.8925    5.9276    5.9276    6.1530    6.1530    6.3444    6.4416    6.4834    6.4835    6.5438
    6.5438    6.7543    6.7543    6.7656    6.7870    6.7871    6.7983    7.1646    7.1650    7.4356
    7.6377    7.8209    7.8210    8.3314    8.8541    8.8543    9.0441    9.6208    9.6212   10.1269
   10.1271   10.8789   10.9396   10.9396   11.0038   11.0038   11.3562   11.3564   11.4802   11.4808
   12.2215   12.2371   12.5028   12.7783   12.8252   12.8253   13.0901   13.0902   13.2499   13.2499
   13.5959   13.5959   13.6938   14.0365   14.0366   14.3597   14.3602   14.3807   15.3279   15.3280
   15.6501   15.7651   15.7652   16.6489   16.6493   16.7567   16.7567   16.9982   16.9985   17.0829
   17.2646   17.4035   17.4035   17.8703   17.8705   17.8900   18.1692   18.1694   18.2545   18.9312
   18.9313   19.5983   19.6510   19.7136   19.9719   19.9719   20.2934   20.3163   20.3166   20.8590
   20.8590   20.8746   20.8746   21.0987   21.1100   21.1100   21.1135   21.3162   21.3163   21.4629
   21.8236   21.9559   21.9559   22.3269   22.3275   22.5651   23.6072   23.7297   23.7302   23.8919
   24.0656   24.1408   24.1408   24.4031   24.9662   24.9663   25.2920   25.4553   25.5492   25.5493
   25.9654   27.0690   28.0156   28.0860   28.1794   28.1798   28.4956   28.4956   28.6420   28.6423
   30.9917   33.3389   33.3391   33.3457   34.2921   34.2924   34.5550   34.5551   35.1433   35.6030
   36.4311   36.4312   37.0952   37.5153   37.5157   38.1734   38.1745   38.4147   38.4148   38.5696
   38.5696   38.9898   39.2566   39.2566   39.5910   39.5913   39.8017   40.2331   40.2342   40.4083
   40.8179   41.0778   41.1796   41.2966   41.2971   41.6425   41.7171   41.7426   41.7426   42.1415
   42.1416   43.0294   43.1785   44.6550   44.6557   44.7159   44.7326   44.8522   44.8522   44.9277
   45.1200   45.9300   45.9364   46.3108   46.4975   46.4978   46.6749   46.6894   46.6895   46.7024
   46.7025   47.0505   47.0506   47.8126   48.0591   48.0592   48.2041   48.7822   48.7825   49.1279
   49.4591   49.4591   49.5200   49.6670   49.6671   50.8544   50.8589   50.8592   51.2751   51.2752
   51.6062   51.6065   52.9621   53.6661   54.4448   54.6267   54.6268   54.8869   55.1094   55.5422
   56.5547   56.5548   56.6793   56.6795   56.7628   56.7629   57.6494   57.6494   57.8905   57.8906
   58.3863   58.3864   58.7585   58.9220   58.9221   59.3233   59.5293   60.1163   60.1163   61.0250
   61.0254   61.8175   61.9380   61.9381   61.9524   62.1270   62.1274   62.9934   63.3440   63.6106
   63.6107   63.8007   63.8018   63.9192   65.0140   65.0143   65.1037   65.5314   65.5329   66.1599
   66.1602   66.2574   66.2578   66.4137   67.7558   68.1629   68.6733   68.6748   69.4235   70.0324
   70.8510   71.1054   71.2356   71.3695   71.6038   71.8521   72.9503   72.9509   74.4208   74.4218
   75.8673   75.8674   75.9973   76.0540   76.0541   79.7372   81.1190   88.7809   88.7821   90.7550
   90.9257   92.9649   92.9677   93.4923   93.4941   96.4983   97.3413   97.3444   99.9545   99.9548
  102.3050  102.3058  102.5259  103.8572  103.8583  104.3269  104.3285  104.7687  107.1990  107.1999
  107.2283  107.3459  107.3463  108.8998  108.9026  109.4235  110.5316  111.3747  111.3753  111.5814
  112.0650  112.1196  112.1216  114.2852  115.6441  115.6446  116.9358  116.9373  118.5123  118.8517
  118.8528  119.0271  119.1109  121.7439  121.7478  123.2956  125.6129  125.6132  127.2015  127.2019
  130.8822  132.6192  132.6201  136.3278  136.3288  141.6558  141.8382  141.8390
   6  1  -26.2658  -26.0098  -23.6790  -23.6790  -23.6790  -23.6790  -23.6790  -23.6790  -23.4527  -23.4527
         -23.4527  -23.4527  -23.4527  -23.4527  -19.3308  -19.3308  -19.2444  -19.2444  -19.2444  -19.2444
  -19.1627  -19.1627  -17.1844  -17.1844  -17.1844  -17.1844  -16.3497  -16.3497  -16.3497  -16.3497
  -16.3495  -16.3495  -16.2395  -16.2395  -16.2395  -16.2395  -16.2393  -16.2393  -15.0132  -13.2064
  -12.4810  -12.4810  -12.4807  -12.4807  -12.4807  -12.4807  -12.4338  -12.4338  -12.4335  -12.4335
  -12.4335  -12.4335  -11.9357  -11.9357  -11.9357  -11.9357  -11.9357  -11.9357  -10.3993  -10.3993
  -10.3993  -10.3993  -10.3993  -10.3993   -9.7665   -9.7659   -9.7425   -9.7420   -7.2189   -7.2189
   -6.6568   -6.6568   -6.6568   -6.6568   -5.9955   -5.9955   -2.0610   -2.0610   -2.0610   -2.0610
   -2.0610   -2.0610   -1.7336   -1.2584   -1.2584   -1.2584   -1.2584   -1.2584   -1.2584    1.0410
    1.0410    1.0410    1.0410    1.0412    1.0413    1.2585    1.2585    1.2585    1.2585    1.2587
    1.2587    1.6273    1.6280    1.6686    1.6693    1.8105    1.8105    1.8105    1.8105    1.8105
    1.8105    4.2442    4.7470    4.8819    5.6868    5.6868    5.6868    5.6868    5.8721    5.8721
    6.0442    6.1273    6.3732    6.3732    6.3734    6.3734    6.3930    6.3930    6.3930    6.3930
    6.3930    6.3930    8.2173    8.2173    8.7180    8.7180    8.7180    8.7180    8.7184    8.7184
    9.2550    9.2550    9.2553    9.2553    9.6431    9.6431    9.6439    9.6439    9.6439    9.6439
    9.6710    9.6710    9.6718    9.6718    9.6718    9.6718   10.8471   10.8471   10.8471   10.8471
   10.8476   10.8476   12.0132   12.0132   12.6849   12.8527   12.8527   12.8527   12.8527   12.8527
   12.8527   13.7296   13.7296   14.2387   14.2387   14.2387   14.2387   14.2390   14.2390   15.5686
   15.5686   15.5686   15.5686   16.5218   16.5218   16.5218   16.5218   16.5222   16.5222   18.1752
   18.1752   18.1752   18.1752   18.1937   18.1937   18.1938   18.1938   18.1938   18.1938   19.3886
   19.3886   19.3887   19.3887   19.4172   19.4172   19.4172   19.4172   19.4172   19.4172   19.8244
   19.9466   20.4787   20.4787   20.4788   20.4788   20.4788   20.4788   20.7361   22.5228   22.5228
   22.5228   22.5228   22.5237   22.5237   23.7218   23.7218   24.7035   24.7035   24.7035   24.7035
   24.7035   24.7035   25.0733   25.0734   25.5079   25.5079   25.5080   25.5080   25.5080   25.5080
   26.0326   26.0327   27.8425   27.8425   27.8425   27.8425   27.8432   27.8432   29.3840   29.3840
   32.1342   32.1342   32.1342   32.1342   32.1345   32.1345   33.3755   33.3755   33.3757   33.3757
   36.7459   36.7459   36.7470   36.7470   36.7470   36.7470   38.3837   38.3837   38.3837   38.3837
   38.3838   38.3838   38.8936   38.8936   38.8949   38.8949   38.8949   38.8949   39.7873   39.7876
   40.6526   40.6526   40.8302   40.8304   42.0389   42.0389   42.0389   42.0389   44.6418   44.6418
   44.6419   44.6419   44.6424   44.6424   45.8138   45.8138   45.8142   45.8142   45.8142   45.8142
   46.0315   46.0339   46.2467   46.2467   46.2467   46.2467   46.2474   46.2474   46.5440   46.5466
   48.1180   48.1183   49.6620   49.6620   49.6620   49.6620   49.6622   49.6622   51.2945   51.2945
   51.4047   51.4047   51.4047   51.4047   51.4815   51.4815   53.2414   53.2415   53.2415   53.2415
   53.2416   53.2417   54.1406   54.2393   54.2393   54.2393   54.2393   54.2395   54.2395   54.4156
   54.4161   56.7735   56.7735   58.3089   58.3090   58.8397   58.8397   58.8397   58.8397   58.8402
   58.8402   59.3366   59.6565   59.6565   59.6569   59.6569   59.7077   59.7077   59.7081   59.7081
   59.7081   59.7081   60.1084   60.7133   60.7133   60.7133   60.7134   60.7134   60.7135   61.5285
   61.5285   61.5289   61.5289   61.5289   61.5289   62.8817   62.8817   65.4368   65.4368   65.4389
   65.4389   65.4390   65.4391   67.7432   67.7432   67.7457   67.7457   67.7457   67.7458   69.6370
   69.6411   69.8835   69.8876   71.4771   71.4771   71.4771   71.4772   71.4783   71.4783   74.2293
   77.6919   77.6919   77.6919   77.6919   86.2396   86.2397   86.2398   86.2399   86.2423   86.2423
   94.6514   94.6514   94.6514   94.6514   94.6539   94.6539  101.9333  101.9356  103.9366  103.9367
  103.9368  103.9368  103.9374  103.9376  104.0182  104.0203  104.3191  104.3191  104.3226  104.3227
  104.3229  104.3232  108.1042  108.1042  108.1044  108.1044  110.5101  110.5101  110.5102  110.5103
  110.5111  110.5113  118.2272  118.2273  118.2274  118.2274  118.2275  118.2275  119.3112  121.1819
  121.1820  121.1854  121.1856  121.1860  121.1864  125.4433  125.4435  127.4536  127.4537  127.4541
  127.4541  132.2463  132.2465  147.5096  163.2898  163.2904  163.2920  163.2928
   7  1  -25.6184  -25.6184  -25.3613  -25.3613  -24.3189  -24.3189  -24.0827  -24.0827  -21.8234  -21.8234
         -21.8233  -21.8233  -21.6286  -21.6286  -21.6285  -21.6285  -20.9730  -20.8713  -19.9189  -19.8424
  -18.1221  -18.1221  -18.1219  -18.1219  -17.9940  -17.9940  -17.9939  -17.9939  -14.7343  -14.7343
  -14.7340  -14.7340  -14.6624  -14.6624  -14.6622  -14.6622  -14.4605  -14.4605  -14.4194  -14.4194
  -14.2191  -14.2191  -13.1074  -13.0970  -13.0970  -13.0653  -13.0653  -13.0651  -12.6710  -12.6710
  -12.4682  -12.4682  -12.0482  -12.0482  -11.9928  -11.9928  -11.0453  -11.0453  -10.8913  -10.8913
  -10.8386  -10.8386   -9.8561   -9.8561   -9.8561   -9.8561   -9.3527   -8.7253   -8.6437   -8.6437
   -8.6437   -8.6437   -5.0912   -4.4727   -4.4147   -4.4147   -4.4147   -4.4147   -3.7400   -3.7400
   -3.7400   -3.7400   -1.0230   -1.0230   -0.4263   -0.4263   -0.0110   -0.0110    0.7264    0.7604
    0.7604    1.0738    1.7003    1.7003    1.8343    1.8343    2.6528    2.6528    2.9231    2.9231
    3.2703    3.2703    3.2703    3.2703    3.3645    3.3645    3.5779    3.5779    3.6811    3.6812
    3.6812    3.6812    4.1804    4.1804    4.1804    4.1804    4.1856    4.1856    4.2231    4.2231
    4.8118    4.8118    4.9360    4.9360    5.0616    5.0616    5.4491    5.6491    5.6491    5.9244
    6.5692    6.5692    6.5692    6.5692    6.9597    6.9597    6.9597    6.9597    7.2349    7.2349
    7.4585    7.4585    8.1409    8.5637    8.5637    8.5637    8.5637    9.1403    9.1403    9.1405
    9.1406    9.9290   10.6763   10.6763   11.0442   11.0442   12.2103   12.2103   12.2105   12.2105
   13.0329   13.0329   13.1216   13.1216   13.3693   13.3777   13.4223   13.9283   13.9283   13.9283
   13.9283   13.9399   13.9399   14.1712   14.1782   14.1782   14.1786   14.1786   15.3100   15.3100
   15.3100   15.3100   16.8426   16.8426   16.8426   16.8426   16.9531   16.9630   16.9630   17.3207
   17.3207   17.3210   17.3210   17.8387   17.9007   18.3041   18.3041   18.3359   18.3359   18.5324
   18.5324   19.3394   19.3394   19.3394   19.3394   19.3728   20.2036   20.2036   20.2041   20.2041
   20.4249   20.4249   20.5746   21.6468   21.6468   21.7263   21.7264   21.9430   21.9430   21.9430
   21.9430   22.8340   22.8340   22.8832   22.8832   22.9768   22.9768   23.1108   23.4851   23.4851
   23.4913   23.5665   23.5665   25.5853   25.5853   25.5853   25.5853   25.6885   25.6885   25.8472
   25.8472   26.5749   26.5750   26.5750   26.5750   27.4691   27.4691   27.9790   28.2482   28.2483
   30.8052   31.8694   32.5797   32.5797   34.4647   34.4647   34.4650   34.4650   36.3529   36.9678
   36.9679   36.9679   36.9680   38.2847   38.2847   38.2848   38.2848   38.8207   38.8207   39.8692
   39.8692   40.3405   40.3661   40.3661   40.7008   40.7008   41.7264   41.7264   41.7265   41.7265
   42.2851   42.2851   42.2855   42.2855   42.3763   42.3763   42.8510   42.8510   43.0136   43.0136
   43.0309   43.0309   43.2648   43.2648   43.2649   43.2649   43.4055   43.4055   43.8442   43.8442
   43.9387   43.9387   44.2626   44.2626   44.3161   44.3161   44.5186   44.8266   44.8266   45.1849
   45.1849   45.2890   46.2701   46.2701   46.4985   46.4985   46.8899   48.2311   48.2311   48.2312
   48.2312   48.2434   48.2434   48.4878   49.1635   49.1635   49.1637   49.1637   51.1155   51.1155
   51.1157   51.1157   52.8158   53.7312   53.8251   53.8252   54.2694   54.2694   55.3165   55.5105
   55.5105   55.5106   55.5106   56.1779   56.1779   57.1576   57.1576   57.1577   57.1577   57.8422
   57.8422   58.7739   58.7739   59.7896   60.3014   60.3014   60.5491   60.5491   60.5491   60.5491
   60.8953   61.1329   61.9244   61.9244   62.2370   62.2370   62.2373   62.2373   63.2478   63.2479
   64.3898   64.3898   64.4462   64.4462   64.5848   64.5848   64.5852   64.5852   65.7446   65.7446
   67.2934   68.1181   68.2422   68.2422   70.4729   70.4730   70.8558   71.0253   71.0253   71.1310
   71.1310   71.1312   71.1312   71.7012   71.7013   71.7015   71.7015   72.2889   72.2889   75.6301
   75.6301   79.8704   79.8704   79.8705   79.8705   83.4563   83.4564   83.6411   83.6411   85.1864
   85.1864   90.9274   90.9274   94.3901   94.3901   94.8296   96.4997   96.7481   96.7481  100.7756
  102.5850  102.5851  102.8443  102.8443  102.8469  102.8469  103.0792  103.0792  103.0821  103.0821
  104.7620  104.7621  107.7064  107.7064  107.7076  107.7077  111.1540  113.5763  113.5763  113.5786
  113.5787  113.8885  113.8887  114.2633  115.9512  115.9513  115.9519  115.9521  116.5037  118.9866
  118.9866  120.8853  120.8853  121.1315  121.1316  121.1319  121.1321  121.5274  126.7967  126.7968
  127.4663  127.4665  127.4686  127.4687  130.5139  130.5139  136.0049  136.0051
   8  1  -25.7821  -25.5229  -25.1283  -25.1283  -24.8788  -24.8788  -23.2060  -23.2060  -22.9873  -22.9872
         -21.9718  -21.7733  -21.4012  -21.4012  -21.2232  -21.2231  -20.5510  -20.4537  -19.5139  -19.4474
  -19.2944  -19.2942  -19.1512  -19.1510  -17.2226  -17.1589  -16.1997  -16.1997  -16.1147  -16.1147
  -15.6186  -15.5733  -14.9182  -14.8428  -14.4164  -14.1565  -14.1565  -14.0998  -14.0997  -13.6319
  -13.6319  -13.5905  -13.5902  -13.5373  -13.5370  -13.1443  -13.1440  -13.0908  -13.0905  -12.6511
  -11.9256  -11.9256  -11.7571  -11.7568  -11.7125  -11.7122  -11.4385  -11.4097  -11.3752  -11.3752
  -10.7634  -10.7373   -9.9719   -9.8851   -9.8851   -9.5646   -9.5646   -8.7571   -8.6633   -8.6552
   -8.6552   -8.1421   -5.1992   -4.9156   -4.9097   -4.9097   -4.2030   -4.2030   -4.0953   -3.5488
   -2.4701   -2.4701   -1.9073   -1.9073   -1.2272   -0.3663   -0.3662    1.3474    1.3474    1.4514
    1.4515    1.7010    1.7010    1.8046    1.8047    2.0384    2.1352    2.1926    2.1929    2.2836
    2.2837    2.3728    2.3731    3.1647    3.1828    3.2354    3.2766    3.3843    3.5272    3.5273
    3.6472    3.8837    3.9094    3.9095    4.6588    4.7249    4.7249    4.7783    4.7788    4.8753
    4.8758    5.1705    5.1705    5.3398    5.5980    5.6860    6.0933    6.1323    6.1325    6.1524
    6.1524    6.1876    6.3114    6.4476    6.7213    6.7215    6.7723    6.7724    6.7818    7.0532
    7.1891    7.5623    7.5623    7.8719    7.9262    8.5185    8.5186    8.8103    8.8104    9.6687
    9.6687   10.2947   10.2947   10.8283   11.6343   11.6344   11.7204   12.2205   12.2208   12.6582
   12.6590   12.9722   13.0015   13.2075   13.3672   13.3674   13.4684   13.4685   13.7066   13.7227
   14.2161   14.2164   14.4152   14.5283   14.5286   14.5750   14.5753   14.8883   14.8977   14.8977
   14.9639   14.9639   16.0176   16.1694   16.1694   16.4711   16.6108   16.6108   16.8037   16.9046
   17.4964   17.4970   17.5709   17.5712   18.0296   18.5920   18.6460   18.9643   19.0833   19.0833
   19.4057   19.4061   19.8253   19.8253   19.8549   19.8549   19.9181   20.0796   20.3044   20.3044
   20.7067   20.7071   20.9064   21.1272   21.1272   21.3405   21.5144   21.5149   21.6851   21.7170
   22.1795   22.1799   22.3350   22.3350   22.5036   22.5037   22.5300   22.9769   23.5281   23.5281
   24.3727   24.3727   24.6874   24.7529   24.7530   24.9900   25.1141   25.6331   25.6331   25.7235
   26.3429   26.3429   26.5796   26.9000   26.9002   27.3969   27.3970   27.6005   28.7018   29.2101
   29.2102   32.2672   33.2465   33.2469   33.6425   34.6550   35.7473   36.5424   36.5504   36.5505
   36.6263   36.6271   36.9064   36.9069   37.5347   37.9645   37.9646   38.0815   38.0818   38.9488
   39.9791   39.9792   40.3282   40.3285   40.7873   40.7878   41.3152   41.4732   41.6553   41.6557
   42.0032   42.0832   42.0839   42.4567   42.4575   42.6468   42.6468   42.7848   42.7848   42.8160
   42.8165   42.9104   42.9109   43.0134   43.3081   43.6048   43.7031   43.7112   43.7113   43.8709
   44.3308   44.3317   44.6023   44.7857   44.8450   45.0526   45.0528   45.3995   45.6571   45.6740
   45.8487   45.8491   46.6016   47.0175   47.0175   47.5874   47.5874   47.9007   47.9010   48.4290
   48.4295   48.7402   48.7902   48.9939   48.9939   49.1045   49.6280   50.5618   51.6635   51.9075
   51.9076   52.1128   52.1130   52.1829   52.2754   52.2755   52.7933   52.7934   53.2622   53.2623
   53.3159   54.8184   54.8184   55.9749   55.9750   56.8072   57.4995   58.4503   58.5394   58.5395
   58.5474   58.5475   59.1622   59.1625   59.1993   59.5680   59.7477   60.6089   60.6090   60.7276
   61.3932   61.3943   61.5811   62.2688   62.2994   62.3006   62.6534   62.6926   62.6929   62.7725
   64.0460   64.0464   65.1372   65.1377   65.3371   65.7333   65.7334   66.8321   66.8326   67.2535
   67.2536   67.6710   67.7784   67.7789   68.7819   68.7916   68.7918   69.5370   69.5373   70.0130
   70.0154   70.6284   72.0005   72.2002   72.2004   72.7608   73.1582   73.4882   73.5700   75.0566
   75.0576   75.9070   79.0531   81.6564   81.8041   81.8071   81.8878   81.8897   82.6970   88.8892
   88.8903   93.4305   93.4308   94.9739   96.2126   96.2131   96.3461   96.3484   98.5259   98.5285
   99.5506   99.5521  101.0990  102.4791  102.4800  103.6019  103.6020  104.2759  104.3292  105.1038
  105.1724  105.1730  106.5935  108.3481  108.3488  110.5295  110.5326  111.0889  111.6944  112.8575
  112.8587  113.1318  113.1322  115.3149  115.3172  115.6707  115.8314  116.6864  116.6867  116.7634
  116.7637  117.2679  117.3263  119.8323  120.2433  121.6100  121.6108  123.5013  123.5016  123.8064
  125.3381  130.5783  132.7011  132.7025  134.6327  134.6341  137.2903  139.7609
   9  1  -25.7821  -25.5229  -25.1283  -25.1283  -24.8788  -24.8788  -23.2060  -23.2060  -22.9873  -22.9872
         -21.9718  -21.7733  -21.4012  -21.4012  -21.2232  -21.2231  -20.5510  -20.4537  -19.5139  -19.4474
  -19.2944  -19.2942  -19.1512  -19.1510  -17.2226  -17.1589  -16.1997  -16.1997  -16.1147  -16.1147
  -15.6186  -15.5733  -14.9182  -14.8428  -14.4164  -14.1565  -14.1565  -14.0998  -14.0997  -13.6319
  -13.6319  -13.5905  -13.5902  -13.5373  -13.5370  -13.1443  -13.1440  -13.0908  -13.0905  -12.6511
  -11.9256  -11.9256  -11.7571  -11.7568  -11.7125  -11.7122  -11.4385  -11.4097  -11.3752  -11.3752
  -10.7634  -10.7373   -9.9719   -9.8851   -9.8851   -9.5646   -9.5646   -8.7571   -8.6633   -8.6552
   -8.6552   -8.1421   -5.1992   -4.9156   -4.9097   -4.9097   -4.2030   -4.2030   -4.0953   -3.5488
   -2.4701   -2.4701   -1.9073   -1.9073   -1.2272   -0.3663   -0.3662    1.3474    1.3474    1.4514
    1.4515    1.7010    1.7010    1.8046    1.8047    2.0384    2.1352    2.1926    2.1929    2.2836
    2.2837    2.3728    2.3731    3.1647    3.1828    3.2354    3.2766    3.3843    3.5272    3.5273
    3.6472    3.8837    3.9094    3.9095    4.6588    4.7249    4.7249    4.7783    4.7788    4.8753
    4.8758    5.1705    5.1705    5.3398    5.5980    5.6860    6.0933    6.1323    6.1325    6.1524
    6.1524    6.1876    6.3114    6.4476    6.7213    6.7215    6.7723    6.7724    6.7818    7.0532
    7.1891    7.5623    7.5623    7.8719    7.9262    8.5185    8.5186    8.8103    8.8104    9.6687
    9.6687   10.2947   10.2947   10.8283   11.6343   11.6344   11.7204   12.2205   12.2208   12.6582
   12.6590   12.9722   13.0015   13.2075   13.3672   13.3674   13.4684   13.4685   13.7066   13.7227
   14.2161   14.2164   14.4152   14.5283   14.5286   14.5750   14.5753   14.8883   14.8977   14.8977
   14.9639   14.9639   16.0176   16.1694   16.1694   16.4711   16.6108   16.6108   16.8037   16.9046
   17.4964   17.4970   17.5709   17.5712   18.0296   18.5920   18.6460   18.9643   19.0833   19.0833
   19.4057   19.4061   19.8253   19.8253   19.8548   19.8549   19.9181   20.0796   20.3044   20.3044
   20.7067   20.7071   20.9064   21.1272   21.1272   21.3405   21.5144   21.5149   21.6851   21.7170
   22.1795   22.1799   22.3350   22.3350   22.5036   22.5037   22.5300   22.9769   23.5281   23.5281
   24.3727   24.3727   24.6874   24.7529   24.7530   24.9900   25.1141   25.6331   25.6331   25.7235
   26.3429   26.3429   26.5796   26.9000   26.9002   27.3969   27.3970   27.6005   28.7018   29.2101
   29.2102   32.2672   33.2465   33.2469   33.6425   34.6550   35.7473   36.5424   36.5504   36.5505
   36.6263   36.6271   36.9064   36.9069   37.5347   37.9645   37.9645   38.0815   38.0818   38.9488
   39.9791   39.9792   40.3282   40.3285   40.7873   40.7878   41.3151   41.4732   41.6553   41.6557
   42.0032   42.0832   42.0839   42.4567   42.4575   42.6468   42.6468   42.7848   42.7848   42.8160
   42.8165   42.9104   42.9109   43.0134   43.3081   43.6048   43.7031   43.7112   43.7113   43.8709
   44.3308   44.3317   44.6023   44.7858   44.8450   45.0526   45.0528   45.3995   45.6571   45.6740
   45.8487   45.8491   46.6016   47.0175   47.0175   47.5874   47.5874   47.9007   47.9010   48.4290
   48.4295   48.7402   48.7902   48.9939   48.9939   49.1045   49.6280   50.5618   51.6635   51.9075
   51.9076   52.1128   52.1130   52.1829   52.2754   52.2755   52.7933   52.7934   53.2622   53.2623
   53.3159   54.8183   54.8184   55.9749   55.9750   56.8072   57.4995   58.4503   58.5394   58.5395
   58.5474   58.5475   59.1622   59.1624   59.1993   59.5680   59.7477   60.6089   60.6090   60.7275
   61.3932   61.3944   61.5811   62.2688   62.2994   62.3007   62.6534   62.6926   62.6929   62.7724
   64.0460   64.0464   65.1372   65.1377   65.3371   65.7333   65.7334   66.8321   66.8325   67.2535
   67.2536   67.6710   67.7785   67.7789   68.7819   68.7916   68.7918   69.5370   69.5373   70.0130
   70.0154   70.6284   72.0005   72.2003   72.2004   72.7608   73.1582   73.4882   73.5701   75.0566
   75.0576   75.9070   79.0531   81.6564   81.8042   81.8071   81.8878   81.8895   82.6971   88.8892
   88.8903   93.4305   93.4309   94.9740   96.2127   96.2130   96.3463   96.3484   98.5260   98.5285
   99.5505   99.5520  101.0990  102.4790  102.4798  103.6020  103.6021  104.2759  104.3291  105.1038
  105.1721  105.1729  106.5937  108.3477  108.3489  110.5296  110.5330  111.0895  111.6943  112.8567
  112.8588  113.1317  113.1319  115.3149  115.3175  115.6709  115.8315  116.6857  116.6865  116.7635
  116.7639  117.2672  117.3258  119.8329  120.2434  121.6100  121.6108  123.5013  123.5017  123.8064
  125.3392  130.5781  132.6998  132.7024  134.6324  134.6344  137.2915  139.7611
  10  1  -25.6184  -25.6184  -25.3613  -25.3613  -24.3189  -24.3189  -24.0827  -24.0827  -21.8234  -21.8234
         -21.8233  -21.8233  -21.6286  -21.6286  -21.6285  -21.6285  -20.9730  -20.8713  -19.9189  -19.8424
  -18.1221  -18.1221  -18.1219  -18.1219  -17.9940  -17.9940  -17.9939  -17.9939  -14.7343  -14.7343
  -14.7341  -14.7340  -14.6624  -14.6624  -14.6622  -14.6622  -14.4605  -14.4605  -14.4194  -14.4194
  -14.2191  -14.2191  -13.1074  -13.0970  -13.0970  -13.0653  -13.0653  -13.0651  -12.6710  -12.6710
  -12.4682  -12.4682  -12.0482  -12.0482  -11.9928  -11.9928  -11.0453  -11.0453  -10.8913  -10.8913
  -10.8386  -10.8386   -9.8561   -9.8561   -9.8561   -9.8561   -9.3527   -8.7253   -8.6437   -8.6437
   -8.6437   -8.6437   -5.0912   -4.4727   -4.4147   -4.4147   -4.4147   -4.4147   -3.7400   -3.7400
   -3.7400   -3.7400   -1.0230   -1.0230   -0.4263   -0.4263   -0.0110   -0.0110    0.7264    0.7604
    0.7604    1.0738    1.7003    1.7003    1.8343    1.8343    2.6528    2.6528    2.9231    2.9231
    3.2703    3.2703    3.2703    3.2703    3.3645    3.3645    3.5779    3.5779    3.6811    3.6811
    3.6812    3.6812    4.1804    4.1804    4.1804    4.1804    4.1856    4.1856    4.2231    4.2231
    4.8118    4.8118    4.9360    4.9360    5.0616    5.0616    5.4491    5.6491    5.6491    5.9244
    6.5692    6.5692    6.5692    6.5692    6.9597    6.9597    6.9597    6.9597    7.2349    7.2349
    7.4585    7.4585    8.1409    8.5637    8.5637    8.5637    8.5637    9.1403    9.1403    9.1405
    9.1406    9.9290   10.6763   10.6763   11.0442   11.0442   12.2103   12.2103   12.2105   12.2105
   13.0329   13.0329   13.1216   13.1216   13.3693   13.3777   13.4223   13.9283   13.9283   13.9283
   13.9283   13.9399   13.9399   14.1712   14.1782   14.1782   14.1786   14.1786   15.3100   15.3100
   15.3100   15.3100   16.8426   16.8426   16.8426   16.8426   16.9531   16.9630   16.9630   17.3207
   17.3207   17.3210   17.3210   17.8387   17.9007   18.3041   18.3041   18.3359   18.3359   18.5324
   18.5324   19.3394   19.3394   19.3394   19.3394   19.3728   20.2036   20.2036   20.2041   20.2041
   20.4249   20.4249   20.5746   21.6468   21.6468   21.7263   21.7264   21.9430   21.9430   21.9430
   21.9430   22.8340   22.8340   22.8832   22.8832   22.9768   22.9768   23.1108   23.4851   23.4851
   23.4913   23.5665   23.5665   25.5853   25.5853   25.5853   25.5853   25.6885   25.6885   25.8472
   25.8472   26.5749   26.5750   26.5750   26.5750   27.4691   27.4691   27.9790   28.2482   28.2482
   30.8052   31.8694   32.5797   32.5797   34.4647   34.4647   34.4650   34.4650   36.3529   36.9679
   36.9679   36.9679   36.9680   38.2847   38.2847   38.2848   38.2848   38.8207   38.8207   39.8692
   39.8692   40.3405   40.3661   40.3661   40.7008   40.7008   41.7264   41.7264   41.7265   41.7265
   42.2851   42.2851   42.2855   42.2855   42.3763   42.3763   42.8510   42.8510   43.0136   43.0136
   43.0309   43.0309   43.2648   43.2649   43.2649   43.2649   43.4055   43.4055   43.8442   43.8442
   43.9387   43.9387   44.2626   44.2626   44.3161   44.3161   44.5186   44.8266   44.8266   45.1849
   45.1849   45.2890   46.2701   46.2701   46.4985   46.4985   46.8900   48.2311   48.2311   48.2312
   48.2312   48.2434   48.2434   48.4878   49.1635   49.1635   49.1637   49.1637   51.1155   51.1155
   51.1157   51.1157   52.8158   53.7312   53.8251   53.8252   54.2694   54.2694   55.3165   55.5105
   55.5105   55.5106   55.5106   56.1778   56.1779   57.1576   57.1576   57.1577   57.1577   57.8422
   57.8422   58.7739   58.7739   59.7896   60.3014   60.3014   60.5491   60.5491   60.5491   60.5491
   60.8954   61.1330   61.9244   61.9244   62.2370   62.2370   62.2373   62.2373   63.2478   63.2478
   64.3898   64.3898   64.4463   64.4463   64.5848   64.5848   64.5852   64.5852   65.7446   65.7446
   67.2934   68.1181   68.2422   68.2423   70.4730   70.4730   70.8558   71.0253   71.0253   71.1310
   71.1310   71.1312   71.1312   71.7012   71.7013   71.7015   71.7015   72.2889   72.2889   75.6301
   75.6302   79.8704   79.8705   79.8705   79.8705   83.4563   83.4563   83.6409   83.6410   85.1864
   85.1864   90.9278   90.9279   94.3900   94.3900   94.8298   96.4999   96.7480   96.7480  100.7757
  102.5851  102.5851  102.8442  102.8442  102.8469  102.8469  103.0792  103.0792  103.0821  103.0821
  104.7617  104.7618  107.7065  107.7065  107.7075  107.7076  111.1544  113.5765  113.5766  113.5782
  113.5783  113.8876  113.8878  114.2637  115.9511  115.9513  115.9518  115.9519  116.5037  118.9867
  118.9867  120.8852  120.8852  121.1318  121.1319  121.1320  121.1321  121.5274  126.7977  126.7979
  127.4669  127.4670  127.4683  127.4685  130.5138  130.5139  136.0037  136.0041
  11  1  -25.7821  -25.5229  -25.1283  -25.1283  -24.8788  -24.8788  -23.2060  -23.2060  -22.9873  -22.9872
         -21.9718  -21.7733  -21.4012  -21.4012  -21.2232  -21.2231  -20.5510  -20.4537  -19.5139  -19.4474
  -19.2944  -19.2942  -19.1512  -19.1510  -17.2226  -17.1589  -16.1997  -16.1997  -16.1147  -16.1147
  -15.6186  -15.5733  -14.9182  -14.8428  -14.4164  -14.1565  -14.1565  -14.0998  -14.0997  -13.6319
  -13.6319  -13.5905  -13.5902  -13.5373  -13.5370  -13.1443  -13.1440  -13.0908  -13.0905  -12.6511
  -11.9256  -11.9256  -11.7571  -11.7568  -11.7125  -11.7122  -11.4385  -11.4097  -11.3752  -11.3752
  -10.7634  -10.7373   -9.9719   -9.8851   -9.8851   -9.5646   -9.5646   -8.7571   -8.6633   -8.6552
   -8.6552   -8.1421   -5.1992   -4.9156   -4.9097   -4.9097   -4.2030   -4.2030   -4.0953   -3.5488
   -2.4701   -2.4701   -1.9073   -1.9073   -1.2272   -0.3663   -0.3662    1.3474    1.3474    1.4514
    1.4515    1.7010    1.7010    1.8046    1.8047    2.0384    2.1352    2.1926    2.1929    2.2836
    2.2837    2.3728    2.3731    3.1647    3.1828    3.2354    3.2766    3.3843    3.5272    3.5273
    3.6472    3.8837    3.9094    3.9095    4.6588    4.7249    4.7249    4.7783    4.7788    4.8753
    4.8758    5.1705    5.1705    5.3398    5.5980    5.6860    6.0933    6.1323    6.1325    6.1524
    6.1524    6.1876    6.3114    6.4476    6.7213    6.7215    6.7723    6.7724    6.7818    7.0532
    7.1891    7.5623    7.5623    7.8719    7.9262    8.5185    8.5186    8.8103    8.8104    9.6687
    9.6687   10.2947   10.2947   10.8283   11.6343   11.6344   11.7204   12.2205   12.2208   12.6582
   12.6590   12.9722   13.0015   13.2075   13.3672   13.3674   13.4684   13.4685   13.7066   13.7227
   14.2161   14.2164   14.4152   14.5283   14.5286   14.5750   14.5753   14.8883   14.8977   14.8977
   14.9639   14.9639   16.0176   16.1694   16.1694   16.4711   16.6108   16.6108   16.8037   16.9046
   17.4964   17.4970   17.5709   17.5712   18.0296   18.5920   18.6460   18.9643   19.0833   19.0833
   19.4057   19.4061   19.8253   19.8253   19.8548   19.8549   19.9181   20.0796   20.3044   20.3044
   20.7067   20.7071   20.9064   21.1272   21.1272   21.3405   21.5144   21.5149   21.6851   21.7170
   22.1795   22.1799   22.3350   22.3350   22.5036   22.5037   22.5300   22.9769   23.5281   23.5281
   24.3727   24.3727   24.6874   24.7529   24.7530   24.9900   25.1141   25.6331   25.6331   25.7235
   26.3429   26.3429   26.5796   26.9000   26.9002   27.3969   27.3970   27.6005   28.7018   29.2101
   29.2102   32.2672   33.2465   33.2469   33.6425   34.6550   35.7473   36.5424   36.5504   36.5505
   36.6263   36.6271   36.9064   36.9069   37.5347   37.9645   37.9645   38.0815   38.0818   38.9488
   39.9791   39.9792   40.3282   40.3285   40.7873   40.7878   41.3151   41.4732   41.6553   41.6557
   42.0032   42.0832   42.0839   42.4567   42.4575   42.6468   42.6468   42.7848   42.7848   42.8160
   42.8165   42.9104   42.9109   43.0134   43.3081   43.6048   43.7031   43.7112   43.7113   43.8709
   44.3308   44.3317   44.6023   44.7858   44.8450   45.0526   45.0528   45.3995   45.6571   45.6740
   45.8487   45.8491   46.6016   47.0175   47.0175   47.5874   47.5874   47.9007   47.9010   48.4290
   48.4295   48.7402   48.7902   48.9939   48.9939   49.1045   49.6280   50.5618   51.6635   51.9075
   51.9076   52.1128   52.1130   52.1829   52.2754   52.2755   52.7933   52.7934   53.2622   53.2623
   53.3159   54.8183   54.8184   55.9749   55.9750   56.8072   57.4995   58.4503   58.5394   58.5395
[...]
    4.8336    4.8336    4.8341    4.8341    5.8115    5.8115    5.9209    5.9209    5.9517    5.9517
    5.9517    5.9517    6.1686    6.1686    6.4839    6.4839    6.4841    6.4841    7.1245    7.1245
    7.9434    7.9434    8.1467    8.1467    8.1469    8.1469    8.6652    8.6652    8.6653    8.6653
    9.6800    9.6800   10.6602   10.6602   11.1705   11.1705   11.1706   11.1706   12.0531   12.0531
   12.0534   12.0534   13.4721   13.4721   13.4723   13.4723   13.5659   13.5659   14.0684   14.0684
   14.0688   14.0688   14.4150   14.4150   15.5843   15.5843   15.5844   15.5844   16.1858   16.1858
   16.4048   16.4048   16.6132   16.6132   16.6136   16.6136   16.9229   16.9229   17.0314   17.0314
   17.0316   17.0316   18.2259   18.2259   18.5779   18.5779   18.7605   18.7605   18.7606   18.7606
   19.3713   19.3713   19.3713   19.3713   19.6213   19.6213   19.8202   19.8202   20.2131   20.2131
   20.2132   20.2132   20.9871   20.9871   20.9873   20.9873   21.3015   21.3015   21.4755   21.4755
   21.4757   21.4757   21.7094   21.7094   21.7096   21.7096   22.4473   22.4473   23.9690   23.9690
   23.9693   23.9693   24.4683   24.4683   25.5669   25.5669   25.6326   25.6326   25.6327   25.6327
   26.2324   26.2324   26.2324   26.2324   26.5049   26.5049   29.1397   29.1397   29.1398   29.1398
   33.8103   33.8103   34.2635   34.2635   34.4901   34.4901   34.6711   34.6711   34.6711   34.6711
   35.0663   35.0663   35.0664   35.0664   35.5465   35.5465   35.5466   35.5466   37.3418   37.3418
   37.3420   37.3420   39.4658   39.4658   41.3981   41.3981   41.3983   41.3983   41.4957   41.4957
   41.4961   41.4961   42.3405   42.3405   42.3414   42.3414   42.6255   42.6255   42.7175   42.7175
   43.2135   43.2135   43.2135   43.2135   43.5133   43.5133   44.3751   44.3751   44.5213   44.5213
   44.8875   44.8875   45.0658   45.0658   45.0661   45.0661   45.7154   45.7154   45.7157   45.7157
   45.9285   45.9285   46.3386   46.3386   47.0620   47.0620   47.9560   47.9560   47.9561   47.9561
   49.6699   49.6699   49.8008   49.8008   49.8011   49.8011   51.4410   51.4410   52.0128   52.0128
   52.0130   52.0130   52.2578   52.2578   52.2578   52.2578   52.7794   52.7794   53.2103   53.2103
   53.2106   53.2106   55.1453   55.1453   55.1453   55.1453   55.3435   55.3435   57.9311   57.9311
   57.9312   57.9312   59.8197   59.8197   60.6347   60.6348   60.6351   60.6351   61.1448   61.1448
   62.2309   62.2309   62.2321   62.2321   62.7432   62.7432   64.4023   64.4023   65.4080   65.4080
   65.4085   65.4085   65.9263   65.9264   66.3329   66.3329   66.3331   66.3331   66.5229   66.5229
   66.5230   66.5230   69.1400   69.1400   69.1402   69.1402   70.7403   70.7403   70.7424   70.7425
   71.6451   71.6451   72.1939   72.1939   73.3270   73.3270   75.3515   75.3515   81.1243   81.1243
   81.1244   81.1244   81.9703   81.9703   81.9731   81.9731   89.9706   89.9706   91.0937   91.0937
   91.0957   91.0957   94.1585   94.1585   97.0316   97.0316   97.0324   97.0324   98.3605   98.3605
   98.3632   98.3632   98.5947   98.5947   98.5951   98.5951  100.1333  100.1333  101.9399  101.9399
  104.1840  104.1840  104.2875  104.2875  107.3347  107.3347  107.3374  107.3375  107.9445  107.9445
  107.9449  107.9449  112.6975  112.6975  112.7009  112.7009  113.3207  113.3208  113.3213  113.3213
  114.2989  114.2989  115.5163  115.5164  115.5189  115.5190  116.6144  116.6144  119.4200  119.4200
  121.5000  121.5000  121.5002  121.5003  123.2085  123.2086  128.0827  128.0828
  42  1  -25.4927  -25.4927  -25.4927  -25.4927  -24.2034  -24.2034  -24.2034  -24.2034  -21.7280  -21.7280
         -21.7280  -21.7280  -21.7279  -21.7279  -21.7279  -21.7279  -20.9181  -20.9181  -19.8885  -19.8885
  -18.0597  -18.0597  -18.0597  -18.0597  -18.0596  -18.0596  -18.0596  -18.0596  -14.7004  -14.7004
  -14.7004  -14.7004  -14.7001  -14.7001  -14.7001  -14.7001  -14.4403  -14.4403  -14.4403  -14.4403
  -13.4232  -13.4232  -13.4232  -13.4232  -13.0878  -13.0878  -13.0878  -13.0878  -13.0837  -13.0837
  -12.0218  -12.0218  -12.0218  -12.0218  -11.9270  -11.9270  -11.9270  -11.9270  -10.8634  -10.8634
  -10.8634  -10.8634   -9.2741   -9.2741   -9.2741   -9.2741   -9.2741   -9.2741   -9.2741   -9.2741
   -8.9876   -8.9876   -4.9454   -4.9454   -4.1166   -4.1166   -4.1166   -4.1166   -4.1166   -4.1166
   -4.1166   -4.1166   -0.2298   -0.2298   -0.2298   -0.2298    0.9005    0.9005    1.3794    1.3794
    1.3794    1.3794    1.8969    1.8969    1.8969    1.8969    2.7934    2.7934    2.7934    2.7934
    2.8060    2.8060    2.8060    2.8060    3.4696    3.4696    3.4696    3.4696    3.4696    3.4696
    3.4696    3.4696    3.6369    3.6369    3.6370    3.6370    4.2044    4.2044    4.2044    4.2044
    4.9955    4.9955    4.9955    4.9955    5.2059    5.2059    5.2059    5.2059    5.2059    5.2059
    5.2059    5.2059    6.5266    6.5266    7.3537    7.3537    7.3537    7.3537    7.7153    7.7153
    7.9527    7.9527    7.9527    7.9527    7.9527    7.9527    7.9527    7.9527   10.2791   10.2791
   10.2791   10.2791   10.2792   10.2792   10.2792   10.2792   10.7955   10.7955   10.7955   10.7955
   13.3735   13.3735   13.7536   13.7536   13.7536   13.7536   13.9476   13.9476   14.0026   14.0026
   14.0026   14.0026   14.0028   14.0028   14.0028   14.0028   16.3309   16.3309   16.3309   16.3309
   16.4922   16.4922   16.4922   16.4922   16.4926   16.4926   16.4926   16.4926   17.5609   17.5609
   17.6101   17.6101   18.7205   18.7205   18.7205   18.7205   18.7206   18.7206   18.7206   18.7206
   18.8682   18.8682   18.8682   18.8682   19.8821   19.8821   19.8821   19.8821   20.3410   20.3410
   20.3410   20.3410   20.3411   20.3411   20.3411   20.3411   21.2031   21.2031   21.2031   21.2031
   21.5690   21.5690   22.2960   22.2960   22.2960   22.2960   23.3975   23.3975   23.3975   23.3975
   23.5806   23.5806   23.5806   23.5806   25.7735   25.7735   25.7735   25.7735   25.7735   25.7735
   25.7735   25.7735   26.7210   26.7210   26.7210   26.7210   28.2549   28.2549   31.6908   31.6908
   32.6252   32.6252   32.6252   32.6252   34.3947   34.3947   34.3947   34.3947   34.3948   34.3948
   34.3948   34.3948   34.7680   34.7680   34.7680   34.7680   37.7227   37.7227   37.8379   37.8379
   39.2867   39.2867   39.2867   39.2867   41.8838   41.8838   41.8838   41.8838   41.8842   41.8842
   41.8842   41.8842   42.0944   42.0944   42.0944   42.0944   42.6426   42.6426   42.6426   42.6426
   43.0003   43.0003   43.0003   43.0003   43.8505   43.8505   43.8506   43.8506   45.1602   45.1602
   45.1602   45.1602   45.4697   45.4697   45.4697   45.4697   45.4699   45.4699   45.4699   45.4699
   46.5496   46.5496   46.5496   46.5496   47.5521   47.5521   47.5521   47.5521   48.8428   48.8428
   48.8428   48.8428   48.8428   48.8428   48.8428   48.8428   49.4683   49.4684   51.2733   51.2733
   51.2734   51.2734   51.2735   51.2735   51.2735   51.2735   53.6778   53.6778   54.9255   54.9255
   54.9255   54.9255   56.3855   56.3855   57.3052   57.3052   57.3052   57.3052   57.3609   57.3609
   57.3609   57.3609   57.3611   57.3611   57.3611   57.3611   60.9495   60.9495   61.0206   61.0206
   61.0207   61.0207   62.2967   62.2967   62.2967   62.2967   64.2559   64.2559   64.2559   64.2559
   64.2563   64.2563   64.2563   64.2563   67.4009   67.4009   67.4009   67.4009   67.7210   67.7210
   68.6463   68.6464   68.6464   68.6464   70.6788   70.6788   70.6789   70.6789   71.2828   71.2828
   71.2828   71.2828   71.2830   71.2830   71.2830   71.2830   79.2374   79.2375   79.2375   79.2375
   79.2922   79.2922   88.9523   88.9523   88.9524   88.9524   90.3640   90.3640   90.3641   90.3641
   90.3644   90.3644   90.3645   90.3645   93.4395   93.4395   93.4395   93.4395   96.5835   96.5835
   99.9139   99.9139   99.9140   99.9140  102.0077  102.0077  102.0078  102.0078  103.0905  103.0905
  103.0905  103.0906  103.0934  103.0934  103.0935  103.0935  106.4949  106.4949  106.4949  106.4949
  112.2423  112.2424  112.2427  112.2429  112.5802  112.5803  115.4900  115.4901  115.4903  115.4903
  115.4909  115.4911  115.4912  115.4912  117.2448  117.2448  117.2448  117.2449  119.8503  119.8503
  119.8504  119.8504  119.8517  119.8517  119.8519  119.8520  120.9658  120.9659
  43  1  -25.6554  -25.6554  -25.0062  -25.0062  -25.0061  -25.0061  -23.0991  -23.0991  -23.0991  -23.0991
         -21.8747  -21.8747  -21.3135  -21.3135  -21.3134  -21.3134  -20.4986  -20.4986  -19.4879  -19.4879
  -19.2253  -19.2253  -19.2251  -19.2251  -17.1906  -17.1906  -16.1585  -16.1585  -16.1585  -16.1585
  -15.6006  -15.6006  -14.8821  -14.8821  -14.1320  -14.1320  -14.1319  -14.1319  -13.6142  -13.6142
  -13.5631  -13.5631  -13.5628  -13.5628  -13.1195  -13.1195  -13.1192  -13.1192  -12.8539  -12.8539
  -12.8539  -12.8539  -11.7377  -11.7377  -11.7373  -11.7373  -11.4228  -11.4228  -10.7521  -10.7521
  -10.6861  -10.6861  -10.6861  -10.6861   -9.3561   -9.3561   -9.0912   -9.0912   -9.0912   -9.0912
   -8.3932   -8.3932   -5.1791   -5.1791   -4.6742   -4.6742   -4.6742   -4.6742   -3.8216   -3.8216
   -2.1973   -2.1973   -2.1973   -2.1973    1.2938    1.2938    1.4588    1.4588    1.4589    1.4589
    1.6281    1.6281    1.6283    1.6283    1.9319    1.9319    1.9321    1.9321    2.1379    2.1379
    2.4836    2.4836    2.4837    2.4837    3.2448    3.2448    3.2829    3.2829    3.3926    3.3926
    3.5400    3.5400    3.5400    3.5400    4.2012    4.2012    4.2012    4.2012    4.6358    4.6358
    4.8336    4.8336    4.8341    4.8341    5.8115    5.8115    5.9209    5.9209    5.9517    5.9517
    5.9517    5.9517    6.1686    6.1686    6.4839    6.4839    6.4841    6.4841    7.1245    7.1245
    7.9434    7.9434    8.1467    8.1467    8.1469    8.1469    8.6652    8.6652    8.6653    8.6653
    9.6800    9.6800   10.6602   10.6602   11.1705   11.1705   11.1706   11.1706   12.0531   12.0531
   12.0534   12.0534   13.4721   13.4721   13.4723   13.4723   13.5659   13.5659   14.0684   14.0684
   14.0688   14.0688   14.4150   14.4150   15.5843   15.5843   15.5844   15.5844   16.1858   16.1858
   16.4048   16.4048   16.6132   16.6132   16.6136   16.6136   16.9229   16.9229   17.0314   17.0314
   17.0316   17.0316   18.2259   18.2259   18.5779   18.5779   18.7605   18.7605   18.7606   18.7606
   19.3713   19.3713   19.3713   19.3713   19.6213   19.6213   19.8202   19.8202   20.2131   20.2131
   20.2132   20.2132   20.9871   20.9871   20.9873   20.9873   21.3015   21.3015   21.4755   21.4755
   21.4757   21.4757   21.7094   21.7094   21.7096   21.7096   22.4473   22.4473   23.9690   23.9690
   23.9693   23.9693   24.4683   24.4683   25.5669   25.5669   25.6326   25.6326   25.6327   25.6327
   26.2324   26.2324   26.2324   26.2324   26.5049   26.5049   29.1397   29.1397   29.1398   29.1398
   33.8103   33.8103   34.2635   34.2635   34.4901   34.4901   34.6711   34.6711   34.6711   34.6711
   35.0663   35.0663   35.0664   35.0664   35.5465   35.5465   35.5466   35.5466   37.3418   37.3418
   37.3420   37.3420   39.4658   39.4658   41.3981   41.3981   41.3983   41.3983   41.4957   41.4957
   41.4961   41.4961   42.3405   42.3405   42.3414   42.3414   42.6255   42.6255   42.7175   42.7175
   43.2135   43.2135   43.2135   43.2135   43.5133   43.5133   44.3751   44.3751   44.5213   44.5213
   44.8875   44.8875   45.0658   45.0658   45.0661   45.0661   45.7154   45.7154   45.7157   45.7157
   45.9285   45.9285   46.3386   46.3386   47.0620   47.0620   47.9560   47.9560   47.9561   47.9561
   49.6699   49.6699   49.8008   49.8008   49.8011   49.8011   51.4410   51.4410   52.0128   52.0128
   52.0130   52.0130   52.2578   52.2578   52.2578   52.2578   52.7794   52.7794   53.2103   53.2103
   53.2106   53.2106   55.1453   55.1453   55.1453   55.1453   55.3435   55.3435   57.9311   57.9311
   57.9312   57.9312   59.8197   59.8197   60.6347   60.6348   60.6351   60.6351   61.1448   61.1448
   62.2309   62.2309   62.2321   62.2321   62.7432   62.7432   64.4023   64.4023   65.4080   65.4080
   65.4085   65.4085   65.9263   65.9264   66.3329   66.3329   66.3331   66.3331   66.5229   66.5229
   66.5230   66.5230   69.1400   69.1400   69.1402   69.1402   70.7403   70.7403   70.7424   70.7425
   71.6451   71.6451   72.1939   72.1939   73.3270   73.3270   75.3515   75.3515   81.1243   81.1243
   81.1244   81.1244   81.9703   81.9703   81.9731   81.9731   89.9706   89.9706   91.0937   91.0937
   91.0957   91.0957   94.1585   94.1585   97.0316   97.0316   97.0324   97.0324   98.3605   98.3605
   98.3632   98.3632   98.5947   98.5947   98.5951   98.5951  100.1333  100.1333  101.9399  101.9399
  104.1840  104.1840  104.2875  104.2875  107.3347  107.3347  107.3374  107.3375  107.9445  107.9445
  107.9449  107.9449  112.6975  112.6975  112.7009  112.7009  113.3207  113.3208  113.3213  113.3213
  114.2989  114.2989  115.5163  115.5164  115.5189  115.5190  116.6144  116.6144  119.4200  119.4200
  121.5000  121.5000  121.5002  121.5003  123.2085  123.2086  128.0827  128.0828
  44  1  -25.4927  -25.4927  -25.4927  -25.4927  -24.2034  -24.2034  -24.2034  -24.2034  -21.7279  -21.7279
         -21.7279  -21.7279  -21.7279  -21.7279  -21.7279  -21.7279  -20.9180  -20.9180  -19.8884  -19.8884
  -18.0598  -18.0598  -18.0598  -18.0598  -18.0598  -18.0598  -18.0598  -18.0598  -14.7001  -14.7001
  -14.7001  -14.7001  -14.7001  -14.7001  -14.7001  -14.7001  -14.4404  -14.4404  -14.4404  -14.4404
  -13.4232  -13.4232  -13.4232  -13.4232  -13.0876  -13.0876  -13.0876  -13.0876  -13.0841  -13.0841
  -12.0215  -12.0215  -12.0215  -12.0215  -11.9270  -11.9270  -11.9270  -11.9270  -10.8638  -10.8638
  -10.8638  -10.8638   -9.2741   -9.2741   -9.2741   -9.2741   -9.2741   -9.2741   -9.2741   -9.2741
   -8.9877   -8.9877   -4.9454   -4.9454   -4.1166   -4.1166   -4.1166   -4.1166   -4.1166   -4.1166
   -4.1166   -4.1166   -0.2298   -0.2298   -0.2298   -0.2298    0.9007    0.9007    1.3796    1.3796
    1.3796    1.3796    1.8972    1.8972    1.8972    1.8972    2.7933    2.7933    2.7933    2.7933
    2.8060    2.8060    2.8060    2.8060    3.4695    3.4695    3.4695    3.4695    3.4695    3.4695
    3.4695    3.4695    3.6369    3.6369    3.6370    3.6370    4.2037    4.2037    4.2038    4.2038
    4.9957    4.9957    4.9957    4.9957    5.2059    5.2059    5.2059    5.2059    5.2059    5.2059
    5.2059    5.2059    6.5267    6.5267    7.3538    7.3538    7.3539    7.3539    7.7154    7.7154
    7.9525    7.9525    7.9525    7.9525    7.9525    7.9525    7.9525    7.9525   10.2792   10.2792
   10.2792   10.2792   10.2793   10.2793   10.2793   10.2793   10.7954   10.7954   10.7954   10.7954
   13.3724   13.3724   13.7535   13.7535   13.7536   13.7536   13.9482   13.9482   14.0030   14.0030
   14.0030   14.0030   14.0030   14.0030   14.0030   14.0030   16.3310   16.3310   16.3310   16.3310
   16.4923   16.4923   16.4923   16.4923   16.4923   16.4923   16.4923   16.4923   17.5615   17.5615
   17.6101   17.6101   18.7206   18.7206   18.7206   18.7206   18.7206   18.7206   18.7206   18.7206
   18.8679   18.8679   18.8679   18.8679   19.8821   19.8821   19.8821   19.8821   20.3410   20.3410
   20.3410   20.3410   20.3410   20.3410   20.3410   20.3410   21.2034   21.2034   21.2034   21.2034
   21.5693   21.5693   22.2959   22.2959   22.2959   22.2959   23.3972   23.3972   23.3972   23.3972
   23.5808   23.5808   23.5808   23.5808   25.7735   25.7735   25.7735   25.7735   25.7735   25.7735
   25.7735   25.7735   26.7210   26.7210   26.7210   26.7210   28.2548   28.2548   31.6912   31.6912
   32.6252   32.6252   32.6252   32.6252   34.3948   34.3948   34.3948   34.3948   34.3948   34.3948
   34.3948   34.3948   34.7678   34.7678   34.7678   34.7678   37.7229   37.7229   37.8368   37.8368
   39.2865   39.2865   39.2865   39.2865   41.8839   41.8839   41.8839   41.8839   41.8839   41.8839
   41.8839   41.8839   42.0951   42.0951   42.0951   42.0951   42.6430   42.6430   42.6430   42.6430
   43.0005   43.0005   43.0005   43.0005   43.8491   43.8491   43.8491   43.8491   45.1612   45.1612
   45.1612   45.1612   45.4695   45.4695   45.4695   45.4695   45.4695   45.4695   45.4696   45.4696
   46.5496   46.5496   46.5496   46.5496   47.5518   47.5518   47.5519   47.5519   48.8427   48.8427
   48.8427   48.8427   48.8427   48.8427   48.8427   48.8427   49.4688   49.4688   51.2734   51.2734
   51.2734   51.2734   51.2734   51.2734   51.2734   51.2734   53.6782   53.6782   54.9257   54.9258
   54.9258   54.9258   56.3857   56.3857   57.3052   57.3052   57.3052   57.3052   57.3610   57.3610
   57.3610   57.3610   57.3610   57.3611   57.3611   57.3611   60.9480   60.9480   61.0208   61.0208
   61.0208   61.0208   62.2964   62.2964   62.2964   62.2964   64.2562   64.2562   64.2562   64.2562
   64.2563   64.2563   64.2563   64.2563   67.4020   67.4020   67.4020   67.4020   67.7206   67.7206
   68.6476   68.6476   68.6476   68.6476   70.6756   70.6756   70.6757   70.6757   71.2829   71.2829
   71.2829   71.2829   71.2830   71.2830   71.2830   71.2830   79.2396   79.2396   79.2396   79.2396
   79.2925   79.2925   88.9497   88.9497   88.9497   88.9498   90.3654   90.3654   90.3655   90.3655
   90.3655   90.3655   90.3656   90.3656   93.4389   93.4389   93.4390   93.4390   96.5863   96.5863
   99.9146   99.9147   99.9147   99.9148  102.0049  102.0050  102.0051  102.0051  103.0908  103.0908
  103.0909  103.0909  103.0909  103.0909  103.0910  103.0910  106.4946  106.4946  106.4946  106.4947
  112.2460  112.2461  112.2465  112.2465  112.5756  112.5757  115.4901  115.4901  115.4903  115.4903
  115.4909  115.4910  115.4913  115.4914  117.2456  117.2456  117.2456  117.2457  119.8518  119.8518
  119.8518  119.8518  119.8521  119.8521  119.8522  119.8522  120.9667  120.9667
siesta: Fermi energy =      -6.643394 eV

siesta: Program's energy decomposition (eV):
siesta: Ebs     =     -2272.420095
siesta: Eions   =      9434.507561
siesta: Ena     =      2222.352420
siesta: Ekin    =      3909.922306
siesta: Enl     =      -379.736033
siesta: Eso     =         0.000000
siesta: Edftu   =         0.000000
siesta: DEna    =      -202.013543
siesta: DUscf   =        17.934893
siesta: DUext   =         0.000000
siesta: Exc     =     -1711.407288
siesta: eta*DQ  =         0.000000
siesta: Emadel  =         0.000000
siesta: Emeta   =         0.000000
siesta: Emolmec =        -4.309568
siesta: Ekinion =         0.000000
siesta: Eharris =     -5581.764381
siesta: Etot    =     -5581.764374
siesta: FreeEng =     -5581.775332

siesta: Final energy (eV):
siesta:  Band Struct. =   -2272.420095
siesta:       Kinetic =    3909.922306
siesta:       Hartree =    1663.724357
siesta:       Edftu   =       0.000000
siesta:       Eso     =       0.000000
siesta:    Ext. field =       0.000000
siesta:   Exch.-corr. =   -1711.407288
siesta:  Ion-electron =   -7281.205885
siesta:       Ion-ion =   -2158.488297
siesta:       Ekinion =       0.000000
siesta:         Total =   -5581.764374
siesta:         Fermi =      -6.643394

siesta: Stress tensor (static) (eV/Ang**3):
siesta:    -0.081742   -0.000067   -0.000000
siesta:    -0.000067   -0.081819   -0.000000
siesta:    -0.000000   -0.000000    0.014265

siesta: Cell volume =        320.747412 Ang**3

siesta: Pressure (static):
siesta:                Solid            Molecule  Units
siesta:           0.00054201          0.00054205  Ry/Bohr**3
siesta:           0.04976576          0.04976922  eV/Ang**3
siesta:          79.73440582         79.73993884  kBar
(Free)E+ p_basis*V_orbitals  =       -5548.245526
(Free)Eharris+ p_basis*V_orbitals  =       -5548.245533

cite: Please see "graphite_scf.bib" for an exhaustive BiBTeX file.
cite: Please clearly indicate Siesta version in published work: 4.1.5
cite: This calculation has made use of the following articles
cite: which are encouraged to be cited in a published work.
        Primary SIESTA paper
          DOI: www.doi.org/10.1088/0953-8984/14/11/302

>> End of run:   1-NOV-2022  18:20:41
Job completed
