Siesta Version  : 4.1.5
Architecture    : x86_64-unknown-linux-gnu--unknown
Compiler version: GNU Fortran (GCC) 11.3.0
Compiler flags  : mpif90 -g -O2 -fallow-argument-mismatch
PP flags        : -DMPI -DFC_HAVE_FLUSH -DFC_HAVE_ABORT
Libraries       :  -I/global/software/sl-7.x86_64/modules/intel/2020.4.304/mkl/include  /globall/software/sl-7.x86_64/modules/intel/2020.4.304/mkl/lib/intel64/libmkl_scalapack_lp64.a -Wl,--start-group /global/software/sl-7.x86_64/modules/intel/2020.4.304/mkl/lib/intel64/libmkl_intel_lp64.a /global/software/sl-7.x86_64/modules/intel/2020.4.304/mkl/lib/intel64/libmkl_sequential.a /global/software/sl-7.x86_64/modules/intel/2020.4.304/mkl/lib/intel64/libmkl_core.a /global/software/sl-7.x86_64/modules/intel/2020.4.304/mkl/lib/intel64/libmkl_blacs_openmpi_lp64.a -Wl,--end-group -lpthread -lm -ldl
PARALLEL version

* Running on 20 nodes in parallel
>> Start of run:   1-NOV-2022  18:06:15

                           ***********************       
                           *  WELCOME TO SIESTA  *       
                           ***********************       

reinit: Reading from standard input
reinit: Dumped input in INPUT_TMP.60402
************************** Dump of input data file ****************************
SystemName graphite_scf
SystemLabel graphite_scf
NumberOfAtoms   36
NumberOfSpecies 1
%block ChemicalSpeciesLabel
1  6   C-gga
%endblock ChemicalSpeciesLabel
PAO.BasisSize  DZP
PAO.EnergyShift  10 meV
%block PS.Lmax
C-gga   2
%endblock PS.Lmax
LatticeConstant 1.000000 Ang
%block LatticeVectors
	7.3920000000	0.0000000000	0.0000000000
	-3.6960000000	6.4016597848	0.0000000000
	0.0000000000	0.0000000000	3.4897200000
%endblock LatticeVectors
AtomicCoordinatesFormat Ang
%block AtomicCoordinatesAndAtomicSpecies
	0.00000000	0.00000000	0.87243000	1
	0.00000000	0.00000000	2.61729000	1
	-1.23200000	2.13388659	0.87243000	1
	-2.46400000	4.26777319	2.61729000	1
	2.46400000	4.26777319	0.87243000	1
	1.23200000	2.13388659	2.61729000	1
	2.46400000	0.00000000	0.87243000	1
	4.92800000	0.00000000	2.61729000	1
	2.46400000	0.00000000	2.61729000	1
	4.92800000	0.00000000	0.87243000	1
	2.46400000	4.26777319	2.61729000	1
	1.23200000	2.13388659	0.87243000	1
	-1.23200000	2.13388659	2.61729000	1
	-2.46400000	4.26777319	0.87243000	1
	0.00000000	4.26777319	0.87243000	1
	3.69600000	2.13388659	2.61729000	1
	3.69600000	2.13388659	0.87243000	1
	0.00000000	4.26777319	2.61729000	1
	0.00000000	1.42258964	0.87243000	1
	3.69600000	4.97907014	2.61729000	1
	2.46400123	5.69036496	0.87243000	1
	1.23199877	0.71129482	2.61729000	1
	-2.46400123	5.69036496	0.87243000	1
	6.16000123	0.71129482	2.61729000	1
	-1.23200000	3.55647624	0.87243000	1
	4.92800000	2.84518355	2.61729000	1
	1.23200123	3.55647837	0.87243000	1
	2.46399877	2.84518142	2.61729000	1
	-0.00000123	5.69036496	0.87243000	1
	3.69600123	0.71129482	2.61729000	1
	2.46400000	1.42258964	0.87243000	1
	1.23200000	4.97907014	2.61729000	1
	4.92800123	1.42259177	0.87243000	1
	-1.23200123	4.97906801	2.61729000	1
	3.69599877	3.55647837	0.87243000	1
	0.00000123	2.84518142	2.61729000	1
%endblock AtomicCoordinatesAndAtomicSpecies
Kgrid_NoTRS  T
%block kgrid_MonkhorstPack
4       0       0       0.0
0       4       0       0.0
0       0       4       0.0
%endblock kgrid_MonkhorstPack
AtomCoorFormatOut Ang
BlockSize 1
#ProcessorY 12
Diag.ParallelOverK   T
Diag.DivideAndConquer F
MeshCutoff   300 Ry
SCF.FreeE.Tolerance 1E-3 eV
SCF.EDM.Tolerance   5E-3 eV
DM.Tolerance  1E-3
DM.Require.Energy.Convergence T
DM.NumberPulay 4
XC.Functional GGA
XC.Authors    PBE
UseSaveData        F
SolutionMethod     diagon
MD.TypeOfRun       CG
MD.VariableCell    F
MD.NumCGsteps      00
MD.MaxCGDispl      0.200000 Bohr
#MD.MaxStressTol    1.000000 GPa
#MD.MaxForceTol     0.010000 eV/Ang
WriteMDHistory T
WriteCoorStep T
WriteForces T
WriteCoorStep    T
WriteEigenValues T
WriteDM    F
MM.UnitsDistance Ang  # what this program prints out DO NOT CHANGE
MM.UnitsEnergy    eV  # what this program prints out DO NOT CHANGE
MM.Grimme.S6     0.75 # Grimme-paper for PBE (correct for your functional)
MM.Grimme.D     20.   # Grimme-paper (correct for your functional)
%block MM.Potentials
  1   1 Grimme     18.14      2.904 # C, 10.1002/jcc.20495
%endblock MM.Potentials
#%block ProjectedDensityOfStates
# -200.0  120.0  0.4  12800  eV
#%endblock ProjectedDensityOfStates
************************** End of input data file *****************************

reinit: -----------------------------------------------------------------------
reinit: System Name: graphite_scf
reinit: -----------------------------------------------------------------------
reinit: System Label: graphite_scf
reinit: -----------------------------------------------------------------------
Reading two-body potentials
Grimme - two-body potential between 1 and 1

initatom: Reading input for the pseudopotentials and atomic orbitals ----------
Species number:   1 Atomic number:    6 Label: C-gga

Ground state valence configuration:   2s02  2p02
Reading pseudopotential information in formatted form from C-gga.psf

Valence configuration for pseudopotential generation:
2s( 2.00) rc: 1.56
2p( 2.00) rc: 1.56
3d( 0.00) rc: 1.56
4f( 0.00) rc: 1.56
relmxkb: Read Max KB Ang. Momentum=    2 for species C-gga

<basis_specs>
===============================================================================
C-gga                Z=   6    Mass=  12.010        Charge= 0.17977+309
Lmxo=1 Lmxkb= 2    BasisType=split      Semic=F
L=0  Nsemic=0  Cnfigmx=2
          i=1  nzeta=2  polorb=0  (2s)
            splnorm:   0.15000    
               vcte:    0.0000    
               rinn:    0.0000    
               qcoe:    0.0000    
               qyuk:    0.0000    
               qwid:   0.10000E-01
                rcs:    0.0000      0.0000    
            lambdas:    1.0000      1.0000    
L=1  Nsemic=0  Cnfigmx=2
          i=1  nzeta=2  polorb=1  (2p)
            splnorm:   0.15000    
               vcte:    0.0000    
               rinn:    0.0000    
               qcoe:    0.0000    
               qyuk:    0.0000    
               qwid:   0.10000E-01
                rcs:    0.0000      0.0000    
            lambdas:    1.0000      1.0000    
-------------------------------------------------------------------------------
L=0  Nkbl=1  erefs: 0.17977+309
L=1  Nkbl=1  erefs: 0.17977+309
L=2  Nkbl=1  erefs: 0.17977+309
===============================================================================
</basis_specs>

atom: Called for C-gga                 (Z =   6)

read_vps: Pseudopotential generation method:
read_vps: ATM 3.2.2 Troullier-Martins                       
Valence charge for ps generation:    4.00000

xc_check: Exchange-correlation functional:
xc_check: GGA Perdew, Burke & Ernzerhof 1996
V l=0 = -2*Zval/r beyond r=  1.5227
V l=1 = -2*Zval/r beyond r=  1.5227
V l=2 = -2*Zval/r beyond r=  1.5227
All V_l potentials equal beyond r=  1.4851
This should be close to max(r_c) in ps generation
All pots = -2*Zval/r beyond r=  1.5227

VLOCAL1: 99.0% of the norm of Vloc inside     19.682 Ry
VLOCAL1: 99.9% of the norm of Vloc inside     44.856 Ry
atom: Maximum radius for 4*pi*r*r*local-pseudopot. charge    1.79142
atom: Maximum radius for r*vlocal+2*Zval:    1.54183
GHOST: No ghost state for L =  0
GHOST: No ghost state for L =  1
GHOST: No ghost state for L =  2

KBgen: Kleinman-Bylander projectors: 
   l= 0   rc=  1.661951   el= -1.010689   Ekb=  5.289847   kbcos=  0.316429
   l= 1   rc=  1.661951   el= -0.388490   Ekb= -4.102504   kbcos= -0.351025
   l= 2   rc=  1.747182   el=  0.001971   Ekb= -1.006005   kbcos= -0.008530

KBgen: Total number of Kleinman-Bylander projectors:    9
atom: -------------------------------------------------------------------------

atom: SANKEY-TYPE ORBITALS:
atom: Selected multiple-zeta basis: split     

SPLIT: Orbitals with angular momentum L= 0

SPLIT: Basis orbitals for state 2s

SPLIT: PAO cut-off radius determined from an
SPLIT: energy shift=  0.000735 Ry

   izeta = 1
                 lambda =    1.000000
                     rc =    5.948690
                 energy =   -1.010099
                kinetic =    0.827121
    potential(screened) =   -1.837220
       potential(ionic) =   -5.392783

   izeta = 2
                 rmatch =    3.518811
              splitnorm =    0.150000
                 energy =   -0.877891
                kinetic =    1.289227
    potential(screened) =   -2.167118
       potential(ionic) =   -5.982073

SPLIT: Orbitals with angular momentum L= 1

SPLIT: Basis orbitals for state 2p

SPLIT: PAO cut-off radius determined from an
SPLIT: energy shift=  0.000735 Ry

   izeta = 1
                 lambda =    1.000000
                     rc =    7.638387
                 energy =   -0.387843
                kinetic =    2.314739
    potential(screened) =   -2.702582
       potential(ionic) =   -6.092371

   izeta = 2
                 rmatch =    3.840617
              splitnorm =    0.150000
                 energy =   -0.270479
                kinetic =    3.438347
    potential(screened) =   -3.708826
       potential(ionic) =   -7.497707

POLgen: Perturbative polarization orbital with L=  2

POLgen: Polarization orbital for state 2p

   izeta = 1
                     rc =    7.638387
                 energy =    0.921402
                kinetic =    1.955040
    potential(screened) =   -1.033637
       potential(ionic) =   -3.679558
atom: Total number of Sankey-type orbitals: 13

atm_pop: Valence configuration (for local Pseudopot. screening):
 2s( 2.00)                                                            
 2p( 2.00)                                                            
Vna: chval, zval:    4.00000   4.00000

Vna:  Cut-off radius for the neutral-atom potential:   7.638387

atom: _________________________________________________________________________

prinput: Basis input ----------------------------------------------------------

PAO.BasisType split     

%block ChemicalSpeciesLabel
    1    6 C-gga                   # Species index, atomic number, species label
%endblock ChemicalSpeciesLabel

%block PAO.Basis                 # Define Basis set
C-gga                 2                    # Species label, number of l-shells
 n=2   0   2                         # n, l, Nzeta 
   5.949      3.519   
   1.000      1.000   
 n=2   1   2 P   1                   # n, l, Nzeta, Polarization, NzetaPol
   7.638      3.841   
   1.000      1.000   
%endblock PAO.Basis

prinput: ----------------------------------------------------------------------

coor:   Atomic-coordinates input format  =     Cartesian coordinates
coor:                                          (in Angstroms)

siesta: Atomic coordinates (Bohr) and species
siesta:      0.00000   0.00000   1.64865  1        1
siesta:      0.00000   0.00000   4.94596  1        2
siesta:     -2.32814   4.03246   1.64865  1        3
siesta:     -4.65629   8.06493   4.94596  1        4
siesta:      4.65629   8.06493   1.64865  1        5
siesta:      2.32814   4.03246   4.94596  1        6
siesta:      4.65629   0.00000   1.64865  1        7
siesta:      9.31257   0.00000   4.94596  1        8
siesta:      4.65629   0.00000   4.94596  1        9
siesta:      9.31257   0.00000   1.64865  1       10
siesta:      4.65629   8.06493   4.94596  1       11
siesta:      2.32814   4.03246   1.64865  1       12
siesta:     -2.32814   4.03246   4.94596  1       13
siesta:     -4.65629   8.06493   1.64865  1       14
siesta:      0.00000   8.06493   1.64865  1       15
siesta:      6.98443   4.03246   4.94596  1       16
siesta:      6.98443   4.03246   1.64865  1       17
siesta:      0.00000   8.06493   4.94596  1       18
siesta:      0.00000   2.68831   1.64865  1       19
siesta:      6.98443   9.40908   4.94596  1       20
siesta:      4.65629  10.75324   1.64865  1       21
siesta:      2.32814   1.34415   4.94596  1       22
siesta:     -4.65629  10.75324   1.64865  1       23
siesta:     11.64072   1.34415   4.94596  1       24
siesta:     -2.32814   6.72077   1.64865  1       25
siesta:      9.31257   5.37662   4.94596  1       26
siesta:      2.32815   6.72077   1.64865  1       27
siesta:      4.65628   5.37662   4.94596  1       28
siesta:     -0.00000  10.75324   1.64865  1       29
siesta:      6.98443   1.34415   4.94596  1       30
siesta:      4.65629   2.68831   1.64865  1       31
siesta:      2.32814   9.40908   4.94596  1       32
siesta:      9.31258   2.68831   1.64865  1       33
siesta:     -2.32815   9.40908   4.94596  1       34
siesta:      6.98443   6.72077   1.64865  1       35
siesta:      0.00000   5.37662   4.94596  1       36

siesta: System type = bulk      

initatomlists: Number of atoms, orbitals, and projectors:     36   468   324

siesta: ******************** Simulation parameters ****************************
siesta:
siesta: The following are some of the parameters of the simulation.
siesta: A complete list of the parameters used, including default values,
siesta: can be found in file out.fdf
siesta:
redata: Spin configuration                          = none
redata: Number of spin components                   = 1
redata: Time-Reversal Symmetry                      = T
redata: Spin spiral                                 = F
redata: Long output                                 =   F
redata: Number of Atomic Species                    =        1
redata: Charge density info will appear in .RHO file
redata: Write Mulliken Pop.                         = NO
redata: Matel table size (NRTAB)                    =     1024
redata: Mesh Cutoff                                 =   300.0000 Ry
redata: Net charge of the system                    =     0.0000 |e|
redata: Min. number of SCF Iter                     =        0
redata: Max. number of SCF Iter                     =     1000
redata: SCF convergence failure will abort job
redata: SCF mix quantity                            = Hamiltonian
redata: Mix DM or H after convergence               =   F
redata: Recompute H after scf cycle                 =   F
redata: Mix DM in first SCF step                    =   T
redata: Write Pulay info on disk                    =   F
redata: New DM Occupancy tolerance                  = 0.000000000001
redata: No kicks to SCF
redata: DM Mixing Weight for Kicks                  =     0.5000
redata: Require Harris convergence for SCF          =   F
redata: Harris energy tolerance for SCF             =     0.000100 eV
redata: Require DM convergence for SCF              =   T
redata: DM tolerance for SCF                        =     0.001000
redata: Require EDM convergence for SCF             =   F
redata: EDM tolerance for SCF                       =     0.005000 eV
redata: Require H convergence for SCF               =   T
redata: Hamiltonian tolerance for SCF               =     0.001000 eV
redata: Require (free) Energy convergence for SCF   =   T
redata: (free) Energy tolerance for SCF             =     0.001000 eV
redata: Using Saved Data (generic)                  =   F
redata: Use continuation files for DM               =   F
redata: Neglect nonoverlap interactions             =   F
redata: Method of Calculation                       = Diagonalization
redata: Electronic Temperature                      =   299.9869 K
redata: Fix the spin of the system                  =   F
redata: Dynamics option                             = Single-point calculation
mix.SCF: Pulay mixing                            = Pulay
mix.SCF:    Variant                              = stable
mix.SCF:    History steps                        = 4
mix.SCF:    Linear mixing weight                 =     0.250000
mix.SCF:    Mixing weight                        =     0.250000
mix.SCF:    SVD condition                        = 0.1000E-07
redata: ***********************************************************************

%block SCF.Mixers
  Pulay
%endblock SCF.Mixers

%block SCF.Mixer.Pulay
  # Mixing method
  method pulay
  variant stable

  # Mixing options
  weight 0.2500
  weight.linear 0.2500
  history 4
%endblock SCF.Mixer.Pulay

DM_history_depth set to one: no extrapolation allowed by default for geometry relaxation
Size of DM history Fstack: 1
Total number of electrons:   144.000000
Total ionic charge:   144.000000

* ProcessorY, Blocksize:    4   1


* Orbital distribution balance (max,min):    24    23

k-point displ. along   1 input, could be:     0.00    0.50
k-point displ. along   2 input, could be:     0.00    0.50
k-point displ. along   3 input, could be:     0.00    0.50
 Kpoints in:           48 . Kpoints trimmed:           44

siesta: k-grid: Number of k-points =    44
siesta: k-grid: Cutoff (effective) =     6.979 Ang
siesta: k-grid: Supercell and displacements
siesta: k-grid:    4   0   0      0.000
siesta: k-grid:    0   4   0      0.000
siesta: k-grid:    0   0   4      0.000

diag: Algorithm                                     = Expert
diag: Parallel over k                               =   T
diag: Use parallel 2D distribution                  =   T
diag: Parallel block-size                           = 1
diag: Parallel distribution                         =     4 x     5
diag: Used triangular part                          = Lower
diag: Absolute tolerance                            =  0.100E-15
diag: Orthogonalization factor                      =  0.100E-05
diag: Memory factor                                 =  1.0000

superc: Internal auxiliary supercell:     5 x     5 x     5  =     125
superc: Number of atoms, orbitals, and projectors:   4500  58500  40500


ts: **************************************************************
ts: Save H and S matrices                           =    F
ts: Save DM and EDM matrices                        =    F
ts: Only save the overlap matrix S                  =    F
ts: **************************************************************

************************ Begin: TS CHECKS AND WARNINGS ************************
************************ End: TS CHECKS AND WARNINGS **************************


                     ====================================
                        Single-point calculation
                     ====================================

outcoor: Atomic coordinates (Ang):                          
    0.00000000    0.00000000    0.87243000   1       1  C-gga
    0.00000000    0.00000000    2.61729000   1       2  C-gga
   -1.23200000    2.13388659    0.87243000   1       3  C-gga
   -2.46400000    4.26777319    2.61729000   1       4  C-gga
    2.46400000    4.26777319    0.87243000   1       5  C-gga
    1.23200000    2.13388659    2.61729000   1       6  C-gga
    2.46400000    0.00000000    0.87243000   1       7  C-gga
    4.92800000    0.00000000    2.61729000   1       8  C-gga
    2.46400000    0.00000000    2.61729000   1       9  C-gga
    4.92800000    0.00000000    0.87243000   1      10  C-gga
    2.46400000    4.26777319    2.61729000   1      11  C-gga
    1.23200000    2.13388659    0.87243000   1      12  C-gga
   -1.23200000    2.13388659    2.61729000   1      13  C-gga
   -2.46400000    4.26777319    0.87243000   1      14  C-gga
    0.00000000    4.26777319    0.87243000   1      15  C-gga
    3.69600000    2.13388659    2.61729000   1      16  C-gga
    3.69600000    2.13388659    0.87243000   1      17  C-gga
    0.00000000    4.26777319    2.61729000   1      18  C-gga
    0.00000000    1.42258964    0.87243000   1      19  C-gga
    3.69600000    4.97907014    2.61729000   1      20  C-gga
    2.46400123    5.69036496    0.87243000   1      21  C-gga
    1.23199877    0.71129482    2.61729000   1      22  C-gga
   -2.46400123    5.69036496    0.87243000   1      23  C-gga
    6.16000123    0.71129482    2.61729000   1      24  C-gga
   -1.23200000    3.55647624    0.87243000   1      25  C-gga
    4.92800000    2.84518355    2.61729000   1      26  C-gga
    1.23200123    3.55647837    0.87243000   1      27  C-gga
    2.46399877    2.84518142    2.61729000   1      28  C-gga
   -0.00000123    5.69036496    0.87243000   1      29  C-gga
    3.69600123    0.71129482    2.61729000   1      30  C-gga
    2.46400000    1.42258964    0.87243000   1      31  C-gga
    1.23200000    4.97907014    2.61729000   1      32  C-gga
    4.92800123    1.42259177    0.87243000   1      33  C-gga
   -1.23200123    4.97906801    2.61729000   1      34  C-gga
    3.69599877    3.55647837    0.87243000   1      35  C-gga
    0.00000123    2.84518142    2.61729000   1      36  C-gga

superc: Internal auxiliary supercell:     5 x     5 x     5  =     125
superc: Number of atoms, orbitals, and projectors:   4500  58500  40500

outcell: Unit cell vectors (Ang):
        7.392000    0.000000    0.000000
       -3.696000    6.401660    0.000000
        0.000000    0.000000    3.489720

outcell: Cell vector modules (Ang)   :    7.392000    7.392000    3.489720
outcell: Cell angles (23,13,12) (deg):     90.0000     90.0000    120.0000
outcell: Cell volume (Ang**3)        :    165.1373
<dSpData1D:S at geom step 0
  <sparsity:sparsity for geom step 0
    nrows_g=468 nrows=24 sparsity=.6257 nnzs=137040, refcount: 7>
  <dData1D:(new from dSpData1D) n=137040, refcount: 1>
refcount: 1>
new_DM -- step:     1
Initializing Density Matrix...
DM filled with atomic data:
<dSpData2D:DM initialized from atoms
  <sparsity:sparsity for geom step 0
    nrows_g=468 nrows=24 sparsity=.6257 nnzs=137040, refcount: 8>
  <dData2D:DM n=137040 m=1, refcount: 1>
refcount: 1>
No. of atoms with KB's overlaping orbs in proc 0. Max # of overlaps:     354     990
New grid distribution:   1
           1       1:   36    1:    9    1:    4
           2       1:   36    1:    9    5:    8
           3       1:   36    1:    9    9:   12
           4       1:   36    1:    9   13:   16
           5       1:   36    1:    9   17:   20
           6       1:   36   10:   18    1:    4
           7       1:   36   10:   18    5:    8
           8       1:   36   10:   18    9:   12
           9       1:   36   10:   18   13:   16
          10       1:   36   10:   18   17:   20
          11       1:   36   19:   27    1:    4
          12       1:   36   19:   27    5:    8
          13       1:   36   19:   27    9:   12
          14       1:   36   19:   27   13:   16
          15       1:   36   19:   27   17:   20
          16       1:   36   28:   36    1:    4
          17       1:   36   28:   36    5:    8
          18       1:   36   28:   36    9:   12
          19       1:   36   28:   36   13:   16
          20       1:   36   28:   36   17:   20

InitMesh: MESH =    72 x    72 x    40 =      207360
InitMesh: (bp) =    36 x    36 x    20 =       25920
InitMesh: Mesh cutoff (required, used) =   300.000   349.608 Ry
ExtMesh (bp) on 0 =   128 x   101 x   100 =     1292800
New grid distribution:   2
           1      10:   18   25:   36    9:   20
           2      28:   36   25:   36    9:   20
           3       1:   18    1:    6    9:   20
           4      19:   36    1:    6    9:   20
           5       1:   18   28:   36    1:    8
           6      19:   36   28:   36    1:    8
           7      28:   36    7:   18    9:   20
           8       1:    9    7:   18    9:   20
           9      10:   18    7:   18    9:   20
          10      19:   27    7:   18    9:   20
          11       1:   18   19:   27    1:    8
          12      19:   36   19:   27    1:    8
          13       1:   18   19:   24    9:   20
          14      19:   36   19:   24    9:   20
          15       1:   18    1:    9    1:    8
          16      19:   36    1:    9    1:    8
          17       1:   18   10:   18    1:    8
          18       1:    9   25:   36    9:   20
          19      19:   27   25:   36    9:   20
          20      19:   36   10:   18    1:    8
New grid distribution:   3
           1      10:   18   25:   36    9:   20
           2      28:   36   25:   36    9:   20
           3       1:   18    1:    6    9:   20
           4      19:   36    1:    6    9:   20
           5       1:   18   28:   36    1:    8
           6      19:   36   28:   36    1:    8
           7      28:   36    7:   18    9:   20
           8       1:    9    7:   18    9:   20
           9      10:   18    7:   18    9:   20
          10      19:   27    7:   18    9:   20
          11       1:   18   19:   27    1:    8
          12      19:   36   19:   27    1:    8
          13       1:   18   19:   24    9:   20
          14      19:   36   19:   24    9:   20
          15       1:   18    1:    9    1:    8
          16      19:   36    1:    9    1:    8
          17       1:   18   10:   18    1:    8
          18       1:    9   25:   36    9:   20
          19      19:   27   25:   36    9:   20
          20      19:   36   10:   18    1:    8
Setting up quadratic distribution...
ExtMesh (bp) on 0 =   101 x   104 x   108 =     1134432
PhiOnMesh: Number of (b)points on node 0 =                 1296
PhiOnMesh: nlist on node 0 =               738730

stepf: Fermi-Dirac step function

siesta: Program's energy decomposition (eV):
siesta: Ebs     =     -2618.894815
siesta: Eions   =      9434.507561
siesta: Ena     =      2082.913870
siesta: Ekin    =      4360.013998
siesta: Enl     =      -445.714294
siesta: Eso     =         0.000000
siesta: Edftu   =         0.000000
siesta: DEna    =      -269.423149
siesta: DUscf   =        23.243643
siesta: DUext   =         0.000000
siesta: Exc     =     -1811.983679
siesta: eta*DQ  =         0.000000
siesta: Emadel  =         0.000000
siesta: Emeta   =         0.000000
siesta: Emolmec =        -9.053355
siesta: Ekinion =         0.000000
siesta: Eharris =     -5108.802160
siesta: Etot    =     -5504.510527
siesta: FreeEng =     -5504.524553

        iscf     Eharris(eV)        E_KS(eV)     FreeEng(eV)     dDmax    Ef(eV) dHmax(eV)
   scf:    1    -5108.802160    -5504.510527    -5504.524553  1.402215 -7.270729  1.324533
timer: Routine,Calls,Time,% = IterSCF        1      24.113  77.15
   scf:    2    -5506.194616    -5505.363699    -5505.374670  0.164389 -7.109206  0.946585
   scf:    3    -5506.969216    -5506.230552    -5506.238791  0.332926 -6.690432  0.043963
   scf:    4    -5506.231535    -5506.232785    -5506.241428  0.004522 -6.691049  0.016529
   scf:    5    -5506.230928    -5506.231908    -5506.240644  0.001082 -6.691482  0.026748
   scf:    6    -5506.234350    -5506.233519    -5506.242007  0.001970 -6.693693  0.000187
   scf:    7    -5506.233519    -5506.233519    -5506.242007  0.000008 -6.693691  0.000225

SCF Convergence by FreeE+DM+H criterion
|FreeE_i-FreeE_(i-1)| (eV) <     0.00100000
max |DM_out - DM_in|         :     0.0000082094
max |H_out - H_in|      (eV) :     0.0002249801
SCF cycle converged after 7 iterations

Using DM_out to compute the final energy and forces
No. of atoms with KB's overlaping orbs in proc 0. Max # of overlaps:     354     990

MM-Stress (kbar):       83.79       83.79      118.28        0.00        0.00        0.00

siesta: E_KS(eV) =            -5506.2335

siesta: E_KS - E_eggbox =     -5506.2335

siesta: Atomic forces (eV/Ang):
     1   -0.000139    0.000077   -0.000000
     2    0.000158   -0.000092   -0.000000
     3   -0.000117    0.000091   -0.000000
     4    0.000113   -0.000079   -0.000000
     5   -0.000158    0.000113   -0.000000
     6    0.000169   -0.000115   -0.000000
     7   -0.000170    0.000051   -0.000000
     8    0.000162   -0.000061   -0.000000
     9    0.000168   -0.000101   -0.000000
    10   -0.000178    0.000096   -0.000000
    11    0.000130   -0.000104   -0.000000
    12   -0.000120    0.000098   -0.000000
    13    0.000147   -0.000050   -0.000000
    14   -0.000146    0.000062   -0.000000
    15   -0.000155    0.000089   -0.000000
    16    0.000143   -0.000079   -0.000000
    17   -0.000150    0.000089   -0.000000
    18    0.000144   -0.000083   -0.000000
    19    0.000164    0.000060    0.000000
    20   -0.000145   -0.000065    0.000000
    21    0.000029   -0.000167    0.000000
    22   -0.000014    0.000150    0.000000
    23    0.000282   -0.000170    0.000000
    24   -0.000276    0.000163    0.000000
    25    0.000165    0.000006    0.000000
    26   -0.000175    0.000016    0.000000
    27    0.000074   -0.000113    0.000000
    28   -0.000066    0.000112    0.000000
    29    0.000203   -0.000148    0.000000
    30   -0.000224    0.000144    0.000000
    31    0.000197    0.000011    0.000000
    32   -0.000202   -0.000016    0.000000
    33    0.000035   -0.000091    0.000000
    34   -0.000049    0.000100    0.000000
    35    0.000218   -0.000174    0.000000
    36   -0.000216    0.000183    0.000000
----------------------------------------
   Tot    0.000000    0.000002   -0.000000
----------------------------------------
   Max    0.000282
   Res    0.000111    sqrt( Sum f_i^2 / 3N )
----------------------------------------
   Max    0.000282    constrained

Stress tensor Voigt[x,y,z,yz,xz,xy] (kbar):     -652.69     -652.94    -3214.91       -0.00       -0.00       -0.22
(Free)E + p*V (eV/cell)    -5350.9318
Target enthalpy (eV/cell)    -5506.2420

siesta: Eigenvalues (eV):
  ik is       eps
   1  1  -32.4492  -31.7423  -31.7423  -29.6588  -29.6588  -28.3141  -27.7124  -27.7124  -26.8452  -25.5455
         -25.3267  -25.3267  -23.2123  -22.7365  -22.6747  -22.6747  -22.0603  -21.8046  -21.7939  -21.7939
  -21.2761  -21.2760  -21.0830  -21.0830  -20.6213  -19.7984  -19.6089  -19.6089  -19.5654  -19.5654
  -19.0574  -19.0574  -18.6616  -18.6616  -18.4336  -18.2583  -18.1296  -18.1296  -17.8443  -17.8443
  -17.7682  -17.4454  -17.4454  -16.8853  -16.6043  -16.6043  -15.9547  -15.8568  -15.4927  -15.3029
  -15.2531  -15.2531  -14.6923  -14.1629  -14.1629  -13.7203  -13.7203  -13.1904  -13.1904  -12.3715
  -12.3715  -12.3308  -12.3308  -12.2186  -12.1487  -11.8280  -10.2113   -9.1040   -9.1040   -7.9762
   -6.9642   -6.2538   -6.2538   -5.5265   -5.5265   -5.2850   -5.2850   -5.1299   -5.1299   -4.2794
   -4.2794   -4.0461   -3.5129   -3.3061   -3.3061   -3.0025   -2.3712   -2.3634   -2.3634   -1.8441
   -0.5548   -0.5548    0.3560    0.4118    0.9867    0.9867    1.3598    2.2780    2.6746    3.1115
    3.1115    3.7092    3.7092    3.7213    3.7213    3.7714    3.8209    4.0014    4.0014    4.3269
    4.3269    4.6401    4.6401    4.6591    4.6591    5.5063    5.5063    5.6343    5.7365    6.2184
    6.4477    7.0886    7.3925    7.3925    7.6726    7.6726    7.7597    8.1467    8.1467    8.2265
    9.4894    9.4894    9.7951    9.7951    9.9809    9.9809   11.3427   11.4754   11.5907   11.5907
   12.3428   12.3428   12.4320   12.4320   12.5000   12.5000   12.5740   12.5740   12.7349   13.2345
   13.4493   13.5792   14.0339   14.2968   14.3518   14.3518   15.1200   15.2337   15.3985   15.3985
   15.6144   15.6144   16.2216   16.3383   16.3383   16.4473   17.1470   17.1470   17.1893   17.7944
   17.8733   18.3499   18.4982   18.4983   18.7675   18.7676   18.9036   18.9036   19.5574   19.5574
   23.0636   23.0636   23.3052   24.6735   25.1887   25.7273   25.7273   27.2020   27.2020   28.3875
   28.5603   28.6440   28.6440   28.6930   28.7202   28.7203   28.8299   29.1383   29.1383   30.0662
   30.9510   30.9510   31.5173   32.9862   33.2674   33.2674   34.3024   34.3024   34.3682   34.3682
   35.0366   35.0366   35.4361   35.4923   36.6095   36.6095   37.4554   37.4555   38.7363   38.7363
   39.4208   39.4449   40.8683   40.8683   40.8828   40.8828   41.3902   41.3902   41.8181   41.8181
   41.9371   42.1421   42.4889   42.6434   42.7916   42.7916   43.2171   43.2171   43.3129   43.7728
   43.7728   44.2787   44.2787   44.3042   44.9270   44.9464   45.3189   45.5540   45.5540   46.1538
   46.4549   46.4550   46.7076   46.7076   46.9649   47.8804   48.0791   48.0791   48.1011   48.1011
   48.6280   48.6643   49.2344   50.5036   50.5036   51.5731   51.5732   51.8508   52.2063   52.2063
   52.9513   52.9513   53.1462   53.3678   53.6140   54.5842   54.5842   55.0828   55.0828   56.1445
   56.5782   56.5782   57.4742   58.6327   58.6327   59.1587   59.1588   60.7562   60.7562   61.0613
   61.0613   61.7405   61.7406   62.5497   62.6963   63.1920   63.3647   63.3648   63.4825   63.4825
   63.6136   63.6136   64.1908   64.1908   64.8709   65.1230   65.2319   65.2319   65.7634   65.7635
   65.8623   65.8623   65.8907   66.1875   66.4936   66.5328   66.5329   66.5822   67.2647   67.2647
   67.3443   68.2670   68.9469   68.9469   69.1853   69.1853   69.3674   69.4831   69.4831   69.6195
   69.6196   69.6591   69.6869   69.8348   70.0153   70.0153   70.9245   71.2307   72.1571   72.8300
   73.1713   73.1714   73.5562   73.5562   74.6344   75.7222   76.1704   76.1704   76.2864   76.2865
   76.4178   77.8031   78.2094   78.6550   78.6551   80.0703   80.0704   80.3056   80.3057   81.9732
   82.1742   82.2217   82.2217   82.7919   82.7920   82.8820   83.4730   83.4731   83.5038   83.5776
   87.7327   88.1423   88.1425   88.3309   89.1888   89.1889   90.8799   91.9044   91.9044   92.2906
   92.2907   93.2393   93.2394   94.8462   94.8463   94.9679   94.9681   95.8328   95.8329   96.3571
   96.7857   97.0507   97.0507   98.0491   98.0494   98.0540  101.2246  101.3581  101.3582  101.5185
  102.1821  102.9079  103.4110  103.4114  104.6582  104.6582  105.9860  105.9863  107.2518  107.2519
  108.9609  109.0136  112.6516  112.6910  113.5835  113.5842  116.3438  117.2807  117.2811  117.9503
  122.9465  125.6262  125.6275  126.9987  126.9992  132.9457  133.0913  134.8231  134.8239  136.8891
  137.5429  137.5433  138.3439  139.2779  139.2787  139.9954  140.1649  140.1650  141.5740  141.5741
  141.6213  142.2308  142.7815  142.7820  143.3087  143.3097  144.5042  144.5045  148.3898  148.4068
  148.4072  148.7052  149.7173  150.1879  150.9182  150.9197  156.1880  156.1892  156.7333  157.5476
  158.8485  158.8504  161.1653  161.1660  161.9904  161.9910  171.1631  182.3227
   2  1  -32.8040  -31.3905  -30.6923  -30.6923  -29.3187  -29.3186  -28.6523  -26.7762  -26.7761  -24.4146
         -24.4145  -24.4138  -23.4862  -23.1724  -23.1723  -22.4579  -22.4299  -22.4298  -22.4137  -21.9243
  -21.9243  -20.8914  -20.7793  -20.7792  -20.6008  -20.6006  -20.2597  -20.1375  -20.1375  -19.4011
  -18.7396  -18.7396  -18.6240  -18.6239  -18.3160  -18.3158  -18.1545  -17.7456  -17.6179  -17.6177
  -17.3196  -17.2052  -17.2052  -16.6535  -16.6535  -16.3650  -16.3135  -16.3134  -15.9072  -15.9069
  -14.6879  -14.6876  -14.6344  -14.2034  -14.0716  -13.4545  -13.4541  -13.2610  -12.9662  -12.9658
  -12.3109  -11.7884  -11.6515  -11.5095  -11.3058  -11.3058  -10.4561  -10.4561   -8.8795   -8.8795
   -7.9780   -7.9779   -6.7379   -6.0872   -4.9453   -4.9452   -4.9443   -4.9443   -4.6898   -4.6305
   -4.6305   -4.3123   -4.2718   -4.2716   -3.9514   -3.8817   -2.4339   -2.3431   -1.3970   -0.2987
    0.0715    0.0717    1.3296    1.5158    1.7967    1.7968    2.5457    2.5553    3.4827    3.4828
    3.6974    3.7294    3.7453    3.7453    3.7743    3.8798    3.8802    3.9069    3.9070    3.9975
    3.9975    4.0845    4.0847    4.5032    4.7314    4.7315    5.1130    6.0167    6.3703    6.3707
    6.3844    6.5565    6.5566    7.1500    7.1507    7.9970    8.4786    8.6146    8.6147    8.8316
    9.0417    9.0752    9.0753    9.6304    9.6310   10.0478   10.0478   10.5452   10.5455   10.8975
   10.9421   11.1093   11.1093   11.3946   11.3947   12.0445   12.4797   12.4803   13.3868   13.3868
   14.1375   14.1376   14.7760   14.7766   15.0075   15.2522   15.2525   15.3100   15.7679   15.7682
   15.8742   15.9773   15.9776   16.5375   16.5375   16.8226   16.9463   16.9463   17.0153   17.2544
   18.2093   18.2761   18.2761   19.2619   19.4053   19.4063   19.4372   19.5329   19.5334   19.7229
   23.8327   23.9714   24.0568   24.0568   24.5003   24.8758   24.8758   25.0156   26.9084   26.9084
   27.9532   28.0850   28.5029   28.5030   29.0414   29.0415   29.2957   29.6454   29.6455   30.6295
   31.4274   32.0135   32.0139   32.1214   32.7608   32.7619   34.2052   34.2053   34.3264   34.5801
   34.5806   35.1402   35.1412   36.1227   36.9857   36.9862   38.0365   38.0367   38.1899   38.3852
   39.8419   39.9530   39.9534   40.0450   40.3926   40.4181   40.5788   40.5788   40.7949   40.9447
   40.9448   41.9126   42.1361   42.1363   43.1734   43.4966   43.5481   43.5481   44.0948   45.5000
   45.5000   45.6108   45.6114   45.6270   45.6273   45.8122   46.4971   46.4971   46.7123   46.7126
   47.5902   47.5905   48.2517   48.2518   48.2539   48.2539   48.4297   48.4301   48.4847   48.8593
   49.3986   49.3987   50.6794   50.8675   50.8683   51.3678   51.3678   51.4090   51.4093   51.7030
   52.4091   53.6921   54.2807   54.4780   55.0153   55.0154   55.1090   55.4414   55.4427   56.9031
   57.7832   57.7844   57.8744   57.8748   58.1192   58.1194   58.2054   58.3084   58.3092   59.5012
   60.1678   60.5354   60.5360   61.7087   62.7220   62.7224   62.7293   62.7294   62.7331   62.7332
   63.0244   63.2068   63.4534   64.0100   64.0101   64.5370   64.5375   64.8257   64.8264   64.9723
   64.9732   65.5728   66.2000   66.4445   66.6632   66.9671   67.5338   68.2105   68.4981   68.6909
   68.7123   68.7127   68.8325   69.5210   69.5215   69.7945   69.7945   69.9329   70.7783   70.7783
   71.2707   71.5260   71.5263   71.6211   71.6218   71.7770   72.3088   72.3089   72.3623   72.3627
   73.1476   73.1477   73.4548   74.4675   74.4676   75.3911   75.3914   75.5412   75.5885   75.8047
   75.8050   76.2810   76.2830   76.2831   76.2928   77.1135   77.1140   77.3973   77.3979   78.2559
   81.8612   85.0122   85.0134   86.1041   86.2279   86.3517   87.5002   87.5049   88.0820   88.0822
   88.3017   89.0762   89.7369   89.7387   89.9585   89.9591   90.4875   90.4894   92.0030   92.3365
   93.2614   93.6480   93.6483   94.9525   94.9528   95.4071   96.9209   96.9214   98.1720   98.1737
  100.4085  101.7423  101.7424  102.3681  103.2217  103.2223  104.2822  104.2824  104.5342  104.5503
  104.5513  106.4946  106.4958  109.2406  109.2407  109.6010  110.3399  110.3403  111.9340  112.4235
  115.0561  115.3068  115.3094  116.4355  116.5878  119.2422  119.2443  120.6151  121.2665  121.2671
  121.7907  121.7913  122.6430  122.6441  124.5434  128.3682  128.7767  132.0457  132.0467  135.5341
  137.2636  137.2637  137.6777  137.6788  138.6921  138.6939  139.2191  139.9555  139.9585  140.0890
  140.3613  142.7424  142.7434  143.3692  144.5591  146.6962  146.6972  146.8731  146.8736  146.8738
  146.8764  149.5635  149.5647  151.1026  151.1034  153.0784  153.5220  153.5223  155.0091  155.0099
  155.2130  157.7933  157.7940  168.1335  170.0736  170.0751  170.2877  174.4138
   3  1  -32.8040  -31.3905  -30.6923  -30.6923  -29.3187  -29.3187  -28.6523  -26.7761  -26.7761  -24.4146
         -24.4146  -24.4137  -23.4862  -23.1724  -23.1724  -22.4579  -22.4298  -22.4298  -22.4136  -21.9243
  -21.9243  -20.8914  -20.7792  -20.7792  -20.6008  -20.6008  -20.2596  -20.1375  -20.1375  -19.4009
  -18.7396  -18.7396  -18.6239  -18.6239  -18.3158  -18.3158  -18.1545  -17.7459  -17.6177  -17.6177
  -17.3194  -17.2054  -17.2054  -16.6535  -16.6535  -16.3653  -16.3136  -16.3136  -15.9069  -15.9069
  -14.6878  -14.6878  -14.6341  -14.2038  -14.0713  -13.4541  -13.4541  -13.2615  -12.9658  -12.9658
  -12.3114  -11.7880  -11.6515  -11.5099  -11.3058  -11.3058  -10.4561  -10.4561   -8.8795   -8.8795
   -7.9780   -7.9780   -6.7379   -6.0870   -4.9453   -4.9453   -4.9443   -4.9443   -4.6896   -4.6305
   -4.6305   -4.3123   -4.2717   -4.2717   -3.9514   -3.8817   -2.4339   -2.3427   -1.3975   -0.2986
    0.0716    0.0716    1.3301    1.5152    1.7969    1.7969    2.5451    2.5558    3.4825    3.4825
    3.6977    3.7294    3.7453    3.7453    3.7746    3.8800    3.8800    3.9070    3.9070    3.9975
    3.9975    4.0845    4.0845    4.5032    4.7312    4.7312    5.1130    6.0160    6.3706    6.3706
    6.3844    6.5564    6.5564    7.1507    7.1507    7.9977    8.4777    8.6147    8.6147    8.8316
    9.0421    9.0756    9.0756    9.6310    9.6310   10.0478   10.0478   10.5451   10.5451   10.8964
   10.9421   11.1093   11.1093   11.3945   11.3945   12.0454   12.4797   12.4797   13.3868   13.3868
   14.1380   14.1380   14.7763   14.7763   15.0075   15.2521   15.2521   15.3106   15.7681   15.7681
   15.8743   15.9771   15.9771   16.5375   16.5375   16.8230   16.9463   16.9463   17.0153   17.2545
   18.2094   18.2761   18.2761   19.2626   19.4057   19.4057   19.4372   19.5324   19.5324   19.7239
   23.8328   23.9715   24.0568   24.0568   24.5002   24.8758   24.8758   25.0157   26.9084   26.9084
   27.9532   28.0854   28.5030   28.5030   29.0412   29.0412   29.2949   29.6456   29.6456   30.6295
   31.4263   32.0137   32.0137   32.1218   32.7617   32.7617   34.2052   34.2052   34.3263   34.5800
   34.5800   35.1414   35.1414   36.1214   36.9868   36.9868   38.0366   38.0366   38.1883   38.3854
   39.8428   39.9532   39.9532   40.0450   40.3913   40.4180   40.5785   40.5785   40.7963   40.9448
   40.9448   41.9129   42.1361   42.1361   43.1717   43.4981   43.5480   43.5480   44.0954   45.5000
   45.5000   45.6112   45.6112   45.6270   45.6270   45.8130   46.4971   46.4971   46.7124   46.7124
   47.5898   47.5898   48.2517   48.2517   48.2538   48.2538   48.4297   48.4297   48.4849   48.8598
   49.3986   49.3986   50.6795   50.8677   50.8677   51.3678   51.3678   51.4096   51.4096   51.7027
   52.4093   53.6898   54.2804   54.4783   55.0155   55.0155   55.1097   55.4429   55.4429   56.9028
   57.7843   57.7844   57.8748   57.8749   58.1194   58.1194   58.2055   58.3091   58.3091   59.4991
   60.1686   60.5359   60.5359   61.7059   62.7212   62.7212   62.7302   62.7302   62.7331   62.7331
   63.0254   63.2071   63.4531   64.0094   64.0095   64.5381   64.5381   64.8259   64.8259   64.9735
   64.9735   65.5702   66.1971   66.4472   66.6640   66.9650   67.5308   68.2135   68.4986   68.6912
   68.7123   68.7123   68.8329   69.5210   69.5211   69.7944   69.7944   69.9325   70.7783   70.7783
   71.2709   71.5261   71.5262   71.6209   71.6210   71.7770   72.3089   72.3089   72.3634   72.3635
   73.1478   73.1478   73.4543   74.4676   74.4676   75.3912   75.3912   75.5415   75.5880   75.8051
   75.8052   76.2791   76.2830   76.2831   76.2955   77.1129   77.1129   77.3973   77.3974   78.2573
   81.8595   85.0132   85.0133   86.1058   86.2281   86.3520   87.5002   87.5061   88.0821   88.0823
   88.3037   89.0733   89.7376   89.7380   89.9576   89.9579   90.4899   90.4900   92.0033   92.3379
   93.2588   93.6479   93.6481   94.9523   94.9525   95.4092   96.9198   96.9199   98.1727   98.1728
  100.4089  101.7420  101.7421  102.3689  103.2207  103.2208  104.2816  104.2816  104.5357  104.5504
  104.5504  106.4946  106.4948  109.2406  109.2407  109.6037  110.3419  110.3420  111.9304  112.4199
  115.0527  115.3091  115.3095  116.4389  116.5838  119.2443  119.2451  120.6161  121.2663  121.2666
  121.7913  121.7920  122.6432  122.6434  124.5446  128.3685  128.7779  132.0461  132.0464  135.5338
  137.2634  137.2638  137.6762  137.6775  138.6938  138.6946  139.2195  139.9579  139.9582  140.0832
  140.3629  142.7413  142.7418  143.3694  144.5525  146.6969  146.6983  146.8738  146.8742  146.8753
  146.8757  149.5631  149.5638  151.1040  151.1048  153.0790  153.5215  153.5218  155.0088  155.0092
  155.2155  157.7971  157.7991  168.1309  170.0728  170.0747  170.2904  174.4091
   4  1  -32.4492  -31.7423  -31.7423  -29.6589  -29.6588  -28.3141  -27.7124  -27.7124  -26.8452  -25.5456
         -25.3267  -25.3266  -23.2123  -22.7365  -22.6748  -22.6747  -22.0603  -21.8047  -21.7940  -21.7940
  -21.2761  -21.2760  -21.0831  -21.0830  -20.6211  -19.7983  -19.6089  -19.6088  -19.5653  -19.5652
  -19.0574  -19.0574  -18.6617  -18.6615  -18.4337  -18.2584  -18.1296  -18.1294  -17.8444  -17.8443
  -17.7682  -17.4454  -17.4454  -16.8853  -16.6045  -16.6043  -15.9545  -15.8568  -15.4929  -15.3031
  -15.2533  -15.2532  -14.6919  -14.1626  -14.1626  -13.7207  -13.7203  -13.1903  -13.1901  -12.3719
  -12.3715  -12.3308  -12.3308  -12.2186  -12.1486  -11.8284  -10.2113   -9.1040   -9.1040   -7.9762
   -6.9642   -6.2538   -6.2538   -5.5265   -5.5265   -5.2850   -5.2849   -5.1299   -5.1299   -4.2794
   -4.2794   -4.0461   -3.5129   -3.3060   -3.3058   -3.0025   -2.3710   -2.3635   -2.3634   -1.8442
   -0.5550   -0.5549    0.3559    0.4117    0.9867    0.9868    1.3597    2.2783    2.6741    3.1118
    3.1120    3.7092    3.7092    3.7213    3.7213    3.7714    3.8209    4.0012    4.0014    4.3269
    4.3271    4.6401    4.6401    4.6585    4.6591    5.5060    5.5061    5.6343    5.7363    6.2185
    6.4478    7.0887    7.3922    7.3923    7.6731    7.6731    7.7596    8.1465    8.1468    8.2262
    9.4894    9.4894    9.7953    9.7955    9.9808    9.9811   11.3428   11.4757   11.5906   11.5911
   12.3428   12.3428   12.4315   12.4316   12.4997   12.4998   12.5740   12.5740   12.7354   13.2345
   13.4495   13.5794   14.0338   14.2970   14.3513   14.3517   15.1200   15.2332   15.3986   15.3993
   15.6144   15.6145   16.2216   16.3383   16.3383   16.4467   17.1468   17.1471   17.1900   17.7947
   17.8734   18.3499   18.4984   18.4991   18.7672   18.7678   18.9027   18.9034   19.5574   19.5574
   23.0636   23.0636   23.3052   24.6736   25.1889   25.7272   25.7273   27.2017   27.2021   28.3875
   28.5604   28.6440   28.6440   28.6931   28.7199   28.7202   28.8299   29.1383   29.1384   30.0662
   30.9501   30.9509   31.5178   32.9857   33.2673   33.2674   34.3022   34.3024   34.3687   34.3691
   35.0366   35.0367   35.4361   35.4919   36.6092   36.6099   37.4543   37.4556   38.7372   38.7373
   39.4210   39.4440   40.8685   40.8688   40.8818   40.8825   41.3901   41.3901   41.8180   41.8181
   41.9372   42.1422   42.4887   42.6430   42.7917   42.7918   43.2171   43.2177   43.3134   43.7732
   43.7737   44.2785   44.2789   44.3043   44.9266   44.9460   45.3189   45.5539   45.5539   46.1538
   46.4548   46.4550   46.7076   46.7076   46.9650   47.8804   48.0790   48.0791   48.1005   48.1007
   48.6280   48.6643   49.2344   50.5036   50.5037   51.5735   51.5739   51.8508   52.2063   52.2064
   52.9511   52.9514   53.1463   53.3682   53.6139   54.5829   54.5843   55.0829   55.0830   56.1455
   56.5781   56.5782   57.4741   58.6327   58.6330   59.1591   59.1592   60.7549   60.7565   61.0614
   61.0615   61.7404   61.7406   62.5508   62.6953   63.1914   63.3647   63.3656   63.4822   63.4824
   63.6130   63.6145   64.1906   64.1906   64.8709   65.1219   65.2318   65.2321   65.7632   65.7639
   65.8621   65.8622   65.8906   66.1866   66.4944   66.5311   66.5329   66.5824   67.2647   67.2648
   67.3443   68.2671   68.9470   68.9474   69.1852   69.1854   69.3675   69.4831   69.4835   69.6189
   69.6195   69.6595   69.6885   69.8349   70.0151   70.0153   70.9247   71.2308   72.1559   72.8297
   73.1700   73.1722   73.5558   73.5562   74.6346   75.7223   76.1701   76.1708   76.2858   76.2862
   76.4180   77.8017   78.2079   78.6551   78.6552   80.0703   80.0707   80.3055   80.3071   81.9727
   82.1748   82.2216   82.2218   82.7917   82.7931   82.8817   83.4729   83.4732   83.5035   83.5776
   87.7327   88.1424   88.1440   88.3310   89.1880   89.1898   90.8802   91.9044   91.9050   92.2894
   92.2902   93.2391   93.2395   94.8478   94.8488   94.9677   94.9688   95.8330   95.8332   96.3587
   96.7860   97.0505   97.0529   98.0472   98.0478   98.0532  101.2222  101.3570  101.3577  101.5180
  102.1830  102.9073  103.4111  103.4118  104.6581  104.6585  105.9860  105.9862  107.2498  107.2511
  108.9614  109.0149  112.6512  112.6910  113.5819  113.5828  116.3471  117.2767  117.2801  117.9526
  122.9478  125.6292  125.6297  127.0016  127.0019  132.9442  133.0915  134.8235  134.8240  136.8850
  137.5413  137.5434  138.3411  139.2774  139.2781  139.9967  140.1650  140.1652  141.5720  141.5724
  141.6213  142.2317  142.7813  142.7819  143.3091  143.3093  144.5034  144.5044  148.3904  148.4069
  148.4075  148.7052  149.7170  150.1861  150.9185  150.9209  156.1894  156.1907  156.7352  157.5461
  158.8481  158.8504  161.1656  161.1666  161.9908  161.9913  171.1634  182.3212
   5  1  -32.8040  -31.3905  -30.6923  -30.6923  -29.3187  -29.3186  -28.6523  -26.7762  -26.7761  -24.4146
         -24.4145  -24.4138  -23.4862  -23.1724  -23.1723  -22.4579  -22.4299  -22.4298  -22.4137  -21.9243
  -21.9243  -20.8914  -20.7793  -20.7792  -20.6008  -20.6006  -20.2597  -20.1375  -20.1375  -19.4011
  -18.7396  -18.7396  -18.6240  -18.6239  -18.3160  -18.3158  -18.1545  -17.7456  -17.6179  -17.6177
  -17.3196  -17.2052  -17.2052  -16.6535  -16.6535  -16.3650  -16.3135  -16.3134  -15.9072  -15.9069
  -14.6879  -14.6876  -14.6344  -14.2034  -14.0716  -13.4545  -13.4541  -13.2610  -12.9662  -12.9658
  -12.3109  -11.7884  -11.6515  -11.5095  -11.3058  -11.3058  -10.4561  -10.4561   -8.8795   -8.8795
   -7.9780   -7.9779   -6.7379   -6.0872   -4.9453   -4.9452   -4.9443   -4.9443   -4.6898   -4.6305
   -4.6305   -4.3123   -4.2718   -4.2716   -3.9514   -3.8817   -2.4339   -2.3431   -1.3970   -0.2987
    0.0715    0.0717    1.3296    1.5158    1.7967    1.7968    2.5457    2.5553    3.4827    3.4828
    3.6974    3.7294    3.7453    3.7453    3.7743    3.8798    3.8802    3.9069    3.9070    3.9975
    3.9975    4.0845    4.0847    4.5032    4.7313    4.7315    5.1130    6.0167    6.3703    6.3707
    6.3844    6.5565    6.5566    7.1500    7.1507    7.9970    8.4786    8.6146    8.6147    8.8316
    9.0417    9.0752    9.0753    9.6304    9.6310   10.0478   10.0478   10.5452   10.5455   10.8975
   10.9421   11.1093   11.1093   11.3946   11.3947   12.0445   12.4797   12.4803   13.3868   13.3868
   14.1375   14.1376   14.7760   14.7766   15.0075   15.2522   15.2525   15.3100   15.7679   15.7682
   15.8742   15.9773   15.9776   16.5375   16.5375   16.8226   16.9463   16.9463   17.0153   17.2544
   18.2093   18.2761   18.2761   19.2619   19.4053   19.4063   19.4372   19.5329   19.5334   19.7229
   23.8327   23.9714   24.0568   24.0568   24.5003   24.8758   24.8758   25.0156   26.9084   26.9084
   27.9532   28.0850   28.5029   28.5030   29.0414   29.0415   29.2957   29.6454   29.6455   30.6295
   31.4274   32.0136   32.0138   32.1214   32.7608   32.7619   34.2052   34.2053   34.3264   34.5801
   34.5806   35.1402   35.1412   36.1227   36.9857   36.9862   38.0365   38.0367   38.1899   38.3852
   39.8419   39.9530   39.9534   40.0450   40.3926   40.4181   40.5788   40.5788   40.7949   40.9447
   40.9448   41.9126   42.1361   42.1363   43.1733   43.4966   43.5481   43.5481   44.0948   45.5000
   45.5000   45.6108   45.6114   45.6270   45.6273   45.8121   46.4971   46.4971   46.7123   46.7126
   47.5902   47.5905   48.2517   48.2518   48.2539   48.2539   48.4297   48.4301   48.4847   48.8593
   49.3986   49.3987   50.6794   50.8675   50.8683   51.3678   51.3678   51.4090   51.4093   51.7030
   52.4091   53.6920   54.2807   54.4780   55.0153   55.0154   55.1090   55.4413   55.4426   56.9031
   57.7832   57.7845   57.8743   57.8748   58.1192   58.1194   58.2054   58.3084   58.3092   59.5011
   60.1678   60.5354   60.5360   61.7087   62.7220   62.7224   62.7293   62.7294   62.7331   62.7332
   63.0244   63.2068   63.4534   64.0100   64.0102   64.5370   64.5375   64.8257   64.8264   64.9723
   64.9732   65.5728   66.2000   66.4445   66.6632   66.9670   67.5338   68.2105   68.4981   68.6909
   68.7123   68.7127   68.8325   69.5210   69.5215   69.7945   69.7945   69.9329   70.7783   70.7783
   71.2707   71.5260   71.5264   71.6211   71.6217   71.7770   72.3088   72.3089   72.3623   72.3628
   73.1476   73.1477   73.4548   74.4675   74.4676   75.3911   75.3914   75.5412   75.5885   75.8048
   75.8050   76.2811   76.2830   76.2831   76.2927   77.1136   77.1141   77.3973   77.3978   78.2559
   81.8613   85.0121   85.0132   86.1040   86.2278   86.3516   87.5002   87.5048   88.0820   88.0822
   88.3014   89.0761   89.7374   89.7387   89.9587   89.9591   90.4874   90.4894   92.0030   92.3365
   93.2616   93.6480   93.6483   94.9525   94.9528   95.4070   96.9209   96.9215   98.1720   98.1736
  100.4085  101.7423  101.7424  102.3681  103.2216  103.2222  104.2821  104.2824  104.5342  104.5502
  104.5514  106.4946  106.4957  109.2406  109.2407  109.6011  110.3403  110.3407  111.9339  112.4230
  115.0559  115.3074  115.3099  116.4350  116.5874  119.2418  119.2445  120.6150  121.2666  121.2671
  121.7916  121.7918  122.6430  122.6443  124.5435  128.3682  128.7763  132.0456  132.0463  135.5341
  137.2636  137.2640  137.6762  137.6788  138.6915  138.6941  139.2186  139.9563  139.9592  140.0881
  140.3619  142.7418  142.7432  143.3692  144.5589  146.6959  146.6982  146.8736  146.8739  146.8742
  146.8763  149.5637  149.5647  151.1028  151.1035  153.0784  153.5219  153.5224  155.0094  155.0108
  155.2136  157.7950  157.7962  168.1285  170.0725  170.0740  170.2884  174.4113
   6  1  -32.9814  -30.1724  -30.1724  -30.1724  -30.1724  -30.1724  -30.1724  -25.8574  -25.8574  -24.0692
         -24.0692  -24.0691  -24.0691  -23.6243  -22.6578  -22.1456  -22.1456  -22.1456  -22.1455  -22.1455
  -22.1455  -21.3151  -21.3151  -21.3151  -21.3151  -21.3150  -21.3150  -19.5970  -19.5969  -19.5969
  -19.5969  -19.5969  -19.5969  -17.5607  -17.5607  -17.2146  -17.2146  -17.2142  -17.2142  -17.2142
  -17.2142  -17.2054  -17.2054  -17.2052  -17.2052  -16.2026  -16.2026  -15.6791  -15.6791  -15.6791
  -15.6791  -15.6789  -15.6789  -13.6446  -13.6441  -12.8729  -12.8728  -12.8724  -12.8724  -12.8724
  -12.8724  -11.5551  -11.5545  -10.5422  -10.5422  -10.5422  -10.5422   -9.3307   -9.3307   -9.3307
   -9.3307   -9.3307   -9.3307   -5.5601   -5.5601   -5.5601   -5.5601   -5.5599   -5.5599   -4.1550
   -4.1550   -4.1550   -4.1550   -4.1550   -4.1550   -3.8185   -1.8389   -1.8273   -1.8266   -0.7154
    0.7003    0.7011    2.8800    2.8800    3.3816    3.3816    3.3816    3.3816    3.3820    3.3820
    3.6062    3.6062    3.6065    3.6065    3.9558    3.9558    3.9558    3.9558    3.9558    3.9558
    3.9816    3.9816    4.4839    5.5375    5.5375    5.5382    5.5382    5.5382    5.5382    5.6993
    5.6993    5.6993    5.6993    5.6998    5.6998    6.8004    8.7219    8.7219    8.7228    8.7228
    8.7228    8.7228    9.6213    9.6213    9.6213    9.6213    9.6213    9.6213   10.0328   10.0328
   11.3351   11.3351   11.3352   11.3352   11.3358   11.3358   11.9097   11.9097   11.9099   11.9099
   15.0347   15.0347   15.0347   15.0347   15.6493   15.6493   15.6493   15.6493   15.6498   15.6498
   15.8930   15.8930   15.8931   15.8931   16.5019   16.5020   17.0178   18.2235   18.2235   18.2235
   18.2236   18.2236   18.2236   18.3701   19.9503   19.9504   19.9504   19.9504   19.9513   19.9513
   22.1905   22.1906   23.3288   24.2330   24.2330   25.9539   25.9539   25.9539   25.9539   25.9539
   25.9539   28.2789   28.2790   30.2527   30.2527   30.2527   30.2527   30.2532   30.2532   30.9531
   32.5289   32.5289   32.5290   32.5290   32.8723   32.8723   32.8734   32.8735   32.8735   32.8735
   34.2654   34.2654   34.2666   34.2666   34.2666   34.2666   38.5562   38.5562   38.5563   38.5563
   38.5564   38.5564   39.1852   40.7121   40.7121   40.7121   40.7122   40.7126   40.7127   41.8387
   41.8407   42.7091   42.7112   44.2144   44.2144   45.5429   45.5429   45.5429   45.5429   45.5430
   45.5430   45.8505   45.8505   45.8505   45.8505   47.1591   47.1591   47.1591   47.1591   47.1593
   47.1594   48.7551   48.7551   48.7554   48.7554   49.2737   49.2737   49.2737   49.2737   49.2748
   49.2748   50.9277   50.9277   50.9277   50.9277   50.9279   50.9279   51.8296   51.8296   52.3045
   52.3045   53.2469   53.2470   53.2472   53.2472   53.2472   53.2473   55.5369   55.5373   57.1516
   57.1516   57.1541   57.1542   57.1542   57.1542   61.2318   61.2318   61.2338   61.2339   61.2339
   61.2340   61.7004   61.7008   61.7461   61.7461   61.7461   61.7462   61.7470   61.7470   62.4831
   62.4831   62.7587   62.7587   62.7600   62.7600   65.5961   65.5995   66.4408   66.4408   66.4409
   66.4409   66.4411   66.4412   66.9351   66.9351   66.9351   66.9351   66.9359   66.9359   67.0150
   67.0189   68.4144   68.4145   68.4160   68.4161   69.8298   70.9805   70.9805   71.4805   71.4805
   71.4805   71.4806   71.4808   71.4809   71.5906   71.6807   71.6808   71.6827   71.6828   71.6828
   71.6829   72.3329   72.3329   72.3333   72.3333   72.3333   72.3333   75.1390   75.1390   75.1391
   75.1391   77.5796   80.2036   80.2036   80.2036   80.2036   80.2055   80.2055   84.6697   84.6698
   84.6725   84.6726   84.6727   84.6727   87.3254   87.5202   87.5202   87.5206   87.5208   87.5220
   87.5222   89.4159   89.4159   89.4161   89.4162   92.2464   92.2466   92.7848   93.4372   93.4374
   93.4374   93.4376   93.4377   93.4379   93.6121   93.6154   95.0155   95.0179   96.6391   96.6392
   96.6392   96.6392   96.6406   96.6407  105.5175  105.5175  105.5182  105.5183  108.8008  108.8009
  111.4266  111.4267  111.4268  111.4269  111.4282  111.4282  114.7256  114.7257  114.7287  114.7288
  114.7292  114.7293  115.8077  115.8078  115.8079  115.8080  115.8081  115.8082  118.1330  118.1365
  134.5749  134.5750  134.5751  134.5751  134.5763  134.5764  136.0440  136.0444  137.6364  141.0462
  141.0529  142.4509  142.4514  143.6564  143.6565  143.6582  143.6585  144.5239  144.5239  144.5294
  144.5297  144.5299  144.5310  148.8896  148.8899  148.8906  148.8911  148.8912  148.8917  151.3440
  151.3447  151.3455  151.3462  151.3472  151.3476  151.5547  151.5547  151.5547  151.5548  151.5549
  151.5551  151.8370  156.6058  156.6060  166.3951  166.3961  166.3986  166.3993
   7  1  -32.2720  -32.2720  -30.8668  -30.8668  -28.1559  -28.1559  -28.1559  -28.1559  -27.3046  -26.0467
         -23.9752  -23.9752  -23.9751  -23.9751  -23.0769  -23.0769  -22.0277  -22.0277  -21.8629  -21.8629
  -20.5755  -20.5755  -20.5754  -20.5754  -20.3213  -20.3213  -19.5934  -19.5934  -19.5543  -19.5543
  -19.5543  -19.5543  -18.9975  -18.7584  -18.4752  -18.4752  -17.9256  -17.6697  -17.6697  -17.6697
  -17.6697  -17.3146  -16.8369  -16.8369  -16.8369  -16.8369  -16.8316  -16.8316  -15.2879  -15.2879
  -14.5569  -14.5568  -14.5565  -14.5565  -13.8770  -13.8770  -13.4618  -13.4618  -13.3974  -12.7926
  -12.6824  -12.6824  -11.7607  -11.7607  -11.1799  -11.1799  -11.1799  -11.1799   -7.0350   -7.0350
   -6.7868   -6.7868   -6.7868   -6.7868   -6.2618   -5.3618   -5.3618   -4.5086   -4.5086   -4.3712
   -3.6203   -3.6203   -3.5403   -3.5403   -2.8404   -2.8404   -2.8404   -2.8404   -1.8152   -1.8152
   -1.3425   -1.3425    0.0953    0.0954    1.0468    1.0468    2.4692    2.4692    3.4763    3.4763
    3.6877    3.7585    3.7585    3.7585    3.7585    3.7814    3.9337    3.9337    3.9338    3.9338
    3.9432    3.9432    4.7006    4.7006    5.4043    5.4043    5.7493    5.7493    5.7494    5.7495
    5.8101    5.8101    6.7674    6.7674    7.0566    7.0566    8.5691    9.0794    9.0794    9.0795
    9.0796   10.0100   10.1941   10.1941   10.2921   10.3159   11.6076   11.6184   11.6184   11.6184
   11.6185   11.9342   11.9342   11.9343   11.9343   12.7820   12.7820   12.9691   12.9691   12.9692
   12.9692   12.9947   12.9947   14.5885   14.5885   14.5889   14.5889   15.2250   15.2250   15.9779
   15.9779   16.0223   16.0416   16.0416   17.5413   17.5413   17.5421   17.5421   17.6742   17.6742
   17.6742   17.6742   17.6788   17.6788   18.1305   18.1305   19.2321   19.2605   19.2605   20.4762
   22.4781   24.1129   24.1129   24.1129   24.1129   25.7589   25.7589   27.3432   27.3432   27.8242
   28.6020   28.6020   28.9358   28.9358   28.9359   28.9359   29.0862   29.0862   29.4167   29.4167
   30.1143   31.2135   31.2135   32.2904   32.2904   32.2912   32.2912   33.0981   35.9097   35.9097
   35.9099   35.9099   36.5670   36.5670   37.1890   37.1890   38.4226   38.4226   39.2423   39.2423
   39.4151   39.4151   39.7996   39.7996   40.8096   41.3206   41.3206   41.3208   41.3208   41.7359
   41.7359   41.7475   41.7475   42.3067   42.3067   42.3115   42.6438   43.3458   43.3459   43.7866
   43.7866   44.0821   44.0821   44.0821   44.0821   45.0917   45.0918   45.0918   45.0918   46.5769
   46.5769   46.5770   46.5770   47.0833   47.0833   47.1346   47.1346   47.1346   47.1346   49.0460
   50.5694   50.5695   50.5695   50.5695   52.4612   52.4613   52.4761   52.6040   52.6652   52.6652
   52.6657   52.6658   52.9652   52.9652   53.6576   53.9613   53.9613   55.1458   55.1458   56.7555
   56.7555   56.7559   56.7559   57.1185   57.1185   58.3883   58.9712   59.4508   60.0965   60.0966
   60.9638   60.9638   63.2241   63.2241   63.2252   63.2252   63.8842   63.8842   64.1700   64.1700
   64.1707   64.1707   64.9424   64.9424   64.9768   64.9768   64.9768   64.9768   65.1154   65.1154
   65.1544   65.5198   65.5198   65.6105   65.6105   66.0801   66.7199   66.7199   67.6255   67.6255
   68.7660   68.7660   68.9974   68.9974   69.1829   69.1830   69.8587   70.0664   70.0665   70.0668
   70.0669   70.3761   70.3761   71.9134   71.9135   72.0617   72.0618   72.0619   72.0620   72.3564
   72.3565   72.3565   72.3565   73.5791   73.5791   73.6129   74.0630   74.0631   74.0631   74.0631
   74.5248   74.6307   74.6307   75.8679   75.8679   77.5897   77.5897   82.1074   82.1075   82.1076
   82.1077   82.3275   84.4701   84.4701   84.4703   84.4703   84.5009   86.6231   86.6232   86.9864
   86.9864   87.6378   89.1729   89.1729   89.5358   89.5359   92.4011   92.4011   94.3084   94.3085
   95.1544   95.1544   95.3311   95.3313   95.5667   95.7752   96.0187   96.0188   96.0189   96.0190
   97.7429   97.7430   98.2816   98.2817   98.2818   98.2819   98.6656  100.2671  100.2671  100.2689
  100.2689  103.1114  103.4999  103.4999  103.5000  103.5001  108.8401  108.8403  110.9646  110.9647
  116.3372  119.3317  119.3317  119.6022  119.6025  119.8602  119.8605  123.0058  123.0060  123.0064
  123.0065  123.5504  123.5506  125.3415  125.3416  125.3449  125.3450  126.8679  126.8680  126.8702
  126.8702  128.7524  128.7525  136.2339  136.5533  138.0150  138.0150  138.8824  138.8827  139.6056
  139.9328  139.9329  139.9335  139.9336  144.7213  144.7217  146.4611  146.4612  146.4620  146.4622
  148.9565  148.9567  148.9569  148.9572  150.0419  150.0422  151.6263  151.6266  157.3433  157.3436
  157.9878  157.9880  157.9883  157.9886  160.3669  168.9451  173.8977  173.8980
   8  1  -32.4492  -31.7423  -31.7423  -29.6589  -29.6588  -28.3141  -27.7124  -27.7124  -26.8452  -25.5456
         -25.3267  -25.3266  -23.2123  -22.7365  -22.6748  -22.6747  -22.0603  -21.8047  -21.7940  -21.7940
  -21.2761  -21.2760  -21.0831  -21.0830  -20.6211  -19.7983  -19.6089  -19.6088  -19.5653  -19.5652
  -19.0574  -19.0574  -18.6617  -18.6615  -18.4337  -18.2584  -18.1296  -18.1294  -17.8444  -17.8443
  -17.7682  -17.4454  -17.4454  -16.8853  -16.6045  -16.6043  -15.9545  -15.8568  -15.4929  -15.3031
  -15.2533  -15.2532  -14.6919  -14.1626  -14.1626  -13.7207  -13.7203  -13.1903  -13.1901  -12.3719
  -12.3715  -12.3308  -12.3308  -12.2186  -12.1486  -11.8284  -10.2113   -9.1040   -9.1040   -7.9762
   -6.9642   -6.2538   -6.2538   -5.5265   -5.5265   -5.2850   -5.2849   -5.1299   -5.1299   -4.2794
   -4.2794   -4.0461   -3.5129   -3.3060   -3.3058   -3.0025   -2.3710   -2.3635   -2.3634   -1.8442
   -0.5550   -0.5549    0.3559    0.4117    0.9867    0.9868    1.3597    2.2783    2.6741    3.1118
    3.1120    3.7092    3.7092    3.7213    3.7213    3.7714    3.8209    4.0012    4.0014    4.3269
    4.3271    4.6401    4.6401    4.6585    4.6591    5.5060    5.5061    5.6343    5.7363    6.2185
    6.4478    7.0887    7.3922    7.3923    7.6731    7.6731    7.7596    8.1465    8.1468    8.2262
    9.4894    9.4894    9.7953    9.7955    9.9808    9.9811   11.3428   11.4757   11.5906   11.5911
   12.3428   12.3428   12.4315   12.4316   12.4997   12.4998   12.5740   12.5740   12.7354   13.2345
   13.4495   13.5794   14.0338   14.2970   14.3513   14.3517   15.1200   15.2332   15.3986   15.3993
   15.6144   15.6145   16.2216   16.3383   16.3383   16.4467   17.1468   17.1471   17.1900   17.7947
   17.8734   18.3499   18.4984   18.4991   18.7672   18.7678   18.9027   18.9034   19.5574   19.5574
   23.0636   23.0636   23.3052   24.6736   25.1889   25.7272   25.7273   27.2017   27.2021   28.3875
   28.5604   28.6440   28.6440   28.6931   28.7199   28.7202   28.8299   29.1383   29.1384   30.0662
   30.9501   30.9509   31.5178   32.9857   33.2673   33.2674   34.3022   34.3024   34.3687   34.3691
   35.0366   35.0367   35.4361   35.4919   36.6092   36.6099   37.4543   37.4556   38.7372   38.7373
   39.4210   39.4440   40.8685   40.8688   40.8818   40.8825   41.3901   41.3901   41.8180   41.8181
   41.9372   42.1422   42.4887   42.6430   42.7917   42.7918   43.2171   43.2177   43.3134   43.7732
   43.7737   44.2785   44.2789   44.3043   44.9266   44.9460   45.3189   45.5539   45.5539   46.1538
   46.4548   46.4550   46.7076   46.7076   46.9650   47.8804   48.0790   48.0791   48.1005   48.1007
   48.6280   48.6643   49.2344   50.5036   50.5037   51.5735   51.5739   51.8508   52.2063   52.2064
   52.9511   52.9514   53.1463   53.3682   53.6139   54.5829   54.5843   55.0829   55.0830   56.1455
   56.5781   56.5782   57.4741   58.6327   58.6330   59.1591   59.1592   60.7549   60.7565   61.0614
   61.0615   61.7404   61.7406   62.5508   62.6953   63.1914   63.3647   63.3656   63.4822   63.4824
   63.6130   63.6145   64.1906   64.1906   64.8709   65.1219   65.2318   65.2321   65.7632   65.7639
   65.8621   65.8622   65.8906   66.1866   66.4944   66.5311   66.5329   66.5824   67.2647   67.2648
   67.3443   68.2671   68.9470   68.9474   69.1852   69.1854   69.3675   69.4831   69.4835   69.6189
   69.6195   69.6595   69.6885   69.8349   70.0151   70.0153   70.9247   71.2308   72.1559   72.8297
   73.1700   73.1722   73.5558   73.5562   74.6346   75.7223   76.1701   76.1708   76.2858   76.2862
   76.4180   77.8017   78.2079   78.6551   78.6552   80.0703   80.0707   80.3055   80.3071   81.9727
   82.1748   82.2216   82.2218   82.7917   82.7931   82.8817   83.4729   83.4732   83.5035   83.5776
   87.7327   88.1424   88.1440   88.3310   89.1880   89.1898   90.8802   91.9044   91.9050   92.2894
   92.2902   93.2391   93.2395   94.8478   94.8488   94.9677   94.9688   95.8330   95.8332   96.3587
   96.7860   97.0505   97.0529   98.0472   98.0478   98.0532  101.2222  101.3570  101.3577  101.5180
  102.1830  102.9073  103.4111  103.4118  104.6581  104.6585  105.9860  105.9862  107.2498  107.2511
  108.9614  109.0149  112.6512  112.6910  113.5819  113.5828  116.3471  117.2767  117.2801  117.9526
  122.9478  125.6292  125.6297  127.0016  127.0019  132.9442  133.0915  134.8235  134.8240  136.8850
  137.5413  137.5434  138.3411  139.2774  139.2781  139.9967  140.1650  140.1652  141.5720  141.5724
  141.6213  142.2317  142.7813  142.7819  143.3091  143.3093  144.5034  144.5044  148.3904  148.4069
  148.4075  148.7052  149.7170  150.1861  150.9185  150.9209  156.1894  156.1907  156.7352  157.5461
  158.8481  158.8504  161.1656  161.1666  161.9908  161.9913  171.1634  182.3212
   9  1  -32.4492  -31.7423  -31.7423  -29.6589  -29.6588  -28.3141  -27.7124  -27.7124  -26.8452  -25.5456
         -25.3267  -25.3266  -23.2123  -22.7365  -22.6748  -22.6747  -22.0603  -21.8047  -21.7940  -21.7940
  -21.2761  -21.2760  -21.0831  -21.0830  -20.6211  -19.7983  -19.6089  -19.6088  -19.5653  -19.5652
  -19.0574  -19.0574  -18.6617  -18.6615  -18.4337  -18.2584  -18.1296  -18.1294  -17.8444  -17.8443
  -17.7682  -17.4454  -17.4454  -16.8853  -16.6045  -16.6043  -15.9545  -15.8568  -15.4929  -15.3031
  -15.2533  -15.2532  -14.6919  -14.1626  -14.1626  -13.7207  -13.7203  -13.1903  -13.1901  -12.3719
  -12.3715  -12.3308  -12.3308  -12.2186  -12.1486  -11.8284  -10.2113   -9.1040   -9.1040   -7.9762
   -6.9642   -6.2538   -6.2538   -5.5265   -5.5265   -5.2850   -5.2849   -5.1299   -5.1299   -4.2794
   -4.2794   -4.0461   -3.5129   -3.3060   -3.3058   -3.0025   -2.3710   -2.3635   -2.3634   -1.8442
   -0.5550   -0.5549    0.3559    0.4117    0.9867    0.9868    1.3597    2.2783    2.6741    3.1118
    3.1120    3.7092    3.7092    3.7213    3.7213    3.7714    3.8209    4.0012    4.0014    4.3269
    4.3271    4.6401    4.6401    4.6585    4.6591    5.5060    5.5061    5.6343    5.7363    6.2185
    6.4478    7.0887    7.3922    7.3924    7.6731    7.6731    7.7596    8.1465    8.1468    8.2262
    9.4894    9.4894    9.7953    9.7955    9.9808    9.9811   11.3428   11.4757   11.5906   11.5911
   12.3428   12.3428   12.4315   12.4316   12.4997   12.4998   12.5740   12.5740   12.7354   13.2345
   13.4495   13.5794   14.0338   14.2970   14.3513   14.3517   15.1200   15.2332   15.3986   15.3993
   15.6144   15.6145   16.2216   16.3383   16.3383   16.4467   17.1468   17.1471   17.1900   17.7947
   17.8734   18.3499   18.4984   18.4991   18.7672   18.7678   18.9027   18.9034   19.5574   19.5574
   23.0636   23.0636   23.3052   24.6736   25.1889   25.7272   25.7273   27.2017   27.2021   28.3875
   28.5604   28.6440   28.6440   28.6931   28.7199   28.7202   28.8299   29.1383   29.1384   30.0662
   30.9501   30.9509   31.5178   32.9857   33.2673   33.2674   34.3022   34.3024   34.3687   34.3691
   35.0366   35.0367   35.4361   35.4919   36.6092   36.6099   37.4543   37.4556   38.7372   38.7373
   39.4210   39.4441   40.8685   40.8688   40.8818   40.8825   41.3901   41.3901   41.8180   41.8181
   41.9372   42.1422   42.4887   42.6430   42.7917   42.7918   43.2171   43.2177   43.3134   43.7732
   43.7737   44.2785   44.2789   44.3043   44.9266   44.9459   45.3189   45.5539   45.5539   46.1538
   46.4548   46.4550   46.7076   46.7076   46.9650   47.8804   48.0790   48.0791   48.1004   48.1007
   48.6280   48.6644   49.2344   50.5036   50.5037   51.5735   51.5738   51.8508   52.2063   52.2064
   52.9511   52.9514   53.1463   53.3682   53.6139   54.5829   54.5843   55.0829   55.0830   56.1455
   56.5781   56.5782   57.4741   58.6327   58.6330   59.1591   59.1591   60.7549   60.7566   61.0614
   61.0614   61.7404   61.7406   62.5507   62.6953   63.1914   63.3647   63.3656   63.4822   63.4824
   63.6130   63.6145   64.1906   64.1906   64.8709   65.1218   65.2317   65.2321   65.7633   65.7638
   65.8621   65.8622   65.8906   66.1866   66.4944   66.5311   66.5329   66.5824   67.2647   67.2648
   67.3443   68.2671   68.9470   68.9473   69.1851   69.1854   69.3675   69.4831   69.4835   69.6189
   69.6196   69.6595   69.6886   69.8350   70.0151   70.0153   70.9247   71.2308   72.1559   72.8297
   73.1701   73.1722   73.5558   73.5562   74.6346   75.7223   76.1701   76.1708   76.2859   76.2862
   76.4180   77.8016   78.2082   78.6550   78.6552   80.0703   80.0707   80.3056   80.3071   81.9726
   82.1748   82.2216   82.2218   82.7918   82.7931   82.8817   83.4730   83.4732   83.5033   83.5776
   87.7327   88.1426   88.1440   88.3310   89.1881   89.1897   90.8802   91.9042   91.9049   92.2894
   92.2901   93.2391   93.2395   94.8475   94.8483   94.9677   94.9686   95.8331   95.8333   96.3585
   96.7862   97.0506   97.0529   98.0473   98.0482   98.0532  101.2221  101.3570  101.3576  101.5180
  102.1830  102.9074  103.4111  103.4119  104.6581  104.6585  105.9858  105.9863  107.2498  107.2512
  108.9612  109.0149  112.6512  112.6916  113.5811  113.5828  116.3464  117.2770  117.2807  117.9525
  122.9485  125.6280  125.6289  127.0013  127.0019  132.9448  133.0915  134.8229  134.8242  136.8872
  137.5418  137.5442  138.3414  139.2773  139.2786  139.9973  140.1650  140.1651  141.5720  141.5723
  141.6207  142.2309  142.7817  142.7819  143.3082  143.3092  144.5035  144.5041  148.3901  148.4065
  148.4067  148.7051  149.7186  150.1871  150.9177  150.9216  156.1876  156.1900  156.7343  157.5469
  158.8493  158.8499  161.1649  161.1667  161.9904  161.9912  171.1644  182.3231
  10  1  -32.2720  -32.2720  -30.8668  -30.8668  -28.1559  -28.1559  -28.1559  -28.1559  -27.3046  -26.0467
         -23.9752  -23.9752  -23.9751  -23.9751  -23.0769  -23.0769  -22.0277  -22.0277  -21.8629  -21.8629
  -20.5755  -20.5755  -20.5754  -20.5754  -20.3213  -20.3213  -19.5934  -19.5934  -19.5543  -19.5543
  -19.5543  -19.5543  -18.9975  -18.7584  -18.4752  -18.4752  -17.9256  -17.6697  -17.6697  -17.6697
  -17.6697  -17.3146  -16.8369  -16.8369  -16.8369  -16.8369  -16.8316  -16.8316  -15.2879  -15.2879
  -14.5569  -14.5568  -14.5565  -14.5565  -13.8770  -13.8770  -13.4618  -13.4618  -13.3974  -12.7926
  -12.6824  -12.6824  -11.7607  -11.7607  -11.1799  -11.1799  -11.1799  -11.1799   -7.0350   -7.0350
   -6.7868   -6.7868   -6.7868   -6.7868   -6.2618   -5.3618   -5.3618   -4.5086   -4.5086   -4.3712
   -3.6203   -3.6203   -3.5403   -3.5403   -2.8404   -2.8404   -2.8404   -2.8404   -1.8152   -1.8152
   -1.3425   -1.3425    0.0953    0.0954    1.0468    1.0468    2.4692    2.4692    3.4763    3.4763
    3.6877    3.7585    3.7585    3.7585    3.7585    3.7814    3.9337    3.9337    3.9338    3.9338
    3.9432    3.9432    4.7006    4.7006    5.4043    5.4043    5.7493    5.7493    5.7494    5.7495
    5.8101    5.8101    6.7674    6.7674    7.0566    7.0566    8.5691    9.0794    9.0794    9.0795
    9.0796   10.0100   10.1941   10.1941   10.2921   10.3159   11.6076   11.6184   11.6184   11.6185
   11.6185   11.9342   11.9342   11.9343   11.9343   12.7820   12.7820   12.9691   12.9691   12.9692
   12.9692   12.9947   12.9947   14.5885   14.5885   14.5889   14.5889   15.2250   15.2250   15.9779
   15.9779   16.0223   16.0416   16.0416   17.5413   17.5413   17.5421   17.5421   17.6742   17.6742
   17.6742   17.6742   17.6788   17.6788   18.1305   18.1305   19.2321   19.2605   19.2605   20.4762
   22.4781   24.1129   24.1129   24.1129   24.1129   25.7589   25.7589   27.3432   27.3432   27.8242
   28.6020   28.6020   28.9358   28.9358   28.9359   28.9359   29.0862   29.0862   29.4167   29.4167
   30.1144   31.2135   31.2135   32.2904   32.2904   32.2912   32.2912   33.0981   35.9097   35.9097
   35.9099   35.9099   36.5670   36.5670   37.1890   37.1890   38.4226   38.4226   39.2423   39.2423
   39.4151   39.4151   39.7996   39.7996   40.8096   41.3206   41.3206   41.3208   41.3208   41.7359
   41.7359   41.7475   41.7475   42.3067   42.3067   42.3115   42.6438   43.3458   43.3458   43.7866
   43.7867   44.0821   44.0821   44.0821   44.0821   45.0917   45.0917   45.0918   45.0918   46.5769
   46.5769   46.5770   46.5770   47.0833   47.0833   47.1346   47.1346   47.1346   47.1346   49.0460
   50.5694   50.5695   50.5695   50.5695   52.4612   52.4613   52.4761   52.6040   52.6652   52.6652
   52.6657   52.6658   52.9651   52.9652   53.6576   53.9613   53.9613   55.1458   55.1458   56.7555
   56.7555   56.7559   56.7559   57.1185   57.1185   58.3884   58.9712   59.4508   60.0965   60.0966
   60.9638   60.9638   63.2241   63.2241   63.2252   63.2252   63.8842   63.8843   64.1700   64.1700
   64.1707   64.1708   64.9424   64.9424   64.9768   64.9768   64.9768   64.9768   65.1154   65.1154
   65.1545   65.5197   65.5198   65.6105   65.6105   66.0801   66.7199   66.7199   67.6254   67.6255
   68.7660   68.7660   68.9974   68.9974   69.1829   69.1830   69.8587   70.0664   70.0665   70.0668
   70.0668   70.3761   70.3761   71.9136   71.9136   72.0618   72.0618   72.0619   72.0620   72.3565
   72.3565   72.3565   72.3566   73.5791   73.5791   73.6129   74.0630   74.0631   74.0632   74.0632
   74.5248   74.6306   74.6306   75.8678   75.8679   77.5896   77.5898   82.1074   82.1075   82.1075
   82.1078   82.3275   84.4701   84.4701   84.4702   84.4703   84.5011   86.6232   86.6233   86.9864
   86.9864   87.6379   89.1729   89.1729   89.5358   89.5359   92.4011   92.4011   94.3085   94.3085
   95.1543   95.1543   95.3311   95.3313   95.5668   95.7752   96.0187   96.0188   96.0188   96.0189
   97.7430   97.7430   98.2816   98.2817   98.2818   98.2819   98.6653  100.2671  100.2671  100.2689
  100.2690  103.1114  103.4999  103.5000  103.5000  103.5000  108.8400  108.8402  110.9648  110.9651
  116.3377  119.3324  119.3328  119.6014  119.6019  119.8590  119.8591  123.0058  123.0059  123.0064
  123.0066  123.5514  123.5514  125.3425  125.3431  125.3446  125.3449  126.8679  126.8683  126.8699
  126.8701  128.7521  128.7522  136.2344  136.5540  138.0135  138.0136  138.8822  138.8824  139.6057
  139.9334  139.9336  139.9337  139.9339  144.7230  144.7231  146.4613  146.4614  146.4617  146.4619
  148.9561  148.9563  148.9569  148.9572  150.0416  150.0418  151.6263  151.6268  157.3415  157.3417
  157.9881  157.9883  157.9886  157.9888  160.3667  168.9442  173.8966  173.8982
  11  1  -32.4492  -31.7423  -31.7423  -29.6589  -29.6588  -28.3141  -27.7124  -27.7124  -26.8452  -25.5456
         -25.3267  -25.3266  -23.2123  -22.7365  -22.6748  -22.6747  -22.0603  -21.8047  -21.7940  -21.7940
  -21.2761  -21.2760  -21.0831  -21.0830  -20.6211  -19.7983  -19.6089  -19.6088  -19.5653  -19.5652
  -19.0574  -19.0574  -18.6617  -18.6615  -18.4337  -18.2584  -18.1296  -18.1294  -17.8444  -17.8443
  -17.7682  -17.4454  -17.4454  -16.8853  -16.6045  -16.6043  -15.9545  -15.8568  -15.4929  -15.3031
  -15.2533  -15.2532  -14.6919  -14.1626  -14.1626  -13.7207  -13.7203  -13.1903  -13.1901  -12.3719
  -12.3715  -12.3308  -12.3308  -12.2186  -12.1486  -11.8284  -10.2113   -9.1040   -9.1040   -7.9762
   -6.9642   -6.2538   -6.2538   -5.5265   -5.5265   -5.2850   -5.2849   -5.1299   -5.1299   -4.2794
   -4.2794   -4.0461   -3.5129   -3.3060   -3.3058   -3.0025   -2.3710   -2.3635   -2.3634   -1.8442
   -0.5550   -0.5549    0.3559    0.4117    0.9867    0.9868    1.3597    2.2783    2.6741    3.1118
    3.1120    3.7092    3.7092    3.7213    3.7213    3.7714    3.8209    4.0012    4.0014    4.3269
    4.3271    4.6401    4.6401    4.6585    4.6591    5.5060    5.5061    5.6343    5.7363    6.2185
    6.4478    7.0887    7.3922    7.3924    7.6731    7.6731    7.7596    8.1465    8.1468    8.2262
    9.4894    9.4894    9.7953    9.7955    9.9808    9.9811   11.3428   11.4757   11.5906   11.5911
   12.3428   12.3428   12.4315   12.4316   12.4997   12.4998   12.5740   12.5740   12.7354   13.2345
   13.4495   13.5794   14.0338   14.2970   14.3513   14.3517   15.1200   15.2332   15.3986   15.3993
   15.6144   15.6145   16.2216   16.3383   16.3383   16.4467   17.1468   17.1471   17.1900   17.7947
   17.8734   18.3499   18.4984   18.4991   18.7672   18.7678   18.9027   18.9034   19.5574   19.5574
   23.0636   23.0636   23.3052   24.6736   25.1889   25.7272   25.7273   27.2017   27.2021   28.3875
   28.5604   28.6440   28.6440   28.6931   28.7199   28.7202   28.8299   29.1383   29.1384   30.0662
   30.9501   30.9509   31.5178   32.9857   33.2673   33.2674   34.3022   34.3024   34.3687   34.3691
   35.0366   35.0367   35.4361   35.4919   36.6092   36.6099   37.4543   37.4556   38.7372   38.7373
   39.4210   39.4441   40.8685   40.8688   40.8818   40.8825   41.3901   41.3901   41.8180   41.8181
   41.9372   42.1422   42.4887   42.6430   42.7917   42.7918   43.2171   43.2177   43.3134   43.7732
   43.7737   44.2785   44.2789   44.3043   44.9266   44.9459   45.3189   45.5539   45.5539   46.1538
   46.4548   46.4550   46.7076   46.7076   46.9650   47.8804   48.0790   48.0791   48.1004   48.1007
   48.6280   48.6644   49.2344   50.5036   50.5037   51.5735   51.5738   51.8508   52.2063   52.2064
   52.9511   52.9514   53.1463   53.3682   53.6139   54.5829   54.5843   55.0829   55.0830   56.1455
   56.5781   56.5782   57.4741   58.6327   58.6330   59.1591   59.1591   60.7549   60.7566   61.0614
   61.0614   61.7404   61.7406   62.5507   62.6953   63.1914   63.3647   63.3656   63.4822   63.4824
   63.6130   63.6145   64.1906   64.1906   64.8709   65.1218   65.2317   65.2321   65.7633   65.7638
   65.8621   65.8622   65.8906   66.1866   66.4944   66.5311   66.5329   66.5824   67.2647   67.2648
   67.3443   68.2671   68.9470   68.9473   69.1851   69.1854   69.3675   69.4831   69.4835   69.6189
   69.6196   69.6595   69.6886   69.8350   70.0151   70.0153   70.9247   71.2308   72.1559   72.8297
[...]
    6.2278    6.2278    7.2465    7.2465    7.2467    7.2467    8.9793    8.9793    9.8327    9.8327
    9.8332    9.8332   10.2259   10.2259   10.2261   10.2261   10.7962   10.7962   11.6395   11.6395
   12.2584   12.2584   12.2586   12.2586   14.6264   14.6264   14.9251   14.9251   14.9252   14.9252
   14.9654   14.9654   15.1618   15.1618   15.1620   15.1620   15.2287   15.2287   15.9610   15.9610
   17.1532   17.1532   17.1536   17.1536   18.2353   18.2353   18.2354   18.2354   18.8828   18.8828
   18.8835   18.8835   19.9446   19.9446   21.3202   21.3202   21.3203   21.3203   21.7047   21.7047
   21.7051   21.7051   22.4050   22.4050   23.7380   23.7380   23.7380   23.7380   25.0174   25.0174
   25.1920   25.1920   25.2747   25.2747   25.2748   25.2748   26.4587   26.4587   27.3948   27.3948
   27.9634   27.9634   27.9634   27.9634   31.3113   31.3113   31.3115   31.3115   32.2806   32.2806
   33.3627   33.3627   33.3633   33.3633   33.8543   33.8543   37.9218   37.9218   37.9228   37.9228
   38.3775   38.3775   38.4646   38.4646   38.4650   38.4650   38.6105   38.6105   38.8164   38.8164
   38.8165   38.8165   39.4691   39.4691   39.4695   39.4695   41.3133   41.3133   41.6019   41.6019
   42.1910   42.1910   42.3044   42.3044   42.3048   42.3048   43.6851   43.6851   44.3552   44.3552
   44.3554   44.3554   48.7129   48.7129   48.8404   48.8404   50.3211   50.3211   50.3211   50.3211
   50.3429   50.3429   50.3432   50.3432   50.5304   50.5305   51.0186   51.0186   51.0187   51.0187
   52.4317   52.4317   54.0650   54.0650   55.0415   55.0415   55.0417   55.0418   55.0774   55.0774
   55.0780   55.0780   55.2494   55.2494   57.2865   57.2866   57.2866   57.2866   57.9346   57.9346
   57.9349   57.9349   58.2325   58.2325   58.6982   58.6982   59.3403   59.3403   59.3406   59.3406
   60.2452   60.2452   60.5642   60.5642   60.5647   60.5647   66.3478   66.3478   66.3480   66.3480
   66.3967   66.3967   66.3971   66.3971   66.4022   66.4022   66.5361   66.5361   67.8628   67.8628
   67.8655   67.8655   68.4675   68.4676   70.7313   70.7313   70.7320   70.7320   71.8910   71.8910
   73.6514   73.6514   73.6519   73.6519   74.0930   74.0930   75.1967   75.1967   78.2883   78.2883
   78.2895   78.2895   78.6406   78.6406   80.3728   80.3728   80.5980   80.5980   80.6002   80.6002
   82.1696   82.1696   82.2324   82.2325   82.2328   82.2329   84.3794   84.3794   84.3800   84.3800
   86.0723   86.0723   93.1430   93.1430   93.1432   93.1432   93.2545   93.2545   93.2563   93.2564
   93.7260   93.7260   98.9670   98.9671   98.9679   98.9679  101.0426  101.0426  101.0440  101.0440
  102.5838  102.5838  102.9713  102.9713  103.7100  103.7101  103.7109  103.7110  107.8898  107.8899
  109.4398  109.4398  109.4417  109.4418  110.5143  110.5143  110.5148  110.5148  112.6031  112.6033
  113.5283  113.5283  116.9773  116.9773  116.9777  116.9777  118.3030  118.3032  119.4547  119.4548
  122.4736  122.4736  125.4659  125.4659  125.4666  125.4667  126.4490  126.4490  129.0473  129.0473
  129.0480  129.0481  129.6840  129.6840  129.6858  129.6859  131.1928  131.1928  131.7928  131.7928
  134.0524  134.0526  134.0543  134.0543  137.5013  137.5015  137.5021  137.5022  139.7929  139.7929
  139.7938  139.7939  140.6801  140.6802  142.0918  142.0918  142.0934  142.0934  145.9617  145.9618
  149.6836  149.6837  155.5413  155.5416  155.5423  155.5424  160.2869  160.2869  160.2882  160.2884
  161.0671  161.0673  161.0708  161.0709  165.5291  165.5293  169.1871  169.1873
  42  1  -29.7956  -29.7956  -29.7956  -29.7956  -28.4138  -28.4138  -28.4138  -28.4138  -25.7740  -25.7740
         -25.7740  -25.7740  -25.7739  -25.7739  -25.7739  -25.7739  -24.9854  -24.9854  -23.6255  -23.6255
  -21.6961  -21.6961  -21.6961  -21.6961  -21.6960  -21.6960  -21.6960  -21.6960  -18.0351  -18.0351
  -18.0351  -18.0351  -18.0349  -18.0349  -18.0349  -18.0349  -17.7400  -17.7400  -17.7400  -17.7400
  -16.2709  -16.2709  -16.2709  -16.2709  -15.9703  -15.9703  -15.1478  -15.1478  -15.1478  -15.1478
  -13.6854  -13.6854  -13.6854  -13.6854  -11.2057  -11.2057  -11.2057  -11.2057  -10.0881  -10.0881
  -10.0881  -10.0881   -8.2871   -8.2871   -8.2871   -8.2871   -8.2871   -8.2871   -8.2871   -8.2871
   -8.0377   -8.0377   -7.4253   -7.4253   -5.8876   -5.8876   -5.8876   -5.8876   -5.8875   -5.8875
   -5.8875   -5.8875   -4.4579   -4.4579   -4.4579   -4.4579   -3.8612   -3.8612   -3.8612   -3.8612
    0.3849    0.3849    1.0549    1.0549    1.0549    1.0549    1.1063    1.1063    1.1063    1.1063
    1.4249    1.4249    1.4249    1.4249    2.0239    2.0239    2.0239    2.0239    2.0240    2.0240
    2.0240    2.0240    4.4752    4.4752    4.4752    4.4752    6.5180    6.5180    6.5180    6.5180
    7.7069    7.7069    7.7069    7.7069    7.7072    7.7072    7.7072    7.7072    8.5591    8.5591
    8.5591    8.5591   10.8239   10.8239   11.2851   11.2851   11.2851   11.2851   11.2851   11.2851
   11.2851   11.2851   12.5677   12.5677   14.8710   14.8710   14.8710   14.8710   14.8710   14.8710
   14.8710   14.8710   16.0621   16.0621   16.0621   16.0621   16.3288   16.3288   16.3288   16.3288
   16.3294   16.3294   16.3294   16.3294   16.3611   16.3611   17.3389   17.3389   19.1260   19.1260
   19.8526   19.8526   19.8526   19.8526   20.9013   20.9013   20.9013   20.9013   22.6071   22.6071
   22.6071   22.6071   23.0552   23.0552   23.0552   23.0552   24.9905   24.9905   24.9905   24.9905
   25.1113   25.1113   25.1113   25.1113   25.1114   25.1114   25.1115   25.1115   27.6742   27.6742
   27.6742   27.6742   28.6994   28.6994   28.6994   28.6994   32.3202   32.3202   33.3988   33.3988
   33.3988   33.3988   33.3990   33.3990   33.3990   33.3990   37.9639   37.9639   37.9639   37.9639
   38.4303   38.4303   38.4303   38.4303   38.9940   38.9940   38.9941   38.9941   39.2487   39.2487
   39.4354   39.4354   39.4355   39.4355   39.4359   39.4359   39.4359   39.4359   40.3416   40.3416
   40.3416   40.3416   43.7631   43.7631   44.1459   44.1459   44.1459   44.1459   44.1459   44.1459
   44.1459   44.1459   49.2322   49.2322   49.2322   49.2322   49.2324   49.2324   49.2324   49.2324
   50.6842   50.6842   50.6843   50.6843   50.9012   50.9012   51.3874   51.3874   51.3874   51.3874
   52.7878   52.7879   52.7879   52.7879   54.6006   54.6006   55.3845   55.3845   55.3845   55.3845
   55.3850   55.3850   55.3850   55.3850   56.3172   56.3172   56.3172   56.3172   56.8197   56.8197
   58.8488   58.8488   58.8488   58.8488   58.8491   58.8491   58.8491   58.8491   60.2619   60.2619
   60.2619   60.2619   60.8682   60.8682   60.8682   60.8682   66.1520   66.1520   66.1520   66.1520
   66.1521   66.1521   66.1521   66.1521   66.7079   66.7079   66.7080   66.7080   68.3913   68.3913
   68.7720   68.7720   68.7721   68.7721   72.5124   72.5124   72.5124   72.5124   72.5128   72.5128
   72.5128   72.5128   73.3176   73.3176   74.8300   74.8300   74.8300   74.8300   75.5676   75.5677
   75.5677   75.5677   79.0695   79.0695   79.0695   79.0696   80.8233   80.8234   81.9633   81.9633
   81.9633   81.9634   81.9634   81.9634   81.9635   81.9635   84.7456   84.7456   84.7456   84.7456
   89.4222   89.4223   89.4224   89.4226   91.3775   91.3775   91.3775   91.3775   91.3777   91.3778
   91.3778   91.3778   98.2027   98.2027  102.0049  102.0049  102.0050  102.0050  102.0066  102.0066
  102.0067  102.0067  104.3170  104.3170  104.4093  104.4093  108.1079  108.1081  108.1081  108.1081
  109.3417  109.3417  109.3417  109.3418  111.2181  111.2185  111.2189  111.2190  114.9360  114.9360
  114.9361  114.9362  114.9370  114.9371  114.9372  114.9372  122.4223  122.4225  122.4227  122.4227
  124.6946  124.6947  124.6949  124.6950  125.7563  125.7563  125.7565  125.7566  128.0608  128.0611
  128.0612  128.0613  128.0613  128.0615  128.0617  128.0617  128.5622  128.5623  129.1363  129.1364
  129.1365  129.1367  132.0241  132.0242  135.7839  135.7841  135.7843  135.7844  142.0011  142.0012
  142.0016  142.0016  145.0536  145.0537  145.0538  145.0539  145.0555  145.0556  145.0558  145.0558
  156.8365  156.8366  156.8370  156.8370  156.8372  156.8373  156.8375  156.8378  160.3896  160.3899
  160.8100  160.8101  160.8105  160.8110  164.8111  164.8112  164.8112  164.8113
  43  1  -29.9702  -29.9702  -29.2742  -29.2742  -29.2742  -29.2742  -27.2317  -27.2317  -27.2317  -27.2317
         -25.9264  -25.9264  -25.3536  -25.3536  -25.3535  -25.3535  -24.5458  -24.5458  -23.1527  -23.1527
  -22.9613  -22.9613  -22.9612  -22.9612  -20.6719  -20.6719  -19.6224  -19.6224  -19.6223  -19.6223
  -19.1599  -19.1599  -18.2256  -18.2256  -17.4329  -17.4329  -17.4329  -17.4329  -16.6092  -16.6092
  -16.6089  -16.6089  -16.3351  -16.3351  -16.3348  -16.3348  -14.6929  -14.6929  -14.6926  -14.6926
  -14.4677  -14.4677  -13.6108  -13.6108  -11.3338  -11.3338  -10.7714  -10.7714  -10.7714  -10.7714
   -9.2280   -9.2280   -9.2280   -9.2280   -8.3263   -8.3263   -8.1740   -8.1740   -8.1740   -8.1740
   -7.6683   -7.6683   -6.8244   -6.8244   -6.8244   -6.8244   -6.4614   -6.4614   -5.4740   -5.4740
   -5.0744   -5.0744   -5.0743   -5.0743   -4.1789   -4.1789   -4.1788   -4.1788   -3.3889   -3.3889
   -0.1061   -0.1061    0.8171    0.8171    0.8174    0.8174    0.9248    0.9248    0.9248    0.9248
    1.2771    1.2771    1.9318    1.9318    2.0165    2.0165    2.0166    2.0166    3.0629    3.0629
    3.0631    3.0631    3.1151    3.1151    5.7477    5.7477    5.7477    5.7477    6.2107    6.2107
    6.2278    6.2278    7.2465    7.2465    7.2467    7.2467    8.9793    8.9793    9.8327    9.8327
    9.8332    9.8332   10.2259   10.2259   10.2261   10.2261   10.7962   10.7962   11.6395   11.6395
   12.2584   12.2584   12.2586   12.2586   14.6264   14.6264   14.9251   14.9251   14.9252   14.9252
   14.9654   14.9654   15.1618   15.1618   15.1620   15.1620   15.2287   15.2287   15.9610   15.9610
   17.1532   17.1532   17.1536   17.1536   18.2353   18.2353   18.2354   18.2354   18.8828   18.8828
   18.8835   18.8835   19.9446   19.9446   21.3202   21.3202   21.3203   21.3203   21.7047   21.7047
   21.7051   21.7051   22.4050   22.4050   23.7380   23.7380   23.7380   23.7380   25.0174   25.0174
   25.1920   25.1920   25.2747   25.2747   25.2748   25.2748   26.4587   26.4587   27.3948   27.3948
   27.9634   27.9634   27.9634   27.9634   31.3113   31.3113   31.3115   31.3115   32.2806   32.2806
   33.3627   33.3627   33.3633   33.3633   33.8543   33.8543   37.9218   37.9218   37.9228   37.9228
   38.3775   38.3775   38.4646   38.4646   38.4650   38.4650   38.6105   38.6105   38.8164   38.8164
   38.8165   38.8165   39.4691   39.4691   39.4695   39.4695   41.3133   41.3133   41.6019   41.6019
   42.1910   42.1910   42.3044   42.3044   42.3048   42.3048   43.6851   43.6851   44.3552   44.3552
   44.3554   44.3554   48.7129   48.7129   48.8404   48.8404   50.3211   50.3211   50.3211   50.3211
   50.3429   50.3429   50.3432   50.3432   50.5304   50.5305   51.0186   51.0186   51.0187   51.0187
   52.4317   52.4317   54.0650   54.0650   55.0415   55.0415   55.0417   55.0418   55.0774   55.0774
   55.0780   55.0780   55.2494   55.2494   57.2865   57.2866   57.2866   57.2866   57.9346   57.9346
   57.9349   57.9349   58.2325   58.2325   58.6982   58.6982   59.3403   59.3403   59.3406   59.3406
   60.2452   60.2452   60.5642   60.5642   60.5647   60.5647   66.3478   66.3478   66.3480   66.3480
   66.3967   66.3967   66.3971   66.3971   66.4022   66.4022   66.5361   66.5361   67.8628   67.8628
   67.8655   67.8655   68.4675   68.4676   70.7313   70.7313   70.7320   70.7320   71.8910   71.8910
   73.6514   73.6514   73.6519   73.6519   74.0930   74.0930   75.1967   75.1967   78.2883   78.2883
   78.2895   78.2895   78.6406   78.6406   80.3728   80.3728   80.5980   80.5980   80.6002   80.6002
   82.1696   82.1696   82.2324   82.2325   82.2328   82.2329   84.3794   84.3794   84.3800   84.3800
   86.0723   86.0723   93.1430   93.1430   93.1432   93.1432   93.2545   93.2545   93.2563   93.2564
   93.7260   93.7260   98.9670   98.9671   98.9679   98.9679  101.0426  101.0426  101.0440  101.0440
  102.5838  102.5838  102.9713  102.9713  103.7100  103.7101  103.7109  103.7110  107.8898  107.8899
  109.4398  109.4398  109.4417  109.4418  110.5143  110.5143  110.5148  110.5148  112.6031  112.6033
  113.5283  113.5283  116.9773  116.9773  116.9777  116.9777  118.3030  118.3032  119.4547  119.4548
  122.4736  122.4736  125.4659  125.4659  125.4666  125.4667  126.4490  126.4490  129.0473  129.0473
  129.0480  129.0481  129.6840  129.6840  129.6858  129.6859  131.1928  131.1928  131.7928  131.7928
  134.0524  134.0526  134.0543  134.0543  137.5013  137.5015  137.5021  137.5022  139.7929  139.7929
  139.7938  139.7939  140.6801  140.6802  142.0918  142.0918  142.0934  142.0934  145.9617  145.9618
  149.6836  149.6837  155.5413  155.5416  155.5423  155.5424  160.2869  160.2869  160.2882  160.2884
  161.0671  161.0673  161.0708  161.0709  165.5291  165.5293  169.1871  169.1873
  44  1  -29.7956  -29.7956  -29.7956  -29.7956  -28.4138  -28.4138  -28.4138  -28.4138  -25.7740  -25.7740
         -25.7740  -25.7740  -25.7740  -25.7740  -25.7740  -25.7740  -24.9854  -24.9854  -23.6254  -23.6254
  -21.6962  -21.6962  -21.6962  -21.6962  -21.6961  -21.6961  -21.6961  -21.6961  -18.0349  -18.0349
  -18.0349  -18.0349  -18.0349  -18.0349  -18.0349  -18.0349  -17.7401  -17.7401  -17.7401  -17.7401
  -16.2707  -16.2707  -16.2707  -16.2707  -15.9707  -15.9707  -15.1475  -15.1475  -15.1475  -15.1475
  -13.6858  -13.6858  -13.6857  -13.6857  -11.2057  -11.2057  -11.2056  -11.2056  -10.0881  -10.0881
  -10.0881  -10.0881   -8.2871   -8.2871   -8.2871   -8.2871   -8.2871   -8.2871   -8.2871   -8.2871
   -8.0377   -8.0377   -7.4252   -7.4252   -5.8876   -5.8876   -5.8876   -5.8876   -5.8876   -5.8876
   -5.8876   -5.8876   -4.4578   -4.4578   -4.4578   -4.4578   -3.8610   -3.8610   -3.8610   -3.8610
    0.3851    0.3851    1.0552    1.0552    1.0552    1.0552    1.1058    1.1058    1.1058    1.1058
    1.4250    1.4250    1.4250    1.4250    2.0238    2.0238    2.0238    2.0238    2.0238    2.0238
    2.0238    2.0238    4.4752    4.4752    4.4752    4.4752    6.5181    6.5181    6.5181    6.5181
    7.7071    7.7071    7.7071    7.7071    7.7071    7.7071    7.7072    7.7072    8.5589    8.5589
    8.5589    8.5589   10.8228   10.8228   11.2852   11.2852   11.2852   11.2852   11.2852   11.2852
   11.2852   11.2852   12.5685   12.5685   14.8710   14.8710   14.8710   14.8710   14.8710   14.8710
   14.8711   14.8711   16.0623   16.0623   16.0623   16.0623   16.3291   16.3291   16.3291   16.3291
   16.3291   16.3291   16.3291   16.3291   16.3615   16.3615   17.3388   17.3388   19.1266   19.1266
   19.8527   19.8527   19.8527   19.8527   20.9006   20.9006   20.9006   20.9006   22.6073   22.6073
   22.6073   22.6073   23.0549   23.0549   23.0549   23.0549   24.9905   24.9905   24.9905   24.9905
   25.1114   25.1114   25.1114   25.1114   25.1114   25.1114   25.1114   25.1114   27.6745   27.6745
   27.6745   27.6745   28.6996   28.6996   28.6996   28.6996   32.3193   32.3193   33.3988   33.3988
   33.3988   33.3988   33.3988   33.3988   33.3988   33.3988   37.9628   37.9628   37.9628   37.9628
   38.4308   38.4308   38.4308   38.4308   38.9947   38.9947   38.9947   38.9947   39.2488   39.2488
   39.4356   39.4356   39.4356   39.4356   39.4356   39.4356   39.4356   39.4356   40.3419   40.3419
   40.3419   40.3419   43.7633   43.7633   44.1458   44.1458   44.1459   44.1459   44.1459   44.1459
   44.1459   44.1459   49.2322   49.2322   49.2322   49.2322   49.2322   49.2322   49.2322   49.2322
   50.6843   50.6843   50.6843   50.6843   50.9014   50.9014   51.3878   51.3878   51.3879   51.3879
   52.7871   52.7871   52.7871   52.7871   54.5996   54.5996   55.3847   55.3847   55.3847   55.3847
   55.3847   55.3847   55.3847   55.3847   56.3174   56.3174   56.3174   56.3175   56.8203   56.8203
   58.8489   58.8489   58.8490   58.8490   58.8490   58.8490   58.8490   58.8490   60.2627   60.2627
   60.2627   60.2627   60.8681   60.8681   60.8681   60.8681   66.1523   66.1523   66.1523   66.1523
   66.1523   66.1523   66.1523   66.1524   66.7089   66.7089   66.7089   66.7089   68.3905   68.3905
   68.7689   68.7689   68.7689   68.7689   72.5121   72.5121   72.5121   72.5121   72.5121   72.5121
   72.5122   72.5122   73.3185   73.3185   74.8322   74.8323   74.8323   74.8323   75.5681   75.5682
   75.5682   75.5682   79.0706   79.0706   79.0706   79.0707   80.8242   80.8242   81.9636   81.9637
   81.9637   81.9637   81.9638   81.9638   81.9639   81.9639   84.7436   84.7436   84.7437   84.7437
   89.4216   89.4216   89.4217   89.4218   91.3780   91.3780   91.3781   91.3781   91.3782   91.3782
   91.3783   91.3783   98.2050   98.2050  102.0048  102.0049  102.0049  102.0049  102.0049  102.0049
  102.0050  102.0050  104.3136  104.3136  104.4093  104.4093  108.1079  108.1079  108.1080  108.1081
  109.3425  109.3426  109.3427  109.3427  111.2171  111.2172  111.2174  111.2175  114.9371  114.9372
  114.9373  114.9373  114.9376  114.9377  114.9379  114.9379  122.4233  122.4233  122.4235  122.4237
  124.6969  124.6969  124.6971  124.6972  125.7563  125.7563  125.7566  125.7566  128.0614  128.0615
  128.0616  128.0617  128.0620  128.0621  128.0622  128.0622  128.5606  128.5607  129.1313  129.1317
  129.1318  129.1318  132.0246  132.0246  135.7818  135.7819  135.7823  135.7823  142.0013  142.0014
  142.0017  142.0020  145.0542  145.0542  145.0543  145.0544  145.0548  145.0548  145.0549  145.0552
  156.8363  156.8363  156.8365  156.8367  156.8374  156.8378  156.8379  156.8379  160.3905  160.3906
  160.8129  160.8132  160.8133  160.8135  164.8113  164.8113  164.8115  164.8115
siesta: Fermi energy =      -6.693691 eV

siesta: Program's energy decomposition (eV):
siesta: Ebs     =     -2643.265008
siesta: Eions   =      9434.507561
siesta: Ena     =      2082.913870
siesta: Ekin    =      4284.001191
siesta: Enl     =      -424.188229
siesta: Eso     =         0.000000
siesta: Edftu   =         0.000000
siesta: DEna    =      -220.529615
siesta: DUscf   =        17.325081
siesta: DUext   =         0.000000
siesta: Exc     =     -1802.194901
siesta: eta*DQ  =         0.000000
siesta: Emadel  =         0.000000
siesta: Emeta   =         0.000000
siesta: Emolmec =        -9.053355
siesta: Ekinion =         0.000000
siesta: Eharris =     -5506.233519
siesta: Etot    =     -5506.233519
siesta: FreeEng =     -5506.242007

siesta: Final energy (eV):
siesta:  Band Struct. =   -2643.265008
siesta:       Kinetic =    4284.001191
siesta:       Hartree =     323.317731
siesta:       Edftu   =       0.000000
siesta:       Eso     =       0.000000
siesta:    Ext. field =       0.000000
siesta:   Exch.-corr. =   -1802.194901
siesta:  Ion-electron =   -5220.847374
siesta:       Ion-ion =   -3081.456812
siesta:       Ekinion =       0.000000
siesta:         Total =   -5506.233519
siesta:         Fermi =      -6.693691

siesta: Stress tensor (static) (eV/Ang**3):
siesta:    -0.407373   -0.000136   -0.000000
siesta:    -0.000136   -0.407530   -0.000000
siesta:    -0.000000   -0.000000   -2.006570

siesta: Cell volume =        165.137281 Ang**3

siesta: Pressure (static):
siesta:                Solid            Molecule  Units
siesta:           0.01024315          0.01024329  Ry/Bohr**3
siesta:           0.94049135          0.94050361  eV/Ang**3
siesta:        1506.84956059       1506.86919239  kBar
(Free)E+ p_basis*V_orbitals  =       -5472.712202
(Free)Eharris+ p_basis*V_orbitals  =       -5472.712202

cite: Please see "graphite_scf.bib" for an exhaustive BiBTeX file.
cite: Please clearly indicate Siesta version in published work: 4.1.5
cite: This calculation has made use of the following articles
cite: which are encouraged to be cited in a published work.
        Primary SIESTA paper
          DOI: www.doi.org/10.1088/0953-8984/14/11/302

>> End of run:   1-NOV-2022  18:09:32
Job completed
