Siesta Version  : 4.1.5
Architecture    : x86_64-unknown-linux-gnu--unknown
Compiler version: GNU Fortran (GCC) 11.3.0
Compiler flags  : mpif90 -g -O2 -fallow-argument-mismatch
PP flags        : -DMPI -DFC_HAVE_FLUSH -DFC_HAVE_ABORT
Libraries       :  -I/global/software/sl-7.x86_64/modules/intel/2020.4.304/mkl/include  /globall/software/sl-7.x86_64/modules/intel/2020.4.304/mkl/lib/intel64/libmkl_scalapack_lp64.a -Wl,--start-group /global/software/sl-7.x86_64/modules/intel/2020.4.304/mkl/lib/intel64/libmkl_intel_lp64.a /global/software/sl-7.x86_64/modules/intel/2020.4.304/mkl/lib/intel64/libmkl_sequential.a /global/software/sl-7.x86_64/modules/intel/2020.4.304/mkl/lib/intel64/libmkl_core.a /global/software/sl-7.x86_64/modules/intel/2020.4.304/mkl/lib/intel64/libmkl_blacs_openmpi_lp64.a -Wl,--end-group -lpthread -lm -ldl
PARALLEL version

* Running on 20 nodes in parallel
>> Start of run:   1-NOV-2022  18:56:44

                           ***********************       
                           *  WELCOME TO SIESTA  *       
                           ***********************       

reinit: Reading from standard input
reinit: Dumped input in INPUT_TMP.89021
************************** Dump of input data file ****************************
SystemName graphite_scf
SystemLabel graphite_scf
NumberOfAtoms   36
NumberOfSpecies 1
%block ChemicalSpeciesLabel
1  6   C-gga
%endblock ChemicalSpeciesLabel
PAO.BasisSize  DZP
PAO.EnergyShift  10 meV
%block PS.Lmax
C-gga   2
%endblock PS.Lmax
LatticeConstant 1.000000 Ang
%block LatticeVectors
	7.3920000000	0.0000000000	0.0000000000
	-3.6960000000	6.4016597848	0.0000000000
	0.0000000000	0.0000000000	8.8585200000
%endblock LatticeVectors
AtomicCoordinatesFormat Ang
%block AtomicCoordinatesAndAtomicSpecies
	0.00000000	0.00000000	2.21463000	1
	0.00000000	0.00000000	6.64389000	1
	-1.23200000	2.13388659	2.21463000	1
	-2.46400000	4.26777319	6.64389000	1
	2.46400000	4.26777319	2.21463000	1
	1.23200000	2.13388659	6.64389000	1
	2.46400000	0.00000000	2.21463000	1
	4.92800000	0.00000000	6.64389000	1
	2.46400000	0.00000000	6.64389000	1
	4.92800000	0.00000000	2.21463000	1
	2.46400000	4.26777319	6.64389000	1
	1.23200000	2.13388659	2.21463000	1
	-1.23200000	2.13388659	6.64389000	1
	-2.46400000	4.26777319	2.21463000	1
	0.00000000	4.26777319	2.21463000	1
	3.69600000	2.13388659	6.64389000	1
	3.69600000	2.13388659	2.21463000	1
	0.00000000	4.26777319	6.64389000	1
	0.00000000	1.42258964	2.21463000	1
	3.69600000	4.97907014	6.64389000	1
	2.46400123	5.69036496	2.21463000	1
	1.23199877	0.71129482	6.64389000	1
	-2.46400123	5.69036496	2.21463000	1
	6.16000123	0.71129482	6.64389000	1
	-1.23200000	3.55647624	2.21463000	1
	4.92800000	2.84518355	6.64389000	1
	1.23200123	3.55647837	2.21463000	1
	2.46399877	2.84518142	6.64389000	1
	-0.00000123	5.69036496	2.21463000	1
	3.69600123	0.71129482	6.64389000	1
	2.46400000	1.42258964	2.21463000	1
	1.23200000	4.97907014	6.64389000	1
	4.92800123	1.42259177	2.21463000	1
	-1.23200123	4.97906801	6.64389000	1
	3.69599877	3.55647837	2.21463000	1
	0.00000123	2.84518142	6.64389000	1
%endblock AtomicCoordinatesAndAtomicSpecies
Kgrid_NoTRS  T
%block kgrid_MonkhorstPack
4       0       0       0.0
0       4       0       0.0
0       0       4       0.0
%endblock kgrid_MonkhorstPack
AtomCoorFormatOut Ang
BlockSize 1
#ProcessorY 12
Diag.ParallelOverK   T
Diag.DivideAndConquer F
MeshCutoff   300 Ry
SCF.FreeE.Tolerance 1E-3 eV
SCF.EDM.Tolerance   5E-3 eV
DM.Tolerance  1E-3
DM.Require.Energy.Convergence T
DM.NumberPulay 4
XC.Functional GGA
XC.Authors    PBE
UseSaveData        F
SolutionMethod     diagon
MD.TypeOfRun       CG
MD.VariableCell    F
MD.NumCGsteps      00
MD.MaxCGDispl      0.200000 Bohr
#MD.MaxStressTol    1.000000 GPa
#MD.MaxForceTol     0.010000 eV/Ang
WriteMDHistory T
WriteCoorStep T
WriteForces T
WriteCoorStep    T
WriteEigenValues T
WriteDM    F
MM.UnitsDistance Ang  # what this program prints out DO NOT CHANGE
MM.UnitsEnergy    eV  # what this program prints out DO NOT CHANGE
MM.Grimme.S6     0.75 # Grimme-paper for PBE (correct for your functional)
MM.Grimme.D     20.   # Grimme-paper (correct for your functional)
%block MM.Potentials
  1   1 Grimme     18.14      2.904 # C, 10.1002/jcc.20495
%endblock MM.Potentials
#%block ProjectedDensityOfStates
# -200.0  120.0  0.4  12800  eV
#%endblock ProjectedDensityOfStates
************************** End of input data file *****************************

reinit: -----------------------------------------------------------------------
reinit: System Name: graphite_scf
reinit: -----------------------------------------------------------------------
reinit: System Label: graphite_scf
reinit: -----------------------------------------------------------------------
Reading two-body potentials
Grimme - two-body potential between 1 and 1

initatom: Reading input for the pseudopotentials and atomic orbitals ----------
Species number:   1 Atomic number:    6 Label: C-gga

Ground state valence configuration:   2s02  2p02
Reading pseudopotential information in formatted form from C-gga.psf

Valence configuration for pseudopotential generation:
2s( 2.00) rc: 1.56
2p( 2.00) rc: 1.56
3d( 0.00) rc: 1.56
4f( 0.00) rc: 1.56
relmxkb: Read Max KB Ang. Momentum=    2 for species C-gga

<basis_specs>
===============================================================================
C-gga                Z=   6    Mass=  12.010        Charge= 0.17977+309
Lmxo=1 Lmxkb= 2    BasisType=split      Semic=F
L=0  Nsemic=0  Cnfigmx=2
          i=1  nzeta=2  polorb=0  (2s)
            splnorm:   0.15000    
               vcte:    0.0000    
               rinn:    0.0000    
               qcoe:    0.0000    
               qyuk:    0.0000    
               qwid:   0.10000E-01
                rcs:    0.0000      0.0000    
            lambdas:    1.0000      1.0000    
L=1  Nsemic=0  Cnfigmx=2
          i=1  nzeta=2  polorb=1  (2p)
            splnorm:   0.15000    
               vcte:    0.0000    
               rinn:    0.0000    
               qcoe:    0.0000    
               qyuk:    0.0000    
               qwid:   0.10000E-01
                rcs:    0.0000      0.0000    
            lambdas:    1.0000      1.0000    
-------------------------------------------------------------------------------
L=0  Nkbl=1  erefs: 0.17977+309
L=1  Nkbl=1  erefs: 0.17977+309
L=2  Nkbl=1  erefs: 0.17977+309
===============================================================================
</basis_specs>

atom: Called for C-gga                 (Z =   6)

read_vps: Pseudopotential generation method:
read_vps: ATM 3.2.2 Troullier-Martins                       
Valence charge for ps generation:    4.00000

xc_check: Exchange-correlation functional:
xc_check: GGA Perdew, Burke & Ernzerhof 1996
V l=0 = -2*Zval/r beyond r=  1.5227
V l=1 = -2*Zval/r beyond r=  1.5227
V l=2 = -2*Zval/r beyond r=  1.5227
All V_l potentials equal beyond r=  1.4851
This should be close to max(r_c) in ps generation
All pots = -2*Zval/r beyond r=  1.5227

VLOCAL1: 99.0% of the norm of Vloc inside     19.682 Ry
VLOCAL1: 99.9% of the norm of Vloc inside     44.856 Ry
atom: Maximum radius for 4*pi*r*r*local-pseudopot. charge    1.79142
atom: Maximum radius for r*vlocal+2*Zval:    1.54183
GHOST: No ghost state for L =  0
GHOST: No ghost state for L =  1
GHOST: No ghost state for L =  2

KBgen: Kleinman-Bylander projectors: 
   l= 0   rc=  1.661951   el= -1.010689   Ekb=  5.289847   kbcos=  0.316429
   l= 1   rc=  1.661951   el= -0.388490   Ekb= -4.102504   kbcos= -0.351025
   l= 2   rc=  1.747182   el=  0.001971   Ekb= -1.006005   kbcos= -0.008530

KBgen: Total number of Kleinman-Bylander projectors:    9
atom: -------------------------------------------------------------------------

atom: SANKEY-TYPE ORBITALS:
atom: Selected multiple-zeta basis: split     

SPLIT: Orbitals with angular momentum L= 0

SPLIT: Basis orbitals for state 2s

SPLIT: PAO cut-off radius determined from an
SPLIT: energy shift=  0.000735 Ry

   izeta = 1
                 lambda =    1.000000
                     rc =    5.948690
                 energy =   -1.010099
                kinetic =    0.827121
    potential(screened) =   -1.837220
       potential(ionic) =   -5.392783

   izeta = 2
                 rmatch =    3.518811
              splitnorm =    0.150000
                 energy =   -0.877891
                kinetic =    1.289227
    potential(screened) =   -2.167118
       potential(ionic) =   -5.982073

SPLIT: Orbitals with angular momentum L= 1

SPLIT: Basis orbitals for state 2p

SPLIT: PAO cut-off radius determined from an
SPLIT: energy shift=  0.000735 Ry

   izeta = 1
                 lambda =    1.000000
                     rc =    7.638387
                 energy =   -0.387843
                kinetic =    2.314739
    potential(screened) =   -2.702582
       potential(ionic) =   -6.092371

   izeta = 2
                 rmatch =    3.840617
              splitnorm =    0.150000
                 energy =   -0.270479
                kinetic =    3.438347
    potential(screened) =   -3.708826
       potential(ionic) =   -7.497707

POLgen: Perturbative polarization orbital with L=  2

POLgen: Polarization orbital for state 2p

   izeta = 1
                     rc =    7.638387
                 energy =    0.921402
                kinetic =    1.955040
    potential(screened) =   -1.033637
       potential(ionic) =   -3.679558
atom: Total number of Sankey-type orbitals: 13

atm_pop: Valence configuration (for local Pseudopot. screening):
 2s( 2.00)                                                            
 2p( 2.00)                                                            
Vna: chval, zval:    4.00000   4.00000

Vna:  Cut-off radius for the neutral-atom potential:   7.638387

atom: _________________________________________________________________________

prinput: Basis input ----------------------------------------------------------

PAO.BasisType split     

%block ChemicalSpeciesLabel
    1    6 C-gga                   # Species index, atomic number, species label
%endblock ChemicalSpeciesLabel

%block PAO.Basis                 # Define Basis set
C-gga                 2                    # Species label, number of l-shells
 n=2   0   2                         # n, l, Nzeta 
   5.949      3.519   
   1.000      1.000   
 n=2   1   2 P   1                   # n, l, Nzeta, Polarization, NzetaPol
   7.638      3.841   
   1.000      1.000   
%endblock PAO.Basis

prinput: ----------------------------------------------------------------------

coor:   Atomic-coordinates input format  =     Cartesian coordinates
coor:                                          (in Angstroms)

siesta: Atomic coordinates (Bohr) and species
siesta:      0.00000   0.00000   4.18505  1        1
siesta:      0.00000   0.00000  12.55514  1        2
siesta:     -2.32814   4.03246   4.18505  1        3
siesta:     -4.65629   8.06493  12.55514  1        4
siesta:      4.65629   8.06493   4.18505  1        5
siesta:      2.32814   4.03246  12.55514  1        6
siesta:      4.65629   0.00000   4.18505  1        7
siesta:      9.31257   0.00000  12.55514  1        8
siesta:      4.65629   0.00000  12.55514  1        9
siesta:      9.31257   0.00000   4.18505  1       10
siesta:      4.65629   8.06493  12.55514  1       11
siesta:      2.32814   4.03246   4.18505  1       12
siesta:     -2.32814   4.03246  12.55514  1       13
siesta:     -4.65629   8.06493   4.18505  1       14
siesta:      0.00000   8.06493   4.18505  1       15
siesta:      6.98443   4.03246  12.55514  1       16
siesta:      6.98443   4.03246   4.18505  1       17
siesta:      0.00000   8.06493  12.55514  1       18
siesta:      0.00000   2.68831   4.18505  1       19
siesta:      6.98443   9.40908  12.55514  1       20
siesta:      4.65629  10.75324   4.18505  1       21
siesta:      2.32814   1.34415  12.55514  1       22
siesta:     -4.65629  10.75324   4.18505  1       23
siesta:     11.64072   1.34415  12.55514  1       24
siesta:     -2.32814   6.72077   4.18505  1       25
siesta:      9.31257   5.37662  12.55514  1       26
siesta:      2.32815   6.72077   4.18505  1       27
siesta:      4.65628   5.37662  12.55514  1       28
siesta:     -0.00000  10.75324   4.18505  1       29
siesta:      6.98443   1.34415  12.55514  1       30
siesta:      4.65629   2.68831   4.18505  1       31
siesta:      2.32814   9.40908  12.55514  1       32
siesta:      9.31258   2.68831   4.18505  1       33
siesta:     -2.32815   9.40908  12.55514  1       34
siesta:      6.98443   6.72077   4.18505  1       35
siesta:      0.00000   5.37662  12.55514  1       36

siesta: System type = bulk      

initatomlists: Number of atoms, orbitals, and projectors:     36   468   324

siesta: ******************** Simulation parameters ****************************
siesta:
siesta: The following are some of the parameters of the simulation.
siesta: A complete list of the parameters used, including default values,
siesta: can be found in file out.fdf
siesta:
redata: Spin configuration                          = none
redata: Number of spin components                   = 1
redata: Time-Reversal Symmetry                      = T
redata: Spin spiral                                 = F
redata: Long output                                 =   F
redata: Number of Atomic Species                    =        1
redata: Charge density info will appear in .RHO file
redata: Write Mulliken Pop.                         = NO
redata: Matel table size (NRTAB)                    =     1024
redata: Mesh Cutoff                                 =   300.0000 Ry
redata: Net charge of the system                    =     0.0000 |e|
redata: Min. number of SCF Iter                     =        0
redata: Max. number of SCF Iter                     =     1000
redata: SCF convergence failure will abort job
redata: SCF mix quantity                            = Hamiltonian
redata: Mix DM or H after convergence               =   F
redata: Recompute H after scf cycle                 =   F
redata: Mix DM in first SCF step                    =   T
redata: Write Pulay info on disk                    =   F
redata: New DM Occupancy tolerance                  = 0.000000000001
redata: No kicks to SCF
redata: DM Mixing Weight for Kicks                  =     0.5000
redata: Require Harris convergence for SCF          =   F
redata: Harris energy tolerance for SCF             =     0.000100 eV
redata: Require DM convergence for SCF              =   T
redata: DM tolerance for SCF                        =     0.001000
redata: Require EDM convergence for SCF             =   F
redata: EDM tolerance for SCF                       =     0.005000 eV
redata: Require H convergence for SCF               =   T
redata: Hamiltonian tolerance for SCF               =     0.001000 eV
redata: Require (free) Energy convergence for SCF   =   T
redata: (free) Energy tolerance for SCF             =     0.001000 eV
redata: Using Saved Data (generic)                  =   F
redata: Use continuation files for DM               =   F
redata: Neglect nonoverlap interactions             =   F
redata: Method of Calculation                       = Diagonalization
redata: Electronic Temperature                      =   299.9869 K
redata: Fix the spin of the system                  =   F
redata: Dynamics option                             = Single-point calculation
mix.SCF: Pulay mixing                            = Pulay
mix.SCF:    Variant                              = stable
mix.SCF:    History steps                        = 4
mix.SCF:    Linear mixing weight                 =     0.250000
mix.SCF:    Mixing weight                        =     0.250000
mix.SCF:    SVD condition                        = 0.1000E-07
redata: ***********************************************************************

%block SCF.Mixers
  Pulay
%endblock SCF.Mixers

%block SCF.Mixer.Pulay
  # Mixing method
  method pulay
  variant stable

  # Mixing options
  weight 0.2500
  weight.linear 0.2500
  history 4
%endblock SCF.Mixer.Pulay

DM_history_depth set to one: no extrapolation allowed by default for geometry relaxation
Size of DM history Fstack: 1
Total number of electrons:   144.000000
Total ionic charge:   144.000000

* ProcessorY, Blocksize:    4   1


* Orbital distribution balance (max,min):    24    23

k-point displ. along   1 input, could be:     0.00    0.50
k-point displ. along   2 input, could be:     0.00    0.50
k-point displ. along   3 input, could be:     0.00    0.50
 Kpoints in:           48 . Kpoints trimmed:           44

siesta: k-grid: Number of k-points =    44
siesta: k-grid: Cutoff (effective) =    14.784 Ang
siesta: k-grid: Supercell and displacements
siesta: k-grid:    4   0   0      0.000
siesta: k-grid:    0   4   0      0.000
siesta: k-grid:    0   0   4      0.000

diag: Algorithm                                     = Expert
diag: Parallel over k                               =   T
diag: Use parallel 2D distribution                  =   T
diag: Parallel block-size                           = 1
diag: Parallel distribution                         =     4 x     5
diag: Used triangular part                          = Lower
diag: Absolute tolerance                            =  0.100E-15
diag: Orthogonalization factor                      =  0.100E-05
diag: Memory factor                                 =  1.0000

superc: Internal auxiliary supercell:     5 x     5 x     3  =      75
superc: Number of atoms, orbitals, and projectors:   2700  35100  24300


ts: **************************************************************
ts: Save H and S matrices                           =    F
ts: Save DM and EDM matrices                        =    F
ts: Only save the overlap matrix S                  =    F
ts: **************************************************************

************************ Begin: TS CHECKS AND WARNINGS ************************
************************ End: TS CHECKS AND WARNINGS **************************


                     ====================================
                        Single-point calculation
                     ====================================

outcoor: Atomic coordinates (Ang):                          
    0.00000000    0.00000000    2.21463000   1       1  C-gga
    0.00000000    0.00000000    6.64389000   1       2  C-gga
   -1.23200000    2.13388659    2.21463000   1       3  C-gga
   -2.46400000    4.26777319    6.64389000   1       4  C-gga
    2.46400000    4.26777319    2.21463000   1       5  C-gga
    1.23200000    2.13388659    6.64389000   1       6  C-gga
    2.46400000    0.00000000    2.21463000   1       7  C-gga
    4.92800000    0.00000000    6.64389000   1       8  C-gga
    2.46400000    0.00000000    6.64389000   1       9  C-gga
    4.92800000    0.00000000    2.21463000   1      10  C-gga
    2.46400000    4.26777319    6.64389000   1      11  C-gga
    1.23200000    2.13388659    2.21463000   1      12  C-gga
   -1.23200000    2.13388659    6.64389000   1      13  C-gga
   -2.46400000    4.26777319    2.21463000   1      14  C-gga
    0.00000000    4.26777319    2.21463000   1      15  C-gga
    3.69600000    2.13388659    6.64389000   1      16  C-gga
    3.69600000    2.13388659    2.21463000   1      17  C-gga
    0.00000000    4.26777319    6.64389000   1      18  C-gga
    0.00000000    1.42258964    2.21463000   1      19  C-gga
    3.69600000    4.97907014    6.64389000   1      20  C-gga
    2.46400123    5.69036496    2.21463000   1      21  C-gga
    1.23199877    0.71129482    6.64389000   1      22  C-gga
   -2.46400123    5.69036496    2.21463000   1      23  C-gga
    6.16000123    0.71129482    6.64389000   1      24  C-gga
   -1.23200000    3.55647624    2.21463000   1      25  C-gga
    4.92800000    2.84518355    6.64389000   1      26  C-gga
    1.23200123    3.55647837    2.21463000   1      27  C-gga
    2.46399877    2.84518142    6.64389000   1      28  C-gga
   -0.00000123    5.69036496    2.21463000   1      29  C-gga
    3.69600123    0.71129482    6.64389000   1      30  C-gga
    2.46400000    1.42258964    2.21463000   1      31  C-gga
    1.23200000    4.97907014    6.64389000   1      32  C-gga
    4.92800123    1.42259177    2.21463000   1      33  C-gga
   -1.23200123    4.97906801    6.64389000   1      34  C-gga
    3.69599877    3.55647837    2.21463000   1      35  C-gga
    0.00000123    2.84518142    6.64389000   1      36  C-gga

superc: Internal auxiliary supercell:     5 x     5 x     3  =      75
superc: Number of atoms, orbitals, and projectors:   2700  35100  24300

outcell: Unit cell vectors (Ang):
        7.392000    0.000000    0.000000
       -3.696000    6.401660    0.000000
        0.000000    0.000000    8.858520

outcell: Cell vector modules (Ang)   :    7.392000    7.392000    8.858520
outcell: Cell angles (23,13,12) (deg):     90.0000     90.0000    120.0000
outcell: Cell volume (Ang**3)        :    419.1946
<dSpData1D:S at geom step 0
  <sparsity:sparsity for geom step 0
    nrows_g=468 nrows=24 sparsity=.2293 nnzs=50226, refcount: 7>
  <dData1D:(new from dSpData1D) n=50226, refcount: 1>
refcount: 1>
new_DM -- step:     1
Initializing Density Matrix...
DM filled with atomic data:
<dSpData2D:DM initialized from atoms
  <sparsity:sparsity for geom step 0
    nrows_g=468 nrows=24 sparsity=.2293 nnzs=50226, refcount: 8>
  <dData2D:DM n=50226 m=1, refcount: 1>
refcount: 1>
No. of atoms with KB's overlaping orbs in proc 0. Max # of overlaps:     191     412
New grid distribution:   1
           1       1:   36    1:    9    1:   10
           2       1:   36    1:    9   11:   20
           3       1:   36    1:    9   21:   30
           4       1:   36    1:    9   31:   39
           5       1:   36    1:    9   40:   48
           6       1:   36   10:   18    1:   10
           7       1:   36   10:   18   11:   20
           8       1:   36   10:   18   21:   30
           9       1:   36   10:   18   31:   39
          10       1:   36   10:   18   40:   48
          11       1:   36   19:   27    1:   10
          12       1:   36   19:   27   11:   20
          13       1:   36   19:   27   21:   30
          14       1:   36   19:   27   31:   39
          15       1:   36   19:   27   40:   48
          16       1:   36   28:   36    1:   10
          17       1:   36   28:   36   11:   20
          18       1:   36   28:   36   21:   30
          19       1:   36   28:   36   31:   39
          20       1:   36   28:   36   40:   48

InitMesh: MESH =    72 x    72 x    96 =      497664
InitMesh: (bp) =    36 x    36 x    48 =       62208
InitMesh: Mesh cutoff (required, used) =   300.000   324.580 Ry
ExtMesh (bp) on 0 =   128 x   101 x    98 =     1266944
New grid distribution:   2
           1       1:   15   19:   36   37:   48
           2       1:   15    1:   18   13:   24
           3       1:   14    1:   18   25:   36
           4       1:   14    1:   18   37:   48
           5      15:   36    1:    9   32:   48
           6       1:   15    1:   18    1:   12
           7      16:   36   10:   18    8:   24
           8      15:   36    1:   18   25:   31
           9      16:   36    1:    9    8:   24
          10      15:   36   10:   18   32:   48
          11      16:   36   19:   36    1:    7
          12      16:   36   19:   27    8:   24
          13       1:   15   19:   36   25:   36
          14      16:   36    1:   18    1:    7
          15      16:   36   19:   27   32:   48
          16       1:   15   19:   36    1:   12
          17       1:   15   19:   36   13:   24
          18      16:   36   28:   36    8:   24
          19      16:   36   19:   36   25:   31
          20      16:   36   28:   36   32:   48
New grid distribution:   3
           1      16:   36   19:   36   25:   32
           2       1:   15    1:   18   13:   24
           3       1:   15    1:   18   25:   36
           4      16:   36   19:   36    1:    8
           5       1:   15   19:   36   37:   48
           6       1:   15    1:   18    1:   12
           7      16:   36   28:   36    9:   24
           8      16:   36   10:   18    9:   24
           9      16:   36    1:   18    1:    8
          10       1:   15    1:   18   37:   48
          11      16:   36   19:   27    9:   24
          12       1:   15   19:   36   13:   24
          13      16:   36    1:    9   33:   48
          14      16:   36    1:   18   25:   32
          15      16:   36   19:   27   33:   48
          16       1:   15   19:   36    1:   12
          17      16:   36   10:   18   33:   48
          18       1:   15   19:   36   25:   36
          19      16:   36    1:    9    9:   24
          20      16:   36   28:   36   33:   48
Setting up quadratic distribution...
ExtMesh (bp) on 0 =   107 x   110 x   100 =     1177000
PhiOnMesh: Number of (b)points on node 0 =                 3240
PhiOnMesh: nlist on node 0 =               732237

stepf: Fermi-Dirac step function

siesta: Program's energy decomposition (eV):
siesta: Ebs     =     -2057.338263
siesta: Eions   =      9434.507561
siesta: Ena     =      2224.334897
siesta: Ekin    =      4045.615696
siesta: Enl     =      -410.198900
siesta: Eso     =         0.000000
siesta: Edftu   =         0.000000
siesta: DEna    =      -292.198620
siesta: DUscf   =        30.180708
siesta: DUext   =         0.000000
siesta: Exc     =     -1735.925799
siesta: eta*DQ  =         0.000000
siesta: Emadel  =         0.000000
siesta: Emeta   =         0.000000
siesta: Emolmec =        -2.750591
siesta: Ekinion =         0.000000
siesta: Eharris =     -5478.194346
siesta: Etot    =     -5575.450170
siesta: FreeEng =     -5575.465252

        iscf     Eharris(eV)        E_KS(eV)     FreeEng(eV)     dDmax    Ef(eV) dHmax(eV)
   scf:    1    -5478.194346    -5575.450170    -5575.465252  1.822799 -7.871598  3.937040
timer: Routine,Calls,Time,% = IterSCF        1       7.351  69.52
   scf:    2    -5580.600041    -5578.094449    -5578.108948  0.073269 -7.238735  2.595149
   scf:    3    -5581.852466    -5580.296394    -5580.309673  0.128243 -6.048046  0.082760
   scf:    4    -5580.292212    -5580.295139    -5580.308482  0.005636 -6.119020  0.063036
   scf:    5    -5580.299808    -5580.297794    -5580.311110  0.005392 -6.104918  0.003185
   scf:    6    -5580.297795    -5580.297795    -5580.311111  0.000035 -6.104932  0.002844
   scf:    7    -5580.297801    -5580.297798    -5580.311113  0.000112 -6.103714  0.000172

SCF Convergence by FreeE+DM+H criterion
|FreeE_i-FreeE_(i-1)| (eV) <     0.00100000
max |DM_out - DM_in|         :     0.0001116581
max |H_out - H_in|      (eV) :     0.0001717321
SCF cycle converged after 7 iterations

Using DM_out to compute the final energy and forces
No. of atoms with KB's overlaping orbs in proc 0. Max # of overlaps:     191     412

MM-Stress (kbar):        3.39        3.39       12.42        0.00       -0.00        0.00

siesta: E_KS(eV) =            -5580.2978

siesta: E_KS - E_eggbox =     -5580.2978

siesta: Atomic forces (eV/Ang):
     1   -0.000078    0.000045    0.000000
     2    0.000078   -0.000045    0.000000
     3   -0.000026    0.000001    0.000000
     4    0.000026   -0.000001    0.000000
     5   -0.000065    0.000112    0.000000
     6    0.000065   -0.000112    0.000000
     7   -0.000143    0.000022    0.000000
     8    0.000143   -0.000023    0.000000
     9    0.000062   -0.000063    0.000000
    10   -0.000062    0.000063    0.000000
    11    0.000071   -0.000023    0.000000
    12   -0.000071    0.000023    0.000000
    13    0.000101   -0.000050    0.000000
    14   -0.000101    0.000050   -0.000000
    15   -0.000078    0.000045    0.000000
    16    0.000078   -0.000045    0.000000
    17   -0.000078    0.000046    0.000000
    18    0.000078   -0.000045   -0.000000
    19    0.000088    0.000066    0.000000
    20   -0.000088   -0.000066    0.000000
    21   -0.000023   -0.000092    0.000000
    22    0.000023    0.000092    0.000000
    23    0.000170   -0.000109    0.000000
    24   -0.000170    0.000109    0.000000
    25    0.000087    0.000051    0.000000
    26   -0.000087   -0.000052   -0.000000
    27   -0.000010   -0.000086    0.000000
    28    0.000010    0.000086    0.000000
    29    0.000158   -0.000101    0.000000
    30   -0.000157    0.000101    0.000000
    31    0.000087    0.000051    0.000000
    32   -0.000087   -0.000051    0.000000
    33   -0.000010   -0.000086    0.000000
    34    0.000010    0.000086    0.000000
    35    0.000157   -0.000101    0.000000
    36   -0.000158    0.000100    0.000000
----------------------------------------
   Tot   -0.000000    0.000000    0.000000
----------------------------------------
   Max    0.000170
   Res    0.000069    sqrt( Sum f_i^2 / 3N )
----------------------------------------
   Max    0.000170    constrained

Stress tensor Voigt[x,y,z,yz,xz,xy] (kbar):     -109.81     -109.91       17.72        0.00        0.00       -0.08
(Free)E + p*V (eV/cell)    -5562.6943
Target enthalpy (eV/cell)    -5580.3111

siesta: Eigenvalues (eV):
  ik is       eps
   1  1  -25.1513  -25.1350  -24.5035  -24.5035  -24.4873  -24.4873  -22.5979  -22.5979  -22.5842  -22.5841
         -21.3741  -21.3619  -20.8126  -20.8126  -20.8017  -20.8017  -19.9958  -19.9902  -18.9850  -18.9799
  -18.7252  -18.7252  -18.7149  -18.7149  -16.6904  -16.6845  -15.6597  -15.6597  -15.6499  -15.6499
  -15.0986  -15.0915  -14.3841  -14.3753  -13.6303  -13.6303  -13.6220  -13.6220  -13.2363  -13.0639
  -13.0639  -13.0608  -13.0608  -12.8962  -12.6188  -12.6188  -12.6138  -12.6138  -12.4704  -12.4704
  -12.1432  -12.1432  -11.2347  -11.2347  -11.2322  -11.2322  -10.9239  -10.9233  -10.2782  -10.2782
  -10.2510  -10.2500  -10.0015  -10.0015   -8.9299   -8.6960   -8.6346   -8.6346   -8.4760   -8.4760
   -7.9105   -7.8108   -4.6704   -4.5860   -4.1920   -4.1920   -4.0442   -4.0442   -3.3291   -3.2497
   -1.7044   -1.7044   -1.6192   -1.6192   -1.5377   -0.6386   -0.6386    2.0223    2.0223    2.0479
    2.0479    2.1186    2.1186    2.1279    2.1611    2.1612    2.5543    2.5977    2.6767    2.6767
    2.7419    2.7419    2.7993    2.7993    2.8376    2.8376    3.7577    3.7579    3.7837    3.7969
    3.8846    3.9682    4.1675    4.1675    4.2768    4.2768    4.7327    4.7327    4.7707    5.3079
    5.3152    5.3152    5.3352    5.3352    5.5883    5.8045    5.8045    6.0753    6.1563    6.1563
    6.3502    6.6143    6.7024    6.8404    6.8404    6.9550    6.9665    6.9665    6.9942    7.0521
    7.0521    7.5553    7.6203    7.6396    7.7532    8.1156    8.1156    8.2714    8.5345    8.5345
    8.9749    8.9749    9.1503    9.1503    9.2065    9.2065    9.6566    9.9161    9.9162    9.9370
   10.2072   10.2073   10.3430   10.6167   10.6323   10.6323   10.8982   10.8982   11.4994   12.0464
   12.4938   12.4938   13.1674   13.1674   13.5390   13.5390   13.6370   13.6370   13.7417   14.0085
   14.0085   14.0142   14.0142   14.3402   14.5354   14.7439   15.0893   15.4614   15.4614   15.9878
   16.2240   16.2240   16.7008   17.1861   17.4419   17.4902   17.4902   17.6144   17.6429   17.6430
   18.1149   18.3000   18.3000   18.3109   18.3513   18.6569   18.6569   18.7795   19.0253   19.0253
   19.4348   19.4348   19.7260   19.7310   19.7310   20.0166   20.1432   20.1432   20.1643   20.3816
   20.3816   20.5049   20.5049   20.8711   21.0924   21.0924   21.2317   21.6645   21.6645   21.7619
   21.8722   21.8722   22.3246   22.3246   22.5518   22.5518   23.1232   23.1385   23.6070   23.6070
   23.8551   23.8551   24.4560   24.4560   25.1300   25.4397   25.5133   25.5134   27.4148   27.4148
   28.9674   28.9674   29.3872   29.3872   29.4398   30.2250   30.7838   31.0689   31.2640   31.8665
   31.8665   32.9490   32.9490   33.1686   33.3772   33.3772   34.1627   34.5993   34.5993   34.8420
   34.8420   35.6077   35.6077   36.3297   36.8304   37.1275   37.1275   37.5877   37.5877   37.6005
   38.2578   38.2578   39.4493   39.6040   40.4428   40.4428   41.5628   41.5628   41.6147   42.1417
   42.1417   42.6178   42.8367   42.8367   42.9880   42.9880   43.1288   43.1939   43.1939   43.5553
   43.8060   43.8060   44.0527   44.0528   44.5125   44.5622   44.6052   44.6848   44.6848   44.9164
   44.9164   45.0446   45.0561   45.1521   45.2260   45.5813   46.0086   46.0086   46.1226   46.1226
   46.4299   46.5776   46.6119   47.3543   47.3544   47.4808   47.4808   48.4151   48.4151   48.9055
   49.0817   49.2160   49.2160   49.2629   49.9111   49.9111   51.6493   51.6493   51.8865   51.9411
   51.9411   52.2586   52.3922   52.3922   52.7006   52.7006   53.0907   53.0907   53.7526   53.7526
   53.9855   53.9855   54.5989   55.2157   55.2157   55.8653   56.5872   57.2040   59.3667   59.8606
   59.9774   59.9774   60.1341   60.7959   60.7959   61.0574   61.1168   61.6376   61.6376   61.6595
   61.6595   61.7812   61.8611   61.9593   61.9594   63.0473   63.4750   63.5586   63.5586   65.0526
   65.0527   66.6052   66.6052   66.6525   66.6525   67.0983   67.0983   68.8940   68.8940   69.6247
   69.6247   69.6539   69.6539   69.9545   72.7491   72.7525   72.7657   73.5666   73.5666   73.8231
   73.8244   74.9890   74.9890   75.7790   75.8538   77.7111   77.7112   79.5713   79.5714   82.3334
   83.2822   83.8414   83.8414   85.5985   87.9648   90.4295   90.4296   91.3868   91.3870   91.6941
   91.6941   96.1069   97.8820   97.8822   98.0004   98.0004   98.9132   98.9790   98.9790  101.1297
  101.7067  103.8857  103.8862  104.4462  104.6605  105.0547  106.1393  106.1394  107.2989  107.2990
  107.9855  107.9861  108.0253  108.9756  108.9758  111.3026  111.3030  112.5842  112.5846  113.8676
  113.8679  114.2236  114.4760  114.4764  114.7673  114.7682  115.6849  115.6857  115.7075  116.5887
  116.9166  117.2516  118.2317  118.2319  121.0486  123.2749  123.3057  124.6374
   2  1  -25.4734  -25.4602  -24.1815  -24.1655  -23.5420  -23.5420  -23.5271  -23.5271  -22.2868  -22.2868
         -22.2734  -22.2734  -21.6767  -21.6641  -19.9570  -19.9569  -19.9469  -19.9468  -18.1032  -18.1031
  -18.0949  -18.0948  -17.8890  -17.8771  -16.7935  -16.7933  -16.7809  -16.7808  -15.8034  -15.8032
  -15.7942  -15.7940  -14.6804  -14.6802  -14.6690  -14.6687  -13.6241  -13.6056  -13.5956  -13.2783
  -12.7394  -12.7390  -12.7365  -12.7361  -12.4242  -12.4237  -12.1111  -12.1108  -12.1085  -12.1082
  -12.0947  -11.7749  -11.3546  -11.3546  -11.2323  -11.2299  -11.0508  -11.0508   -9.9698   -9.9698
   -9.9006   -9.8987   -9.7099   -9.7099   -9.5882   -9.5850   -9.3902   -9.1677   -7.5262   -7.5262
   -7.3707   -7.3707   -4.8422   -4.8422   -4.7671   -4.7671   -3.3842   -3.2200   -2.4328   -2.4328
   -2.2939   -2.2938   -1.7849   -0.1790   -0.1790   -0.1615   -0.0889   -0.0889    0.9426    0.9426
    1.1464    1.2147    1.4715    1.5091    1.7935    2.0049    2.0657    2.2358    2.2559    2.2647
    2.2649    2.2984    2.2986    2.5428    2.5431    2.6138    2.6140    2.8472    2.8496    3.2423
    3.2522    3.2522    3.8846    3.8846    4.3066    4.7801    4.7872    4.9396    5.2902    5.2902
    6.0205    6.0206    6.1290    6.1527    6.1527    6.2715    6.2716    6.5446    6.7965    6.7966
    6.8963    6.9056    6.9883    6.9883    7.2020    7.2022    7.2779    7.2843    7.5179    7.5182
    7.5917    7.5918    7.6503    7.6504    8.5094    8.5095    8.7523    8.7524    8.8674    9.1342
    9.2577    9.2577    9.3028    9.7375    9.7378    9.7831   10.1557   10.2323   10.2326   10.2560
   10.4757   10.4757   10.8406   10.8406   10.8510   10.9215   10.9216   11.1767   11.1767   11.3881
   11.5120   11.5120   12.2797   12.2802   12.7242   12.7300   12.9920   12.9921   13.1879   13.5935
   13.5936   13.6884   13.6884   15.0488   15.0488   15.0813   15.0815   15.4321   15.4322   16.3230
   16.3230   16.6427   16.6904   16.6904   16.7025   16.7025   17.1748   17.2463   17.2469   17.4136
   17.4138   18.1053   18.1053   18.4824   18.4826   18.5037   18.5041   18.6938   18.7023   18.8582
   18.8584   19.1830   19.2356   19.2363   19.2471   19.2471   19.5949   19.7079   20.1404   20.1404
   20.2660   20.6691   20.6691   20.7937   20.7943   21.0309   21.0310   21.0875   21.1378   21.3978
   21.4594   21.7806   22.5859   22.5859   22.8719   22.8721   24.2934   24.2935   24.5799   24.5803
   25.0580   25.1335   25.1335   25.2251   25.3029   25.5422   25.7938   27.2175   27.8658   28.1294
   28.1788   28.8538   28.8538   29.1198   29.1198   29.4965   29.4965   29.8037   30.1734   30.1735
   32.9303   33.4284   33.4290   33.5588   33.5593   34.1276   35.2706   35.3863   35.3864   35.6283
   36.5869   37.8669   38.2220   38.5899   38.5900   38.6808   38.6809   38.8218   38.8230   38.9516
   38.9800   38.9800   39.2281   39.2293   39.5594   39.5595   40.8112   40.8124   40.9906   40.9918
   41.0601   41.1330   41.5136   41.5152   41.9284   42.1091   42.7949   42.8627   43.1375   43.9382
   43.9382   43.9448   44.3716   44.3716   44.7565   44.8748   44.8755   44.9655   44.9656   45.3168
   45.3168   45.5059   45.7404   45.7404   45.9033   45.9388   46.0568   46.0968   46.3529   46.6279
   46.6292   46.6705   46.6706   47.0633   47.2142   47.2143   47.4268   47.4479   47.4481   48.0994
   48.0995   48.1473   48.1473   48.4390   48.4392   49.5569   50.0575   50.0576   50.2807   50.2809
   50.3881   50.4639   50.9394   50.9396   51.9271   51.9274   52.0664   53.1585   53.4041   53.8190
   54.4030   54.4584   55.1817   55.1819   55.9976   57.6118   57.6119   57.9080   57.9083   58.4548
   58.4548   59.7723   59.7725   59.8066   59.8068   60.2541   60.6391   60.6392   60.8388   60.8388
   61.7912   62.5174   62.5177   62.8847   63.2490   63.2498   63.4661   63.5125   64.8590   64.8604
   65.1463   65.8275   65.8900   65.8903   65.9290   65.9293   66.2509   66.2942   67.4808   67.4815
   67.9707   67.9716   68.1293   70.2695   70.6054   70.7130   70.7521   71.8089   71.8996   71.9026
   73.6892   74.1949   74.7183   76.4500   76.4501   76.4549   76.4550   77.6361   77.6367   79.5806
   79.5815   80.4191   83.5623   85.7051   88.7701   92.6051   92.6077   92.9224   93.2396   94.7126
   94.7143   96.4825   97.0021   97.0052   98.8237   98.8268   99.6299   99.6301  103.1879  103.1883
  103.7054  106.5550  106.5554  107.4029  107.4041  107.7421  107.7429  107.7924  107.9775  107.9778
  108.4288  110.6163  110.6170  110.8218  110.8229  110.9153  111.3681  111.3685  111.7835  111.8818
  111.8857  113.7324  114.4467  114.4490  114.4517  114.7469  114.7492  115.2436  115.7196  115.7222
  121.8798  127.5299  127.5310  127.6711  135.0048  135.0071  137.5449  137.5467
   3  1  -25.4734  -25.4602  -24.1814  -24.1655  -23.5421  -23.5421  -23.5271  -23.5271  -22.2868  -22.2868
         -22.2734  -22.2734  -21.6766  -21.6641  -19.9569  -19.9569  -19.9468  -19.9468  -18.1032  -18.1032
  -18.0950  -18.0950  -17.8889  -17.8769  -16.7935  -16.7935  -16.7809  -16.7809  -15.8032  -15.8032
  -15.7941  -15.7941  -14.6804  -14.6804  -14.6690  -14.6690  -13.6241  -13.6053  -13.5953  -13.2783
  -12.7390  -12.7390  -12.7361  -12.7361  -12.4246  -12.4240  -12.1108  -12.1108  -12.1082  -12.1082
  -12.0947  -11.7749  -11.3546  -11.3546  -11.2326  -11.2302  -11.0508  -11.0508   -9.9698   -9.9698
   -9.9002   -9.8983   -9.7099   -9.7099   -9.5886   -9.5854   -9.3902   -9.1677   -7.5262   -7.5262
   -7.3707   -7.3707   -4.8422   -4.8422   -4.7671   -4.7671   -3.3842   -3.2200   -2.4328   -2.4328
   -2.2939   -2.2939   -1.7849   -0.1790   -0.1790   -0.1615   -0.0890   -0.0890    0.9426    0.9426
    1.1464    1.2147    1.4717    1.5093    1.7935    2.0052    2.0661    2.2363    2.2564    2.2647
    2.2647    2.2984    2.2984    2.5429    2.5429    2.6139    2.6139    2.8466    2.8490    3.2423
    3.2522    3.2522    3.8846    3.8846    4.3066    4.7801    4.7872    4.9396    5.2902    5.2902
    6.0205    6.0205    6.1290    6.1527    6.1527    6.2715    6.2715    6.5447    6.7967    6.7967
    6.8963    6.9056    6.9883    6.9883    7.2021    7.2021    7.2772    7.2836    7.5183    7.5183
    7.5916    7.5916    7.6507    7.6507    8.5094    8.5094    8.7521    8.7521    8.8677    9.1345
    9.2575    9.2575    9.3031    9.7375    9.7375    9.7833   10.1557   10.2325   10.2325   10.2560
   10.4757   10.4757   10.8406   10.8406   10.8510   10.9214   10.9214   11.1765   11.1765   11.3886
   11.5120   11.5120   12.2805   12.2805   12.7231   12.7290   12.9925   12.9925   13.1879   13.5937
   13.5937   13.6884   13.6884   15.0488   15.0488   15.0814   15.0814   15.4324   15.4324   16.3230
   16.3230   16.6427   16.6904   16.6904   16.7025   16.7025   17.1755   17.2462   17.2462   17.4136
   17.4136   18.1053   18.1053   18.4825   18.4825   18.5037   18.5037   18.6938   18.7030   18.8583
   18.8583   19.1829   19.2356   19.2356   19.2471   19.2471   19.5949   19.7084   20.1404   20.1404
   20.2661   20.6692   20.6692   20.7934   20.7934   21.0309   21.0309   21.0874   21.1379   21.3985
   21.4593   21.7807   22.5859   22.5859   22.8722   22.8722   24.2932   24.2932   24.5803   24.5803
   25.0579   25.1332   25.1332   25.2250   25.3031   25.5423   25.7939   27.2182   27.8657   28.1302
   28.1791   28.8538   28.8538   29.1198   29.1198   29.4965   29.4965   29.8035   30.1732   30.1732
   32.9302   33.4282   33.4282   33.5589   33.5589   34.1277   35.2707   35.3863   35.3863   35.6281
   36.5870   37.8669   38.2208   38.5899   38.5899   38.6808   38.6808   38.8227   38.8227   38.9505
   38.9799   38.9800   39.2291   39.2291   39.5594   39.5594   40.8125   40.8125   40.9919   40.9919
   41.0602   41.1332   41.5138   41.5153   41.9271   42.1078   42.7947   42.8625   43.1376   43.9382
   43.9382   43.9455   44.3716   44.3716   44.7574   44.8752   44.8752   44.9654   44.9654   45.3168
   45.3168   45.5047   45.7404   45.7404   45.9049   45.9390   46.0551   46.0972   46.3520   46.6285
   46.6285   46.6705   46.6705   47.0646   47.2140   47.2140   47.4270   47.4478   47.4478   48.0993
   48.0993   48.1471   48.1472   48.4386   48.4386   49.5567   50.0575   50.0575   50.2808   50.2808
   50.3881   50.4645   50.9395   50.9395   51.9272   51.9272   52.0682   53.1587   53.4044   53.8192
   54.4027   54.4581   55.1817   55.1817   55.9980   57.6119   57.6119   57.9080   57.9080   58.4548
   58.4548   59.7725   59.7725   59.8069   59.8069   60.2546   60.6392   60.6392   60.8389   60.8389
   61.7912   62.5172   62.5172   62.8830   63.2493   63.2493   63.4643   63.5131   64.8602   64.8603
   65.1472   65.8283   65.8902   65.8902   65.9292   65.9292   66.2505   66.2938   67.4825   67.4826
   67.9727   67.9728   68.1293   70.2665   70.6023   70.7099   70.7490   71.8120   71.9012   71.9012
   73.6916   74.1954   74.7204   76.4501   76.4501   76.4550   76.4550   77.6370   77.6371   79.5795
   79.5796   80.4199   83.5604   85.7035   88.7726   92.6047   92.6047   92.9238   93.2407   94.7122
   94.7122   96.4846   97.0028   97.0030   98.8241   98.8242   99.6309   99.6310  103.1877  103.1878
  103.7079  106.5546  106.5547  107.4044  107.4046  107.7421  107.7422  107.7889  107.9775  107.9777
  108.4298  110.6152  110.6153  110.8249  110.8252  110.9160  111.3677  111.3680  111.7791  111.8847
  111.8853  113.7278  114.4506  114.4510  114.4527  114.7480  114.7481  115.2400  115.7222  115.7227
  121.8801  127.5306  127.5308  127.6713  135.0053  135.0068  137.5455  137.5471
   4  1  -25.1513  -25.1350  -24.5036  -24.5035  -24.4873  -24.4873  -22.5980  -22.5979  -22.5842  -22.5842
         -21.3741  -21.3618  -20.8126  -20.8126  -20.8017  -20.8017  -19.9958  -19.9902  -18.9851  -18.9800
  -18.7252  -18.7251  -18.7149  -18.7147  -16.6903  -16.6844  -15.6598  -15.6598  -15.6500  -15.6500
  -15.0988  -15.0916  -14.3838  -14.3750  -13.6301  -13.6300  -13.6218  -13.6218  -13.2363  -13.0643
  -13.0639  -13.0611  -13.0608  -12.8962  -12.6188  -12.6186  -12.6138  -12.6136  -12.4704  -12.4704
  -12.1432  -12.1432  -11.2350  -11.2346  -11.2325  -11.2321  -10.9236  -10.9230  -10.2782  -10.2782
  -10.2514  -10.2503  -10.0015  -10.0015   -8.9299   -8.6960   -8.6346   -8.6346   -8.4760   -8.4760
   -7.9105   -7.8108   -4.6704   -4.5860   -4.1920   -4.1920   -4.0442   -4.0442   -3.3291   -3.2497
   -1.7044   -1.7044   -1.6193   -1.6192   -1.5377   -0.6386   -0.6386    2.0223    2.0223    2.0479
    2.0479    2.1186    2.1187    2.1279    2.1611    2.1613    2.5546    2.5980    2.6766    2.6767
    2.7420    2.7423    2.7993    2.7996    2.8376    2.8376    3.7573    3.7575    3.7837    3.7969
    3.8845    3.9681    4.1673    4.1674    4.2767    4.2768    4.7327    4.7327    4.7708    5.3079
    5.3148    5.3153    5.3348    5.3353    5.5883    5.8045    5.8046    6.0752    6.1563    6.1563
    6.3500    6.6142    6.7023    6.8405    6.8406    6.9549    6.9665    6.9665    6.9942    7.0522
    7.0524    7.5551    7.6203    7.6397    7.7532    8.1155    8.1157    8.2714    8.5344    8.5345
    8.9749    8.9749    9.1503    9.1504    9.2065    9.2066    9.6568    9.9162    9.9162    9.9368
   10.2073   10.2075   10.3430   10.6165   10.6323   10.6323   10.8979   10.8983   11.4994   12.0464
   12.4938   12.4938   13.1674   13.1677   13.5381   13.5391   13.6370   13.6372   13.7422   14.0078
   14.0088   14.0142   14.0142   14.3402   14.5360   14.7439   15.0894   15.4614   15.4614   15.9878
   16.2240   16.2240   16.7011   17.1865   17.4419   17.4901   17.4909   17.6143   17.6424   17.6425
   18.1144   18.2999   18.3007   18.3109   18.3508   18.6569   18.6569   18.7796   19.0248   19.0253
   19.4347   19.4348   19.7260   19.7310   19.7310   20.0166   20.1432   20.1432   20.1642   20.3814
   20.3814   20.5049   20.5049   20.8714   21.0921   21.0927   21.2317   21.6641   21.6648   21.7622
   21.8723   21.8723   22.3245   22.3248   22.5518   22.5518   23.1232   23.1385   23.6070   23.6070
   23.8553   23.8553   24.4559   24.4560   25.1301   25.4397   25.5133   25.5133   27.4148   27.4149
   28.9673   28.9673   29.3871   29.3872   29.4398   30.2250   30.7838   31.0688   31.2640   31.8665
   31.8670   32.9489   32.9495   33.1685   33.3769   33.3770   34.1626   34.5993   34.5994   34.8420
   34.8421   35.6077   35.6077   36.3296   36.8303   37.1274   37.1274   37.5868   37.5876   37.6005
   38.2568   38.2577   39.4493   39.6040   40.4428   40.4428   41.5635   41.5638   41.6148   42.1420
   42.1425   42.6179   42.8355   42.8364   42.9866   42.9877   43.1289   43.1938   43.1940   43.5552
   43.8067   43.8068   44.0535   44.0538   44.5131   44.5631   44.6048   44.6847   44.6848   44.9158
   44.9165   45.0441   45.0551   45.1508   45.2256   45.5813   46.0084   46.0088   46.1225   46.1225
   46.4299   46.5774   46.6118   47.3543   47.3543   47.4807   47.4808   48.4151   48.4151   48.9054
   49.0817   49.2159   49.2161   49.2629   49.9115   49.9121   51.6492   51.6494   51.8867   51.9410
   51.9411   52.2586   52.3922   52.3923   52.7006   52.7008   53.0906   53.0909   53.7526   53.7528
   53.9855   53.9856   54.5987   55.2157   55.2158   55.8651   56.5872   57.2040   59.3670   59.8609
   59.9770   59.9773   60.1341   60.7957   60.7961   61.0580   61.1170   61.6368   61.6376   61.6589
   61.6590   61.7814   61.8614   61.9584   61.9593   63.0472   63.4750   63.5588   63.5592   65.0527
   65.0533   66.6052   66.6053   66.6525   66.6527   67.0983   67.0989   68.8939   68.8959   69.6244
   69.6247   69.6536   69.6539   69.9520   72.7490   72.7508   72.7656   73.5634   73.5654   73.8232
   73.8246   74.9891   74.9892   75.7818   75.8566   77.7118   77.7131   79.5685   79.5708   82.3339
   83.2825   83.8404   83.8435   85.5995   87.9650   90.4299   90.4318   91.3870   91.3878   91.6936
   91.6946   96.1040   97.8824   97.8849   97.9972   97.9980   98.9105   98.9759   98.9767  101.1297
  101.7070  103.8854  103.8874  104.4474  104.6582  105.0555  106.1392  106.1419  107.2984  107.2991
  107.9856  107.9880  108.0229  108.9753  108.9757  111.3028  111.3029  112.5813  112.5835  113.8638
  113.8674  114.2232  114.4759  114.4760  114.7694  114.7713  115.6871  115.6886  115.7076  116.5893
  116.9183  117.2543  118.2312  118.2321  121.0492  123.2738  123.3068  124.6365
   5  1  -25.4734  -25.4602  -24.1815  -24.1655  -23.5420  -23.5420  -23.5271  -23.5271  -22.2868  -22.2868
         -22.2734  -22.2734  -21.6767  -21.6641  -19.9570  -19.9569  -19.9469  -19.9468  -18.1032  -18.1031
  -18.0949  -18.0948  -17.8890  -17.8771  -16.7935  -16.7933  -16.7809  -16.7808  -15.8034  -15.8032
  -15.7942  -15.7940  -14.6804  -14.6802  -14.6690  -14.6687  -13.6241  -13.6056  -13.5956  -13.2783
  -12.7394  -12.7390  -12.7365  -12.7361  -12.4242  -12.4237  -12.1111  -12.1108  -12.1085  -12.1082
  -12.0947  -11.7749  -11.3546  -11.3546  -11.2323  -11.2299  -11.0508  -11.0508   -9.9698   -9.9698
   -9.9006   -9.8987   -9.7099   -9.7099   -9.5882   -9.5850   -9.3902   -9.1677   -7.5262   -7.5262
   -7.3707   -7.3707   -4.8422   -4.8422   -4.7671   -4.7671   -3.3842   -3.2200   -2.4328   -2.4328
   -2.2939   -2.2938   -1.7849   -0.1790   -0.1790   -0.1615   -0.0889   -0.0889    0.9426    0.9426
    1.1464    1.2147    1.4715    1.5091    1.7935    2.0049    2.0657    2.2358    2.2559    2.2647
    2.2649    2.2984    2.2986    2.5428    2.5431    2.6138    2.6140    2.8472    2.8496    3.2423
    3.2522    3.2522    3.8846    3.8846    4.3066    4.7801    4.7872    4.9396    5.2902    5.2902
    6.0205    6.0206    6.1290    6.1527    6.1527    6.2715    6.2716    6.5446    6.7965    6.7966
    6.8963    6.9056    6.9883    6.9883    7.2020    7.2022    7.2779    7.2843    7.5179    7.5182
    7.5917    7.5918    7.6503    7.6504    8.5094    8.5095    8.7523    8.7524    8.8674    9.1342
    9.2577    9.2577    9.3028    9.7375    9.7378    9.7831   10.1557   10.2323   10.2326   10.2560
   10.4757   10.4757   10.8406   10.8406   10.8510   10.9215   10.9216   11.1767   11.1767   11.3881
   11.5120   11.5120   12.2797   12.2802   12.7242   12.7300   12.9920   12.9921   13.1879   13.5935
   13.5936   13.6884   13.6884   15.0488   15.0488   15.0813   15.0815   15.4321   15.4322   16.3230
   16.3230   16.6427   16.6904   16.6904   16.7025   16.7025   17.1748   17.2463   17.2469   17.4136
   17.4138   18.1053   18.1053   18.4824   18.4826   18.5037   18.5041   18.6938   18.7023   18.8582
   18.8584   19.1830   19.2356   19.2363   19.2471   19.2471   19.5949   19.7079   20.1404   20.1404
   20.2660   20.6691   20.6691   20.7937   20.7943   21.0309   21.0310   21.0875   21.1378   21.3978
   21.4594   21.7806   22.5859   22.5859   22.8719   22.8721   24.2934   24.2935   24.5799   24.5803
   25.0580   25.1335   25.1335   25.2251   25.3029   25.5422   25.7938   27.2175   27.8659   28.1294
   28.1788   28.8538   28.8538   29.1198   29.1198   29.4965   29.4965   29.8037   30.1733   30.1735
   32.9303   33.4284   33.4290   33.5588   33.5593   34.1276   35.2706   35.3863   35.3864   35.6283
   36.5869   37.8669   38.2220   38.5899   38.5900   38.6808   38.6809   38.8218   38.8230   38.9516
   38.9800   38.9800   39.2281   39.2293   39.5594   39.5595   40.8112   40.8124   40.9906   40.9918
   41.0601   41.1330   41.5136   41.5152   41.9284   42.1091   42.7949   42.8627   43.1375   43.9382
   43.9382   43.9448   44.3716   44.3716   44.7565   44.8749   44.8755   44.9655   44.9656   45.3168
   45.3168   45.5059   45.7404   45.7404   45.9033   45.9388   46.0568   46.0967   46.3528   46.6279
   46.6292   46.6705   46.6706   47.0633   47.2142   47.2143   47.4268   47.4479   47.4481   48.0994
   48.0995   48.1473   48.1473   48.4390   48.4392   49.5569   50.0575   50.0576   50.2807   50.2809
   50.3881   50.4639   50.9394   50.9396   51.9271   51.9274   52.0664   53.1585   53.4041   53.8190
   54.4030   54.4584   55.1817   55.1819   55.9976   57.6118   57.6119   57.9081   57.9083   58.4548
   58.4548   59.7723   59.7725   59.8066   59.8068   60.2541   60.6391   60.6392   60.8388   60.8388
   61.7912   62.5174   62.5177   62.8846   63.2490   63.2498   63.4660   63.5125   64.8590   64.8604
   65.1463   65.8275   65.8900   65.8903   65.9290   65.9293   66.2509   66.2942   67.4808   67.4815
   67.9706   67.9716   68.1293   70.2694   70.6054   70.7130   70.7521   71.8089   71.8996   71.9027
   73.6892   74.1949   74.7182   76.4500   76.4501   76.4549   76.4550   77.6362   77.6367   79.5807
   79.5817   80.4193   83.5618   85.7048   88.7701   92.6051   92.6077   92.9223   93.2396   94.7126
   94.7143   96.4824   97.0022   97.0052   98.8237   98.8267   99.6298   99.6301  103.1879  103.1883
  103.7055  106.5550  106.5555  107.4030  107.4043  107.7421  107.7429  107.7918  107.9775  107.9781
  108.4287  110.6162  110.6169  110.8222  110.8235  110.9152  111.3679  111.3686  111.7831  111.8817
  111.8861  113.7319  114.4472  114.4499  114.4517  114.7469  114.7492  115.2430  115.7195  115.7226
  121.8797  127.5299  127.5311  127.6711  135.0052  135.0067  137.5451  137.5464
   6  1  -25.6274  -25.6223  -23.0669  -23.0669  -23.0669  -23.0668  -23.0668  -23.0668  -23.0525  -23.0525
         -23.0525  -23.0525  -23.0524  -23.0524  -18.7470  -18.7470  -18.7412  -18.7412  -18.7411  -18.7411
  -18.7358  -18.7358  -16.6844  -16.6844  -16.6844  -16.6844  -15.7987  -15.7987  -15.7987  -15.7987
  -15.7985  -15.7985  -15.7855  -15.7855  -15.7854  -15.7854  -15.7853  -15.7853  -13.8190  -13.4705
  -11.9568  -11.9568  -11.9565  -11.9564  -11.9564  -11.9564  -11.9556  -11.9556  -11.9553  -11.9553
  -11.9553  -11.9553  -10.8247  -10.8247  -10.8247  -10.8247  -10.8247  -10.8246  -10.5364  -10.5364
  -10.5364  -10.5364  -10.5364  -10.5364   -9.2561   -9.2555   -9.2549   -9.2544   -6.1958   -6.1958
   -6.1036   -6.1036   -6.1036   -6.1036   -6.0114   -6.0114   -1.6713   -1.2268   -1.2268   -1.2268
   -1.2268   -1.2268   -1.2268   -1.0958   -1.0958   -1.0958   -1.0958   -1.0958   -1.0958    1.5430
    1.5430    1.5430    1.5430    1.5433    1.5433    1.6279    1.7084    1.7084    1.7084    1.7084
    1.7087    1.7087    1.9707    1.9707    1.9707    1.9707    1.9708    1.9708    2.1492    2.1494
    2.1499    2.1501    4.4990    4.4990    4.4990    4.4990    4.4990    4.4990    4.8152    5.3181
    5.3232    6.1331    6.1331    6.1331    6.1331    6.5917    6.5946    7.0056    7.0056    7.3814
    7.3814    7.3816    7.3816    7.9073    7.9073    7.9073    7.9073    7.9074    7.9074    8.0741
    8.0741    9.2844    9.2844    9.2846    9.2846    9.9514    9.9514    9.9515    9.9515    9.9519
    9.9519   10.0505   10.1517   10.1517   10.1525   10.1525   10.1525   10.1525   10.1594   10.1594
   10.1603   10.1603   10.1603   10.1603   10.6905   10.6906   10.6906   10.6906   10.6910   10.6911
   11.1464   11.1464   11.1464   11.1464   11.1464   11.1464   11.8294   11.8294   13.0868   13.0868
   14.7189   14.7189   14.7189   14.7189   15.2609   15.2609   15.2609   15.2609   15.2609   15.2609
   15.2785   15.2785   15.2785   15.2785   16.7155   16.7155   17.5708   17.5708   17.5708   17.5708
   17.5712   17.5712   18.6707   18.6707   18.6707   18.6707   18.8243   18.8243   18.8243   18.8243
   18.8243   18.8243   19.6047   19.6047   19.6048   19.6048   19.6048   19.6048   19.9060   20.0006
   20.0006   20.0484   20.0484   20.0484   20.0484   20.0484   20.0484   20.0735   20.0735   20.0735
   20.0735   20.0741   20.0741   20.7090   26.0407   26.0407   26.0407   26.0407   26.0412   26.0412
   26.0907   26.0909   26.1599   26.1600   28.2346   28.2347   28.2347   28.2347   28.2354   28.2354
   28.5276   28.5276   28.5276   28.5276   29.8427   29.8427   29.8428   29.8428   29.8428   29.8428
   32.1566   32.1566   32.1568   32.1568   32.1568   32.1568   36.4738   36.4738   36.4738   36.4738
   36.4739   36.4739   36.5338   36.5338   36.5339   36.5339   36.5339   36.5340   39.7528   39.7528
   39.7541   39.7541   39.7541   39.7541   40.1347   40.1347   40.1359   40.1359   40.1359   40.1359
   40.7390   40.7393   40.8292   40.8294   41.5571   41.5571   41.5571   41.5571   41.5572   41.5572
   41.8415   41.8415   42.0826   42.0826   42.0827   42.0827   42.9437   42.9437   45.0092   45.0092
   45.0092   45.0092   45.0097   45.0097   46.7438   46.7462   46.8977   46.9002   48.1326   48.1326
   48.1327   48.1327   48.1335   48.1335   49.8300   49.8301   49.8301   49.8301   49.8303   49.8303
   50.2984   50.2984   51.0559   51.0559   51.0559   51.0560   51.0562   51.0562   51.5231   51.5231
   51.5233   51.5233   52.4935   52.4935   53.5078   53.5082   53.8167   53.8167   53.8167   53.8167
   53.8170   53.8170   56.2233   56.2237   57.0651   57.6596   58.6525   58.6525   58.9108   58.9108
   58.9108   58.9108   59.2811   59.2811   61.0968   61.0968   61.0971   61.0971   61.0972   61.0972
   61.1558   61.1558   61.1561   61.1562   61.1562   61.1562   63.7192   63.8736   63.8736   63.8736
   63.8736   63.8744   63.8744   67.0925   67.0926   67.0948   67.0949   67.0949   67.0950   67.2359
   67.2360   67.2383   67.2384   67.2384   67.2385   70.3136   70.4435   70.4477   70.5359   70.5400
   71.5940   71.5955   72.9495   72.9509   74.5783   74.5783   74.5784   74.5784   74.5794   74.5795
   78.1955   78.1955   78.1955   78.1955   94.5143   94.5144   94.5144   94.5144   94.5168   94.5168
   96.0906   96.0907   96.0907   96.0907   96.0934   96.0934  104.4155  104.4156  104.4156  104.4156
  104.4160  104.4161  108.6192  108.6193  108.6194  108.6194  109.8600  109.8600  109.8634  109.8635
  109.8638  109.8641  110.5976  110.5976  110.5976  110.5977  110.5985  110.5986  113.2251  113.2253
  115.1003  115.1004  115.1039  115.1040  115.1044  115.1047  120.0543  120.0544  120.0546  120.0547
  125.1426  132.5754  135.4631  135.4634  163.1285  163.1286  163.1309  163.1309
   7  1  -24.9893  -24.9893  -24.9726  -24.9726  -23.7014  -23.7014  -23.6864  -23.6864  -21.2273  -21.2273
         -21.2273  -21.2273  -21.2153  -21.2153  -21.2152  -21.2152  -20.4149  -20.4092  -19.3855  -19.3803
  -17.5608  -17.5608  -17.5607  -17.5607  -17.5498  -17.5498  -17.5497  -17.5497  -14.2013  -14.2013
  -14.2010  -14.2010  -14.1927  -14.1927  -14.1925  -14.1925  -13.9404  -13.9404  -13.9360  -13.9360
  -13.0437  -13.0437  -12.7066  -12.7066  -12.5849  -12.5845  -12.5824  -12.5824  -12.5748  -12.5748
  -11.5338  -11.5338  -11.5213  -11.5213  -11.5187  -11.5187  -11.2251  -11.2251  -10.3663  -10.3663
  -10.3626  -10.3626   -8.8409   -8.8409   -8.8409   -8.8409   -8.6251   -8.6251   -8.6251   -8.6251
   -8.5061   -8.4039   -4.4591   -4.3057   -3.6325   -3.6325   -3.6325   -3.6325   -3.5183   -3.5183
   -3.5183   -3.5183   -1.3497   -1.3497    0.2822    0.2822    0.3375    0.3375    0.7208    0.7208
    1.3899    1.4315    2.2339    2.2339    2.2790    2.2790    2.2799    2.2799    3.2997    3.2997
    3.3476    3.3476    3.6258    3.6258    3.9213    3.9213    3.9638    3.9638    3.9638    3.9638
    4.0099    4.0099    4.0325    4.0325    4.0326    4.0326    4.7022    4.7022    4.7067    4.7067
    5.0985    5.0985    5.0986    5.0986    5.4904    5.4904    5.5027    5.5027    5.5082    5.5082
    6.0077    6.0077    6.0077    6.0077    6.6900    7.2028    7.2028    7.3041    7.8384    7.8384
    7.8551    7.8817    7.8818    8.0226    8.0226    8.0226    8.0226    8.3761    8.7117    8.7117
    8.7117    8.7117    9.0188    9.0188    9.0189    9.0189    9.9525    9.9525    9.9527    9.9527
   10.4453   10.4453   10.5964   10.5964   10.6561   11.1056   11.3415   11.3415   11.4306   11.4306
   12.1300   12.1301   12.1301   12.1301   13.0709   13.4181   13.4181   13.4185   13.4185   13.8693
   13.8706   14.9213   14.9213   14.9215   14.9215   15.2748   15.2748   15.2748   15.2748   15.8384
   16.8592   16.8592   17.3936   17.5182   17.5182   17.5188   17.5188   17.7916   17.7916   17.7922
   17.7922   17.8105   17.8105   18.1302   18.2650   18.2650   18.2650   18.2650   18.3878   18.8925
   18.9736   18.9736   18.9737   18.9737   19.9961   19.9961   20.4022   20.4022   20.6975   20.6975
   20.6975   20.6975   20.9510   20.9510   20.9511   20.9511   21.0371   21.0371   21.8189   21.8189
   22.3224   22.3224   22.4109   22.4109   23.0303   23.0303   23.3094   23.3094   23.5113   23.5113
   24.1439   24.1439   24.3664   24.3665   24.3997   24.3997   27.0362   27.4806   27.4806   27.6326
   27.6406   27.6406   28.1241   28.7929   30.2722   30.2722   30.2723   30.2723   31.0700   31.0700
   32.0139   32.0139   32.0139   32.0139   33.7915   33.7915   34.0732   34.5712   36.2863   36.2863
   36.2864   36.2864   37.6650   37.7963   37.7963   37.7964   37.7964   37.9497   37.9497   38.0991
   38.0991   38.5959   40.3452   40.3452   40.9869   40.9869   41.5897   41.5897   41.5903   41.5903
   42.6492   42.6492   42.7250   42.7250   42.7486   42.7486   42.8339   42.8339   42.8342   42.8342
   43.5086   43.5086   43.7848   43.7848   44.0279   44.0279   44.2947   44.2948   44.2974   44.2974
   44.3411   44.3411   44.4821   44.4821   44.8007   44.8007   45.3161   45.5809   46.9955   46.9955
   47.8538   47.8538   47.8977   47.8977   47.9378   47.9378   48.1721   48.1721   48.1722   48.1722
   48.4990   48.4990   48.4992   48.4992   48.7199   48.7199   48.7199   48.7199   49.9082   49.9082
   49.9083   49.9083   51.5363   51.5364   53.0747   53.6654   54.5389   54.5389   54.6179   54.7206
   55.8208   55.8208   55.8209   55.8209   57.2792   57.2792   57.2794   57.2794   58.7102   58.7102
   59.7944   59.7944   59.9537   59.9537   60.9098   60.9098   61.1267   61.3920   61.3920   61.3922
   61.3922   61.9051   61.9051   61.9336   62.2887   62.2888   62.9328   62.9329   62.9334   62.9334
   66.0342   66.3676   66.3676   66.5129   66.5130   68.2102   68.2359   69.7545   71.1090   71.1090
   71.2750   71.2751   71.8282   71.8282   71.8284   71.8284   71.8454   71.8454   71.8456   71.8456
   73.8486   73.8486   76.7464   76.7465   76.7469   76.7469   77.4653   77.4653   81.1225   81.1226
   85.8190   88.7062   88.7063   88.7065   88.7065   89.3087   89.3087   89.3674   89.3675   89.5338
   89.5339   92.9756   92.9757   95.7556  100.2185  100.2186  103.3461  103.3461  103.3490  103.3490
  103.6803  103.6804  103.6830  103.6830  104.4874  104.4874  104.6333  104.6334  106.7133  106.9761
  106.9761  106.9762  106.9763  108.2376  108.2376  111.2773  111.2776  111.8821  111.8823  112.7781
  113.5845  113.5846  113.5951  114.5770  114.5771  114.5784  114.5786  116.3683  116.3684  116.3712
  116.3713  116.3911  118.6515  118.6516  120.6967  120.6968  120.6987  120.6989
   8  1  -25.1513  -25.1350  -24.5036  -24.5035  -24.4873  -24.4873  -22.5980  -22.5979  -22.5842  -22.5842
         -21.3741  -21.3618  -20.8126  -20.8126  -20.8017  -20.8017  -19.9958  -19.9902  -18.9851  -18.9800
  -18.7252  -18.7251  -18.7149  -18.7147  -16.6903  -16.6844  -15.6598  -15.6598  -15.6500  -15.6500
  -15.0988  -15.0916  -14.3838  -14.3750  -13.6301  -13.6300  -13.6218  -13.6218  -13.2363  -13.0643
  -13.0639  -13.0611  -13.0608  -12.8962  -12.6188  -12.6186  -12.6138  -12.6136  -12.4704  -12.4704
  -12.1432  -12.1432  -11.2350  -11.2346  -11.2325  -11.2321  -10.9236  -10.9230  -10.2782  -10.2782
  -10.2514  -10.2503  -10.0015  -10.0015   -8.9299   -8.6960   -8.6346   -8.6346   -8.4760   -8.4760
   -7.9105   -7.8108   -4.6704   -4.5860   -4.1920   -4.1920   -4.0442   -4.0442   -3.3291   -3.2497
   -1.7044   -1.7044   -1.6193   -1.6192   -1.5377   -0.6386   -0.6386    2.0223    2.0223    2.0479
    2.0479    2.1186    2.1187    2.1279    2.1611    2.1613    2.5546    2.5980    2.6766    2.6767
    2.7420    2.7423    2.7993    2.7996    2.8376    2.8376    3.7573    3.7575    3.7837    3.7969
    3.8845    3.9681    4.1673    4.1674    4.2767    4.2768    4.7327    4.7327    4.7708    5.3079
    5.3148    5.3153    5.3348    5.3353    5.5883    5.8045    5.8046    6.0752    6.1563    6.1563
    6.3500    6.6142    6.7023    6.8405    6.8406    6.9549    6.9665    6.9665    6.9942    7.0522
    7.0524    7.5551    7.6203    7.6397    7.7532    8.1155    8.1157    8.2714    8.5344    8.5345
    8.9749    8.9749    9.1503    9.1504    9.2065    9.2066    9.6568    9.9162    9.9162    9.9368
   10.2073   10.2075   10.3430   10.6165   10.6323   10.6323   10.8979   10.8983   11.4994   12.0464
   12.4938   12.4938   13.1674   13.1677   13.5381   13.5391   13.6370   13.6372   13.7422   14.0078
   14.0088   14.0142   14.0142   14.3402   14.5360   14.7439   15.0894   15.4614   15.4614   15.9878
   16.2240   16.2240   16.7011   17.1865   17.4419   17.4901   17.4909   17.6143   17.6424   17.6425
   18.1144   18.2999   18.3007   18.3109   18.3508   18.6569   18.6569   18.7796   19.0248   19.0253
   19.4347   19.4348   19.7260   19.7310   19.7310   20.0166   20.1432   20.1432   20.1642   20.3814
   20.3814   20.5049   20.5049   20.8714   21.0921   21.0927   21.2317   21.6641   21.6648   21.7622
   21.8723   21.8723   22.3245   22.3248   22.5518   22.5518   23.1232   23.1385   23.6070   23.6070
   23.8553   23.8553   24.4559   24.4560   25.1301   25.4397   25.5133   25.5133   27.4148   27.4149
   28.9673   28.9673   29.3871   29.3872   29.4398   30.2250   30.7838   31.0688   31.2640   31.8665
   31.8670   32.9489   32.9495   33.1685   33.3769   33.3770   34.1626   34.5993   34.5994   34.8420
   34.8421   35.6077   35.6077   36.3296   36.8303   37.1274   37.1274   37.5868   37.5876   37.6005
   38.2568   38.2577   39.4493   39.6040   40.4428   40.4428   41.5635   41.5638   41.6148   42.1420
   42.1425   42.6179   42.8355   42.8364   42.9866   42.9877   43.1289   43.1938   43.1940   43.5552
   43.8067   43.8068   44.0535   44.0538   44.5131   44.5631   44.6048   44.6847   44.6848   44.9158
   44.9165   45.0441   45.0551   45.1508   45.2256   45.5813   46.0084   46.0088   46.1225   46.1225
   46.4299   46.5774   46.6118   47.3543   47.3543   47.4807   47.4808   48.4151   48.4151   48.9054
   49.0817   49.2159   49.2161   49.2629   49.9115   49.9121   51.6492   51.6494   51.8867   51.9410
   51.9411   52.2586   52.3922   52.3923   52.7006   52.7008   53.0906   53.0909   53.7526   53.7528
   53.9855   53.9856   54.5987   55.2157   55.2158   55.8651   56.5872   57.2040   59.3670   59.8609
   59.9770   59.9773   60.1341   60.7957   60.7961   61.0580   61.1170   61.6368   61.6376   61.6589
   61.6590   61.7814   61.8614   61.9584   61.9593   63.0472   63.4750   63.5588   63.5592   65.0527
   65.0533   66.6052   66.6053   66.6525   66.6527   67.0983   67.0989   68.8939   68.8959   69.6244
   69.6247   69.6536   69.6539   69.9520   72.7490   72.7508   72.7656   73.5634   73.5654   73.8232
   73.8246   74.9891   74.9892   75.7818   75.8566   77.7118   77.7131   79.5685   79.5708   82.3339
   83.2825   83.8404   83.8435   85.5995   87.9650   90.4299   90.4318   91.3870   91.3878   91.6936
   91.6946   96.1040   97.8824   97.8849   97.9972   97.9980   98.9105   98.9759   98.9767  101.1297
  101.7070  103.8854  103.8874  104.4474  104.6582  105.0555  106.1392  106.1419  107.2984  107.2991
  107.9856  107.9880  108.0229  108.9753  108.9757  111.3028  111.3029  112.5813  112.5835  113.8638
  113.8674  114.2232  114.4759  114.4760  114.7694  114.7713  115.6871  115.6886  115.7076  116.5893
  116.9183  117.2543  118.2312  118.2321  121.0492  123.2738  123.3068  124.6365
   9  1  -25.1513  -25.1350  -24.5036  -24.5035  -24.4873  -24.4873  -22.5980  -22.5979  -22.5842  -22.5842
         -21.3741  -21.3618  -20.8126  -20.8126  -20.8017  -20.8017  -19.9958  -19.9902  -18.9851  -18.9800
  -18.7252  -18.7251  -18.7149  -18.7147  -16.6903  -16.6844  -15.6598  -15.6598  -15.6500  -15.6500
  -15.0988  -15.0916  -14.3838  -14.3750  -13.6301  -13.6300  -13.6218  -13.6218  -13.2363  -13.0643
  -13.0639  -13.0611  -13.0608  -12.8962  -12.6188  -12.6186  -12.6138  -12.6136  -12.4704  -12.4704
  -12.1432  -12.1432  -11.2350  -11.2346  -11.2325  -11.2321  -10.9236  -10.9230  -10.2782  -10.2782
  -10.2514  -10.2503  -10.0015  -10.0015   -8.9299   -8.6960   -8.6346   -8.6346   -8.4760   -8.4760
   -7.9105   -7.8108   -4.6704   -4.5860   -4.1920   -4.1920   -4.0442   -4.0442   -3.3291   -3.2497
   -1.7044   -1.7044   -1.6193   -1.6192   -1.5377   -0.6386   -0.6386    2.0223    2.0223    2.0479
    2.0479    2.1186    2.1187    2.1279    2.1611    2.1613    2.5546    2.5980    2.6766    2.6767
    2.7420    2.7423    2.7993    2.7996    2.8376    2.8376    3.7573    3.7575    3.7837    3.7969
    3.8845    3.9681    4.1673    4.1674    4.2767    4.2768    4.7327    4.7327    4.7708    5.3079
    5.3148    5.3153    5.3348    5.3353    5.5883    5.8045    5.8046    6.0752    6.1563    6.1563
    6.3500    6.6142    6.7023    6.8405    6.8406    6.9549    6.9665    6.9665    6.9942    7.0522
    7.0524    7.5551    7.6203    7.6397    7.7532    8.1155    8.1157    8.2714    8.5344    8.5345
    8.9749    8.9749    9.1503    9.1504    9.2065    9.2066    9.6568    9.9162    9.9162    9.9368
   10.2073   10.2075   10.3430   10.6165   10.6323   10.6323   10.8979   10.8983   11.4994   12.0464
   12.4938   12.4938   13.1674   13.1677   13.5381   13.5391   13.6370   13.6372   13.7422   14.0078
   14.0088   14.0142   14.0142   14.3402   14.5360   14.7439   15.0894   15.4614   15.4614   15.9878
   16.2240   16.2240   16.7011   17.1865   17.4419   17.4901   17.4909   17.6143   17.6424   17.6425
   18.1144   18.2999   18.3007   18.3109   18.3508   18.6569   18.6569   18.7796   19.0248   19.0253
   19.4347   19.4348   19.7260   19.7310   19.7310   20.0166   20.1432   20.1432   20.1642   20.3814
   20.3814   20.5049   20.5049   20.8714   21.0921   21.0927   21.2317   21.6641   21.6648   21.7622
   21.8723   21.8723   22.3245   22.3248   22.5518   22.5518   23.1232   23.1385   23.6070   23.6070
   23.8553   23.8553   24.4559   24.4560   25.1301   25.4397   25.5133   25.5133   27.4148   27.4149
   28.9673   28.9673   29.3871   29.3872   29.4398   30.2250   30.7838   31.0688   31.2640   31.8665
   31.8670   32.9489   32.9495   33.1685   33.3769   33.3770   34.1626   34.5993   34.5994   34.8420
   34.8421   35.6077   35.6077   36.3296   36.8303   37.1274   37.1274   37.5868   37.5876   37.6005
   38.2568   38.2577   39.4493   39.6040   40.4428   40.4428   41.5635   41.5638   41.6148   42.1420
   42.1425   42.6179   42.8355   42.8364   42.9865   42.9877   43.1289   43.1938   43.1940   43.5552
   43.8067   43.8068   44.0535   44.0538   44.5131   44.5631   44.6048   44.6847   44.6848   44.9158
   44.9165   45.0442   45.0551   45.1508   45.2256   45.5813   46.0084   46.0087   46.1225   46.1225
   46.4299   46.5774   46.6118   47.3543   47.3543   47.4808   47.4808   48.4151   48.4151   48.9054
   49.0817   49.2160   49.2161   49.2629   49.9114   49.9121   51.6492   51.6494   51.8867   51.9410
   51.9411   52.2586   52.3922   52.3923   52.7006   52.7008   53.0906   53.0909   53.7526   53.7528
   53.9855   53.9856   54.5987   55.2157   55.2158   55.8651   56.5872   57.2040   59.3670   59.8609
   59.9770   59.9773   60.1341   60.7957   60.7961   61.0579   61.1170   61.6368   61.6376   61.6589
   61.6590   61.7814   61.8614   61.9584   61.9594   63.0472   63.4750   63.5588   63.5592   65.0527
   65.0533   66.6052   66.6053   66.6525   66.6527   67.0983   67.0990   68.8939   68.8960   69.6244
   69.6247   69.6536   69.6539   69.9520   72.7490   72.7508   72.7656   73.5634   73.5654   73.8232
   73.8246   74.9891   74.9892   75.7819   75.8567   77.7118   77.7130   79.5685   79.5707   82.3338
   83.2825   83.8404   83.8435   85.5994   87.9651   90.4299   90.4317   91.3872   91.3878   91.6936
   91.6946   96.1046   97.8825   97.8849   97.9972   97.9980   98.9110   98.9759   98.9767  101.1298
  101.7068  103.8851  103.8877  104.4474  104.6582  105.0555  106.1391  106.1419  107.2983  107.2990
  107.9852  107.9882  108.0230  108.9753  108.9755  111.3026  111.3029  112.5814  112.5839  113.8639
  113.8678  114.2232  114.4757  114.4760  114.7683  114.7710  115.6861  115.6884  115.7078  116.5894
  116.9177  117.2537  118.2312  118.2322  121.0493  123.2749  123.3067  124.6378
  10  1  -24.9893  -24.9893  -24.9726  -24.9726  -23.7014  -23.7014  -23.6864  -23.6864  -21.2273  -21.2273
         -21.2273  -21.2273  -21.2153  -21.2153  -21.2152  -21.2152  -20.4149  -20.4092  -19.3855  -19.3803
  -17.5608  -17.5608  -17.5607  -17.5607  -17.5498  -17.5498  -17.5497  -17.5497  -14.2013  -14.2013
  -14.2010  -14.2010  -14.1927  -14.1927  -14.1925  -14.1925  -13.9404  -13.9404  -13.9360  -13.9360
  -13.0437  -13.0437  -12.7066  -12.7066  -12.5849  -12.5845  -12.5824  -12.5824  -12.5748  -12.5748
  -11.5338  -11.5338  -11.5213  -11.5213  -11.5187  -11.5187  -11.2251  -11.2251  -10.3663  -10.3663
  -10.3626  -10.3626   -8.8409   -8.8409   -8.8409   -8.8409   -8.6251   -8.6251   -8.6251   -8.6251
   -8.5061   -8.4039   -4.4591   -4.3057   -3.6325   -3.6325   -3.6325   -3.6325   -3.5183   -3.5183
   -3.5183   -3.5183   -1.3497   -1.3497    0.2822    0.2822    0.3375    0.3375    0.7208    0.7208
    1.3899    1.4315    2.2339    2.2339    2.2790    2.2790    2.2799    2.2799    3.2997    3.2997
    3.3476    3.3476    3.6258    3.6258    3.9213    3.9213    3.9638    3.9638    3.9638    3.9638
    4.0099    4.0099    4.0325    4.0325    4.0326    4.0326    4.7022    4.7022    4.7067    4.7067
    5.0985    5.0985    5.0986    5.0986    5.4904    5.4904    5.5027    5.5027    5.5082    5.5082
    6.0077    6.0077    6.0077    6.0077    6.6900    7.2028    7.2028    7.3041    7.8384    7.8384
    7.8551    7.8817    7.8818    8.0226    8.0226    8.0226    8.0226    8.3761    8.7117    8.7117
    8.7117    8.7117    9.0188    9.0188    9.0189    9.0189    9.9525    9.9525    9.9527    9.9527
   10.4453   10.4453   10.5964   10.5964   10.6561   11.1056   11.3415   11.3415   11.4306   11.4306
   12.1301   12.1301   12.1301   12.1301   13.0709   13.4181   13.4181   13.4185   13.4185   13.8693
   13.8706   14.9213   14.9213   14.9215   14.9215   15.2748   15.2748   15.2748   15.2748   15.8384
   16.8592   16.8592   17.3936   17.5182   17.5182   17.5188   17.5188   17.7916   17.7916   17.7922
   17.7922   17.8105   17.8105   18.1302   18.2650   18.2650   18.2650   18.2650   18.3878   18.8925
   18.9736   18.9736   18.9737   18.9737   19.9961   19.9961   20.4022   20.4022   20.6975   20.6975
   20.6975   20.6975   20.9510   20.9510   20.9511   20.9511   21.0371   21.0371   21.8189   21.8189
   22.3224   22.3224   22.4109   22.4109   23.0303   23.0303   23.3094   23.3094   23.5113   23.5113
   24.1439   24.1439   24.3664   24.3665   24.3997   24.3997   27.0362   27.4806   27.4806   27.6326
   27.6406   27.6406   28.1241   28.7929   30.2722   30.2722   30.2723   30.2723   31.0700   31.0700
   32.0139   32.0139   32.0139   32.0140   33.7915   33.7915   34.0732   34.5712   36.2863   36.2863
   36.2864   36.2864   37.6650   37.7963   37.7963   37.7964   37.7964   37.9497   37.9497   38.0991
   38.0991   38.5959   40.3452   40.3452   40.9868   40.9869   41.5897   41.5897   41.5903   41.5903
   42.6492   42.6492   42.7250   42.7250   42.7486   42.7486   42.8339   42.8339   42.8342   42.8342
   43.5086   43.5086   43.7848   43.7848   44.0279   44.0279   44.2948   44.2948   44.2974   44.2974
   44.3410   44.3411   44.4821   44.4821   44.8007   44.8007   45.3161   45.5809   46.9955   46.9955
   47.8538   47.8538   47.8977   47.8977   47.9378   47.9378   48.1721   48.1721   48.1722   48.1722
   48.4990   48.4990   48.4991   48.4992   48.7199   48.7199   48.7199   48.7199   49.9082   49.9082
   49.9083   49.9083   51.5364   51.5364   53.0747   53.6653   54.5389   54.5389   54.6179   54.7206
   55.8208   55.8208   55.8209   55.8209   57.2792   57.2792   57.2794   57.2794   58.7102   58.7102
   59.7944   59.7944   59.9537   59.9537   60.9098   60.9098   61.1268   61.3920   61.3920   61.3922
   61.3922   61.9051   61.9051   61.9337   62.2887   62.2887   62.9329   62.9329   62.9333   62.9333
   66.0342   66.3676   66.3676   66.5130   66.5130   68.2102   68.2359   69.7545   71.1090   71.1090
   71.2750   71.2751   71.8282   71.8282   71.8284   71.8284   71.8454   71.8454   71.8456   71.8456
   73.8486   73.8487   76.7466   76.7466   76.7469   76.7469   77.4653   77.4653   81.1226   81.1226
   85.8192   88.7063   88.7063   88.7065   88.7065   89.3085   89.3086   89.3673   89.3674   89.5338
   89.5338   92.9756   92.9757   95.7557  100.2191  100.2192  103.3461  103.3461  103.3490  103.3491
  103.6803  103.6803  103.6830  103.6830  104.4873  104.4873  104.6338  104.6339  106.7132  106.9760
  106.9761  106.9761  106.9762  108.2375  108.2376  111.2764  111.2767  111.8811  111.8814  112.7785
  113.5846  113.5846  113.5955  114.5773  114.5776  114.5783  114.5784  116.3687  116.3690  116.3708
  116.3709  116.3911  118.6516  118.6516  120.6968  120.6969  120.6984  120.6986
  11  1  -25.1513  -25.1350  -24.5036  -24.5035  -24.4873  -24.4873  -22.5980  -22.5979  -22.5842  -22.5842
         -21.3741  -21.3618  -20.8126  -20.8126  -20.8017  -20.8017  -19.9958  -19.9902  -18.9851  -18.9800
  -18.7252  -18.7251  -18.7149  -18.7147  -16.6903  -16.6844  -15.6598  -15.6598  -15.6500  -15.6500
  -15.0988  -15.0916  -14.3838  -14.3750  -13.6301  -13.6300  -13.6218  -13.6218  -13.2363  -13.0643
  -13.0639  -13.0611  -13.0608  -12.8962  -12.6188  -12.6186  -12.6138  -12.6136  -12.4704  -12.4704
  -12.1432  -12.1432  -11.2350  -11.2346  -11.2325  -11.2321  -10.9236  -10.9230  -10.2782  -10.2782
  -10.2514  -10.2503  -10.0015  -10.0015   -8.9299   -8.6960   -8.6346   -8.6346   -8.4760   -8.4760
   -7.9105   -7.8108   -4.6704   -4.5860   -4.1920   -4.1920   -4.0442   -4.0442   -3.3291   -3.2497
   -1.7044   -1.7044   -1.6193   -1.6192   -1.5377   -0.6386   -0.6386    2.0223    2.0223    2.0479
    2.0479    2.1186    2.1187    2.1279    2.1611    2.1613    2.5546    2.5980    2.6766    2.6767
    2.7420    2.7423    2.7993    2.7996    2.8376    2.8376    3.7573    3.7575    3.7837    3.7969
    3.8845    3.9681    4.1673    4.1674    4.2767    4.2768    4.7327    4.7327    4.7708    5.3079
    5.3148    5.3153    5.3348    5.3353    5.5883    5.8045    5.8046    6.0752    6.1563    6.1563
    6.3500    6.6142    6.7023    6.8405    6.8406    6.9549    6.9665    6.9665    6.9942    7.0522
    7.0524    7.5551    7.6203    7.6397    7.7532    8.1155    8.1157    8.2714    8.5344    8.5345
    8.9749    8.9749    9.1503    9.1504    9.2065    9.2066    9.6568    9.9162    9.9162    9.9368
   10.2073   10.2075   10.3430   10.6165   10.6323   10.6323   10.8979   10.8983   11.4994   12.0464
   12.4938   12.4938   13.1674   13.1677   13.5381   13.5391   13.6370   13.6372   13.7422   14.0078
   14.0088   14.0142   14.0142   14.3402   14.5360   14.7439   15.0894   15.4614   15.4614   15.9878
   16.2240   16.2240   16.7011   17.1865   17.4419   17.4901   17.4909   17.6143   17.6424   17.6425
   18.1144   18.2999   18.3007   18.3109   18.3508   18.6569   18.6569   18.7796   19.0248   19.0253
   19.4347   19.4348   19.7260   19.7310   19.7310   20.0166   20.1432   20.1432   20.1642   20.3814
   20.3814   20.5049   20.5049   20.8714   21.0921   21.0927   21.2317   21.6641   21.6648   21.7622
   21.8723   21.8723   22.3245   22.3248   22.5518   22.5518   23.1232   23.1385   23.6070   23.6070
   23.8553   23.8553   24.4559   24.4560   25.1301   25.4397   25.5133   25.5133   27.4148   27.4149
   28.9673   28.9673   29.3871   29.3872   29.4398   30.2250   30.7838   31.0688   31.2640   31.8665
   31.8670   32.9489   32.9495   33.1685   33.3769   33.3770   34.1626   34.5993   34.5994   34.8420
   34.8421   35.6077   35.6077   36.3296   36.8303   37.1274   37.1274   37.5868   37.5876   37.6005
   38.2568   38.2577   39.4493   39.6040   40.4428   40.4428   41.5635   41.5638   41.6148   42.1420
   42.1425   42.6179   42.8355   42.8364   42.9865   42.9877   43.1289   43.1938   43.1940   43.5552
   43.8067   43.8068   44.0535   44.0538   44.5131   44.5631   44.6048   44.6847   44.6848   44.9158
   44.9165   45.0442   45.0551   45.1508   45.2256   45.5813   46.0084   46.0087   46.1225   46.1225
   46.4299   46.5774   46.6118   47.3543   47.3543   47.4808   47.4808   48.4151   48.4151   48.9054
   49.0817   49.2160   49.2161   49.2629   49.9114   49.9121   51.6492   51.6494   51.8867   51.9410
[...]
    5.3302    5.3303    5.3308    5.3308    6.2714    6.2714    6.2714    6.2714    6.2968    6.2968
    6.6164    6.6164    6.7224    6.7224    6.9640    6.9640    6.9642    6.9642    7.6301    7.6301
    8.0602    8.0602    8.1261    8.1261    8.5945    8.5945    8.5945    8.5945    8.5962    8.5962
    8.5964    8.5964    8.8966    8.8966    9.1809    9.1809    9.1810    9.1810    9.4756    9.4756
    9.4756    9.4756    9.6169    9.6169   10.5934   10.5934   10.5935   10.5935   13.1549   13.1549
   13.2772   13.2772   13.2776   13.2776   13.3102   13.3102   13.3104   13.3104   13.6889   13.6889
   14.4068   14.4068   14.4072   14.4072   14.7834   14.7834   14.8254   14.8254   14.8255   14.8255
   15.2191   15.2191   16.2092   16.2092   17.3035   17.3035   17.7017   17.7017   17.7022   17.7022
   18.0933   18.0933   18.0934   18.0935   18.4890   18.4891   18.5123   18.5123   19.0025   19.0025
   19.0026   19.0027   19.7029   19.7029   20.0463   20.0463   20.0463   20.0464   20.4399   20.4399
   20.4400   20.4400   20.5239   20.5239   21.4845   21.4845   21.5505   21.5505   21.5511   21.5511
   22.2586   22.2586   22.2587   22.2587   23.0707   23.0708   23.0708   23.0708   23.0875   23.0875
   23.8649   23.8649   23.8650   23.8650   25.2331   25.2331   27.3292   27.3292   27.3292   27.3292
   31.2205   31.2205   31.4340   31.4340   31.8701   31.8701   31.8701   31.8701   31.9114   31.9114
   31.9115   31.9115   32.4623   32.4623   32.4627   32.4627   33.5509   33.5509   34.4443   34.4443
   34.4445   34.4445   35.0275   35.0275   36.1951   36.1951   37.9161   37.9161   37.9169   37.9169
   38.6636   38.6636   38.9768   38.9768   38.9768   38.9768   41.8808   41.8808   41.8812   41.8812
   42.7719   42.7719   42.7728   42.7728   42.8442   42.8442   43.6366   43.6366   43.7054   43.7054
   43.7057   43.7057   44.2938   44.2938   44.2942   44.2942   44.3282   44.3283   44.4642   44.4642
   44.8080   44.8080   44.8084   44.8084   45.0491   45.0492   45.1409   45.1409   46.6024   46.6024
   48.0102   48.0102   48.0103   48.0103   48.8882   48.8883   49.4118   49.4118   49.6063   49.6063
   49.6066   49.6066   50.0675   50.0675   50.0675   50.0675   51.5380   51.5380   51.5381   51.5381
   52.7628   52.7628   53.2372   53.2372   53.2374   53.2374   54.3266   54.3267   54.3268   54.3268
   55.2425   55.2425   56.7081   56.7081   56.7082   56.7082   58.6604   58.6604   58.6605   58.6605
   59.3052   59.3052   59.6564   59.6564   61.1975   61.1975   61.3228   61.3228   61.8117   61.8117
   61.9994   61.9995   62.0006   62.0006   62.1001   62.1001   62.1004   62.1004   62.8776   62.8776
   64.3179   64.3179   64.3181   64.3181   66.6351   66.6351   66.6352   66.6352   69.6152   69.6152
   69.6155   69.6155   72.7570   72.7570   73.8208   73.8208   73.9015   73.9016   74.8669   74.8669
   74.8682   74.8682   75.7556   75.7556   75.7557   75.7557   75.8470   75.8470   83.2653   83.2653
   83.2669   83.2669   84.7319   84.7319   84.7348   84.7348   87.3705   87.3705   95.0796   95.0796
   95.0810   95.0811   95.2579   95.2579   97.2875   97.2875   98.3785   98.3785   98.3793   98.3793
  103.9873  103.9873  104.5652  104.5652  105.7417  105.7417  105.7446  105.7446  106.9895  106.9896
  106.9900  106.9900  110.0849  110.0849  110.0865  110.0865  112.5649  112.5650  112.5653  112.5653
  113.3849  113.3849  114.3441  114.3442  114.4241  114.4242  114.4280  114.4280  114.9473  114.9473
  114.9498  114.9499  118.0037  118.0037  118.9573  118.9573  123.5129  123.5130
  42  1  -24.9809  -24.9809  -24.9809  -24.9809  -23.6940  -23.6940  -23.6940  -23.6940  -21.2213  -21.2213
         -21.2213  -21.2213  -21.2213  -21.2213  -21.2213  -21.2213  -20.4120  -20.4120  -19.3829  -19.3829
  -17.5553  -17.5553  -17.5553  -17.5553  -17.5552  -17.5552  -17.5552  -17.5552  -14.1970  -14.1970
  -14.1970  -14.1970  -14.1968  -14.1967  -14.1967  -14.1967  -13.9382  -13.9382  -13.9382  -13.9382
  -12.8816  -12.8816  -12.8816  -12.8816  -12.5847  -12.5847  -12.5784  -12.5784  -12.5784  -12.5784
  -11.5199  -11.5199  -11.5199  -11.5199  -11.3842  -11.3842  -11.3842  -11.3842  -10.3644  -10.3644
  -10.3644  -10.3644   -8.7341   -8.7341   -8.7341   -8.7341   -8.7341   -8.7341   -8.7341   -8.7341
   -8.4531   -8.4531   -4.3906   -4.3906   -3.5777   -3.5777   -3.5777   -3.5777   -3.5777   -3.5777
   -3.5777   -3.5777   -0.0002   -0.0002   -0.0002   -0.0002    0.3099    0.3099    0.3099    0.3099
    1.4107    1.4107    1.9231    1.9231    1.9231    1.9231    2.2766    2.2766    2.2766    2.2766
    3.3131    3.3131    3.3131    3.3131    3.9987    3.9987    3.9987    3.9987    4.0002    4.0002
    4.0003    4.0003    4.0003    4.0003    4.0003    4.0003    4.7045    4.7045    4.7045    4.7045
    5.4990    5.4990    5.4990    5.4990    5.5017    5.5017    5.5017    5.5017    5.5017    5.5017
    5.5017    5.5017    7.0049    7.0049    7.8479    7.8479    7.8479    7.8479    7.9366    7.9366
    8.2169    8.2169    8.2169    8.2169    8.4277    8.4277    8.4277    8.4277    8.4277    8.4277
    8.4277    8.4277    9.1130    9.1130    9.1130    9.1130    9.4135    9.4135    9.4135    9.4135
    9.4135    9.4135    9.4135    9.4135   11.2373   11.2373   11.3855   11.3855   11.3855   11.3855
   13.1393   13.1393   13.1393   13.1393   13.1395   13.1395   13.1395   13.1395   13.8656   13.8656
   13.8700   13.8700   14.8571   14.8571   14.8571   14.8571   14.8572   14.8572   14.8572   14.8572
   16.9702   16.9702   16.9702   16.9702   17.1936   17.1936   17.1936   17.1936   17.1939   17.1940
   17.1940   17.1940   18.0352   18.0352   18.6224   18.6224   18.9635   18.9636   18.9636   18.9636
   18.9638   18.9638   18.9638   18.9638   20.3610   20.3610   20.3610   20.3610   20.5424   20.5424
   20.5424   20.5424   20.5425   20.5425   20.5425   20.5425   21.5872   21.5872   21.5872   21.5872
   22.4488   22.4488   22.4488   22.4488   23.1601   23.1601   23.1601   23.1601   23.6851   23.6851
   23.6852   23.6852   24.1457   24.1457   24.1457   24.1457   27.9391   27.9391   28.3993   28.3993
   30.3195   30.3195   30.3195   30.3195   31.1142   31.1142   31.1142   31.1142   31.7474   31.7474
   31.7474   31.7474   31.7475   31.7475   31.7475   31.7475   32.7083   32.7083   36.8183   36.8183
   36.8183   36.8184   36.8184   36.8184   36.8184   36.8184   38.0771   38.0771   39.5356   39.5357
   39.5357   39.5357   40.2240   40.2240   40.2240   40.2240   42.4629   42.4629   42.4629   42.4629
   42.4633   42.4633   42.4633   42.4633   42.6410   42.6410   42.6411   42.6411   43.3241   43.3241
   43.3241   43.3241   43.7189   43.7189   43.7189   43.7189   44.1512   44.1512   44.1512   44.1512
   44.3559   44.3559   44.3559   44.3559   45.5275   45.5275   45.5275   45.5275   46.4474   46.4474
   47.5791   47.5791   47.5791   47.5791   47.5791   47.5792   47.5792   47.5792   47.8817   47.8817
   47.8817   47.8817   50.8784   50.8784   50.8784   50.8784   50.8786   50.8786   50.8786   50.8786
   51.2808   51.2808   51.2809   51.2809   53.3812   53.3812   55.0595   55.0595   56.8356   56.8356
   56.8356   56.8356   56.8357   56.8357   56.8357   56.8357   58.1002   58.1002   58.1002   58.1003
   58.9611   58.9611   58.9611   58.9611   59.8749   59.8749   59.8749   59.8749   61.5357   61.5357
   62.0771   62.0771   62.0771   62.0771   62.2207   62.2207   62.2207   62.2208   62.2209   62.2210
   62.2210   62.2210   67.7797   67.7797   67.7797   67.7797   68.2240   68.2240   71.1911   71.1912
   71.1912   71.1912   71.8320   71.8321   71.8321   71.8321   71.8322   71.8322   71.8323   71.8323
   74.3763   74.3764   81.3554   81.3555   81.3555   81.3555   82.2954   82.2954   82.2954   82.2954
   85.1795   85.1795   85.1796   85.1796   85.1797   85.1797   85.1798   85.1798   89.4429   89.4429
   89.4430   89.4430   90.7840   90.7840  102.4639  102.4639  102.4640  102.4640  103.5249  103.5249
  103.5250  103.5250  103.5277  103.5277  103.5277  103.5277  106.3634  106.3634  106.3634  106.3634
  110.4849  110.4850  110.4850  110.4850  110.4852  110.4853  110.4854  110.4854  110.9789  110.9789
  111.5183  111.5184  111.5187  111.5189  113.1893  113.1893  115.8357  115.8357  115.8357  115.8357
  117.2996  117.2998  117.2999  117.2999  117.3022  117.3023  117.3023  117.3024
  43  1  -25.1430  -25.1430  -24.4954  -24.4954  -24.4954  -24.4954  -22.5912  -22.5911  -22.5911  -22.5911
         -21.3680  -21.3679  -20.8072  -20.8072  -20.8071  -20.8071  -19.9930  -19.9930  -18.9826  -18.9826
  -18.7201  -18.7201  -18.7199  -18.7199  -16.6873  -16.6873  -15.6549  -15.6549  -15.6549  -15.6549
  -15.0951  -15.0951  -14.3794  -14.3794  -13.6259  -13.6259  -13.6259  -13.6258  -13.0728  -13.0728
  -13.0627  -13.0627  -13.0624  -13.0623  -12.6162  -12.6162  -12.6160  -12.6159  -12.3127  -12.3127
  -12.3127  -12.3127  -11.2336  -11.2335  -11.2332  -11.2332  -10.9233  -10.9233  -10.2507  -10.2507
  -10.1430  -10.1430  -10.1430  -10.1430   -8.8146   -8.8146   -8.5547   -8.5547   -8.5547   -8.5547
   -7.8589   -7.8588   -4.6329   -4.6329   -4.1242   -4.1242   -4.1242   -4.1242   -3.2898   -3.2898
   -1.6628   -1.6628   -1.6628   -1.6628   -0.1820   -0.1820    0.6765    0.6765    0.6765    0.6765
    2.0541    2.0541    2.0541    2.0542    2.1399    2.1399    2.1400    2.1400    2.5934    2.5934
    2.7960    2.7960    2.7963    2.7963    3.5628    3.5628    3.5629    3.5629    3.7574    3.7575
    3.7901    3.7901    3.9258    3.9258    4.2807    4.2807    4.2808    4.2808    5.1113    5.1113
    5.3302    5.3303    5.3308    5.3308    6.2714    6.2714    6.2714    6.2714    6.2968    6.2968
    6.6164    6.6164    6.7224    6.7224    6.9640    6.9640    6.9642    6.9642    7.6301    7.6301
    8.0602    8.0602    8.1261    8.1261    8.5945    8.5945    8.5945    8.5945    8.5962    8.5962
    8.5964    8.5964    8.8966    8.8966    9.1809    9.1809    9.1810    9.1810    9.4756    9.4756
    9.4756    9.4756    9.6169    9.6169   10.5934   10.5934   10.5935   10.5935   13.1549   13.1549
   13.2772   13.2772   13.2776   13.2776   13.3102   13.3102   13.3104   13.3104   13.6889   13.6889
   14.4068   14.4068   14.4072   14.4072   14.7834   14.7834   14.8254   14.8254   14.8255   14.8255
   15.2191   15.2191   16.2092   16.2092   17.3035   17.3035   17.7017   17.7017   17.7022   17.7022
   18.0933   18.0933   18.0934   18.0935   18.4890   18.4891   18.5123   18.5123   19.0025   19.0025
   19.0026   19.0027   19.7029   19.7029   20.0463   20.0463   20.0463   20.0464   20.4399   20.4399
   20.4400   20.4400   20.5239   20.5239   21.4845   21.4845   21.5505   21.5505   21.5511   21.5511
   22.2586   22.2586   22.2587   22.2587   23.0707   23.0708   23.0708   23.0708   23.0875   23.0875
   23.8649   23.8649   23.8650   23.8650   25.2331   25.2331   27.3292   27.3292   27.3292   27.3292
   31.2205   31.2205   31.4340   31.4340   31.8701   31.8701   31.8701   31.8701   31.9114   31.9114
   31.9115   31.9115   32.4623   32.4623   32.4627   32.4627   33.5509   33.5509   34.4443   34.4443
   34.4445   34.4445   35.0275   35.0275   36.1951   36.1951   37.9161   37.9161   37.9169   37.9169
   38.6636   38.6636   38.9768   38.9768   38.9768   38.9768   41.8808   41.8808   41.8812   41.8812
   42.7719   42.7719   42.7728   42.7728   42.8442   42.8442   43.6366   43.6366   43.7054   43.7054
   43.7057   43.7057   44.2938   44.2938   44.2942   44.2942   44.3282   44.3283   44.4642   44.4642
   44.8080   44.8080   44.8084   44.8084   45.0491   45.0492   45.1409   45.1409   46.6024   46.6024
   48.0102   48.0102   48.0103   48.0103   48.8882   48.8883   49.4118   49.4118   49.6063   49.6063
   49.6066   49.6066   50.0675   50.0675   50.0675   50.0675   51.5380   51.5380   51.5381   51.5381
   52.7628   52.7628   53.2372   53.2372   53.2374   53.2374   54.3266   54.3267   54.3268   54.3268
   55.2425   55.2425   56.7081   56.7081   56.7082   56.7082   58.6604   58.6604   58.6605   58.6605
   59.3052   59.3052   59.6564   59.6564   61.1975   61.1975   61.3228   61.3228   61.8117   61.8117
   61.9994   61.9995   62.0006   62.0006   62.1001   62.1001   62.1004   62.1004   62.8776   62.8776
   64.3179   64.3179   64.3181   64.3181   66.6351   66.6351   66.6352   66.6352   69.6152   69.6152
   69.6155   69.6155   72.7570   72.7570   73.8208   73.8208   73.9015   73.9016   74.8669   74.8669
   74.8682   74.8682   75.7556   75.7556   75.7557   75.7557   75.8470   75.8470   83.2653   83.2653
   83.2669   83.2669   84.7319   84.7319   84.7348   84.7348   87.3705   87.3705   95.0796   95.0796
   95.0810   95.0811   95.2579   95.2579   97.2875   97.2875   98.3785   98.3785   98.3793   98.3793
  103.9873  103.9873  104.5652  104.5652  105.7417  105.7417  105.7446  105.7446  106.9895  106.9896
  106.9900  106.9900  110.0849  110.0849  110.0865  110.0865  112.5649  112.5650  112.5653  112.5653
  113.3849  113.3849  114.3441  114.3442  114.4241  114.4242  114.4280  114.4280  114.9473  114.9473
  114.9498  114.9499  118.0037  118.0037  118.9573  118.9573  123.5129  123.5130
  44  1  -24.9809  -24.9809  -24.9809  -24.9809  -23.6940  -23.6940  -23.6940  -23.6940  -21.2213  -21.2213
         -21.2213  -21.2213  -21.2213  -21.2213  -21.2213  -21.2213  -20.4120  -20.4120  -19.3828  -19.3828
  -17.5553  -17.5553  -17.5553  -17.5553  -17.5553  -17.5553  -17.5553  -17.5553  -14.1968  -14.1968
  -14.1968  -14.1967  -14.1967  -14.1967  -14.1967  -14.1967  -13.9383  -13.9383  -13.9383  -13.9383
  -12.8816  -12.8816  -12.8816  -12.8816  -12.5850  -12.5850  -12.5782  -12.5782  -12.5782  -12.5781
  -11.5196  -11.5196  -11.5196  -11.5196  -11.3842  -11.3842  -11.3842  -11.3842  -10.3648  -10.3648
  -10.3648  -10.3648   -8.7341   -8.7341   -8.7341   -8.7341   -8.7341   -8.7341   -8.7341   -8.7341
   -8.4532   -8.4531   -4.3906   -4.3906   -3.5777   -3.5777   -3.5777   -3.5777   -3.5777   -3.5777
   -3.5777   -3.5777   -0.0002   -0.0002   -0.0002   -0.0002    0.3099    0.3099    0.3099    0.3099
    1.4109    1.4109    1.9231    1.9231    1.9231    1.9231    2.2770    2.2770    2.2770    2.2770
    3.3131    3.3131    3.3131    3.3131    3.9987    3.9987    3.9987    3.9987    4.0002    4.0002
    4.0002    4.0002    4.0002    4.0002    4.0002    4.0002    4.7039    4.7039    4.7039    4.7039
    5.4992    5.4992    5.4992    5.4992    5.5017    5.5017    5.5017    5.5017    5.5017    5.5017
    5.5017    5.5017    7.0050    7.0050    7.8481    7.8481    7.8481    7.8481    7.9367    7.9367
    8.2169    8.2169    8.2169    8.2169    8.4275    8.4275    8.4275    8.4275    8.4275    8.4275
    8.4275    8.4275    9.1130    9.1130    9.1130    9.1130    9.4135    9.4135    9.4135    9.4135
    9.4135    9.4135    9.4135    9.4135   11.2375   11.2375   11.3854   11.3854   11.3854   11.3854
   13.1395   13.1395   13.1395   13.1395   13.1396   13.1396   13.1396   13.1396   13.8658   13.8658
   13.8689   13.8689   14.8575   14.8575   14.8575   14.8575   14.8575   14.8575   14.8575   14.8575
   16.9702   16.9702   16.9702   16.9702   17.1935   17.1935   17.1936   17.1936   17.1936   17.1936
   17.1936   17.1936   18.0359   18.0359   18.6223   18.6223   18.9636   18.9636   18.9636   18.9636
   18.9636   18.9636   18.9636   18.9636   20.3604   20.3604   20.3604   20.3604   20.5425   20.5425
   20.5425   20.5425   20.5425   20.5425   20.5425   20.5425   21.5876   21.5876   21.5876   21.5876
   22.4487   22.4487   22.4487   22.4487   23.1600   23.1600   23.1600   23.1600   23.6852   23.6852
   23.6852   23.6852   24.1457   24.1457   24.1457   24.1457   27.9390   27.9390   28.4001   28.4001
   30.3195   30.3195   30.3195   30.3196   31.1140   31.1140   31.1140   31.1141   31.7474   31.7474
   31.7474   31.7474   31.7474   31.7474   31.7474   31.7474   32.7083   32.7084   36.8183   36.8183
   36.8183   36.8183   36.8184   36.8184   36.8184   36.8184   38.0760   38.0760   39.5354   39.5354
   39.5354   39.5354   40.2242   40.2242   40.2242   40.2242   42.4628   42.4628   42.4629   42.4629
   42.4629   42.4629   42.4629   42.4629   42.6418   42.6418   42.6418   42.6418   43.3242   43.3242
   43.3242   43.3242   43.7189   43.7189   43.7189   43.7189   44.1518   44.1518   44.1518   44.1518
   44.3544   44.3544   44.3544   44.3544   45.5275   45.5275   45.5275   45.5275   46.4478   46.4478
   47.5791   47.5791   47.5791   47.5791   47.5791   47.5791   47.5791   47.5791   47.8815   47.8815
   47.8815   47.8815   50.8784   50.8784   50.8784   50.8784   50.8784   50.8784   50.8784   50.8784
   51.2822   51.2822   51.2822   51.2822   53.3814   53.3814   55.0597   55.0597   56.8357   56.8357
   56.8357   56.8357   56.8357   56.8357   56.8357   56.8357   58.1003   58.1003   58.1003   58.1003
   58.9618   58.9618   58.9618   58.9618   59.8751   59.8751   59.8751   59.8751   61.5342   61.5342
   62.0767   62.0767   62.0767   62.0767   62.2208   62.2208   62.2208   62.2208   62.2208   62.2208
   62.2208   62.2209   67.7812   67.7812   67.7812   67.7812   68.2236   68.2236   71.1879   71.1879
   71.1880   71.1880   71.8322   71.8322   71.8322   71.8322   71.8322   71.8322   71.8322   71.8322
   74.3766   74.3766   81.3552   81.3552   81.3552   81.3552   82.2971   82.2971   82.2971   82.2971
   85.1810   85.1810   85.1810   85.1811   85.1811   85.1812   85.1812   85.1812   89.4403   89.4403
   89.4404   89.4404   90.7856   90.7856  102.4610  102.4612  102.4613  102.4613  103.5252  103.5252
  103.5253  103.5253  103.5253  103.5253  103.5254  103.5254  106.3636  106.3636  106.3637  106.3637
  110.4847  110.4847  110.4848  110.4848  110.4850  110.4851  110.4851  110.4851  110.9810  110.9811
  111.5214  111.5214  111.5219  111.5219  113.1846  113.1847  115.8364  115.8364  115.8364  115.8365
  117.3014  117.3014  117.3015  117.3016  117.3021  117.3021  117.3024  117.3024
siesta: Fermi energy =      -6.103714 eV

siesta: Program's energy decomposition (eV):
siesta: Ebs     =     -2199.180777
siesta: Eions   =      9434.507561
siesta: Ena     =      2224.334897
siesta: Ekin    =      3905.770530
siesta: Enl     =      -379.583664
siesta: Eso     =         0.000000
siesta: Edftu   =         0.000000
siesta: DEna    =      -202.211808
siesta: DUscf   =        18.006934
siesta: DUext   =         0.000000
siesta: Exc     =     -1709.356534
siesta: eta*DQ  =         0.000000
siesta: Emadel  =         0.000000
siesta: Emeta   =         0.000000
siesta: Emolmec =        -2.750591
siesta: Ekinion =         0.000000
siesta: Eharris =     -5580.297801
siesta: Etot    =     -5580.297798
siesta: FreeEng =     -5580.311113

siesta: Final energy (eV):
siesta:  Band Struct. =   -2199.180777
siesta:       Kinetic =    3905.770530
siesta:       Hartree =    3001.339211
siesta:       Edftu   =       0.000000
siesta:       Eso     =       0.000000
siesta:    Ext. field =       0.000000
siesta:   Exch.-corr. =   -1709.356534
siesta:  Ion-electron =   -9882.018803
siesta:       Ion-ion =    -893.281611
siesta:       Ekinion =       0.000000
siesta:         Total =   -5580.297798
siesta:         Fermi =      -6.103714

siesta: Stress tensor (static) (eV/Ang**3):
siesta:    -0.068539   -0.000051   -0.000000
siesta:    -0.000051   -0.068597    0.000000
siesta:     0.000000    0.000000    0.011060

siesta: Cell volume =        419.194637 Ang**3

siesta: Pressure (static):
siesta:                Solid            Molecule  Units
siesta:           0.00045771          0.00045774  Ry/Bohr**3
siesta:           0.04202534          0.04202804  eV/Ang**3
siesta:          67.33274374         67.33707458  kBar
(Free)E+ p_basis*V_orbitals  =       -5546.781308
(Free)Eharris+ p_basis*V_orbitals  =       -5546.781310

cite: Please see "graphite_scf.bib" for an exhaustive BiBTeX file.
cite: Please clearly indicate Siesta version in published work: 4.1.5
cite: This calculation has made use of the following articles
cite: which are encouraged to be cited in a published work.
        Primary SIESTA paper
          DOI: www.doi.org/10.1088/0953-8984/14/11/302

>> End of run:   1-NOV-2022  18:57:39
Job completed
