Siesta Version  : 4.1.5
Architecture    : x86_64-unknown-linux-gnu--unknown
Compiler version: GNU Fortran (GCC) 11.3.0
Compiler flags  : mpif90 -g -O2 -fallow-argument-mismatch
PP flags        : -DMPI -DFC_HAVE_FLUSH -DFC_HAVE_ABORT
Libraries       :  -I/global/software/sl-7.x86_64/modules/intel/2020.4.304/mkl/include  /globall/software/sl-7.x86_64/modules/intel/2020.4.304/mkl/lib/intel64/libmkl_scalapack_lp64.a -Wl,--start-group /global/software/sl-7.x86_64/modules/intel/2020.4.304/mkl/lib/intel64/libmkl_intel_lp64.a /global/software/sl-7.x86_64/modules/intel/2020.4.304/mkl/lib/intel64/libmkl_sequential.a /global/software/sl-7.x86_64/modules/intel/2020.4.304/mkl/lib/intel64/libmkl_core.a /global/software/sl-7.x86_64/modules/intel/2020.4.304/mkl/lib/intel64/libmkl_blacs_openmpi_lp64.a -Wl,--end-group -lpthread -lm -ldl
PARALLEL version

* Running on 20 nodes in parallel
>> Start of run:   1-NOV-2022  16:38:09

                           ***********************       
                           *  WELCOME TO SIESTA  *       
                           ***********************       

reinit: Reading from standard input
reinit: Dumped input in INPUT_TMP.74940
************************** Dump of input data file ****************************
SystemName graphite_scf
SystemLabel graphite_scf
NumberOfAtoms   36
NumberOfSpecies 1
%block ChemicalSpeciesLabel
1  6   C-gga
%endblock ChemicalSpeciesLabel
PAO.BasisSize  DZP
PAO.EnergyShift  10 meV
%block PS.Lmax
C-gga   2
%endblock PS.Lmax
LatticeConstant 1.000000 Ang
%block LatticeVectors
	7.3920000000	0.0000000000	0.0000000000
	-3.6960000000	6.4016597848	0.0000000000
	0.0000000000	0.0000000000	5.9056800000
%endblock LatticeVectors
AtomicCoordinatesFormat Ang
%block AtomicCoordinatesAndAtomicSpecies
	0.00000000	0.00000000	1.47642000	1
	0.00000000	0.00000000	4.42926000	1
	-1.23200000	2.13388659	1.47642000	1
	-2.46400000	4.26777319	4.42926000	1
	2.46400000	4.26777319	1.47642000	1
	1.23200000	2.13388659	4.42926000	1
	2.46400000	0.00000000	1.47642000	1
	4.92800000	0.00000000	4.42926000	1
	2.46400000	0.00000000	4.42926000	1
	4.92800000	0.00000000	1.47642000	1
	2.46400000	4.26777319	4.42926000	1
	1.23200000	2.13388659	1.47642000	1
	-1.23200000	2.13388659	4.42926000	1
	-2.46400000	4.26777319	1.47642000	1
	0.00000000	4.26777319	1.47642000	1
	3.69600000	2.13388659	4.42926000	1
	3.69600000	2.13388659	1.47642000	1
	0.00000000	4.26777319	4.42926000	1
	0.00000000	1.42258964	1.47642000	1
	3.69600000	4.97907014	4.42926000	1
	2.46400123	5.69036496	1.47642000	1
	1.23199877	0.71129482	4.42926000	1
	-2.46400123	5.69036496	1.47642000	1
	6.16000123	0.71129482	4.42926000	1
	-1.23200000	3.55647624	1.47642000	1
	4.92800000	2.84518355	4.42926000	1
	1.23200123	3.55647837	1.47642000	1
	2.46399877	2.84518142	4.42926000	1
	-0.00000123	5.69036496	1.47642000	1
	3.69600123	0.71129482	4.42926000	1
	2.46400000	1.42258964	1.47642000	1
	1.23200000	4.97907014	4.42926000	1
	4.92800123	1.42259177	1.47642000	1
	-1.23200123	4.97906801	4.42926000	1
	3.69599877	3.55647837	1.47642000	1
	0.00000123	2.84518142	4.42926000	1
%endblock AtomicCoordinatesAndAtomicSpecies
Kgrid_NoTRS  T
%block kgrid_MonkhorstPack
4       0       0       0.0
0       4       0       0.0
0       0       4       0.0
%endblock kgrid_MonkhorstPack
AtomCoorFormatOut Ang
BlockSize 1
#ProcessorY 12
Diag.ParallelOverK   T
Diag.DivideAndConquer F
MeshCutoff   300 Ry
SCF.FreeE.Tolerance 1E-3 eV
SCF.EDM.Tolerance   5E-3 eV
DM.Tolerance  1E-3
DM.Require.Energy.Convergence T
DM.NumberPulay 4
XC.Functional GGA
XC.Authors    PBE
UseSaveData        F
SolutionMethod     diagon
MD.TypeOfRun       CG
MD.VariableCell    F
MD.NumCGsteps      00
MD.MaxCGDispl      0.200000 Bohr
#MD.MaxStressTol    1.000000 GPa
#MD.MaxForceTol     0.010000 eV/Ang
WriteMDHistory T
WriteCoorStep T
WriteForces T
WriteCoorStep    T
WriteEigenValues T
WriteDM    F
MM.UnitsDistance Ang  # what this program prints out DO NOT CHANGE
MM.UnitsEnergy    eV  # what this program prints out DO NOT CHANGE
MM.Grimme.S6     0.75 # Grimme-paper for PBE (correct for your functional)
MM.Grimme.D     20.   # Grimme-paper (correct for your functional)
%block MM.Potentials
  1   1 Grimme     18.14      2.904 # C, 10.1002/jcc.20495
%endblock MM.Potentials
#%block ProjectedDensityOfStates
# -200.0  120.0  0.4  12800  eV
#%endblock ProjectedDensityOfStates
************************** End of input data file *****************************

reinit: -----------------------------------------------------------------------
reinit: System Name: graphite_scf
reinit: -----------------------------------------------------------------------
reinit: System Label: graphite_scf
reinit: -----------------------------------------------------------------------
Reading two-body potentials
Grimme - two-body potential between 1 and 1

initatom: Reading input for the pseudopotentials and atomic orbitals ----------
Species number:   1 Atomic number:    6 Label: C-gga

Ground state valence configuration:   2s02  2p02
Reading pseudopotential information in formatted form from C-gga.psf

Valence configuration for pseudopotential generation:
2s( 2.00) rc: 1.56
2p( 2.00) rc: 1.56
3d( 0.00) rc: 1.56
4f( 0.00) rc: 1.56
relmxkb: Read Max KB Ang. Momentum=    2 for species C-gga

<basis_specs>
===============================================================================
C-gga                Z=   6    Mass=  12.010        Charge= 0.17977+309
Lmxo=1 Lmxkb= 2    BasisType=split      Semic=F
L=0  Nsemic=0  Cnfigmx=2
          i=1  nzeta=2  polorb=0  (2s)
            splnorm:   0.15000    
               vcte:    0.0000    
               rinn:    0.0000    
               qcoe:    0.0000    
               qyuk:    0.0000    
               qwid:   0.10000E-01
                rcs:    0.0000      0.0000    
            lambdas:    1.0000      1.0000    
L=1  Nsemic=0  Cnfigmx=2
          i=1  nzeta=2  polorb=1  (2p)
            splnorm:   0.15000    
               vcte:    0.0000    
               rinn:    0.0000    
               qcoe:    0.0000    
               qyuk:    0.0000    
               qwid:   0.10000E-01
                rcs:    0.0000      0.0000    
            lambdas:    1.0000      1.0000    
-------------------------------------------------------------------------------
L=0  Nkbl=1  erefs: 0.17977+309
L=1  Nkbl=1  erefs: 0.17977+309
L=2  Nkbl=1  erefs: 0.17977+309
===============================================================================
</basis_specs>

atom: Called for C-gga                 (Z =   6)

read_vps: Pseudopotential generation method:
read_vps: ATM 3.2.2 Troullier-Martins                       
Valence charge for ps generation:    4.00000

xc_check: Exchange-correlation functional:
xc_check: GGA Perdew, Burke & Ernzerhof 1996
V l=0 = -2*Zval/r beyond r=  1.5227
V l=1 = -2*Zval/r beyond r=  1.5227
V l=2 = -2*Zval/r beyond r=  1.5227
All V_l potentials equal beyond r=  1.4851
This should be close to max(r_c) in ps generation
All pots = -2*Zval/r beyond r=  1.5227

VLOCAL1: 99.0% of the norm of Vloc inside     19.682 Ry
VLOCAL1: 99.9% of the norm of Vloc inside     44.856 Ry
atom: Maximum radius for 4*pi*r*r*local-pseudopot. charge    1.79142
atom: Maximum radius for r*vlocal+2*Zval:    1.54183
GHOST: No ghost state for L =  0
GHOST: No ghost state for L =  1
GHOST: No ghost state for L =  2

KBgen: Kleinman-Bylander projectors: 
   l= 0   rc=  1.661951   el= -1.010689   Ekb=  5.289847   kbcos=  0.316429
   l= 1   rc=  1.661951   el= -0.388490   Ekb= -4.102504   kbcos= -0.351025
   l= 2   rc=  1.747182   el=  0.001971   Ekb= -1.006005   kbcos= -0.008530

KBgen: Total number of Kleinman-Bylander projectors:    9
atom: -------------------------------------------------------------------------

atom: SANKEY-TYPE ORBITALS:
atom: Selected multiple-zeta basis: split     

SPLIT: Orbitals with angular momentum L= 0

SPLIT: Basis orbitals for state 2s

SPLIT: PAO cut-off radius determined from an
SPLIT: energy shift=  0.000735 Ry

   izeta = 1
                 lambda =    1.000000
                     rc =    5.948690
                 energy =   -1.010099
                kinetic =    0.827121
    potential(screened) =   -1.837220
       potential(ionic) =   -5.392783

   izeta = 2
                 rmatch =    3.518811
              splitnorm =    0.150000
                 energy =   -0.877891
                kinetic =    1.289227
    potential(screened) =   -2.167118
       potential(ionic) =   -5.982073

SPLIT: Orbitals with angular momentum L= 1

SPLIT: Basis orbitals for state 2p

SPLIT: PAO cut-off radius determined from an
SPLIT: energy shift=  0.000735 Ry

   izeta = 1
                 lambda =    1.000000
                     rc =    7.638387
                 energy =   -0.387843
                kinetic =    2.314739
    potential(screened) =   -2.702582
       potential(ionic) =   -6.092371

   izeta = 2
                 rmatch =    3.840617
              splitnorm =    0.150000
                 energy =   -0.270479
                kinetic =    3.438347
    potential(screened) =   -3.708826
       potential(ionic) =   -7.497707

POLgen: Perturbative polarization orbital with L=  2

POLgen: Polarization orbital for state 2p

   izeta = 1
                     rc =    7.638387
                 energy =    0.921402
                kinetic =    1.955040
    potential(screened) =   -1.033637
       potential(ionic) =   -3.679558
atom: Total number of Sankey-type orbitals: 13

atm_pop: Valence configuration (for local Pseudopot. screening):
 2s( 2.00)                                                            
 2p( 2.00)                                                            
Vna: chval, zval:    4.00000   4.00000

Vna:  Cut-off radius for the neutral-atom potential:   7.638387

atom: _________________________________________________________________________

prinput: Basis input ----------------------------------------------------------

PAO.BasisType split     

%block ChemicalSpeciesLabel
    1    6 C-gga                   # Species index, atomic number, species label
%endblock ChemicalSpeciesLabel

%block PAO.Basis                 # Define Basis set
C-gga                 2                    # Species label, number of l-shells
 n=2   0   2                         # n, l, Nzeta 
   5.949      3.519   
   1.000      1.000   
 n=2   1   2 P   1                   # n, l, Nzeta, Polarization, NzetaPol
   7.638      3.841   
   1.000      1.000   
%endblock PAO.Basis

prinput: ----------------------------------------------------------------------

coor:   Atomic-coordinates input format  =     Cartesian coordinates
coor:                                          (in Angstroms)

siesta: Atomic coordinates (Bohr) and species
siesta:      0.00000   0.00000   2.79003  1        1
siesta:      0.00000   0.00000   8.37009  1        2
siesta:     -2.32814   4.03246   2.79003  1        3
siesta:     -4.65629   8.06493   8.37009  1        4
siesta:      4.65629   8.06493   2.79003  1        5
siesta:      2.32814   4.03246   8.37009  1        6
siesta:      4.65629   0.00000   2.79003  1        7
siesta:      9.31257   0.00000   8.37009  1        8
siesta:      4.65629   0.00000   8.37009  1        9
siesta:      9.31257   0.00000   2.79003  1       10
siesta:      4.65629   8.06493   8.37009  1       11
siesta:      2.32814   4.03246   2.79003  1       12
siesta:     -2.32814   4.03246   8.37009  1       13
siesta:     -4.65629   8.06493   2.79003  1       14
siesta:      0.00000   8.06493   2.79003  1       15
siesta:      6.98443   4.03246   8.37009  1       16
siesta:      6.98443   4.03246   2.79003  1       17
siesta:      0.00000   8.06493   8.37009  1       18
siesta:      0.00000   2.68831   2.79003  1       19
siesta:      6.98443   9.40908   8.37009  1       20
siesta:      4.65629  10.75324   2.79003  1       21
siesta:      2.32814   1.34415   8.37009  1       22
siesta:     -4.65629  10.75324   2.79003  1       23
siesta:     11.64072   1.34415   8.37009  1       24
siesta:     -2.32814   6.72077   2.79003  1       25
siesta:      9.31257   5.37662   8.37009  1       26
siesta:      2.32815   6.72077   2.79003  1       27
siesta:      4.65628   5.37662   8.37009  1       28
siesta:     -0.00000  10.75324   2.79003  1       29
siesta:      6.98443   1.34415   8.37009  1       30
siesta:      4.65629   2.68831   2.79003  1       31
siesta:      2.32814   9.40908   8.37009  1       32
siesta:      9.31258   2.68831   2.79003  1       33
siesta:     -2.32815   9.40908   8.37009  1       34
siesta:      6.98443   6.72077   2.79003  1       35
siesta:      0.00000   5.37662   8.37009  1       36

siesta: System type = bulk      

initatomlists: Number of atoms, orbitals, and projectors:     36   468   324

siesta: ******************** Simulation parameters ****************************
siesta:
siesta: The following are some of the parameters of the simulation.
siesta: A complete list of the parameters used, including default values,
siesta: can be found in file out.fdf
siesta:
redata: Spin configuration                          = none
redata: Number of spin components                   = 1
redata: Time-Reversal Symmetry                      = T
redata: Spin spiral                                 = F
redata: Long output                                 =   F
redata: Number of Atomic Species                    =        1
redata: Charge density info will appear in .RHO file
redata: Write Mulliken Pop.                         = NO
redata: Matel table size (NRTAB)                    =     1024
redata: Mesh Cutoff                                 =   300.0000 Ry
redata: Net charge of the system                    =     0.0000 |e|
redata: Min. number of SCF Iter                     =        0
redata: Max. number of SCF Iter                     =     1000
redata: SCF convergence failure will abort job
redata: SCF mix quantity                            = Hamiltonian
redata: Mix DM or H after convergence               =   F
redata: Recompute H after scf cycle                 =   F
redata: Mix DM in first SCF step                    =   T
redata: Write Pulay info on disk                    =   F
redata: New DM Occupancy tolerance                  = 0.000000000001
redata: No kicks to SCF
redata: DM Mixing Weight for Kicks                  =     0.5000
redata: Require Harris convergence for SCF          =   F
redata: Harris energy tolerance for SCF             =     0.000100 eV
redata: Require DM convergence for SCF              =   T
redata: DM tolerance for SCF                        =     0.001000
redata: Require EDM convergence for SCF             =   F
redata: EDM tolerance for SCF                       =     0.005000 eV
redata: Require H convergence for SCF               =   T
redata: Hamiltonian tolerance for SCF               =     0.001000 eV
redata: Require (free) Energy convergence for SCF   =   T
redata: (free) Energy tolerance for SCF             =     0.001000 eV
redata: Using Saved Data (generic)                  =   F
redata: Use continuation files for DM               =   F
redata: Neglect nonoverlap interactions             =   F
redata: Method of Calculation                       = Diagonalization
redata: Electronic Temperature                      =   299.9869 K
redata: Fix the spin of the system                  =   F
redata: Dynamics option                             = Single-point calculation
mix.SCF: Pulay mixing                            = Pulay
mix.SCF:    Variant                              = stable
mix.SCF:    History steps                        = 4
mix.SCF:    Linear mixing weight                 =     0.250000
mix.SCF:    Mixing weight                        =     0.250000
mix.SCF:    SVD condition                        = 0.1000E-07
redata: ***********************************************************************

%block SCF.Mixers
  Pulay
%endblock SCF.Mixers

%block SCF.Mixer.Pulay
  # Mixing method
  method pulay
  variant stable

  # Mixing options
  weight 0.2500
  weight.linear 0.2500
  history 4
%endblock SCF.Mixer.Pulay

DM_history_depth set to one: no extrapolation allowed by default for geometry relaxation
Size of DM history Fstack: 1
Total number of electrons:   144.000000
Total ionic charge:   144.000000

* ProcessorY, Blocksize:    4   1


* Orbital distribution balance (max,min):    24    23

k-point displ. along   1 input, could be:     0.00    0.50
k-point displ. along   2 input, could be:     0.00    0.50
k-point displ. along   3 input, could be:     0.00    0.50
 Kpoints in:           48 . Kpoints trimmed:           44

siesta: k-grid: Number of k-points =    44
siesta: k-grid: Cutoff (effective) =    11.811 Ang
siesta: k-grid: Supercell and displacements
siesta: k-grid:    4   0   0      0.000
siesta: k-grid:    0   4   0      0.000
siesta: k-grid:    0   0   4      0.000

diag: Algorithm                                     = Expert
diag: Parallel over k                               =   T
diag: Use parallel 2D distribution                  =   T
diag: Parallel block-size                           = 1
diag: Parallel distribution                         =     4 x     5
diag: Used triangular part                          = Lower
diag: Absolute tolerance                            =  0.100E-15
diag: Orthogonalization factor                      =  0.100E-05
diag: Memory factor                                 =  1.0000

superc: Internal auxiliary supercell:     5 x     5 x     3  =      75
superc: Number of atoms, orbitals, and projectors:   2700  35100  24300


ts: **************************************************************
ts: Save H and S matrices                           =    F
ts: Save DM and EDM matrices                        =    F
ts: Only save the overlap matrix S                  =    F
ts: **************************************************************

************************ Begin: TS CHECKS AND WARNINGS ************************
************************ End: TS CHECKS AND WARNINGS **************************


                     ====================================
                        Single-point calculation
                     ====================================

outcoor: Atomic coordinates (Ang):                          
    0.00000000    0.00000000    1.47642000   1       1  C-gga
    0.00000000    0.00000000    4.42926000   1       2  C-gga
   -1.23200000    2.13388659    1.47642000   1       3  C-gga
   -2.46400000    4.26777319    4.42926000   1       4  C-gga
    2.46400000    4.26777319    1.47642000   1       5  C-gga
    1.23200000    2.13388659    4.42926000   1       6  C-gga
    2.46400000    0.00000000    1.47642000   1       7  C-gga
    4.92800000    0.00000000    4.42926000   1       8  C-gga
    2.46400000    0.00000000    4.42926000   1       9  C-gga
    4.92800000    0.00000000    1.47642000   1      10  C-gga
    2.46400000    4.26777319    4.42926000   1      11  C-gga
    1.23200000    2.13388659    1.47642000   1      12  C-gga
   -1.23200000    2.13388659    4.42926000   1      13  C-gga
   -2.46400000    4.26777319    1.47642000   1      14  C-gga
    0.00000000    4.26777319    1.47642000   1      15  C-gga
    3.69600000    2.13388659    4.42926000   1      16  C-gga
    3.69600000    2.13388659    1.47642000   1      17  C-gga
    0.00000000    4.26777319    4.42926000   1      18  C-gga
    0.00000000    1.42258964    1.47642000   1      19  C-gga
    3.69600000    4.97907014    4.42926000   1      20  C-gga
    2.46400123    5.69036496    1.47642000   1      21  C-gga
    1.23199877    0.71129482    4.42926000   1      22  C-gga
   -2.46400123    5.69036496    1.47642000   1      23  C-gga
    6.16000123    0.71129482    4.42926000   1      24  C-gga
   -1.23200000    3.55647624    1.47642000   1      25  C-gga
    4.92800000    2.84518355    4.42926000   1      26  C-gga
    1.23200123    3.55647837    1.47642000   1      27  C-gga
    2.46399877    2.84518142    4.42926000   1      28  C-gga
   -0.00000123    5.69036496    1.47642000   1      29  C-gga
    3.69600123    0.71129482    4.42926000   1      30  C-gga
    2.46400000    1.42258964    1.47642000   1      31  C-gga
    1.23200000    4.97907014    4.42926000   1      32  C-gga
    4.92800123    1.42259177    1.47642000   1      33  C-gga
   -1.23200123    4.97906801    4.42926000   1      34  C-gga
    3.69599877    3.55647837    1.47642000   1      35  C-gga
    0.00000123    2.84518142    4.42926000   1      36  C-gga

superc: Internal auxiliary supercell:     5 x     5 x     3  =      75
superc: Number of atoms, orbitals, and projectors:   2700  35100  24300

outcell: Unit cell vectors (Ang):
        7.392000    0.000000    0.000000
       -3.696000    6.401660    0.000000
        0.000000    0.000000    5.905680

outcell: Cell vector modules (Ang)   :    7.392000    7.392000    5.905680
outcell: Cell angles (23,13,12) (deg):     90.0000     90.0000    120.0000
outcell: Cell volume (Ang**3)        :    279.4631
<dSpData1D:S at geom step 0
  <sparsity:sparsity for geom step 0
    nrows_g=468 nrows=24 sparsity=.3980 nnzs=87180, refcount: 7>
  <dData1D:(new from dSpData1D) n=87180, refcount: 1>
refcount: 1>
new_DM -- step:     1
Initializing Density Matrix...
DM filled with atomic data:
<dSpData2D:DM initialized from atoms
  <sparsity:sparsity for geom step 0
    nrows_g=468 nrows=24 sparsity=.3980 nnzs=87180, refcount: 8>
  <dData2D:DM n=87180 m=1, refcount: 1>
refcount: 1>
No. of atoms with KB's overlaping orbs in proc 0. Max # of overlaps:     256     712
New grid distribution:   1
           1       1:   36    1:    9    1:    7
           2       1:   36    1:    9    8:   14
           3       1:   36    1:    9   15:   20
           4       1:   36    1:    9   21:   26
           5       1:   36    1:    9   27:   32
           6       1:   36   10:   18    1:    7
           7       1:   36   10:   18    8:   14
           8       1:   36   10:   18   15:   20
           9       1:   36   10:   18   21:   26
          10       1:   36   10:   18   27:   32
          11       1:   36   19:   27    1:    7
          12       1:   36   19:   27    8:   14
          13       1:   36   19:   27   15:   20
          14       1:   36   19:   27   21:   26
          15       1:   36   19:   27   27:   32
          16       1:   36   28:   36    1:    7
          17       1:   36   28:   36    8:   14
          18       1:   36   28:   36   15:   20
          19       1:   36   28:   36   21:   26
          20       1:   36   28:   36   27:   32

InitMesh: MESH =    72 x    72 x    64 =      331776
InitMesh: (bp) =    36 x    36 x    32 =       41472
InitMesh: Mesh cutoff (required, used) =   300.000   324.580 Ry
ExtMesh (bp) on 0 =   128 x   101 x    95 =     1228160
New grid distribution:   2
           1       1:   18   28:   36    1:   13
           2      19:   27   25:   36   14:   32
           3      19:   36    1:    6   13:   32
           4       1:   18    1:    6   14:   32
           5       1:   18    1:    9    1:   13
           6       1:    9    7:   18   14:   32
           7      10:   18    7:   18   14:   32
           8      19:   27    7:   18   13:   32
           9      28:   36    7:   18   13:   32
          10       1:   18   10:   18    1:   13
          11      19:   36   10:   18    1:   12
          12      19:   36   19:   24   14:   32
          13       1:   18   19:   27    1:   13
          14       1:   18   19:   24   14:   32
          15      19:   36    1:    9    1:   12
          16      19:   36   28:   36    1:   13
          17      19:   36   19:   27    1:   13
          18       1:    9   25:   36   14:   32
          19      10:   18   25:   36   14:   32
          20      28:   36   25:   36   14:   32
New grid distribution:   3
           1      19:   36    1:    9    1:   13
           2       1:   18    1:    9    1:   13
           3      19:   36   19:   24   14:   32
           4      19:   36    1:    6   14:   32
           5       1:   18    1:    6   14:   32
           6      19:   36   10:   18    1:   13
           7       1:   18   10:   18    1:   13
           8      19:   27    7:   18   14:   32
           9      28:   36    7:   18   14:   32
          10      10:   18    7:   18   14:   32
          11       1:   18   19:   27    1:   13
          12      10:   18   25:   36   14:   32
          13      19:   36   19:   27    1:   13
          14      28:   36   25:   36   14:   32
          15       1:   18   19:   24   14:   32
          16       1:   18   28:   36    1:   13
          17      19:   36   28:   36    1:   13
          18       1:    9   25:   36   14:   32
          19      19:   27   25:   36   14:   32
          20       1:    9    7:   18   14:   32
Setting up quadratic distribution...
ExtMesh (bp) on 0 =   110 x   101 x   101 =     1122110
PhiOnMesh: Number of (b)points on node 0 =                 2106
PhiOnMesh: nlist on node 0 =               714699

stepf: Fermi-Dirac step function

siesta: Program's energy decomposition (eV):
siesta: Ebs     =     -2238.871661
siesta: Eions   =      9434.507561
siesta: Ena     =      2217.164981
siesta: Ekin    =      4048.004328
siesta: Enl     =      -409.499174
siesta: Eso     =         0.000000
siesta: Edftu   =         0.000000
siesta: DEna    =      -284.160280
siesta: DUscf   =        28.179721
siesta: DUext   =         0.000000
siesta: Exc     =     -1737.244744
siesta: eta*DQ  =         0.000000
siesta: Emadel  =         0.000000
siesta: Emeta   =         0.000000
siesta: Emolmec =        -5.791920
siesta: Ekinion =         0.000000
siesta: Eharris =     -5466.532782
siesta: Etot    =     -5577.854651
siesta: FreeEng =     -5577.864156

        iscf     Eharris(eV)        E_KS(eV)     FreeEng(eV)     dDmax    Ef(eV) dHmax(eV)
   scf:    1    -5466.532782    -5577.854651    -5577.864156  1.644846 -8.038861  2.745382
timer: Routine,Calls,Time,% = IterSCF        1      12.561  73.64
   scf:    2    -5581.736422    -5579.839136    -5579.848396  0.093957 -7.690194  1.833424
   scf:    3    -5582.890688    -5581.569145    -5581.577697  0.169975 -7.001913  0.031094
   scf:    4    -5581.569058    -5581.569217    -5581.577779  0.001498 -7.016693  0.011229
   scf:    5    -5581.569690    -5581.569586    -5581.578124  0.003904 -7.015838  0.016515
   scf:    6    -5581.569868    -5581.569755    -5581.578304  0.001449 -7.020269  0.000315
   scf:    7    -5581.569755    -5581.569755    -5581.578304  0.000022 -7.020283  0.000258

SCF Convergence by FreeE+DM+H criterion
|FreeE_i-FreeE_(i-1)| (eV) <     0.00100000
max |DM_out - DM_in|         :     0.0000220960
max |H_out - H_in|      (eV) :     0.0002582838
SCF cycle converged after 7 iterations

Using DM_out to compute the final energy and forces
No. of atoms with KB's overlaping orbs in proc 0. Max # of overlaps:     256     712

MM-Stress (kbar):       22.39       22.39       62.90        0.00       -0.00       -0.00

siesta: E_KS(eV) =            -5581.5698

siesta: E_KS - E_eggbox =     -5581.5698

siesta: Atomic forces (eV/Ang):
     1   -0.000071    0.000041   -0.000000
     2    0.000071   -0.000041   -0.000000
     3   -0.000020   -0.000003   -0.000000
     4    0.000020    0.000003   -0.000000
     5   -0.000058    0.000107   -0.000000
     6    0.000058   -0.000107   -0.000000
     7   -0.000135    0.000019   -0.000000
     8    0.000135   -0.000020   -0.000000
     9    0.000056   -0.000059   -0.000000
    10   -0.000056    0.000059   -0.000000
    11    0.000063   -0.000019   -0.000000
    12   -0.000063    0.000019   -0.000000
    13    0.000095   -0.000045   -0.000000
    14   -0.000095    0.000046   -0.000000
    15   -0.000071    0.000041   -0.000000
    16    0.000071   -0.000041   -0.000000
    17   -0.000071    0.000042   -0.000000
    18    0.000071   -0.000041   -0.000000
    19    0.000082    0.000067    0.000000
    20   -0.000082   -0.000067    0.000000
    21   -0.000027   -0.000088    0.000000
    22    0.000027    0.000088    0.000000
    23    0.000162   -0.000105    0.000000
    24   -0.000162    0.000105    0.000000
    25    0.000080    0.000054    0.000000
    26   -0.000080   -0.000054    0.000000
    27   -0.000014   -0.000083    0.000000
    28    0.000014    0.000083    0.000000
    29    0.000152   -0.000096    0.000000
    30   -0.000152    0.000096    0.000000
    31    0.000080    0.000054    0.000000
    32   -0.000080   -0.000054    0.000000
    33   -0.000014   -0.000083    0.000000
    34    0.000014    0.000083    0.000000
    35    0.000152   -0.000097    0.000000
    36   -0.000152    0.000096    0.000000
----------------------------------------
   Tot   -0.000000    0.000000    0.000000
----------------------------------------
   Max    0.000162
   Res    0.000065    sqrt( Sum f_i^2 / 3N )
----------------------------------------
   Max    0.000162    constrained

Stress tensor Voigt[x,y,z,yz,xz,xy] (kbar):     -129.98     -130.12      -66.46        0.00        0.00       -0.12
(Free)E + p*V (eV/cell)    -5562.5920
Target enthalpy (eV/cell)    -5581.5783

siesta: Eigenvalues (eV):
  ik is       eps
   1  1  -26.3327  -25.6700  -25.6700  -25.6267  -24.9890  -24.9889  -23.7233  -23.7233  -23.1188  -23.1188
         -22.4716  -21.9217  -21.8860  -21.8860  -21.3941  -21.3941  -20.9920  -20.7310  -19.8526  -19.7395
  -19.7395  -19.6818  -19.3417  -19.3417  -17.6177  -17.4260  -16.6100  -16.6100  -16.3507  -16.3507
  -15.9736  -15.8370  -15.4421  -15.3208  -15.0773  -14.6460  -14.6460  -14.5364  -14.5364  -14.3503
  -14.3503  -13.9760  -13.9760  -13.7829  -13.7829  -13.5277  -13.5277  -13.3411  -13.3410  -12.3460
  -12.3460  -12.1153  -12.1153  -12.0265  -11.9748  -11.9748  -11.7894  -11.6926  -11.3336  -11.3336
  -11.0925  -11.0255  -10.9053  -10.4324  -10.4324   -9.5872   -9.4229   -9.4229   -8.7111   -8.7111
   -8.4122   -8.3224   -5.2335   -5.2335   -5.2312   -5.0287   -4.7913   -4.0839   -4.0839   -3.5869
   -3.1588   -3.1587   -1.9491   -1.9491   -0.1428    0.6242    0.6242    0.7355    0.7355    0.8558
    0.8558    1.6089    1.6089    1.6429    1.7339    1.7339    1.7404    1.7404    1.8939    2.2165
    2.2165    2.5906    2.6210    2.8203    2.8203    2.8702    3.0153    3.1095    3.1095    3.2492
    3.5999    3.8598    3.8598    4.3043    4.3637    4.3637    4.6563    4.6563    4.8024    5.1244
    5.1511    5.1511    5.6289    5.6289    5.8757    6.2783    6.3021    6.4249    6.5496    6.7048
    6.7048    6.7960    6.7960    7.0151    7.0483    7.5192    7.5558    7.8229    7.9231    7.9231
    7.9542    8.0472    8.0472    8.2077    8.2077    8.6489    8.6489    8.7887    8.7887    9.9031
    9.9031   10.3400   10.3400   11.0493   11.7582   11.7582   11.9666   12.0956   12.0956   12.5895
   12.5895   13.2331   13.2331   13.4125   13.7851   14.8057   14.8057   15.0290   15.5292   15.5292
   15.6180   15.6180   15.7696   15.9406   16.0360   16.1036   16.1036   16.1170   16.1170   16.1527
   16.1527   16.2851   17.0223   17.0328   17.8010   17.8010   18.2633   18.2633   18.3097   18.3097
   18.3351   18.8241   18.8241   18.9487   19.0146   19.6023   19.6397   19.6917   19.6917   20.5340
   20.5340   20.6414   20.8757   21.1277   21.1605   21.3188   21.3188   21.3667   21.3667   21.9530
   21.9530   22.1604   22.1604   22.2870   23.1379   23.1379   23.3418   23.3418   23.6517   23.6517
   23.7413   24.2728   24.2729   24.8466   25.1941   25.1941   25.2657   25.5146   25.5146   25.5358
   25.5787   26.4105   26.4105   26.9300   28.2697   28.2697   28.8927   28.8927   30.0330   30.4105
   30.4105   30.5182   30.5607   30.6026   30.6026   30.7814   30.7814   30.9238   31.1653   31.1653
   32.2788   33.1403   35.6271   35.6271   36.7009   36.7009   37.3036   38.8649   38.8649   39.1929
   39.5318   39.5318   40.1375   40.6361   40.6615   40.8969   40.8969   41.0707   41.4368   41.4369
   42.0263   42.0264   42.1814   42.1814   42.4174   42.5221   42.5569   42.5569   42.6422   42.6422
   42.8015   42.8015   43.4114   43.7939   43.9702   44.0051   44.0679   44.0679   44.2746   44.2746
   44.3130   44.3850   44.5514   44.7063   45.3727   45.3727   45.4592   46.0771   46.1959   46.1960
   46.6214   46.7469   46.7469   46.9185   46.9185   47.4068   47.6223   47.6342   47.6342   47.8061
   47.8061   49.3196   49.3196   49.3261   49.3261   49.3686   49.3686   49.5204   50.0780   50.5595
   50.5595   51.1695   51.6012   51.9266   51.9266   52.2104   52.5199   52.7835   52.7835   53.3261
   53.3261   53.8937   53.8937   53.9925   55.1970   55.1970   55.5985   56.0869   56.0869   58.2180
   58.2180   58.5470   59.6759   59.6760   61.0444   61.0445   61.1896   62.1149   62.2465   62.2465
   62.9077   62.9077   63.5274   63.5275   63.6630   64.4353   64.6810   64.9470   64.9471   65.5320
   65.5321   66.1051   66.1051   66.1149   66.1149   66.7305   67.3796   67.6653   68.0625   68.0625
   68.3834   68.3834   68.5318   68.9779   68.9779   69.0626   69.0626   69.3182   69.6136   69.6136
   69.8360   69.8366   69.8367   71.5336   71.6710   72.8142   73.0331   73.0331   73.0348   73.0348
   73.2521   73.3753   73.6546   75.3592   75.3592   78.1130   78.1130   78.2320   80.2990   80.2992
   84.6839   85.0070   87.7354   88.8178   88.8179   91.9277   91.9277   96.6664   96.6666   97.1495
   97.1498   97.7033   98.0230   98.0231   98.9225   98.9226   99.4245   99.4247   99.5958   99.5959
  100.9624  101.8625  101.8626  102.9513  103.0896  103.0901  103.7250  103.7251  103.9221  104.0260
  104.1428  105.6786  106.0000  106.0003  107.1893  107.2499  107.3102  110.5114  110.5118  112.3435
  112.3440  112.4142  113.2677  113.2680  113.7715  113.8614  113.8621  115.2052  116.4015  116.4018
  118.0289  118.0289  121.5897  122.4091  123.2743  127.3053  127.7990  127.8982  127.8985  128.7885
  128.7887  131.5869  131.5881  135.1541  135.8843  142.2304  142.2308  142.3416
   2  1  -26.6632  -25.9474  -25.3409  -24.6876  -24.6876  -24.6723  -24.0447  -24.0447  -23.4052  -23.4052
         -22.8143  -22.8143  -22.7800  -22.2195  -21.0088  -21.0087  -20.5579  -20.5579  -19.0753  -19.0752
  -18.9088  -18.7740  -18.7739  -18.5056  -17.7915  -17.7914  -17.4308  -17.4307  -16.7330  -16.7328
  -16.4989  -16.4987  -15.8446  -15.6353  -15.6351  -15.3590  -15.3588  -14.5485  -14.2930  -14.2539
  -13.6493  -13.6490  -13.4794  -13.4794  -13.4590  -13.4587  -13.3239  -13.1549  -13.0138  -13.0135
  -12.8351  -12.8347  -12.3805  -12.1258  -12.0005  -12.0005  -11.9559  -11.3359  -11.0004  -10.7677
  -10.6633  -10.4502  -10.3604  -10.3495  -10.3495   -9.3307   -9.3306   -9.2380   -9.2380   -8.9522
   -7.5953   -7.5953   -6.0469   -6.0469   -4.9952   -4.9952   -4.7963   -3.9593   -3.9593   -3.1352
   -2.3376   -2.3375   -1.6426   -1.6426   -0.4957   -0.3413   -0.3413   -0.2519    0.2239    0.7734
    0.9301    1.0457    1.0459    1.0684    1.0724    1.3347    1.3357    1.3359    1.5298    1.6511
    1.7507    1.7509    1.8453    1.8455    1.9637    2.0985    2.2834    2.2835    3.4747    3.4748
    3.6724    4.1875    4.2050    4.6513    4.6514    5.6018    5.6019    5.8397    6.0649    6.0650
    6.2615    6.3110    6.3111    6.3260    6.3262    6.4011    6.4011    6.4079    6.4637    6.4637
    6.5296    7.0063    7.0067    7.4765    7.4766    7.6048    7.7742    7.7845    8.4167    8.4456
    8.4456    8.6447    8.6447    8.9879    8.9880    8.9992    9.2291    9.5712    9.5716    9.7527
    9.7530   10.8407   10.8408   11.2490   11.2490   11.3078   11.3083   11.7531   11.7534   11.8887
   11.9560   12.0861   12.9495   13.1053   13.1055   13.1866   13.1866   13.4695   13.4696   15.5499
   15.8255   15.8677   15.9648   15.9649   16.0536   16.0544   16.2837   16.2837   16.5647   16.5647
   16.9390   16.9395   17.0147   17.0147   17.0736   17.0736   17.6767   17.9155   17.9156   18.0395
   18.4323   18.4325   18.6050   18.6055   18.9584   19.2035   19.3898   19.3899   19.9910   20.1134
   20.5167   21.0723   21.6527   21.6528   21.9286   21.9286   22.1228   22.1228   22.2033   22.4905
   22.5291   22.9225   22.9225   23.1075   23.2785   23.4141   23.4231   23.4231   23.6257   23.6257
   23.7372   23.8129   23.8136   24.4454   24.4454   24.6995   25.1204   25.1204   25.2444   25.2598
   25.2602   25.9210   26.6560   28.1914   28.7771   28.8735   29.5074   29.8529   29.8529   29.9005
   29.9006   30.0739   30.4051   30.4051   30.5590   30.5593   31.2912   31.2914   33.4448   33.4448
   33.4659   35.7193   35.8875   36.4231   36.4235   36.9290   38.0041   38.0054   38.3209   38.3213
   38.5137   39.1113   39.1121   39.5219   40.0105   40.0106   40.0715   40.0727   40.1987   40.1987
   40.3330   40.3610   40.3612   40.5327   40.7705   40.9473   41.5086   41.5087   42.4800   43.5900
   43.5901   43.6175   43.6175   43.8521   44.3986   44.4079   44.4186   44.4186   44.5074   44.5083
   44.5450   44.9506   45.2106   45.3148   45.3151   45.4337   46.1459   46.1814   46.1814   46.2398
   46.2408   46.9741   47.3259   47.9728   47.9729   48.2167   48.2171   48.2986   48.2987   48.5876
   49.0442   49.0445   49.7632   49.7633   49.9008   50.1421   51.0562   51.0563   51.7172   51.7175
   51.7467   53.0514   53.2063   53.2064   54.0611   54.0612   54.2932   54.2933   55.2918   55.2919
   55.5323   55.7236   56.9128   56.9130   57.3113   57.3115   57.3783   57.7668   57.7669   59.0609
   59.1348   59.9038   59.9039   59.9948   60.4602   60.7801   61.3650   61.3651   61.7724   62.4765
   62.4773   62.7509   62.7511   62.7627   63.1486   63.1487   63.5805   63.5820   64.3628   64.3766
   65.5529   65.5531   65.7818   65.7821   66.1666   66.1682   66.1684   66.1688   66.5752   66.6867
   66.8034   67.6856   67.6858   67.7189   68.2867   68.4629   68.9099   68.9111   69.5821   69.5853
   69.8677   69.9230   69.9230   70.3343   70.3357   70.9559   70.9833   70.9834   71.7526   71.9877
   74.4289   74.6481   74.6481   75.5373   75.5374   76.7704   76.8429   78.7547   78.7555   79.8879
   79.8880   80.8034   83.9690   84.3131   84.3132   92.5823   92.5838   92.9829   95.0148   95.2621
   95.2651   96.6325   96.6877   96.6885   98.1065   98.2157   98.2184   99.9217   99.9242  104.4134
  104.4136  104.6602  104.6624  107.1326  107.1332  107.4746  107.5822  107.7538  107.7538  108.1010
  108.1014  108.3125  108.3136  108.4693  109.1368  109.1381  109.5384  109.7885  110.6100  110.6109
  112.9039  115.9018  116.8790  116.8791  118.3473  118.3473  118.4452  120.1354  120.1362  121.5307
  122.6899  123.5245  123.5274  129.3421  132.1304  132.3637  132.3641  133.0294  133.5350  133.5375
  138.8271  138.8276  139.5089  139.5109  141.9241  145.3857  145.4596  145.4600
   3  1  -26.6632  -25.9474  -25.3408  -24.6877  -24.6877  -24.6723  -24.0447  -24.0447  -23.4052  -23.4052
         -22.8143  -22.8143  -22.7800  -22.2195  -21.0088  -21.0088  -20.5579  -20.5579  -19.0753  -19.0753
  -18.9087  -18.7740  -18.7740  -18.5055  -17.7915  -17.7915  -17.4308  -17.4308  -16.7328  -16.7328
  -16.4987  -16.4987  -15.8446  -15.6353  -15.6353  -15.3590  -15.3590  -14.5483  -14.2928  -14.2539
  -13.6490  -13.6490  -13.4794  -13.4794  -13.4587  -13.4587  -13.3243  -13.1553  -13.0135  -13.0135
  -12.8347  -12.8347  -12.3805  -12.1262  -12.0005  -12.0005  -11.9563  -11.3359  -11.0004  -10.7673
  -10.6629  -10.4507  -10.3608  -10.3495  -10.3495   -9.3307   -9.3307   -9.2380   -9.2380   -8.9522
   -7.5953   -7.5953   -6.0469   -6.0469   -4.9952   -4.9952   -4.7963   -3.9593   -3.9593   -3.1352
   -2.3375   -2.3375   -1.6426   -1.6426   -0.4957   -0.3413   -0.3413   -0.2519    0.2241    0.7736
    0.9301    1.0457    1.0457    1.0686    1.0727    1.3352    1.3357    1.3357    1.5303    1.6513
    1.7507    1.7507    1.8452    1.8452    1.9631    2.0980    2.2835    2.2835    3.4747    3.4747
    3.6724    4.1876    4.2050    4.6513    4.6513    5.6019    5.6019    5.8397    6.0648    6.0648
    6.2615    6.3113    6.3113    6.3261    6.3261    6.4011    6.4011    6.4072    6.4637    6.4637
    6.5289    7.0068    7.0068    7.4763    7.4763    7.6052    7.7742    7.7848    8.4167    8.4456
    8.4456    8.6447    8.6447    8.9878    8.9878    8.9996    9.2291    9.5714    9.5714    9.7528
    9.7528   10.8406   10.8406   11.2490   11.2490   11.3087   11.3087   11.7536   11.7536   11.8877
   11.9550   12.0861   12.9503   13.1055   13.1055   13.1866   13.1866   13.4696   13.4696   15.5499
   15.8264   15.8677   15.9649   15.9649   16.0536   16.0536   16.2837   16.2837   16.5647   16.5647
   16.9389   16.9389   17.0147   17.0147   17.0737   17.0737   17.6772   17.9155   17.9155   18.0394
   18.4323   18.4323   18.6053   18.6053   18.9588   19.2036   19.3896   19.3896   19.9912   20.1135
   20.5168   21.0722   21.6528   21.6528   21.9286   21.9286   22.1225   22.1225   22.2033   22.4906
   22.5290   22.9225   22.9225   23.1074   23.2791   23.4148   23.4231   23.4231   23.6257   23.6257
   23.7372   23.8130   23.8130   24.4454   24.4454   24.6994   25.1204   25.1204   25.2444   25.2597
   25.2597   25.9209   26.6561   28.1918   28.7771   28.8733   29.5074   29.8529   29.8529   29.9005
   29.9005   30.0742   30.4051   30.4051   30.5589   30.5589   31.2913   31.2913   33.4448   33.4448
   33.4651   35.7194   35.8880   36.4232   36.4232   36.9278   38.0052   38.0052   38.3213   38.3213
   38.5133   39.1124   39.1124   39.5220   40.0104   40.0104   40.0728   40.0728   40.1987   40.1987
   40.3331   40.3609   40.3609   40.5312   40.7703   40.9459   41.5087   41.5087   42.4801   43.5900
   43.5900   43.6175   43.6175   43.8519   44.3995   44.4080   44.4185   44.4185   44.5078   44.5078
   44.5466   44.9491   45.2088   45.3146   45.3146   45.4355   46.1470   46.1814   46.1814   46.2403
   46.2403   46.9742   47.3264   47.9725   47.9726   48.2164   48.2164   48.2986   48.2986   48.5878
   49.0442   49.0442   49.7632   49.7632   49.9011   50.1428   51.0561   51.0561   51.7175   51.7175
   51.7464   53.0516   53.2063   53.2063   54.0610   54.0611   54.2932   54.2932   55.2918   55.2918
   55.5328   55.7233   56.9129   56.9129   57.3115   57.3115   57.3787   57.7668   57.7668   59.0611
   59.1340   59.9040   59.9040   59.9953   60.4604   60.7803   61.3651   61.3651   61.7708   62.4770
   62.4770   62.7512   62.7512   62.7609   63.1486   63.1486   63.5821   63.5821   64.3624   64.3756
   65.5531   65.5532   65.7820   65.7820   66.1684   66.1685   66.1689   66.1689   66.5748   66.6868
   66.8010   67.6858   67.6858   67.7189   68.2869   68.4650   68.9117   68.9118   69.5791   69.5864
   69.8646   69.9230   69.9230   70.3346   70.3346   70.9530   70.9833   70.9833   71.7526   71.9906
   74.4303   74.6482   74.6482   75.5374   75.5374   76.7721   76.8435   78.7553   78.7554   79.8864
   79.8865   80.8026   83.9718   84.3131   84.3132   92.5813   92.5814   92.9853   95.0157   95.2630
   95.2632   96.6351   96.6866   96.6866   98.1033   98.2162   98.2163   99.9244   99.9246  104.4156
  104.4156  104.6637  104.6639  107.1325  107.1325  107.4760  107.5779  107.7511  107.7512  108.1001
  108.1003  108.3130  108.3131  108.4697  109.1372  109.1374  109.5410  109.7853  110.6114  110.6117
  112.9047  115.9031  116.8779  116.8785  118.3480  118.3481  118.4403  120.1361  120.1364  121.5322
  122.6906  123.5264  123.5269  129.3427  132.1283  132.3632  132.3638  133.0247  133.5363  133.5372
  138.8305  138.8312  139.5099  139.5115  141.9242  145.3855  145.4598  145.4607
   4  1  -26.3327  -25.6700  -25.6700  -25.6267  -24.9890  -24.9889  -23.7233  -23.7233  -23.1188  -23.1188
         -22.4716  -21.9216  -21.8860  -21.8859  -21.3941  -21.3941  -20.9920  -20.7310  -19.8528  -19.7395
  -19.7394  -19.6820  -19.3417  -19.3416  -17.6177  -17.4259  -16.6102  -16.6102  -16.3508  -16.3508
  -15.9738  -15.8372  -15.4421  -15.3206  -15.0770  -14.6460  -14.6460  -14.5362  -14.5362  -14.3501
  -14.3500  -13.9763  -13.9760  -13.7832  -13.7829  -13.5277  -13.5275  -13.3411  -13.3409  -12.3460
  -12.3460  -12.1155  -12.1152  -12.0265  -11.9751  -11.9747  -11.7891  -11.6923  -11.3336  -11.3336
  -11.0929  -11.0258  -10.9053  -10.4324  -10.4324   -9.5872   -9.4229   -9.4229   -8.7111   -8.7111
   -8.4122   -8.3224   -5.2335   -5.2335   -5.2312   -5.0287   -4.7913   -4.0839   -4.0839   -3.5869
   -3.1588   -3.1588   -1.9491   -1.9491   -0.1428    0.6242    0.6243    0.7355    0.7355    0.8558
    0.8560    1.6088    1.6089    1.6433    1.7340    1.7342    1.7403    1.7405    1.8943    2.2165
    2.2168    2.5905    2.6210    2.8202    2.8202    2.8698    3.0149    3.1094    3.1095    3.2492
    3.5998    3.8597    3.8599    4.3045    4.3634    4.3639    4.6559    4.6564    4.8022    5.1243
    5.1512    5.1513    5.6289    5.6290    5.8756    6.2781    6.3019    6.4248    6.5496    6.7050
    6.7051    6.7958    6.7961    7.0151    7.0483    7.5192    7.5558    7.8229    7.9231    7.9231
    7.9542    8.0471    8.0473    8.2077    8.2077    8.6489    8.6490    8.7887    8.7887    9.9031
    9.9031   10.3399   10.3400   11.0495   11.7577   11.7579   11.9668   12.0957   12.0960   12.5887
   12.5897   13.2329   13.2331   13.4125   13.7856   14.8061   14.8061   15.0289   15.5291   15.5292
   15.6178   15.6186   15.7698   15.9406   16.0360   16.1029   16.1032   16.1170   16.1170   16.1527
   16.1527   16.2851   17.0221   17.0330   17.8008   17.8011   18.2634   18.2638   18.3094   18.3099
   18.3351   18.8240   18.8241   18.9489   19.0144   19.6023   19.6394   19.6916   19.6917   20.5339
   20.5341   20.6418   20.8760   21.1277   21.1606   21.3189   21.3189   21.3667   21.3667   21.9527
   21.9530   22.1604   22.1608   22.2871   23.1379   23.1380   23.3411   23.3416   23.6517   23.6517
   23.7412   24.2728   24.2729   24.8466   25.1940   25.1940   25.2657   25.5146   25.5146   25.5358
   25.5787   26.4104   26.4106   26.9300   28.2697   28.2697   28.8927   28.8927   30.0330   30.4105
   30.4106   30.5182   30.5607   30.6026   30.6026   30.7813   30.7814   30.9238   31.1652   31.1654
   32.2788   33.1403   35.6270   35.6273   36.6998   36.7008   37.3043   38.8648   38.8652   39.1926
   39.5324   39.5326   40.1375   40.6361   40.6613   40.8968   40.8974   41.0708   41.4368   41.4368
   42.0251   42.0265   42.1803   42.1816   42.4173   42.5218   42.5568   42.5572   42.6422   42.6423
   42.8018   42.8022   43.4118   43.7929   43.9703   44.0045   44.0681   44.0689   44.2746   44.2746
   44.3122   44.3849   44.5510   44.7071   45.3722   45.3728   45.4591   46.0768   46.1959   46.1960
   46.6213   46.7469   46.7470   46.9182   46.9184   47.4067   47.6223   47.6342   47.6343   47.8063
   47.8067   49.3195   49.3196   49.3260   49.3261   49.3685   49.3690   49.5204   50.0779   50.5594
   50.5595   51.1696   51.6012   51.9267   51.9268   52.2105   52.5202   52.7834   52.7836   53.3259
   53.3263   53.8938   53.8939   53.9922   55.1970   55.1970   55.5985   56.0869   56.0869   58.2180
   58.2181   58.5472   59.6760   59.6761   61.0434   61.0445   61.1901   62.1151   62.2466   62.2466
   62.9072   62.9078   63.5267   63.5275   63.6634   64.4347   64.6811   64.9468   64.9473   65.5321
   65.5322   66.1052   66.1053   66.1155   66.1155   66.7310   67.3796   67.6654   68.0625   68.0625
   68.3819   68.3843   68.5317   68.9777   68.9778   69.0626   69.0627   69.3161   69.6133   69.6136
   69.8343   69.8354   69.8378   71.5334   71.6709   72.8144   73.0317   73.0334   73.0348   73.0348
   73.2540   73.3777   73.6549   75.3594   75.3613   78.1131   78.1133   78.2319   80.2974   80.2992
   84.6842   85.0072   87.7342   88.8174   88.8199   91.9265   91.9274   96.6659   96.6670   97.1500
   97.1526   97.7028   98.0200   98.0201   98.9228   98.9257   99.4234   99.4241   99.5961   99.5975
  100.9628  101.8606  101.8612  102.9527  103.0892  103.0918  103.7244  103.7252  103.9196  104.0269
  104.1401  105.6780  106.0000  106.0005  107.1906  107.2494  107.3105  110.5078  110.5112  112.3456
  112.3463  112.4144  113.2678  113.2682  113.7717  113.8619  113.8637  115.2071  116.3995  116.4008
  118.0287  118.0291  121.5914  122.4081  123.2742  127.3047  127.7997  127.8978  127.8983  128.7887
  128.7895  131.5885  131.5896  135.1552  135.8851  142.2306  142.2307  142.3404
   5  1  -26.6632  -25.9474  -25.3409  -24.6876  -24.6876  -24.6723  -24.0447  -24.0447  -23.4052  -23.4052
         -22.8143  -22.8143  -22.7800  -22.2195  -21.0088  -21.0087  -20.5579  -20.5579  -19.0753  -19.0752
  -18.9088  -18.7740  -18.7739  -18.5056  -17.7915  -17.7914  -17.4308  -17.4307  -16.7330  -16.7328
  -16.4989  -16.4987  -15.8446  -15.6353  -15.6351  -15.3590  -15.3588  -14.5485  -14.2930  -14.2539
  -13.6493  -13.6490  -13.4794  -13.4794  -13.4590  -13.4587  -13.3239  -13.1549  -13.0138  -13.0135
  -12.8351  -12.8347  -12.3805  -12.1258  -12.0005  -12.0005  -11.9559  -11.3359  -11.0004  -10.7677
  -10.6633  -10.4502  -10.3604  -10.3495  -10.3495   -9.3307   -9.3306   -9.2380   -9.2380   -8.9522
   -7.5953   -7.5953   -6.0469   -6.0469   -4.9952   -4.9952   -4.7963   -3.9593   -3.9593   -3.1352
   -2.3376   -2.3375   -1.6426   -1.6426   -0.4957   -0.3413   -0.3413   -0.2519    0.2239    0.7734
    0.9301    1.0457    1.0459    1.0684    1.0724    1.3347    1.3357    1.3359    1.5298    1.6511
    1.7507    1.7509    1.8453    1.8455    1.9637    2.0985    2.2834    2.2835    3.4747    3.4748
    3.6724    4.1875    4.2050    4.6513    4.6514    5.6018    5.6019    5.8397    6.0649    6.0650
    6.2615    6.3110    6.3111    6.3260    6.3262    6.4011    6.4011    6.4079    6.4637    6.4637
    6.5296    7.0063    7.0067    7.4765    7.4766    7.6048    7.7742    7.7845    8.4167    8.4456
    8.4456    8.6447    8.6447    8.9879    8.9880    8.9992    9.2291    9.5712    9.5716    9.7527
    9.7530   10.8407   10.8408   11.2490   11.2490   11.3078   11.3083   11.7531   11.7534   11.8887
   11.9560   12.0861   12.9495   13.1053   13.1055   13.1866   13.1866   13.4695   13.4696   15.5499
   15.8255   15.8677   15.9648   15.9649   16.0536   16.0544   16.2837   16.2837   16.5647   16.5647
   16.9390   16.9395   17.0147   17.0147   17.0736   17.0736   17.6767   17.9155   17.9156   18.0395
   18.4323   18.4325   18.6050   18.6055   18.9584   19.2035   19.3898   19.3899   19.9910   20.1134
   20.5167   21.0723   21.6527   21.6528   21.9286   21.9286   22.1228   22.1228   22.2033   22.4905
   22.5291   22.9225   22.9225   23.1075   23.2785   23.4141   23.4231   23.4231   23.6257   23.6257
   23.7372   23.8129   23.8136   24.4454   24.4454   24.6995   25.1204   25.1204   25.2444   25.2598
   25.2602   25.9210   26.6560   28.1914   28.7771   28.8735   29.5074   29.8529   29.8529   29.9005
   29.9006   30.0739   30.4051   30.4051   30.5590   30.5593   31.2912   31.2914   33.4448   33.4448
   33.4659   35.7193   35.8875   36.4231   36.4235   36.9290   38.0041   38.0054   38.3209   38.3213
   38.5137   39.1113   39.1121   39.5219   40.0105   40.0106   40.0715   40.0727   40.1987   40.1987
   40.3330   40.3610   40.3612   40.5327   40.7705   40.9473   41.5086   41.5087   42.4800   43.5900
   43.5901   43.6175   43.6175   43.8521   44.3986   44.4079   44.4186   44.4186   44.5074   44.5083
   44.5450   44.9506   45.2105   45.3148   45.3151   45.4337   46.1459   46.1814   46.1814   46.2398
   46.2408   46.9741   47.3259   47.9728   47.9729   48.2167   48.2171   48.2986   48.2987   48.5876
   49.0442   49.0445   49.7632   49.7633   49.9008   50.1421   51.0562   51.0563   51.7172   51.7175
   51.7467   53.0514   53.2063   53.2064   54.0611   54.0612   54.2932   54.2933   55.2918   55.2919
   55.5323   55.7236   56.9128   56.9130   57.3113   57.3115   57.3783   57.7668   57.7669   59.0609
   59.1348   59.9038   59.9039   59.9948   60.4602   60.7801   61.3650   61.3651   61.7723   62.4765
   62.4773   62.7509   62.7511   62.7626   63.1486   63.1487   63.5805   63.5820   64.3628   64.3765
   65.5529   65.5531   65.7818   65.7821   66.1666   66.1681   66.1684   66.1689   66.5752   66.6867
   66.8034   67.6856   67.6858   67.7189   68.2867   68.4630   68.9099   68.9111   69.5821   69.5853
   69.8677   69.9230   69.9230   70.3344   70.3357   70.9559   70.9833   70.9834   71.7526   71.9877
   74.4290   74.6481   74.6481   75.5373   75.5374   76.7703   76.8429   78.7547   78.7555   79.8880
   79.8882   80.8034   83.9689   84.3131   84.3132   92.5825   92.5839   92.9827   95.0148   95.2623
   95.2650   96.6324   96.6877   96.6885   98.1061   98.2157   98.2183   99.9219   99.9246  104.4136
  104.4138  104.6602  104.6626  107.1326  107.1332  107.4745  107.5819  107.7535  107.7536  108.1008
  108.1014  108.3126  108.3136  108.4692  109.1370  109.1381  109.5386  109.7879  110.6099  110.6111
  112.9039  115.9018  116.8787  116.8792  118.3472  118.3474  118.4446  120.1353  120.1363  121.5308
  122.6898  123.5246  123.5279  129.3421  132.1299  132.3635  132.3640  133.0282  133.5348  133.5381
  138.8285  138.8287  139.5091  139.5101  141.9244  145.3853  145.4597  145.4607
   6  1  -26.8259  -26.1080  -24.2023  -24.2023  -24.2023  -24.2023  -24.2023  -24.2023  -23.5785  -23.5785
         -23.5785  -23.5785  -23.5784  -23.5784  -19.8166  -19.8166  -19.5739  -19.5739  -19.5739  -19.5739
  -19.3361  -19.3361  -17.4918  -17.4918  -17.4917  -17.4917  -16.7810  -16.7810  -16.7810  -16.7810
  -16.7808  -16.7808  -16.4501  -16.4501  -16.4501  -16.4501  -16.4499  -16.4499  -16.0469  -12.9166
  -12.9166  -12.9166  -12.9166  -12.9166  -12.9166  -12.8551  -12.8551  -12.8548  -12.8548  -12.8548
  -12.8548  -12.6829  -12.6829  -12.6825  -12.6825  -12.6825  -12.6825  -12.5592  -10.0963  -10.0957
  -10.0602  -10.0596   -9.9146   -9.9146   -9.9146   -9.9146   -9.9146   -9.9146   -8.2099   -8.2099
   -7.0829   -7.0829   -7.0829   -7.0829   -5.5779   -5.5779   -2.7824   -2.7824   -2.7824   -2.7824
   -2.7824   -2.7823   -1.1468   -1.1468   -1.1468   -1.1468   -1.1468   -1.1468   -0.6445    0.4965
    0.4965    0.4965    0.4965    0.4968    0.4968    1.2146    1.2146    1.2146    1.2147    1.2149
    1.2149    1.2643    1.2650    1.3970    1.3977    2.5638    2.5638    2.5638    2.5638    2.5638
    2.5638    4.2337    4.7213    5.5531    5.6121    5.6121    5.8731    5.8731    5.8731    5.8731
    5.9362    6.0629    6.0629    6.0632    6.0632    7.6665    8.3177    8.3177    8.3177    8.3177
    8.3181    8.3181    8.3266    8.3266    8.8318    8.8318    8.8318    8.8319    8.8319    8.8319
    9.2928    9.2928    9.2936    9.2936    9.2936    9.2936    9.3959    9.3959    9.3968    9.3968
    9.3968    9.3968    9.4520    9.4520    9.4523    9.4523   10.9782   10.9782   10.9782   10.9782
   10.9788   10.9788   12.7218   12.7218   13.4578   13.4578   13.4578   13.4578   13.4578   13.4578
   16.4156   16.4156   16.4156   16.4157   16.4163   16.4163   16.4880   16.4880   16.4880   16.4880
   16.4880   16.4880   16.4977   16.4977   16.6050   16.6050   16.6050   16.6050   17.8799   17.8799
   17.8799   17.8799   19.3260   19.3260   19.3260   19.3260   19.3263   19.3263   19.3387   19.6134
   20.0772   21.8552   21.8552   21.8552   21.8552   21.8553   21.8553   22.8001   22.8001   22.8001
   22.8001   22.8001   22.8001   23.9647   23.9647   23.9647   23.9647   23.9656   23.9656   24.0015
   24.0016   24.2566   24.2566   24.2566   24.2566   25.3569   26.1269   26.1271   26.3126   26.3126
   26.3127   26.3127   26.3127   26.3127   29.1968   29.1968   29.1968   29.1968   29.1973   29.1973
   29.9845   29.9845   29.9845   29.9845   29.9845   29.9845   30.3549   30.3549   34.7979   34.7979
   36.9432   36.9432   36.9444   36.9444   36.9444   36.9445   37.1175   37.1175   37.1175   37.1175
   37.1177   37.1177   38.7185   38.7185   38.7198   38.7198   38.7198   38.7198   39.0801   39.0801
   39.0804   39.0804   39.3835   39.3837   41.4202   41.4204   42.7632   42.7632   42.8425   42.8425
   42.8425   42.8425   44.0372   44.0391   44.6853   44.6853   44.6853   44.6853   44.6854   44.6854
   45.1038   45.1064   45.6455   45.6455   45.6455   45.6455   45.6462   45.6462   48.1257   48.1264
   48.1494   48.1494   48.1494   48.1494   48.1503   48.1503   50.2899   50.2899   50.8795   50.8795
   50.8796   50.8796   50.8798   50.8798   50.9730   50.9733   51.1697   51.1697   51.1697   51.1697
   51.8834   51.8834   52.2826   57.1814   57.1814   57.8747   57.8748   57.8748   57.8748   57.8751
   57.8752   58.6641   58.6641   58.6644   58.6644   58.6644   58.6644   60.6868   60.6868   60.6868
   60.6868   60.6870   60.6870   61.3958   61.3958   61.3965   61.3965   62.0928   62.0928   62.0932
   62.0932   62.0932   62.0932   62.1028   62.1028   62.1028   62.1028   62.1034   62.1034   62.4822
   62.4822   62.4833   62.4833   62.4834   62.4834   63.2261   65.7670   65.7670   65.7689   65.7689
   65.7689   65.7690   66.6636   67.0932   67.2500   67.2500   68.2216   68.2217   68.2235   68.2236
   68.2236   68.2237   69.2089   69.2130   70.0408   70.0450   71.9704   71.9705   71.9705   71.9705
   71.9706   71.9706   76.9652   76.9652   76.9653   76.9653   76.9665   76.9665   77.3503   77.3503
   77.3503   77.3503   89.0934   89.0934   89.0936   89.0936   89.0963   89.0963   95.8460   95.8460
   95.8461   95.8461   95.8479   95.8480   98.7526   98.7527  101.6365  101.6365  101.6399  101.6399
  101.6401  101.6403  106.1931  106.1932  106.1932  106.1932  106.1939  106.1940  107.7416  107.7417
  107.7421  107.7421  115.2541  115.2542  115.2542  115.2544  115.2554  115.2557  120.4312  120.4353
  124.2489  124.2491  124.2503  124.2503  125.6540  125.6542  125.9450  126.8046  126.8046  126.8047
  126.8048  126.8050  126.8050  132.2903  132.2903  132.2944  132.2946  132.2953  132.2958  134.6595
  134.6629  140.0299  141.4305  141.4309  164.5696  164.5704  164.5718  164.5728
   7  1  -26.1668  -26.1668  -25.4666  -25.4666  -24.8504  -24.8504  -24.2013  -24.2013  -22.3202  -22.3202
         -22.3202  -22.3202  -21.7803  -21.7803  -21.7802  -21.7802  -21.4193  -21.1498  -20.2610  -20.0671
  -18.5623  -18.5623  -18.5622  -18.5622  -18.1973  -18.1973  -18.1971  -18.1971  -15.2420  -15.2420
  -15.1324  -15.1324  -15.1322  -15.1322  -14.8996  -14.8996  -14.8993  -14.8993  -14.8364  -14.8364
  -14.6922  -14.6922  -13.6690  -13.6690  -13.4848  -13.4441  -13.4441  -13.3396  -13.3396  -13.3173
  -12.4274  -12.4274  -12.2390  -12.2390  -11.8516  -11.8516  -11.2487  -11.2487  -11.1036  -11.1036
  -10.7736  -10.7736  -10.7736  -10.7736  -10.4987  -10.4987  -10.1753   -8.9714   -8.4111   -8.4111
   -8.4111   -8.4111   -5.2254   -5.0107   -5.0107   -5.0107   -5.0107   -4.3527   -3.7061   -3.7061
   -3.7060   -3.7060   -1.0760   -1.0760   -0.1054   -0.1054    0.0340    0.0340    0.1254    1.0120
    1.2603    1.2603    1.6354    1.6354    1.6547    1.6547    2.0816    2.0816    2.6909    2.6909
    2.6909    2.6909    2.8195    2.8195    2.9041    2.9041    3.3482    3.3482    3.6398    3.6399
    3.6399    3.6399    3.8246    3.8246    3.9565    3.9565    4.5650    4.5650    4.6371    4.6371
    4.6372    4.6372    4.8822    4.8822    5.8297    6.1518    6.6426    6.6426    6.6426    6.6426
    6.7054    6.7054    7.3161    7.3161    7.6165    7.6165    7.6165    7.6165    8.0495    8.0495
    8.1925    8.1925    8.3377    8.3378    8.3378    8.3378    9.2030    9.2030    9.2033    9.2033
    9.4137   10.3027   10.3027   10.8538   10.8538   11.6448   12.4471   12.4471   12.4474   12.4474
   12.6304   12.6304   13.0518   13.0904   14.2705   15.1819   15.1819   15.1824   15.1824   15.2121
   15.2370   15.5587   15.5587   15.5590   15.5590   15.9132   15.9132   15.9132   15.9132   17.0712
   17.0712   17.1937   17.1937   17.1940   17.1940   17.4188   17.4188   18.7659   18.7659   18.9991
   18.9991   18.9991   18.9991   19.0301   19.1882   19.1882   19.2720   19.2720   20.1414   20.1414
   20.5010   20.5010   20.7203   20.7203   20.8079   21.0634   21.0634   21.0639   21.0639   21.7718
   21.7718   21.9897   22.7447   22.7448   22.7448   22.7448   22.8106   24.0374   24.4009   24.4009
   24.6532   24.6532   24.7936   24.7936   24.9740   24.9740   25.0165   25.0165   25.0165   25.0165
   25.6834   25.6834   27.8723   27.8723   27.8778   28.9417   28.9417   29.0807   29.0807   30.4842
   30.4842   30.5647   30.6850   30.6850   30.6851   30.6851   31.0840   31.0840   31.0840   31.0840
   31.8919   32.8017   32.8017   35.3542   36.2356   37.9149   37.9149   37.9157   37.9157   41.0116
   41.0116   41.0116   41.0116   41.0337   41.0337   41.5453   41.5453   41.7639   41.7639   41.7641
   41.7641   42.1872   42.1872   42.2297   42.2297   42.3787   42.3787   42.6869   42.6869   42.6872
   42.6872   42.9086   42.9086   43.0085   43.0085   43.4866   43.4866   43.9337   43.9337   44.4126
   44.4126   44.9170   44.9170   44.9170   44.9170   45.2964   45.2964   45.4347   45.4347   45.4352
   45.4352   46.2011   46.2011   46.6187   46.6187   46.6442   46.6442   48.4960   48.5623   48.5624
   49.1760   49.1760   49.1789   49.1789   49.1791   49.1791   49.4158   49.4159   49.4159   49.4159
   50.1648   50.2930   51.1062   51.1062   51.4162   51.4162   52.2020   52.2020   52.2022   52.2022
   52.3521   53.5379   56.1716   56.1716   56.1717   56.1718   56.3666   57.1928   57.1928   58.2243
   58.5603   58.5603   59.9156   60.0390   61.1274   61.2703   61.2703   62.3289   62.3290   62.7861
   62.7861   62.7866   62.7866   64.5810   64.5810   64.5813   64.5813   64.9636   64.9636   65.2325
   66.8224   67.1387   67.1388   67.1388   67.1388   67.4609   67.4609   67.5887   67.5887   67.5890
   67.5890   67.9647   68.1031   68.1032   68.9595   68.9595   69.1688   69.1688   69.5742   69.5743
   70.6394   70.6394   70.8495   70.8495   70.9610   70.9610   70.9611   70.9611   72.4249   72.4249
   75.1737   75.1737   75.1738   75.1738   76.7914   76.9697   76.9697   85.7898   85.7898   86.0896
   86.0897   86.0897   86.0897   87.0853   87.0853   91.9889   91.9890   94.0650   94.0650   95.8257
   96.8128   96.8558   96.8559   98.1995   98.1996   99.2427   99.2427   99.2702   99.2702  102.4562
  102.4562  102.4592  102.4593  102.9592  103.4798  103.4799  103.4820  103.4820  104.4394  104.4395
  104.6960  104.6961  104.6970  104.6970  107.4439  107.4439  110.9536  111.0831  111.0832  111.1559
  111.1560  112.6891  112.6891  112.6917  112.6918  113.3738  113.3742  113.6372  115.1718  115.1719
  115.1724  115.1726  119.2720  120.8629  120.8630  120.8635  120.8637  122.7851  128.4754  128.4756
  133.7606  133.7608  137.6438  137.6439  137.6456  137.6458  144.9772  144.9772
   8  1  -26.3327  -25.6700  -25.6700  -25.6267  -24.9890  -24.9889  -23.7233  -23.7233  -23.1188  -23.1188
         -22.4716  -21.9216  -21.8860  -21.8859  -21.3941  -21.3941  -20.9920  -20.7310  -19.8528  -19.7395
  -19.7394  -19.6820  -19.3417  -19.3416  -17.6177  -17.4259  -16.6102  -16.6102  -16.3508  -16.3508
  -15.9738  -15.8372  -15.4421  -15.3206  -15.0770  -14.6460  -14.6460  -14.5362  -14.5362  -14.3501
  -14.3500  -13.9763  -13.9760  -13.7832  -13.7829  -13.5277  -13.5275  -13.3411  -13.3409  -12.3460
  -12.3460  -12.1155  -12.1152  -12.0265  -11.9751  -11.9747  -11.7891  -11.6923  -11.3336  -11.3336
  -11.0929  -11.0258  -10.9053  -10.4324  -10.4324   -9.5872   -9.4229   -9.4229   -8.7111   -8.7111
   -8.4122   -8.3224   -5.2335   -5.2335   -5.2312   -5.0287   -4.7913   -4.0839   -4.0839   -3.5869
   -3.1588   -3.1588   -1.9491   -1.9491   -0.1428    0.6242    0.6243    0.7355    0.7355    0.8558
    0.8560    1.6088    1.6089    1.6433    1.7340    1.7342    1.7403    1.7405    1.8943    2.2165
    2.2168    2.5905    2.6210    2.8202    2.8202    2.8698    3.0149    3.1094    3.1095    3.2492
    3.5998    3.8597    3.8599    4.3045    4.3634    4.3639    4.6559    4.6564    4.8022    5.1243
    5.1512    5.1513    5.6289    5.6290    5.8756    6.2781    6.3019    6.4248    6.5496    6.7050
    6.7051    6.7958    6.7961    7.0151    7.0483    7.5192    7.5558    7.8229    7.9231    7.9231
    7.9542    8.0471    8.0473    8.2077    8.2077    8.6489    8.6490    8.7887    8.7887    9.9031
    9.9031   10.3399   10.3400   11.0495   11.7577   11.7579   11.9668   12.0957   12.0960   12.5887
   12.5897   13.2329   13.2331   13.4125   13.7856   14.8061   14.8061   15.0289   15.5291   15.5292
   15.6178   15.6186   15.7698   15.9406   16.0360   16.1029   16.1032   16.1170   16.1170   16.1527
   16.1527   16.2851   17.0221   17.0330   17.8008   17.8011   18.2634   18.2638   18.3094   18.3099
   18.3351   18.8240   18.8241   18.9489   19.0144   19.6023   19.6394   19.6916   19.6917   20.5339
   20.5341   20.6418   20.8760   21.1277   21.1606   21.3189   21.3189   21.3667   21.3667   21.9527
   21.9530   22.1604   22.1608   22.2871   23.1379   23.1380   23.3411   23.3416   23.6517   23.6517
   23.7412   24.2728   24.2729   24.8466   25.1940   25.1940   25.2657   25.5146   25.5146   25.5358
   25.5787   26.4104   26.4106   26.9300   28.2697   28.2697   28.8927   28.8927   30.0330   30.4105
   30.4106   30.5182   30.5607   30.6026   30.6026   30.7813   30.7814   30.9238   31.1652   31.1654
   32.2788   33.1403   35.6270   35.6273   36.6998   36.7008   37.3043   38.8648   38.8652   39.1926
   39.5324   39.5326   40.1375   40.6361   40.6613   40.8968   40.8974   41.0708   41.4368   41.4368
   42.0251   42.0265   42.1803   42.1816   42.4173   42.5218   42.5568   42.5572   42.6422   42.6423
   42.8018   42.8022   43.4118   43.7929   43.9703   44.0045   44.0681   44.0689   44.2746   44.2746
   44.3122   44.3849   44.5510   44.7071   45.3722   45.3728   45.4591   46.0768   46.1959   46.1960
   46.6213   46.7469   46.7470   46.9182   46.9184   47.4067   47.6223   47.6342   47.6343   47.8063
   47.8067   49.3195   49.3196   49.3260   49.3261   49.3685   49.3690   49.5204   50.0779   50.5594
   50.5595   51.1696   51.6012   51.9267   51.9268   52.2105   52.5202   52.7834   52.7836   53.3259
   53.3263   53.8938   53.8939   53.9922   55.1970   55.1970   55.5985   56.0869   56.0869   58.2180
   58.2181   58.5472   59.6760   59.6761   61.0434   61.0445   61.1901   62.1151   62.2466   62.2466
   62.9072   62.9078   63.5267   63.5275   63.6634   64.4347   64.6811   64.9468   64.9473   65.5321
   65.5322   66.1052   66.1053   66.1155   66.1155   66.7310   67.3796   67.6654   68.0625   68.0625
   68.3819   68.3843   68.5317   68.9777   68.9778   69.0626   69.0627   69.3161   69.6133   69.6136
   69.8343   69.8354   69.8378   71.5334   71.6709   72.8144   73.0317   73.0334   73.0348   73.0348
   73.2540   73.3777   73.6549   75.3594   75.3613   78.1131   78.1133   78.2319   80.2974   80.2992
   84.6842   85.0072   87.7342   88.8174   88.8199   91.9265   91.9274   96.6659   96.6670   97.1500
   97.1526   97.7028   98.0200   98.0201   98.9228   98.9257   99.4234   99.4241   99.5961   99.5975
  100.9628  101.8606  101.8612  102.9527  103.0892  103.0918  103.7244  103.7252  103.9196  104.0269
  104.1401  105.6780  106.0000  106.0005  107.1906  107.2494  107.3105  110.5078  110.5112  112.3456
  112.3463  112.4144  113.2678  113.2682  113.7717  113.8619  113.8637  115.2071  116.3995  116.4008
  118.0287  118.0291  121.5914  122.4081  123.2742  127.3047  127.7997  127.8978  127.8983  128.7887
  128.7895  131.5885  131.5896  135.1552  135.8851  142.2306  142.2307  142.3404
   9  1  -26.3327  -25.6700  -25.6700  -25.6267  -24.9890  -24.9889  -23.7233  -23.7233  -23.1188  -23.1188
         -22.4716  -21.9216  -21.8860  -21.8859  -21.3941  -21.3941  -20.9920  -20.7310  -19.8528  -19.7395
  -19.7394  -19.6820  -19.3417  -19.3416  -17.6177  -17.4259  -16.6102  -16.6102  -16.3508  -16.3508
  -15.9738  -15.8372  -15.4421  -15.3206  -15.0770  -14.6460  -14.6460  -14.5362  -14.5362  -14.3501
  -14.3500  -13.9763  -13.9760  -13.7832  -13.7829  -13.5277  -13.5275  -13.3411  -13.3409  -12.3460
  -12.3460  -12.1155  -12.1152  -12.0265  -11.9751  -11.9747  -11.7891  -11.6923  -11.3336  -11.3336
  -11.0929  -11.0258  -10.9053  -10.4324  -10.4324   -9.5872   -9.4229   -9.4229   -8.7111   -8.7111
   -8.4122   -8.3224   -5.2335   -5.2335   -5.2312   -5.0287   -4.7913   -4.0839   -4.0839   -3.5869
   -3.1588   -3.1588   -1.9491   -1.9491   -0.1428    0.6242    0.6243    0.7355    0.7355    0.8558
    0.8560    1.6088    1.6089    1.6433    1.7340    1.7342    1.7403    1.7405    1.8943    2.2165
    2.2168    2.5905    2.6210    2.8202    2.8202    2.8698    3.0149    3.1094    3.1095    3.2492
    3.5998    3.8597    3.8599    4.3045    4.3634    4.3639    4.6559    4.6564    4.8022    5.1243
    5.1512    5.1513    5.6289    5.6290    5.8756    6.2781    6.3019    6.4248    6.5496    6.7050
    6.7051    6.7958    6.7961    7.0151    7.0483    7.5192    7.5558    7.8229    7.9231    7.9231
    7.9542    8.0471    8.0473    8.2077    8.2077    8.6489    8.6490    8.7887    8.7887    9.9031
    9.9031   10.3399   10.3400   11.0495   11.7577   11.7579   11.9668   12.0957   12.0960   12.5887
   12.5897   13.2329   13.2331   13.4125   13.7856   14.8061   14.8061   15.0289   15.5291   15.5292
   15.6178   15.6186   15.7698   15.9406   16.0360   16.1029   16.1032   16.1170   16.1170   16.1527
   16.1527   16.2851   17.0221   17.0330   17.8008   17.8011   18.2634   18.2638   18.3094   18.3099
   18.3351   18.8240   18.8241   18.9489   19.0144   19.6023   19.6394   19.6916   19.6917   20.5339
   20.5341   20.6418   20.8760   21.1277   21.1606   21.3189   21.3189   21.3667   21.3667   21.9527
   21.9530   22.1604   22.1608   22.2871   23.1379   23.1380   23.3411   23.3416   23.6517   23.6517
   23.7412   24.2728   24.2729   24.8466   25.1940   25.1940   25.2657   25.5146   25.5146   25.5358
   25.5787   26.4104   26.4106   26.9300   28.2697   28.2697   28.8927   28.8927   30.0330   30.4105
   30.4106   30.5182   30.5607   30.6026   30.6026   30.7813   30.7814   30.9238   31.1652   31.1653
   32.2788   33.1403   35.6270   35.6273   36.6998   36.7008   37.3043   38.8648   38.8652   39.1926
   39.5324   39.5326   40.1375   40.6361   40.6613   40.8968   40.8974   41.0708   41.4368   41.4368
   42.0250   42.0265   42.1803   42.1816   42.4173   42.5218   42.5568   42.5572   42.6422   42.6423
   42.8018   42.8022   43.4118   43.7929   43.9703   44.0045   44.0681   44.0689   44.2746   44.2746
   44.3122   44.3849   44.5511   44.7071   45.3722   45.3728   45.4591   46.0768   46.1959   46.1960
   46.6213   46.7469   46.7470   46.9182   46.9184   47.4067   47.6223   47.6342   47.6343   47.8063
   47.8067   49.3195   49.3196   49.3260   49.3261   49.3685   49.3690   49.5204   50.0779   50.5594
   50.5595   51.1696   51.6012   51.9267   51.9268   52.2105   52.5202   52.7834   52.7836   53.3259
   53.3263   53.8938   53.8939   53.9922   55.1970   55.1970   55.5985   56.0868   56.0869   58.2180
   58.2181   58.5472   59.6760   59.6760   61.0434   61.0446   61.1901   62.1151   62.2466   62.2466
   62.9073   62.9078   63.5267   63.5276   63.6634   64.4347   64.6811   64.9468   64.9473   65.5321
   65.5322   66.1052   66.1053   66.1155   66.1155   66.7309   67.3796   67.6654   68.0625   68.0625
   68.3819   68.3843   68.5317   68.9777   68.9778   69.0626   69.0627   69.3161   69.6133   69.6136
   69.8343   69.8354   69.8378   71.5334   71.6709   72.8144   73.0317   73.0334   73.0347   73.0348
   73.2540   73.3777   73.6549   75.3595   75.3613   78.1132   78.1133   78.2319   80.2974   80.2990
   84.6841   85.0071   87.7344   88.8173   88.8198   91.9266   91.9273   96.6659   96.6668   97.1502
   97.1526   97.7032   98.0200   98.0202   98.9229   98.9257   99.4235   99.4241   99.5960   99.5974
  100.9626  101.8606  101.8611  102.9527  103.0888  103.0920  103.7244  103.7253  103.9196  104.0270
  104.1400  105.6782  106.0000  106.0001  107.1904  107.2494  107.3107  110.5078  110.5116  112.3449
  112.3460  112.4146  113.2676  113.2682  113.7720  113.8615  113.8640  115.2065  116.3997  116.4012
  118.0288  118.0292  121.5913  122.4091  123.2742  127.3062  127.7992  127.8976  127.8984  128.7888
  128.7893  131.5870  131.5894  135.1550  135.8851  142.2303  142.2308  142.3406
  10  1  -26.1668  -26.1668  -25.4666  -25.4666  -24.8504  -24.8504  -24.2013  -24.2013  -22.3202  -22.3202
         -22.3202  -22.3202  -21.7803  -21.7803  -21.7802  -21.7802  -21.4193  -21.1498  -20.2610  -20.0671
  -18.5623  -18.5623  -18.5622  -18.5622  -18.1973  -18.1973  -18.1971  -18.1971  -15.2420  -15.2420
  -15.1324  -15.1324  -15.1322  -15.1322  -14.8996  -14.8996  -14.8993  -14.8993  -14.8364  -14.8364
  -14.6922  -14.6922  -13.6690  -13.6690  -13.4848  -13.4441  -13.4441  -13.3396  -13.3396  -13.3173
  -12.4274  -12.4274  -12.2390  -12.2390  -11.8516  -11.8516  -11.2487  -11.2487  -11.1036  -11.1036
  -10.7736  -10.7736  -10.7736  -10.7736  -10.4987  -10.4987  -10.1753   -8.9714   -8.4111   -8.4111
   -8.4111   -8.4111   -5.2254   -5.0107   -5.0107   -5.0107   -5.0107   -4.3527   -3.7061   -3.7060
   -3.7060   -3.7060   -1.0760   -1.0760   -0.1054   -0.1054    0.0340    0.0340    0.1254    1.0120
    1.2603    1.2603    1.6354    1.6354    1.6547    1.6547    2.0816    2.0816    2.6909    2.6909
    2.6909    2.6909    2.8195    2.8195    2.9041    2.9041    3.3482    3.3482    3.6398    3.6399
    3.6399    3.6399    3.8246    3.8246    3.9565    3.9565    4.5650    4.5650    4.6371    4.6371
    4.6372    4.6372    4.8822    4.8822    5.8297    6.1518    6.6425    6.6426    6.6426    6.6426
    6.7054    6.7054    7.3161    7.3161    7.6165    7.6165    7.6165    7.6165    8.0495    8.0495
    8.1925    8.1925    8.3377    8.3378    8.3378    8.3378    9.2030    9.2030    9.2033    9.2033
    9.4137   10.3027   10.3027   10.8538   10.8538   11.6448   12.4471   12.4471   12.4474   12.4474
   12.6304   12.6304   13.0518   13.0904   14.2705   15.1819   15.1819   15.1824   15.1824   15.2121
   15.2370   15.5587   15.5587   15.5590   15.5590   15.9132   15.9132   15.9132   15.9132   17.0712
   17.0712   17.1937   17.1937   17.1940   17.1940   17.4188   17.4188   18.7659   18.7659   18.9991
   18.9991   18.9991   18.9991   19.0301   19.1882   19.1882   19.2720   19.2720   20.1414   20.1414
   20.5010   20.5010   20.7203   20.7203   20.8079   21.0634   21.0634   21.0639   21.0639   21.7718
   21.7718   21.9897   22.7447   22.7448   22.7448   22.7448   22.8106   24.0374   24.4009   24.4009
   24.6532   24.6532   24.7936   24.7936   24.9740   24.9740   25.0165   25.0165   25.0165   25.0165
   25.6834   25.6834   27.8723   27.8723   27.8778   28.9417   28.9417   29.0807   29.0807   30.4842
   30.4842   30.5647   30.6850   30.6850   30.6851   30.6851   31.0840   31.0840   31.0840   31.0840
   31.8919   32.8017   32.8017   35.3542   36.2356   37.9149   37.9149   37.9157   37.9157   41.0116
   41.0116   41.0116   41.0116   41.0337   41.0337   41.5453   41.5453   41.7639   41.7639   41.7641
   41.7641   42.1872   42.1872   42.2297   42.2297   42.3786   42.3786   42.6869   42.6869   42.6872
   42.6872   42.9086   42.9086   43.0085   43.0085   43.4866   43.4866   43.9337   43.9337   44.4126
   44.4126   44.9170   44.9170   44.9170   44.9170   45.2964   45.2964   45.4347   45.4347   45.4352
   45.4352   46.2011   46.2011   46.6187   46.6187   46.6442   46.6442   48.4960   48.5623   48.5623
   49.1760   49.1760   49.1789   49.1789   49.1791   49.1791   49.4158   49.4159   49.4159   49.4159
   50.1648   50.2930   51.1062   51.1062   51.4162   51.4162   52.2020   52.2020   52.2022   52.2022
   52.3521   53.5379   56.1716   56.1716   56.1718   56.1718   56.3666   57.1928   57.1928   58.2242
   58.5603   58.5603   59.9156   60.0391   61.1275   61.2703   61.2703   62.3289   62.3290   62.7861
   62.7861   62.7865   62.7866   64.5810   64.5810   64.5813   64.5813   64.9636   64.9636   65.2325
   66.8224   67.1387   67.1388   67.1388   67.1388   67.4609   67.4609   67.5887   67.5887   67.5890
   67.5890   67.9647   68.1032   68.1032   68.9595   68.9595   69.1688   69.1688   69.5742   69.5743
   70.6394   70.6394   70.8495   70.8495   70.9610   70.9610   70.9611   70.9611   72.4249   72.4249
   75.1737   75.1737   75.1738   75.1738   76.7914   76.9697   76.9697   85.7898   85.7898   86.0896
   86.0896   86.0897   86.0897   87.0852   87.0852   91.9888   91.9889   94.0647   94.0649   95.8259
   96.8129   96.8560   96.8560   98.1993   98.1994   99.2426   99.2426   99.2710   99.2710  102.4562
  102.4562  102.4593  102.4593  102.9593  103.4798  103.4798  103.4820  103.4821  104.4395  104.4396
  104.6959  104.6960  104.6969  104.6969  107.4434  107.4436  110.9540  111.0826  111.0828  111.1563
  111.1564  112.6893  112.6893  112.6914  112.6915  113.3735  113.3736  113.6377  115.1721  115.1723
  115.1724  115.1725  119.2719  120.8632  120.8632  120.8637  120.8639  122.7852  128.4744  128.4748
  133.7607  133.7607  137.6438  137.6439  137.6451  137.6454  144.9772  144.9773
  11  1  -26.3327  -25.6700  -25.6700  -25.6267  -24.9890  -24.9889  -23.7233  -23.7233  -23.1188  -23.1188
         -22.4716  -21.9216  -21.8860  -21.8859  -21.3941  -21.3941  -20.9920  -20.7310  -19.8528  -19.7395
  -19.7394  -19.6820  -19.3417  -19.3416  -17.6177  -17.4259  -16.6102  -16.6102  -16.3508  -16.3508
  -15.9738  -15.8372  -15.4421  -15.3206  -15.0770  -14.6460  -14.6460  -14.5362  -14.5362  -14.3501
  -14.3500  -13.9763  -13.9760  -13.7832  -13.7829  -13.5277  -13.5275  -13.3411  -13.3409  -12.3460
  -12.3460  -12.1155  -12.1152  -12.0265  -11.9751  -11.9747  -11.7891  -11.6923  -11.3336  -11.3336
  -11.0929  -11.0258  -10.9053  -10.4324  -10.4324   -9.5872   -9.4229   -9.4229   -8.7111   -8.7111
   -8.4122   -8.3224   -5.2335   -5.2335   -5.2312   -5.0287   -4.7913   -4.0839   -4.0839   -3.5869
   -3.1588   -3.1588   -1.9491   -1.9491   -0.1428    0.6242    0.6243    0.7355    0.7355    0.8558
    0.8560    1.6088    1.6089    1.6433    1.7340    1.7342    1.7403    1.7405    1.8943    2.2165
    2.2168    2.5905    2.6210    2.8202    2.8202    2.8698    3.0149    3.1094    3.1095    3.2492
    3.5998    3.8597    3.8599    4.3045    4.3634    4.3639    4.6559    4.6564    4.8022    5.1243
    5.1512    5.1513    5.6289    5.6290    5.8756    6.2781    6.3019    6.4248    6.5496    6.7050
    6.7051    6.7958    6.7961    7.0151    7.0483    7.5192    7.5558    7.8229    7.9231    7.9231
    7.9542    8.0471    8.0473    8.2077    8.2077    8.6489    8.6490    8.7887    8.7887    9.9031
    9.9031   10.3399   10.3400   11.0495   11.7577   11.7579   11.9668   12.0957   12.0960   12.5887
   12.5897   13.2329   13.2331   13.4125   13.7856   14.8061   14.8061   15.0289   15.5291   15.5292
   15.6178   15.6186   15.7698   15.9406   16.0360   16.1029   16.1032   16.1170   16.1170   16.1527
   16.1527   16.2851   17.0221   17.0330   17.8008   17.8011   18.2634   18.2638   18.3094   18.3099
   18.3351   18.8240   18.8241   18.9489   19.0144   19.6023   19.6394   19.6916   19.6917   20.5339
   20.5341   20.6418   20.8760   21.1277   21.1606   21.3189   21.3189   21.3667   21.3667   21.9527
   21.9530   22.1604   22.1608   22.2871   23.1379   23.1380   23.3411   23.3416   23.6517   23.6517
   23.7412   24.2728   24.2729   24.8466   25.1940   25.1940   25.2657   25.5146   25.5146   25.5358
   25.5787   26.4104   26.4106   26.9300   28.2697   28.2697   28.8927   28.8927   30.0330   30.4105
   30.4106   30.5182   30.5607   30.6026   30.6026   30.7813   30.7814   30.9238   31.1652   31.1653
   32.2788   33.1403   35.6270   35.6273   36.6998   36.7008   37.3043   38.8648   38.8652   39.1926
   39.5324   39.5326   40.1375   40.6361   40.6613   40.8968   40.8974   41.0708   41.4368   41.4368
   42.0250   42.0265   42.1803   42.1816   42.4173   42.5218   42.5568   42.5572   42.6422   42.6423
   42.8018   42.8022   43.4118   43.7929   43.9703   44.0045   44.0681   44.0689   44.2746   44.2746
   44.3122   44.3849   44.5511   44.7071   45.3722   45.3728   45.4591   46.0768   46.1959   46.1960
   46.6213   46.7469   46.7470   46.9182   46.9184   47.4067   47.6223   47.6342   47.6343   47.8063
   47.8067   49.3195   49.3196   49.3260   49.3261   49.3685   49.3690   49.5204   50.0779   50.5594
   50.5595   51.1696   51.6012   51.9267   51.9268   52.2105   52.5202   52.7834   52.7836   53.3259
   53.3263   53.8938   53.8939   53.9922   55.1970   55.1970   55.5985   56.0868   56.0869   58.2180
[...]
    5.3223    5.3223    5.3224    5.3224    5.7313    5.7313    5.8083    5.8083    6.3915    6.3915
    6.3917    6.3917    6.5305    6.5305    6.6467    6.6467    6.6467    6.6467    6.8173    6.8173
    8.3440    8.3440    8.3442    8.3442    9.0698    9.0698    9.2549    9.2549    9.2551    9.2551
   10.4550   10.4550   11.0410   11.0410   11.1646   11.1646   11.1647   11.1647   12.1466   12.1466
   12.1471   12.1471   13.7352   13.7352   13.7353   13.7353   14.4012   14.4012   14.4013   14.4013
   14.5223   14.5223   15.1592   15.1592   16.6942   16.6942   16.6943   16.6943   16.8410   16.8410
   16.8627   16.8627   16.8630   16.8630   17.1624   17.1624   17.9257   17.9257   17.9260   17.9260
   19.4116   19.4116   19.4626   19.4626   19.9583   19.9583   19.9587   19.9587   20.2585   20.2585
   20.2588   20.2588   20.4375   20.4375   21.3473   21.3473   22.0862   22.0862   22.0864   22.0864
   22.3797   22.3797   22.6076   22.6076   23.0189   23.0189   23.0191   23.0191   23.4866   23.4866
   24.2171   24.2171   24.2172   24.2172   24.3005   24.3005   24.3005   24.3005   25.3533   25.3533
   26.1723   26.1723   26.1723   26.1723   29.2052   29.2052   29.2053   29.2053   29.4774   29.4774
   29.7237   29.7237   29.7237   29.7237   30.7378   30.7378   31.8858   31.8858   31.8858   31.8858
   35.1786   35.1786   37.0334   37.0334   37.0341   37.0341   38.0819   38.0819   38.3024   38.3024
   38.5904   38.5904   38.5904   38.5904   39.6313   39.6313   39.6313   39.6313   41.3043   41.3043
   41.5057   41.5057   41.5061   41.5061   41.6600   41.6600   41.6606   41.6606   42.2466   42.2466
   42.2478   42.2478   43.5023   43.5023   43.5029   43.5029   43.8022   43.8022   44.2548   44.2548
   44.3915   44.3915   44.8320   44.8320   45.9356   45.9356   46.1476   46.1476   46.1479   46.1479
   46.2525   46.2525   46.2525   46.2525   47.9340   47.9340   47.9343   47.9343   48.3354   48.3354
   48.4087   48.4087   50.8645   50.8645   51.3528   51.3528   51.3530   51.3530   51.5309   51.5309
   51.6935   51.6935   51.6937   51.6937   51.8927   51.8927   51.8929   51.8929   53.2816   53.2816
   54.9374   54.9374   56.7678   56.7678   56.7678   56.7678   57.2478   57.2478   59.3037   59.3037
   59.3039   59.3039   59.7897   59.7897   59.8571   59.8571   59.8573   59.8573   60.1303   60.1303
   60.1306   60.1306   61.7931   61.7931   61.8760   61.8760   63.9269   63.9269   63.9276   63.9276
   64.1295   64.1295   64.1295   64.1295   66.7493   66.7494   66.9336   66.9336   66.9338   66.9338
   68.4889   68.4889   68.8778   68.8778   68.8780   68.8780   69.4960   69.4960   69.4982   69.4982
   70.1033   70.1033   70.7862   70.7862   73.0341   73.0341   73.0389   73.0389   74.1126   74.1126
   74.1134   74.1134   74.4513   74.4513   74.4524   74.4524   75.5018   75.5018   80.7754   80.7754
   80.7754   80.7754   82.3723   82.3723   82.3742   82.3743   90.1709   90.1709   92.7501   92.7501
   92.7528   92.7528   93.6909   93.6909   95.0126   95.0126   95.0132   95.0133   98.7978   98.7978
   98.8006   98.8006  101.6153  101.6153  101.6155  101.6155  102.4591  102.4591  103.9776  103.9776
  104.0733  104.0733  109.6337  109.6337  109.6348  109.6348  110.3287  110.3288  111.5017  111.5018
  111.5051  111.5051  112.3886  112.3887  112.3922  112.3923  114.2123  114.2123  114.2125  114.2125
  115.3350  115.3351  116.1726  116.1727  120.8401  120.8401  121.5861  121.5861  121.5863  121.5864
  123.8659  123.8659  123.8661  123.8662  126.4821  126.4821  131.0282  131.0282
  42  1  -25.8419  -25.8419  -25.8419  -25.8419  -24.5484  -24.5484  -24.5484  -24.5484  -22.0665  -22.0665
         -22.0665  -22.0665  -22.0664  -22.0664  -22.0664  -22.0664  -21.2546  -21.2546  -20.2242  -20.2242
  -18.3905  -18.3905  -18.3905  -18.3905  -18.3904  -18.3904  -18.3904  -18.3904  -15.0215  -15.0215
  -15.0215  -15.0215  -15.0212  -15.0212  -15.0212  -15.0212  -14.7570  -14.7570  -14.7570  -14.7570
  -13.7389  -13.7389  -13.7389  -13.7389  -13.4014  -13.4014  -13.4014  -13.4014  -13.3963  -13.3963
  -12.3337  -12.3337  -12.3337  -12.3337  -12.2496  -12.2496  -12.2496  -12.2496  -11.1744  -11.1744
  -11.1744  -11.1744   -9.6116   -9.6116   -9.6116   -9.6116   -9.6116   -9.6116   -9.6116   -9.6116
   -9.3258   -9.3258   -5.3065   -5.3065   -4.4821   -4.4821   -4.4821   -4.4821   -4.4821   -4.4821
   -4.4821   -4.4821   -0.6350   -0.6350   -0.6350   -0.6350    0.5668    0.5668    1.3333    1.3333
    1.3333    1.3333    2.4615    2.4615    2.4615    2.4615    3.0995    3.0995    3.0995    3.0995
    3.0995    3.0995    3.0995    3.0995    3.0995    3.0995    3.0995    3.0995    3.8075    3.8075
    3.8075    3.8075    3.8869    3.8869    3.8869    3.8869    4.6147    4.6147    4.6147    4.6147
    4.9718    4.9718    4.9718    4.9718    5.7173    5.7173    5.7173    5.7173    5.7173    5.7173
    5.7173    5.7173    7.0490    7.0490    7.0490    7.0490    7.2224    7.2224    8.2984    8.2984
    8.2984    8.2984    8.2985    8.2985    8.2985    8.2985    9.2420    9.2420   10.4036   10.4036
   10.4037   10.4037   10.7901   10.7901   10.7901   10.7901   10.7901   10.7901   10.7901   10.7901
   13.0711   13.0711   14.0931   14.0931   14.0931   14.0931   14.7264   14.7264   14.7264   14.7264
   14.7265   14.7265   14.7265   14.7265   14.7497   14.7497   16.3604   16.3604   17.0098   17.0098
   17.0098   17.0098   17.0102   17.0102   17.0102   17.0102   19.1015   19.1015   19.1015   19.1015
   19.2818   19.2818   19.2818   19.2818   19.3977   19.3977   20.3325   20.3325   20.3325   20.3325
   20.3328   20.3328   20.3328   20.3328   21.1871   21.1871   21.1871   21.1871   22.3076   22.3076
   22.3076   22.3076   23.0974   23.0974   23.0974   23.0974   23.0974   23.0974   23.0974   23.0974
   23.2400   23.2400   23.2400   23.2400   24.9371   24.9371   25.8061   25.8061   25.8061   25.8061
   25.8678   25.8678   25.8678   25.8678   29.6170   29.6170   29.6170   29.6170   29.6170   29.6170
   29.6170   29.6170   29.6747   29.6747   29.6747   29.6747   30.0363   30.0363   35.0570   35.0570
   35.0570   35.0570   35.8943   35.8943   38.3107   38.3107   38.3107   38.3107   38.3113   38.3113
   38.3113   38.3113   38.8139   38.8139   39.1808   39.1808   39.1808   39.1808   40.6901   40.6901
   40.6901   40.6901   41.8833   41.8833   41.8833   41.8833   43.1559   43.1559   43.1559   43.1559
   43.1559   43.1559   43.1559   43.1559   43.2605   43.2605   43.2605   43.2605   43.5597   43.5597
   43.5597   43.5597   43.8896   43.8896   43.8896   43.8896   44.0153   44.0153   46.2615   46.2615
   46.2615   46.2615   49.0053   49.0053   49.0053   49.0053   49.6207   49.6207   49.6207   49.6207
   49.6208   49.6208   49.6208   49.6208   49.6786   49.6786   49.6786   49.6786   52.4403   52.4403
   52.7228   52.7228   52.7228   52.7228   52.7229   52.7229   52.7229   52.7229   56.4182   56.4182
   56.4183   56.4183   56.4185   56.4185   56.4185   56.4185   56.8981   56.8981   56.8982   56.8982
   57.9939   57.9939   57.9940   57.9940   58.7263   58.7263   59.9963   59.9963   60.5752   60.5752
   60.5752   60.5752   60.5757   60.5757   60.5757   60.5757   60.5900   60.5900   62.6772   62.6772
   62.6772   62.6772   67.4217   67.4217   68.0169   68.0169   68.0170   68.0170   68.4526   68.4526
   68.4526   68.4526   68.4531   68.4531   68.4532   68.4532   70.4884   70.4884   70.4885   70.4885
   70.9720   70.9720   70.9720   70.9720   71.2451   71.2451   71.2451   71.2451   71.2453   71.2453
   71.2453   71.2453   78.3111   78.3111   78.3111   78.3112   78.5730   78.5730   78.5730   78.5730
   79.2585   79.2585   89.3908   89.3909   89.3909   89.3909   90.9704   90.9704   90.9705   90.9705
   90.9706   90.9706   90.9706   90.9706   94.4187   94.4187   94.4188   94.4188   97.3352   97.3352
  100.4922  100.4922  100.4923  100.4923  103.1761  103.1761  103.1761  103.1761  103.1787  103.1788
  103.1788  103.1788  107.0498  107.0498  107.0498  107.0499  108.0676  108.0677  108.0678  108.0678
  112.1259  112.1259  114.6530  114.6530  114.6534  114.6535  115.1950  115.1951  115.1953  115.1953
  115.1962  115.1964  115.1965  115.1966  120.0616  120.0616  120.0617  120.0617  122.9997  122.9998
  124.2719  124.2720  124.2721  124.2721  124.2725  124.2726  124.2728  124.2729
  43  1  -26.0054  -26.0054  -25.3537  -25.3537  -25.3537  -25.3537  -23.4410  -23.4410  -23.4410  -23.4410
         -22.2135  -22.2135  -21.6511  -21.6511  -21.6510  -21.6510  -20.8345  -20.8345  -19.8219  -19.8219
  -19.5594  -19.5594  -19.5592  -19.5592  -17.5153  -17.5153  -16.4819  -16.4819  -16.4819  -16.4819
  -15.9301  -15.9301  -15.2032  -15.2032  -14.4519  -14.4519  -14.4518  -14.4518  -13.9284  -13.9284
  -13.8779  -13.8779  -13.8776  -13.8776  -13.4404  -13.4404  -13.4401  -13.4401  -13.1651  -13.1651
  -13.1651  -13.1651  -12.0475  -12.0475  -12.0471  -12.0471  -11.7357  -11.7357  -11.0618  -11.0618
  -11.0164  -11.0164  -11.0163  -11.0163   -9.6936   -9.6936   -9.4291   -9.4291   -9.4291   -9.4291
   -8.7345   -8.7345   -5.5393   -5.5393   -5.0365   -5.0365   -5.0365   -5.0365   -4.1897   -4.1897
   -2.5770   -2.5770   -2.5770   -2.5770    1.0071    1.0071    1.0071    1.0071    1.2893    1.2893
    1.2895    1.2895    1.6665    1.6665    2.0307    2.0307    2.0310    2.0310    2.8777    2.8777
    3.0015    3.0015    3.0115    3.0115    3.3133    3.3133    3.3134    3.3134    3.6431    3.6431
    4.2019    4.2019    4.2019    4.2019    4.5318    4.5318    4.5640    4.5640    4.5645    4.5645
    5.3223    5.3223    5.3224    5.3224    5.7313    5.7313    5.8083    5.8083    6.3915    6.3915
    6.3917    6.3917    6.5305    6.5305    6.6467    6.6467    6.6467    6.6467    6.8173    6.8173
    8.3440    8.3440    8.3442    8.3442    9.0698    9.0698    9.2549    9.2549    9.2551    9.2551
   10.4550   10.4550   11.0410   11.0410   11.1646   11.1646   11.1647   11.1647   12.1466   12.1466
   12.1471   12.1471   13.7352   13.7352   13.7353   13.7353   14.4012   14.4012   14.4013   14.4013
   14.5223   14.5223   15.1592   15.1592   16.6942   16.6942   16.6943   16.6943   16.8410   16.8410
   16.8627   16.8627   16.8630   16.8630   17.1624   17.1624   17.9257   17.9257   17.9260   17.9260
   19.4116   19.4116   19.4626   19.4626   19.9583   19.9583   19.9587   19.9587   20.2585   20.2585
   20.2588   20.2588   20.4375   20.4375   21.3473   21.3473   22.0862   22.0862   22.0864   22.0864
   22.3797   22.3797   22.6076   22.6076   23.0189   23.0189   23.0191   23.0191   23.4866   23.4866
   24.2171   24.2171   24.2172   24.2172   24.3005   24.3005   24.3005   24.3005   25.3533   25.3533
   26.1723   26.1723   26.1723   26.1723   29.2052   29.2052   29.2053   29.2053   29.4774   29.4774
   29.7237   29.7237   29.7237   29.7237   30.7378   30.7378   31.8858   31.8858   31.8858   31.8858
   35.1786   35.1786   37.0334   37.0334   37.0341   37.0341   38.0819   38.0819   38.3024   38.3024
   38.5904   38.5904   38.5904   38.5904   39.6313   39.6313   39.6313   39.6313   41.3043   41.3043
   41.5057   41.5057   41.5061   41.5061   41.6600   41.6600   41.6606   41.6606   42.2466   42.2466
   42.2478   42.2478   43.5023   43.5023   43.5029   43.5029   43.8022   43.8022   44.2548   44.2548
   44.3915   44.3915   44.8320   44.8320   45.9356   45.9356   46.1476   46.1476   46.1479   46.1479
   46.2525   46.2525   46.2525   46.2525   47.9340   47.9340   47.9343   47.9343   48.3354   48.3354
   48.4087   48.4087   50.8645   50.8645   51.3528   51.3528   51.3530   51.3530   51.5309   51.5309
   51.6935   51.6935   51.6937   51.6937   51.8927   51.8927   51.8929   51.8929   53.2816   53.2816
   54.9374   54.9374   56.7678   56.7678   56.7678   56.7678   57.2478   57.2478   59.3037   59.3037
   59.3039   59.3039   59.7897   59.7897   59.8571   59.8571   59.8573   59.8573   60.1303   60.1303
   60.1306   60.1306   61.7931   61.7931   61.8760   61.8760   63.9269   63.9269   63.9276   63.9276
   64.1295   64.1295   64.1295   64.1295   66.7493   66.7494   66.9336   66.9336   66.9338   66.9338
   68.4889   68.4889   68.8778   68.8778   68.8780   68.8780   69.4960   69.4960   69.4982   69.4982
   70.1033   70.1033   70.7862   70.7862   73.0341   73.0341   73.0389   73.0389   74.1126   74.1126
   74.1134   74.1134   74.4513   74.4513   74.4524   74.4524   75.5018   75.5018   80.7754   80.7754
   80.7754   80.7754   82.3723   82.3723   82.3742   82.3743   90.1709   90.1709   92.7501   92.7501
   92.7528   92.7528   93.6909   93.6909   95.0126   95.0126   95.0132   95.0133   98.7978   98.7978
   98.8006   98.8006  101.6153  101.6153  101.6155  101.6155  102.4591  102.4591  103.9776  103.9776
  104.0733  104.0733  109.6337  109.6337  109.6348  109.6348  110.3287  110.3288  111.5017  111.5018
  111.5051  111.5051  112.3886  112.3887  112.3922  112.3923  114.2123  114.2123  114.2125  114.2125
  115.3350  115.3351  116.1726  116.1727  120.8401  120.8401  121.5861  121.5861  121.5863  121.5864
  123.8659  123.8659  123.8661  123.8662  126.4821  126.4821  131.0282  131.0282
  44  1  -25.8419  -25.8419  -25.8419  -25.8419  -24.5485  -24.5485  -24.5485  -24.5485  -22.0664  -22.0664
         -22.0664  -22.0664  -22.0664  -22.0664  -22.0664  -22.0664  -21.2546  -21.2546  -20.2240  -20.2240
  -18.3905  -18.3905  -18.3905  -18.3905  -18.3905  -18.3905  -18.3905  -18.3905  -15.0212  -15.0212
  -15.0212  -15.0212  -15.0212  -15.0212  -15.0212  -15.0212  -14.7572  -14.7572  -14.7572  -14.7572
  -13.7389  -13.7389  -13.7389  -13.7389  -13.4012  -13.4012  -13.4011  -13.4011  -13.3966  -13.3966
  -12.3334  -12.3334  -12.3334  -12.3334  -12.2496  -12.2496  -12.2496  -12.2496  -11.1748  -11.1748
  -11.1748  -11.1748   -9.6116   -9.6116   -9.6116   -9.6116   -9.6116   -9.6116   -9.6116   -9.6116
   -9.3258   -9.3258   -5.3065   -5.3065   -4.4821   -4.4821   -4.4821   -4.4821   -4.4821   -4.4821
   -4.4821   -4.4821   -0.6350   -0.6350   -0.6350   -0.6350    0.5670    0.5670    1.3337    1.3337
    1.3337    1.3337    2.4615    2.4615    2.4615    2.4615    3.0994    3.0994    3.0994    3.0994
    3.0994    3.0994    3.0994    3.0994    3.0994    3.0994    3.0994    3.0994    3.8075    3.8075
    3.8075    3.8075    3.8863    3.8863    3.8863    3.8863    4.6149    4.6149    4.6149    4.6149
    4.9718    4.9718    4.9718    4.9718    5.7173    5.7173    5.7173    5.7173    5.7173    5.7173
    5.7173    5.7173    7.0492    7.0492    7.0492    7.0492    7.2225    7.2225    8.2983    8.2983
    8.2983    8.2983    8.2983    8.2983    8.2983    8.2983    9.2422    9.2422   10.4035   10.4035
   10.4035   10.4035   10.7903   10.7903   10.7903   10.7903   10.7903   10.7903   10.7903   10.7903
   13.0700   13.0700   14.0931   14.0931   14.0931   14.0931   14.7268   14.7268   14.7268   14.7268
   14.7268   14.7268   14.7268   14.7268   14.7505   14.7505   16.3604   16.3604   17.0098   17.0098
   17.0098   17.0098   17.0098   17.0098   17.0098   17.0098   19.1017   19.1017   19.1017   19.1017
   19.2815   19.2815   19.2815   19.2815   19.3982   19.3982   20.3327   20.3327   20.3327   20.3327
   20.3327   20.3327   20.3327   20.3327   21.1870   21.1870   21.1870   21.1870   22.3078   22.3078
   22.3078   22.3078   23.0974   23.0974   23.0974   23.0974   23.0974   23.0974   23.0974   23.0974
   23.2397   23.2397   23.2397   23.2397   24.9374   24.9374   25.8060   25.8060   25.8060   25.8060
   25.8678   25.8678   25.8678   25.8678   29.6170   29.6170   29.6170   29.6170   29.6170   29.6170
   29.6170   29.6170   29.6747   29.6747   29.6747   29.6747   30.0361   30.0361   35.0571   35.0571
   35.0571   35.0571   35.8944   35.8944   38.3112   38.3112   38.3112   38.3112   38.3112   38.3112
   38.3112   38.3112   38.8130   38.8130   39.1807   39.1807   39.1807   39.1807   40.6897   40.6897
   40.6897   40.6897   41.8840   41.8840   41.8840   41.8840   43.1555   43.1555   43.1555   43.1555
   43.1555   43.1555   43.1555   43.1555   43.2606   43.2606   43.2607   43.2607   43.5583   43.5583
   43.5583   43.5583   43.8905   43.8905   43.8905   43.8905   44.0157   44.0157   46.2621   46.2621
   46.2621   46.2621   49.0051   49.0051   49.0051   49.0051   49.6207   49.6207   49.6207   49.6207
   49.6207   49.6207   49.6207   49.6207   49.6786   49.6786   49.6786   49.6786   52.4406   52.4406
   52.7227   52.7227   52.7227   52.7227   52.7228   52.7228   52.7228   52.7228   56.4183   56.4183
   56.4183   56.4183   56.4183   56.4183   56.4183   56.4183   56.8983   56.8983   56.8983   56.8983
   57.9941   57.9941   57.9941   57.9941   58.7267   58.7267   59.9967   59.9967   60.5755   60.5755
   60.5755   60.5755   60.5755   60.5755   60.5755   60.5755   60.5885   60.5885   62.6768   62.6768
   62.6768   62.6768   67.4213   67.4213   68.0181   68.0181   68.0181   68.0181   68.4527   68.4528
   68.4528   68.4528   68.4528   68.4528   68.4528   68.4528   70.4852   70.4852   70.4853   70.4853
   70.9736   70.9736   70.9736   70.9737   71.2451   71.2451   71.2452   71.2452   71.2452   71.2452
   71.2452   71.2452   78.3115   78.3115   78.3115   78.3116   78.5749   78.5750   78.5750   78.5750
   79.2589   79.2589   89.3885   89.3885   89.3885   89.3885   90.9717   90.9717   90.9717   90.9717
   90.9717   90.9718   90.9718   90.9719   94.4192   94.4192   94.4192   94.4193   97.3382   97.3382
  100.4914  100.4914  100.4915  100.4915  103.1763  103.1763  103.1763  103.1763  103.1764  103.1764
  103.1764  103.1764  107.0492  107.0492  107.0492  107.0493  108.0646  108.0647  108.0648  108.0648
  112.1212  112.1213  114.6563  114.6564  114.6568  114.6569  115.1953  115.1954  115.1954  115.1955
  115.1962  115.1963  115.1966  115.1966  120.0623  120.0624  120.0624  120.0625  123.0003  123.0004
  124.2732  124.2733  124.2733  124.2734  124.2735  124.2736  124.2736  124.2736
siesta: Fermi energy =      -7.020283 eV

siesta: Program's energy decomposition (eV):
siesta: Ebs     =     -2319.094461
siesta: Eions   =      9434.507561
siesta: Ena     =      2217.164981
siesta: Ekin    =      3924.286437
siesta: Enl     =      -381.598914
siesta: Eso     =         0.000000
siesta: Edftu   =         0.000000
siesta: DEna    =      -203.478190
siesta: DUscf   =        17.820102
siesta: DUext   =         0.000000
siesta: Exc     =     -1715.464689
siesta: eta*DQ  =         0.000000
siesta: Emadel  =         0.000000
siesta: Emeta   =         0.000000
siesta: Emolmec =        -5.791920
siesta: Ekinion =         0.000000
siesta: Eharris =     -5581.569755
siesta: Etot    =     -5581.569755
siesta: FreeEng =     -5581.578304

siesta: Final energy (eV):
siesta:  Band Struct. =   -2319.094461
siesta:       Kinetic =    3924.286437
siesta:       Hartree =    1181.183224
siesta:       Edftu   =       0.000000
siesta:       Eso     =       0.000000
siesta:    Ext. field =       0.000000
siesta:   Exch.-corr. =   -1715.464689
siesta:  Ion-electron =   -6371.273540
siesta:       Ion-ion =   -2594.509267
siesta:       Ekinion =       0.000000
siesta:         Total =   -5581.569755
siesta:         Fermi =      -7.020283

siesta: Stress tensor (static) (eV/Ang**3):
siesta:    -0.081124   -0.000077    0.000000
siesta:    -0.000077   -0.081213    0.000000
siesta:     0.000000    0.000000   -0.041478

siesta: Cell volume =        279.463092 Ang**3

siesta: Pressure (static):
siesta:                Solid            Molecule  Units
siesta:           0.00073994          0.00073998  Ry/Bohr**3
siesta:           0.06793841          0.06794232  eV/Ang**3
siesta:         108.85050622        108.85676981  kBar
(Free)E+ p_basis*V_orbitals  =       -5548.048499
(Free)Eharris+ p_basis*V_orbitals  =       -5548.048499

cite: Please see "graphite_scf.bib" for an exhaustive BiBTeX file.
cite: Please clearly indicate Siesta version in published work: 4.1.5
cite: This calculation has made use of the following articles
cite: which are encouraged to be cited in a published work.
        Primary SIESTA paper
          DOI: www.doi.org/10.1088/0953-8984/14/11/302

>> End of run:   1-NOV-2022  16:39:51
Job completed
