Siesta Version  : 4.1.5
Architecture    : x86_64-unknown-linux-gnu--unknown
Compiler version: GNU Fortran (GCC) 11.3.0
Compiler flags  : mpif90 -g -O2 -fallow-argument-mismatch
PP flags        : -DMPI -DFC_HAVE_FLUSH -DFC_HAVE_ABORT
Libraries       :  -I/global/software/sl-7.x86_64/modules/intel/2020.4.304/mkl/include  /globall/software/sl-7.x86_64/modules/intel/2020.4.304/mkl/lib/intel64/libmkl_scalapack_lp64.a -Wl,--start-group /global/software/sl-7.x86_64/modules/intel/2020.4.304/mkl/lib/intel64/libmkl_intel_lp64.a /global/software/sl-7.x86_64/modules/intel/2020.4.304/mkl/lib/intel64/libmkl_sequential.a /global/software/sl-7.x86_64/modules/intel/2020.4.304/mkl/lib/intel64/libmkl_core.a /global/software/sl-7.x86_64/modules/intel/2020.4.304/mkl/lib/intel64/libmkl_blacs_openmpi_lp64.a -Wl,--end-group -lpthread -lm -ldl
PARALLEL version

* Running on 4 nodes in parallel
>> Start of run:   9-NOV-2022  16:36:01

                           ***********************       
                           *  WELCOME TO SIESTA  *       
                           ***********************       

reinit: Reading from standard input
reinit: Dumped input in INPUT_TMP.28132
************************** Dump of input data file ****************************
SystemName LiC6_scf
SystemLabel LiC6_scf
NumberOfAtoms   7
NumberOfSpecies 2
%block ChemicalSpeciesLabel
1  3   Li-gga
2  6   C-gga
%endblock ChemicalSpeciesLabel
PAO.BasisSize  SZ
PAO.EnergyShift  10 meV
%block PS.Lmax
C-gga   2
Li-gga  2
%endblock PS.Lmax
LatticeConstant 1.000000 Ang
%block LatticeVectors
	4.3161300000	0.0000000000	0.0000000000
	-2.1580650000	3.7378782260	0.0000000000
	0.0000000000	0.0000000000	5.1058068000
%endblock LatticeVectors
AtomicCoordinatesFormat Ang
%block AtomicCoordinatesAndAtomicSpecies
	0.00000000	0.00000000	0.00000000	2
	-0.70288177	1.21742694	2.55290340	1
	-1.45518323	2.52045129	2.55290340	1
	1.45518323	2.52045129	2.55290340	1
	0.70288177	1.21742694	2.55290340	1
	1.40576354	0.00000000	2.55290340	1
	2.91036646	0.00000000	2.55290340	1
%endblock AtomicCoordinatesAndAtomicSpecies
Kgrid_NoTRS  T
%block kgrid_MonkhorstPack
3       0       0       0.0
0       3       0       0.0
0       0       3       0.0
%endblock kgrid_MonkhorstPack
AtomCoorFormatOut Ang
BlockSize 1
#ProcessorY 12
Diag.ParallelOverK   T
Diag.DivideAndConquer F
MeshCutoff   300 Ry
SCF.FreeE.Tolerance 1E-3 eV
SCF.EDM.Tolerance   5E-3 eV
DM.Tolerance  1E-3
DM.Require.Energy.Convergence T
DM.NumberPulay 4
XC.Functional GGA
XC.Authors    PBE
UseSaveData        F
MD.TypeOfRun       CG
MD.VariableCell    F
MD.NumCGsteps      00
MD.MaxCGDispl      0.200000 Bohr
MD.MaxStressTol    1.000000 GPa
MD.MaxForceTol     0.010000 eV/Ang
WriteMDHistory T
WriteCoorStep T
WriteForces T
WriteCoorStep    T
WriteEigenValues T
WriteDM    F
MM.UnitsDistance Ang  # what this program prints out DO NOT CHANGE
MM.UnitsEnergy    eV  # what this program prints out DO NOT CHANGE
MM.Grimme.S6     0.75 # Grimme-paper for PBE (correct for your functional)
MM.Grimme.D     20.   # Grimme-paper (correct for your functional)
%block MM.Potentials
  1   1 Grimme     16.69      1.650 # Li, 10.1002/jcc.20495
  1   2 Grimme     17.40      2.277 # Li / C
  2   2 Grimme     18.14      2.904 # C, 10.1002/jcc.20495
%endblock MM.Potentials
#%block ProjectedDensityOfStates
# -200.0  120.0  0.4  12800  eV
#%endblock ProjectedDensityOfStates
************************** End of input data file *****************************

reinit: -----------------------------------------------------------------------
reinit: System Name: LiC6_scf
reinit: -----------------------------------------------------------------------
reinit: System Label: LiC6_scf
reinit: -----------------------------------------------------------------------
Reading two-body potentials
Grimme - two-body potential between 1 and 1
Grimme - two-body potential between 1 and 2
Grimme - two-body potential between 2 and 2

initatom: Reading input for the pseudopotentials and atomic orbitals ----------
Species number:   1 Atomic number:    3 Label: Li-gga
Species number:   2 Atomic number:    6 Label: C-gga

Ground state valence configuration:   2s01
Reading pseudopotential information in formatted form from Li-gga.psf

Valence configuration for pseudopotential generation:
2s( 1.00) rc: 2.28
2p( 0.00) rc: 2.28
3d( 0.00) rc: 2.59
4f( 0.00) rc: 2.59
Ground state valence configuration:   2s02  2p02
Reading pseudopotential information in formatted form from C-gga.psf

Valence configuration for pseudopotential generation:
2s( 2.00) rc: 1.56
2p( 2.00) rc: 1.56
3d( 0.00) rc: 1.56
4f( 0.00) rc: 1.56
relmxkb: Read Max KB Ang. Momentum=    2 for species C-gga
relmxkb: Read Max KB Ang. Momentum=    2 for species Li-gga

<basis_specs>
===============================================================================
Li-gga               Z=   3    Mass=  6.9400        Charge= 0.17977+309
Lmxo=0 Lmxkb= 2    BasisType=split      Semic=F
L=0  Nsemic=0  Cnfigmx=2
          i=1  nzeta=1  polorb=0  (2s)
            splnorm:   0.15000    
               vcte:    0.0000    
               rinn:    0.0000    
               qcoe:    0.0000    
               qyuk:    0.0000    
               qwid:   0.10000E-01
                rcs:    0.0000    
            lambdas:    1.0000    
-------------------------------------------------------------------------------
L=0  Nkbl=1  erefs: 0.17977+309
L=1  Nkbl=1  erefs: 0.17977+309
L=2  Nkbl=1  erefs: 0.17977+309
===============================================================================
</basis_specs>

atom: Called for Li-gga                (Z =   3)

read_vps: Pseudopotential generation method:
read_vps: ATM 3.2.2 Troullier-Martins                       
Valence charge for ps generation:    1.00000

read_vps: Pseudopotential includes a core correction:
read_vps: Pseudo-core for xc-correction

xc_check: Exchange-correlation functional:
xc_check: GGA Perdew, Burke & Ernzerhof 1996
V l=0 = -2*Zval/r beyond r=  2.2278
V l=1 = -2*Zval/r beyond r=  2.2278
V l=2 = -2*Zval/r beyond r=  2.5245
All V_l potentials equal beyond r=  2.4622
This should be close to max(r_c) in ps generation
All pots = -2*Zval/r beyond r=  2.5245

VLOCAL1: 99.0% of the norm of Vloc inside      7.160 Ry
VLOCAL1: 99.9% of the norm of Vloc inside     16.318 Ry
atom: Maximum radius for 4*pi*r*r*local-pseudopot. charge    2.86079
atom: Maximum radius for r*vlocal+2*Zval:    2.43160
GHOST: No ghost state for L =  0
GHOST: No ghost state for L =  1
GHOST: No ghost state for L =  2

KBgen: Kleinman-Bylander projectors: 
   l= 0   rc=  2.654023   el= -0.211234   Ekb=  1.742119   kbcos=  0.228463
   l= 1   rc=  2.721230   el= -0.080095   Ekb= -1.122375   kbcos= -0.147941
   l= 2   rc=  2.825246   el=  0.002001   Ekb= -0.207076   kbcos= -0.031965

KBgen: Total number of Kleinman-Bylander projectors:    9
atom: -------------------------------------------------------------------------

atom: SANKEY-TYPE ORBITALS:

SPLIT: Orbitals with angular momentum L= 0

SPLIT: Basis orbitals for state 2s

SPLIT: PAO cut-off radius determined from an
SPLIT: energy shift=  0.000735 Ry

   izeta = 1
                 lambda =    1.000000
                     rc =   11.897381
                 energy =   -0.210580
                kinetic =    0.143382
    potential(screened) =   -0.353962
       potential(ionic) =   -0.533453
atom: Total number of Sankey-type orbitals:  1

atm_pop: Valence configuration (for local Pseudopot. screening):
 2s( 1.00)                                                            
Vna: chval, zval:    1.00000   1.00000

Vna:  Cut-off radius for the neutral-atom potential:  11.897381
comcore: Pseudo-core radius Rcore=  3.450946

atom: _________________________________________________________________________

<basis_specs>
===============================================================================
C-gga                Z=   6    Mass=  12.010        Charge= 0.17977+309
Lmxo=1 Lmxkb= 2    BasisType=split      Semic=F
L=0  Nsemic=0  Cnfigmx=2
          i=1  nzeta=1  polorb=0  (2s)
            splnorm:   0.15000    
               vcte:    0.0000    
               rinn:    0.0000    
               qcoe:    0.0000    
               qyuk:    0.0000    
               qwid:   0.10000E-01
                rcs:    0.0000    
            lambdas:    1.0000    
L=1  Nsemic=0  Cnfigmx=2
          i=1  nzeta=1  polorb=0  (2p)
            splnorm:   0.15000    
               vcte:    0.0000    
               rinn:    0.0000    
               qcoe:    0.0000    
               qyuk:    0.0000    
               qwid:   0.10000E-01
                rcs:    0.0000    
            lambdas:    1.0000    
-------------------------------------------------------------------------------
L=0  Nkbl=1  erefs: 0.17977+309
L=1  Nkbl=1  erefs: 0.17977+309
L=2  Nkbl=1  erefs: 0.17977+309
===============================================================================
</basis_specs>

atom: Called for C-gga                 (Z =   6)

read_vps: Pseudopotential generation method:
read_vps: ATM 3.2.2 Troullier-Martins                       
Valence charge for ps generation:    4.00000

xc_check: Exchange-correlation functional:
xc_check: GGA Perdew, Burke & Ernzerhof 1996
V l=0 = -2*Zval/r beyond r=  1.5227
V l=1 = -2*Zval/r beyond r=  1.5227
V l=2 = -2*Zval/r beyond r=  1.5227
All V_l potentials equal beyond r=  1.4851
This should be close to max(r_c) in ps generation
All pots = -2*Zval/r beyond r=  1.5227

VLOCAL1: 99.0% of the norm of Vloc inside     19.682 Ry
VLOCAL1: 99.9% of the norm of Vloc inside     44.856 Ry
atom: Maximum radius for 4*pi*r*r*local-pseudopot. charge    1.79142
atom: Maximum radius for r*vlocal+2*Zval:    1.54183
GHOST: No ghost state for L =  0
GHOST: No ghost state for L =  1
GHOST: No ghost state for L =  2

KBgen: Kleinman-Bylander projectors: 
   l= 0   rc=  1.661951   el= -1.010689   Ekb=  5.289847   kbcos=  0.316429
   l= 1   rc=  1.661951   el= -0.388490   Ekb= -4.102504   kbcos= -0.351025
   l= 2   rc=  1.747182   el=  0.001971   Ekb= -1.006005   kbcos= -0.008530

KBgen: Total number of Kleinman-Bylander projectors:    9
atom: -------------------------------------------------------------------------

atom: SANKEY-TYPE ORBITALS:

SPLIT: Orbitals with angular momentum L= 0

SPLIT: Basis orbitals for state 2s

SPLIT: PAO cut-off radius determined from an
SPLIT: energy shift=  0.000735 Ry

   izeta = 1
                 lambda =    1.000000
                     rc =    5.948690
                 energy =   -1.010099
                kinetic =    0.827121
    potential(screened) =   -1.837220
       potential(ionic) =   -5.392783

SPLIT: Orbitals with angular momentum L= 1

SPLIT: Basis orbitals for state 2p

SPLIT: PAO cut-off radius determined from an
SPLIT: energy shift=  0.000735 Ry

   izeta = 1
                 lambda =    1.000000
                     rc =    7.638387
                 energy =   -0.387843
                kinetic =    2.314739
    potential(screened) =   -2.702582
       potential(ionic) =   -6.092371
atom: Total number of Sankey-type orbitals:  4

atm_pop: Valence configuration (for local Pseudopot. screening):
 2s( 2.00)                                                            
 2p( 2.00)                                                            
Vna: chval, zval:    4.00000   4.00000

Vna:  Cut-off radius for the neutral-atom potential:   7.638387

atom: _________________________________________________________________________

prinput: Basis input ----------------------------------------------------------

PAO.BasisType split     

%block ChemicalSpeciesLabel
    1    3 Li-gga                  # Species index, atomic number, species label
    2    6 C-gga                   # Species index, atomic number, species label
%endblock ChemicalSpeciesLabel

%block PAO.Basis                 # Define Basis set
Li-gga                1                    # Species label, number of l-shells
 n=2   0   1                         # n, l, Nzeta 
  11.897   
   1.000   
C-gga                 2                    # Species label, number of l-shells
 n=2   0   1                         # n, l, Nzeta 
   5.949   
   1.000   
 n=2   1   1                         # n, l, Nzeta 
   7.638   
   1.000   
%endblock PAO.Basis

prinput: ----------------------------------------------------------------------

coor:   Atomic-coordinates input format  =     Cartesian coordinates
coor:                                          (in Angstroms)

siesta: Atomic coordinates (Bohr) and species
siesta:      0.00000   0.00000   0.00000  2        1
siesta:     -1.32825   2.30060   4.82429  1        2
siesta:     -2.74990   4.76296   4.82429  1        3
siesta:      2.74990   4.76296   4.82429  1        4
siesta:      1.32825   2.30060   4.82429  1        5
siesta:      2.65651   0.00000   4.82429  1        6
siesta:      5.49980   0.00000   4.82429  1        7

siesta: System type = bulk      

initatomlists: Number of atoms, orbitals, and projectors:      7    10    63

siesta: ******************** Simulation parameters ****************************
siesta:
siesta: The following are some of the parameters of the simulation.
siesta: A complete list of the parameters used, including default values,
siesta: can be found in file out.fdf
siesta:
redata: Spin configuration                          = none
redata: Number of spin components                   = 1
redata: Time-Reversal Symmetry                      = T
redata: Spin spiral                                 = F
redata: Long output                                 =   F
redata: Number of Atomic Species                    =        2
redata: Charge density info will appear in .RHO file
redata: Write Mulliken Pop.                         = NO
redata: Matel table size (NRTAB)                    =     1024
redata: Mesh Cutoff                                 =   300.0000 Ry
redata: Net charge of the system                    =     0.0000 |e|
redata: Min. number of SCF Iter                     =        0
redata: Max. number of SCF Iter                     =     1000
redata: SCF convergence failure will abort job
redata: SCF mix quantity                            = Hamiltonian
redata: Mix DM or H after convergence               =   F
redata: Recompute H after scf cycle                 =   F
redata: Mix DM in first SCF step                    =   T
redata: Write Pulay info on disk                    =   F
redata: New DM Occupancy tolerance                  = 0.000000000001
redata: No kicks to SCF
redata: DM Mixing Weight for Kicks                  =     0.5000
redata: Require Harris convergence for SCF          =   F
redata: Harris energy tolerance for SCF             =     0.000100 eV
redata: Require DM convergence for SCF              =   T
redata: DM tolerance for SCF                        =     0.001000
redata: Require EDM convergence for SCF             =   F
redata: EDM tolerance for SCF                       =     0.005000 eV
redata: Require H convergence for SCF               =   T
redata: Hamiltonian tolerance for SCF               =     0.001000 eV
redata: Require (free) Energy convergence for SCF   =   T
redata: (free) Energy tolerance for SCF             =     0.001000 eV
redata: Using Saved Data (generic)                  =   F
redata: Use continuation files for DM               =   F
redata: Neglect nonoverlap interactions             =   F
redata: Method of Calculation                       = Diagonalization
redata: Electronic Temperature                      =   299.9869 K
redata: Fix the spin of the system                  =   F
redata: Dynamics option                             = Single-point calculation
mix.SCF: Pulay mixing                            = Pulay
mix.SCF:    Variant                              = stable
mix.SCF:    History steps                        = 4
mix.SCF:    Linear mixing weight                 =     0.250000
mix.SCF:    Mixing weight                        =     0.250000
mix.SCF:    SVD condition                        = 0.1000E-07
redata: ***********************************************************************

%block SCF.Mixers
  Pulay
%endblock SCF.Mixers

%block SCF.Mixer.Pulay
  # Mixing method
  method pulay
  variant stable

  # Mixing options
  weight 0.2500
  weight.linear 0.2500
  history 4
%endblock SCF.Mixer.Pulay

DM_history_depth set to one: no extrapolation allowed by default for geometry relaxation
Size of DM history Fstack: 1
Total number of electrons:    10.000000
Total ionic charge:    10.000000

* ProcessorY, Blocksize:    2   1


* Orbital distribution balance (max,min):     3     2

 Kpoints in:           18 . Kpoints trimmed:           14

siesta: k-grid: Number of k-points =    14
siesta: k-grid: Cutoff (effective) =     6.474 Ang
siesta: k-grid: Supercell and displacements
siesta: k-grid:    3   0   0      0.000
siesta: k-grid:    0   3   0      0.000
siesta: k-grid:    0   0   3      0.000

diag: Algorithm                                     = Expert
diag: Parallel over k                               =   T
diag: Use parallel 2D distribution                  =   T
diag: Parallel block-size                           = 1
diag: Parallel distribution                         =     2 x     2
diag: Used triangular part                          = Lower
diag: Absolute tolerance                            =  0.100E-15
diag: Orthogonalization factor                      =  0.100E-05
diag: Memory factor                                 =  1.0000

superc: Internal auxiliary supercell:     9 x     9 x     5  =     405
superc: Number of atoms, orbitals, and projectors:   2835   4050  25515


ts: **************************************************************
ts: Save H and S matrices                           =    F
ts: Save DM and EDM matrices                        =    F
ts: Only save the overlap matrix S                  =    F
ts: **************************************************************

************************ Begin: TS CHECKS AND WARNINGS ************************
************************ End: TS CHECKS AND WARNINGS **************************


                     ====================================
                        Single-point calculation
                     ====================================

outcoor: Atomic coordinates (Ang):                          
    0.00000000    0.00000000    0.00000000   2       1  C-gga
   -0.70288177    1.21742694    2.55290340   1       2  Li-gga
   -1.45518323    2.52045129    2.55290340   1       3  Li-gga
    1.45518323    2.52045129    2.55290340   1       4  Li-gga
    0.70288177    1.21742694    2.55290340   1       5  Li-gga
    1.40576354    0.00000000    2.55290340   1       6  Li-gga
    2.91036646    0.00000000    2.55290340   1       7  Li-gga

superc: Internal auxiliary supercell:     9 x     9 x     5  =     405
superc: Number of atoms, orbitals, and projectors:   2835   4050  25515

outcell: Unit cell vectors (Ang):
        4.316130    0.000000    0.000000
       -2.158065    3.737878    0.000000
        0.000000    0.000000    5.105807

outcell: Cell vector modules (Ang)   :    4.316130    4.316130    5.105807
outcell: Cell angles (23,13,12) (deg):     90.0000     90.0000    120.0000
outcell: Cell volume (Ang**3)        :     82.3728
<dSpData1D:S at geom step 0
  <sparsity:sparsity for geom step 0
    nrows_g=10 nrows=3 sparsity=32.7800 nnzs=3278, refcount: 7>
  <dData1D:(new from dSpData1D) n=3278, refcount: 1>
refcount: 1>
new_DM -- step:     1
Initializing Density Matrix...
DM filled with atomic data:
<dSpData2D:DM initialized from atoms
  <sparsity:sparsity for geom step 0
    nrows_g=10 nrows=3 sparsity=32.7800 nnzs=3278, refcount: 8>
  <dData2D:DM n=3278 m=1, refcount: 1>
refcount: 1>
No. of atoms with KB's overlaping orbs in proc 0. Max # of overlaps:     211     185
New grid distribution:   1
           1       1:   20    1:   10    1:   14
           2       1:   20    1:   10   15:   27
           3       1:   20   11:   20    1:   14
           4       1:   20   11:   20   15:   27

InitMesh: MESH =    40 x    40 x    54 =       86400
InitMesh: (bp) =    20 x    20 x    27 =       10800
InitMesh: Mesh cutoff (required, used) =   300.000   309.144 Ry
ExtMesh (bp) on 0 =   156 x   146 x   150 =     3416400
New grid distribution:   2
           1       1:   20    1:   10    1:   14
           2       1:   20    1:   10   15:   27
           3       1:   20   11:   20    1:   14
           4       1:   20   11:   20   15:   27
New grid distribution:   3
           1       1:   20    1:   10    1:   14
           2       1:   20    1:   10   15:   27
           3       1:   20   11:   20    1:   14
           4       1:   20   11:   20   15:   27
Setting up quadratic distribution...
ExtMesh (bp) on 0 =   156 x   146 x   150 =     3416400
PhiOnMesh: Number of (b)points on node 0 =                 2800
PhiOnMesh: nlist on node 0 =               255808

stepf: Fermi-Dirac step function

siesta: Program's energy decomposition (eV):
siesta: Ebs     =       -48.036236
siesta: Eions   =       321.344870
siesta: Ena     =        94.950732
siesta: Ekin    =       167.071421
siesta: Enl     =        10.019509
siesta: Eso     =         0.000000
siesta: Edftu   =         0.000000
siesta: DEna    =       -14.870530
siesta: DUscf   =        13.911677
siesta: DUext   =         0.000000
siesta: Exc     =      -104.977424
siesta: eta*DQ  =         0.000000
siesta: Emadel  =         0.000000
siesta: Emeta   =         0.000000
siesta: Emolmec =        -2.689328
siesta: Ekinion =         0.000000
siesta: Eharris =      -118.498185
siesta: Etot    =      -157.928814
siesta: FreeEng =      -157.931606

        iscf     Eharris(eV)        E_KS(eV)     FreeEng(eV)     dDmax    Ef(eV) dHmax(eV)
   scf:    1     -118.498185     -157.928814     -157.931606  1.477335 -7.641985 12.481231
timer: Routine,Calls,Time,% = IterSCF        1       0.672  19.95
   scf:    2     -169.279341     -165.000736     -165.024799  2.696379 -5.125034  3.555733
   scf:    3     -165.728042     -165.628108     -165.656401  2.096307 -4.066884  0.349508
   scf:    4     -165.650152     -165.648326     -165.673161  0.380926 -4.224773  0.328743
   scf:    5     -165.646399     -165.647374     -165.672258  0.014573 -4.232124  0.354796
   scf:    6     -165.659957     -165.655252     -165.678604  0.159014 -4.139381  0.008988
   scf:    7     -165.654774     -165.655030     -165.678641  0.014740 -4.138947  0.013231
   scf:    8     -165.655036     -165.655036     -165.678649  0.007304 -4.142770  0.000247
   scf:    9     -165.655029     -165.655033     -165.678649  0.000082 -4.142840  0.000113

SCF Convergence by FreeE+DM+H criterion
|FreeE_i-FreeE_(i-1)| (eV) <     0.00100000
max |DM_out - DM_in|         :     0.0000817319
max |H_out - H_in|      (eV) :     0.0001132494
SCF cycle converged after 9 iterations

Using DM_out to compute the final energy and forces
No. of atoms with KB's overlaping orbs in proc 0. Max # of overlaps:     211     185

MM-Stress (kbar):       -6.72       -6.72       32.23        0.00        0.00       -0.00

siesta: E_KS(eV) =             -165.6550

siesta: E_KS - E_eggbox =      -165.6550

siesta: Atomic forces (eV/Ang):
     1    0.000000    0.000000    0.000000
     2   -0.346716    0.600589   -0.000000
     3    0.346716   -0.600590   -0.000000
     4   -0.346749   -0.600587   -0.000000
     5    0.346749    0.600586   -0.000000
     6    0.693484    0.000030   -0.000000
     7   -0.693484   -0.000030   -0.000000
----------------------------------------
   Tot   -0.000000   -0.000000    0.000000
----------------------------------------
   Max    0.693484
   Res    0.370685    sqrt( Sum f_i^2 / 3N )
----------------------------------------
   Max    0.693484    constrained

Stress tensor Voigt[x,y,z,yz,xz,xy] (kbar):    -1410.49    -1410.49      374.83        0.00        0.00       -0.00
(Free)E + p*V (eV/cell)     -123.7579
Target enthalpy (eV/cell)     -165.6786

siesta: Eigenvalues (eV):
  ik is       eps
   1  1  -13.9236  -11.7763  -11.7763   -8.0034   -5.3258   -3.0207   -3.0206   18.9474   18.9475   19.2900
   2  1  -14.3179  -11.7112   -8.7816   -6.0635   -5.5222   -3.1397   -0.8540    0.1702   18.7688   20.4655
   3  1  -14.3179  -11.7112   -8.7816   -6.0635   -5.5222   -3.1396   -0.8540    0.1701   18.7687   20.4655
   4  1  -14.3179  -11.7112   -8.7816   -6.0635   -5.5222   -3.1397   -0.8540    0.1702   18.7688   20.4655
   5  1  -14.8567   -9.4500   -5.9006   -4.0004   -4.0004    6.0586    6.0587   12.4278   12.4279   23.1139
   6  1  -13.2821  -11.8674  -11.8674  -10.6067   -4.1791   -4.1790   -2.3385   19.4954   19.4955   20.0110
   7  1  -13.8274  -11.7653  -10.6862   -4.9404   -4.5690   -4.1392   -2.0506    1.3028   18.7397   20.2307
   8  1  -13.8274  -11.7654  -10.6862   -4.9404   -4.5689   -4.1391   -2.0506    1.3029   18.7396   20.2307
   9  1  -13.8274  -11.7653  -10.6862   -4.9404   -4.5690   -4.1392   -2.0506    1.3028   18.7397   20.2307
  10  1  -14.3939  -11.3669   -3.9570   -3.5638   -3.5637    7.4404    7.4404    8.1464    8.1464   23.4150
  11  1  -13.8274  -11.7653  -10.6862   -4.9404   -4.5690   -4.1392   -2.0506    1.3028   18.7397   20.2307
  12  1  -13.8274  -11.7654  -10.6862   -4.9404   -4.5689   -4.1391   -2.0506    1.3029   18.7396   20.2307
  13  1  -13.8274  -11.7653  -10.6862   -4.9404   -4.5690   -4.1392   -2.0506    1.3028   18.7397   20.2307
  14  1  -13.2821  -11.8674  -11.8674  -10.6067   -4.1791   -4.1790   -2.3385   19.4954   19.4955   20.0110
siesta: Fermi energy =      -4.142840 eV

siesta: Program's energy decomposition (eV):
siesta: Ebs     =       -92.711431
siesta: Eions   =       321.344870
siesta: Ena     =        94.950732
siesta: Ekin    =       141.713634
siesta: Enl     =        22.308559
siesta: Eso     =         0.000000
siesta: Edftu   =         0.000000
siesta: DEna    =        -4.582612
siesta: DUscf   =         1.859329
siesta: DUext   =         0.000000
siesta: Exc     =       -97.870476
siesta: eta*DQ  =         0.000000
siesta: Emadel  =         0.000000
siesta: Emeta   =         0.000000
siesta: Emolmec =        -2.689328
siesta: Ekinion =         0.000000
siesta: Eharris =      -165.655029
siesta: Etot    =      -165.655033
siesta: FreeEng =      -165.678649

siesta: Final energy (eV):
siesta:  Band Struct. =     -92.711431
siesta:       Kinetic =     141.713634
siesta:       Hartree =      56.632210
siesta:       Edftu   =       0.000000
siesta:       Eso     =       0.000000
siesta:    Ext. field =       0.000000
siesta:   Exch.-corr. =     -97.870476
siesta:  Ion-electron =    -240.781989
siesta:       Ion-ion =     -22.659083
siesta:       Ekinion =       0.000000
siesta:         Total =    -165.655033
siesta:         Fermi =      -4.142840

siesta: Atomic forces (eV/Ang):
siesta:      1    0.000000    0.000000    0.000000
siesta:      2   -0.346716    0.600589   -0.000000
siesta:      3    0.346716   -0.600590   -0.000000
siesta:      4   -0.346749   -0.600587   -0.000000
siesta:      5    0.346749    0.600586   -0.000000
siesta:      6    0.693484    0.000030   -0.000000
siesta:      7   -0.693484   -0.000030   -0.000000
siesta: ----------------------------------------
siesta:    Tot   -0.000000   -0.000000    0.000000

siesta: Stress tensor (static) (eV/Ang**3):
siesta:    -0.880348   -0.000000    0.000000
siesta:    -0.000000   -0.880348   -0.000000
siesta:     0.000000    0.000000    0.233950

siesta: Cell volume =         82.372841 Ang**3

siesta: Pressure (static):
siesta:                Solid            Molecule  Units
siesta:           0.00554274          0.00568070  Ry/Bohr**3
siesta:           0.50891513          0.52158223  eV/Ang**3
siesta:         815.38074181        835.67588866  kBar
(Free)E+ p_basis*V_orbitals  =        -157.341133
(Free)Eharris+ p_basis*V_orbitals  =        -157.341130

cite: Please see "LiC6_scf.bib" for an exhaustive BiBTeX file.
cite: Please clearly indicate Siesta version in published work: 4.1.5
cite: This calculation has made use of the following articles
cite: which are encouraged to be cited in a published work.
        Primary SIESTA paper
          DOI: www.doi.org/10.1088/0953-8984/14/11/302

>> End of run:   9-NOV-2022  16:36:10
Job completed
