Siesta Version  : 4.1.5
Architecture    : x86_64-unknown-linux-gnu--unknown
Compiler version: GNU Fortran (GCC) 11.3.0
Compiler flags  : mpif90 -g -O2 -fallow-argument-mismatch
PP flags        : -DMPI -DFC_HAVE_FLUSH -DFC_HAVE_ABORT
Libraries       :  -I/global/software/sl-7.x86_64/modules/intel/2020.4.304/mkl/include  /globall/software/sl-7.x86_64/modules/intel/2020.4.304/mkl/lib/intel64/libmkl_scalapack_lp64.a -Wl,--start-group /global/software/sl-7.x86_64/modules/intel/2020.4.304/mkl/lib/intel64/libmkl_intel_lp64.a /global/software/sl-7.x86_64/modules/intel/2020.4.304/mkl/lib/intel64/libmkl_sequential.a /global/software/sl-7.x86_64/modules/intel/2020.4.304/mkl/lib/intel64/libmkl_core.a /global/software/sl-7.x86_64/modules/intel/2020.4.304/mkl/lib/intel64/libmkl_blacs_openmpi_lp64.a -Wl,--end-group -lpthread -lm -ldl
PARALLEL version

* Running on 4 nodes in parallel
>> Start of run:   9-NOV-2022   4:24:32

                           ***********************       
                           *  WELCOME TO SIESTA  *       
                           ***********************       

reinit: Reading from standard input
reinit: Dumped input in INPUT_TMP.39433
************************** Dump of input data file ****************************
SystemName LiC6_scf
SystemLabel LiC6_scf
NumberOfAtoms   7
NumberOfSpecies 2
%block ChemicalSpeciesLabel
1  3   Li-gga
2  6   C-gga
%endblock ChemicalSpeciesLabel
PAO.BasisSize  DZP
PAO.EnergyShift  10 meV
%block PS.Lmax
C-gga   2
Li-gga  2
%endblock PS.Lmax
LatticeConstant 1.000000 Ang
%block LatticeVectors
	4.3161300000	0.0000000000	0.0000000000
	-2.1580650000	3.7378782260	0.0000000000
	0.0000000000	0.0000000000	5.1058068000
%endblock LatticeVectors
AtomicCoordinatesFormat Ang
%block AtomicCoordinatesAndAtomicSpecies
	0.00000000	0.00000000	0.00000000	2
	-0.70288177	1.21742694	2.55290340	1
	-1.45518323	2.52045129	2.55290340	1
	1.45518323	2.52045129	2.55290340	1
	0.70288177	1.21742694	2.55290340	1
	1.40576354	0.00000000	2.55290340	1
	2.91036646	0.00000000	2.55290340	1
%endblock AtomicCoordinatesAndAtomicSpecies
Kgrid_NoTRS  T
%block kgrid_MonkhorstPack
2       0       0       0.0
0       2       0       0.0
0       0       2       0.0
%endblock kgrid_MonkhorstPack
AtomCoorFormatOut Ang
BlockSize 1
#ProcessorY 12
Diag.ParallelOverK   T
Diag.DivideAndConquer F
MeshCutoff   300 Ry
SCF.FreeE.Tolerance 1E-3 eV
SCF.EDM.Tolerance   5E-3 eV
DM.Tolerance  1E-3
DM.Require.Energy.Convergence T
DM.NumberPulay 4
XC.Functional GGA
XC.Authors    PBE
UseSaveData        F
MD.TypeOfRun       CG
MD.VariableCell    F
MD.NumCGsteps      00
MD.MaxCGDispl      0.200000 Bohr
MD.MaxStressTol    1.000000 GPa
MD.MaxForceTol     0.010000 eV/Ang
WriteMDHistory T
WriteCoorStep T
WriteForces T
WriteCoorStep    T
WriteEigenValues T
WriteDM    F
MM.UnitsDistance Ang  # what this program prints out DO NOT CHANGE
MM.UnitsEnergy    eV  # what this program prints out DO NOT CHANGE
MM.Grimme.S6     0.75 # Grimme-paper for PBE (correct for your functional)
MM.Grimme.D     20.   # Grimme-paper (correct for your functional)
%block MM.Potentials
  1   1 Grimme     16.69      1.650 # Li, 10.1002/jcc.20495
  1   2 Grimme     17.40      2.277 # Li / C
  2   2 Grimme     18.14      2.904 # C, 10.1002/jcc.20495
%endblock MM.Potentials
#%block ProjectedDensityOfStates
# -200.0  120.0  0.4  12800  eV
#%endblock ProjectedDensityOfStates
************************** End of input data file *****************************

reinit: -----------------------------------------------------------------------
reinit: System Name: LiC6_scf
reinit: -----------------------------------------------------------------------
reinit: System Label: LiC6_scf
reinit: -----------------------------------------------------------------------
Reading two-body potentials
Grimme - two-body potential between 1 and 1
Grimme - two-body potential between 1 and 2
Grimme - two-body potential between 2 and 2

initatom: Reading input for the pseudopotentials and atomic orbitals ----------
Species number:   1 Atomic number:    3 Label: Li-gga
Species number:   2 Atomic number:    6 Label: C-gga

Ground state valence configuration:   2s01
Reading pseudopotential information in formatted form from Li-gga.psf

Valence configuration for pseudopotential generation:
2s( 1.00) rc: 2.28
2p( 0.00) rc: 2.28
3d( 0.00) rc: 2.59
4f( 0.00) rc: 2.59
Ground state valence configuration:   2s02  2p02
Reading pseudopotential information in formatted form from C-gga.psf

Valence configuration for pseudopotential generation:
2s( 2.00) rc: 1.56
2p( 2.00) rc: 1.56
3d( 0.00) rc: 1.56
4f( 0.00) rc: 1.56
relmxkb: Read Max KB Ang. Momentum=    2 for species C-gga
relmxkb: Read Max KB Ang. Momentum=    2 for species Li-gga

<basis_specs>
===============================================================================
Li-gga               Z=   3    Mass=  6.9400        Charge= 0.17977+309
Lmxo=0 Lmxkb= 2    BasisType=split      Semic=F
L=0  Nsemic=0  Cnfigmx=2
          i=1  nzeta=2  polorb=1  (2s)
            splnorm:   0.15000    
               vcte:    0.0000    
               rinn:    0.0000    
               qcoe:    0.0000    
               qyuk:    0.0000    
               qwid:   0.10000E-01
                rcs:    0.0000      0.0000    
            lambdas:    1.0000      1.0000    
-------------------------------------------------------------------------------
L=0  Nkbl=1  erefs: 0.17977+309
L=1  Nkbl=1  erefs: 0.17977+309
L=2  Nkbl=1  erefs: 0.17977+309
===============================================================================
</basis_specs>

atom: Called for Li-gga                (Z =   3)

read_vps: Pseudopotential generation method:
read_vps: ATM 3.2.2 Troullier-Martins                       
Valence charge for ps generation:    1.00000

read_vps: Pseudopotential includes a core correction:
read_vps: Pseudo-core for xc-correction

xc_check: Exchange-correlation functional:
xc_check: GGA Perdew, Burke & Ernzerhof 1996
V l=0 = -2*Zval/r beyond r=  2.2278
V l=1 = -2*Zval/r beyond r=  2.2278
V l=2 = -2*Zval/r beyond r=  2.5245
All V_l potentials equal beyond r=  2.4622
This should be close to max(r_c) in ps generation
All pots = -2*Zval/r beyond r=  2.5245

VLOCAL1: 99.0% of the norm of Vloc inside      7.160 Ry
VLOCAL1: 99.9% of the norm of Vloc inside     16.318 Ry
atom: Maximum radius for 4*pi*r*r*local-pseudopot. charge    2.86079
atom: Maximum radius for r*vlocal+2*Zval:    2.43160
GHOST: No ghost state for L =  0
GHOST: No ghost state for L =  1
GHOST: No ghost state for L =  2

KBgen: Kleinman-Bylander projectors: 
   l= 0   rc=  2.654023   el= -0.211234   Ekb=  1.742119   kbcos=  0.228463
   l= 1   rc=  2.721230   el= -0.080095   Ekb= -1.122375   kbcos= -0.147941
   l= 2   rc=  2.825246   el=  0.002001   Ekb= -0.207076   kbcos= -0.031965

KBgen: Total number of Kleinman-Bylander projectors:    9
atom: -------------------------------------------------------------------------

atom: SANKEY-TYPE ORBITALS:
atom: Selected multiple-zeta basis: split     

SPLIT: Orbitals with angular momentum L= 0

SPLIT: Basis orbitals for state 2s

SPLIT: PAO cut-off radius determined from an
SPLIT: energy shift=  0.000735 Ry

   izeta = 1
                 lambda =    1.000000
                     rc =   11.897381
                 energy =   -0.210580
                kinetic =    0.143382
    potential(screened) =   -0.353962
       potential(ionic) =   -0.533453

   izeta = 2
                 rmatch =    8.489163
              splitnorm =    0.150000
                 energy =   -0.186081
                kinetic =    0.225882
    potential(screened) =   -0.411964
       potential(ionic) =   -0.593024

POLgen: Perturbative polarization orbital with L=  1

POLgen: Polarization orbital for state 2s

   izeta = 1
                     rc =   11.897381
                 energy =   -0.027011
                kinetic =    0.282985
    potential(screened) =   -0.309997
       potential(ionic) =   -0.490997
atom: Total number of Sankey-type orbitals:  5

atm_pop: Valence configuration (for local Pseudopot. screening):
 2s( 1.00)                                                            
Vna: chval, zval:    1.00000   1.00000

Vna:  Cut-off radius for the neutral-atom potential:  11.897381
comcore: Pseudo-core radius Rcore=  3.450946

atom: _________________________________________________________________________

<basis_specs>
===============================================================================
C-gga                Z=   6    Mass=  12.010        Charge= 0.17977+309
Lmxo=1 Lmxkb= 2    BasisType=split      Semic=F
L=0  Nsemic=0  Cnfigmx=2
          i=1  nzeta=2  polorb=0  (2s)
            splnorm:   0.15000    
               vcte:    0.0000    
               rinn:    0.0000    
               qcoe:    0.0000    
               qyuk:    0.0000    
               qwid:   0.10000E-01
                rcs:    0.0000      0.0000    
            lambdas:    1.0000      1.0000    
L=1  Nsemic=0  Cnfigmx=2
          i=1  nzeta=2  polorb=1  (2p)
            splnorm:   0.15000    
               vcte:    0.0000    
               rinn:    0.0000    
               qcoe:    0.0000    
               qyuk:    0.0000    
               qwid:   0.10000E-01
                rcs:    0.0000      0.0000    
            lambdas:    1.0000      1.0000    
-------------------------------------------------------------------------------
L=0  Nkbl=1  erefs: 0.17977+309
L=1  Nkbl=1  erefs: 0.17977+309
L=2  Nkbl=1  erefs: 0.17977+309
===============================================================================
</basis_specs>

atom: Called for C-gga                 (Z =   6)

read_vps: Pseudopotential generation method:
read_vps: ATM 3.2.2 Troullier-Martins                       
Valence charge for ps generation:    4.00000

xc_check: Exchange-correlation functional:
xc_check: GGA Perdew, Burke & Ernzerhof 1996
V l=0 = -2*Zval/r beyond r=  1.5227
V l=1 = -2*Zval/r beyond r=  1.5227
V l=2 = -2*Zval/r beyond r=  1.5227
All V_l potentials equal beyond r=  1.4851
This should be close to max(r_c) in ps generation
All pots = -2*Zval/r beyond r=  1.5227

VLOCAL1: 99.0% of the norm of Vloc inside     19.682 Ry
VLOCAL1: 99.9% of the norm of Vloc inside     44.856 Ry
atom: Maximum radius for 4*pi*r*r*local-pseudopot. charge    1.79142
atom: Maximum radius for r*vlocal+2*Zval:    1.54183
GHOST: No ghost state for L =  0
GHOST: No ghost state for L =  1
GHOST: No ghost state for L =  2

KBgen: Kleinman-Bylander projectors: 
   l= 0   rc=  1.661951   el= -1.010689   Ekb=  5.289847   kbcos=  0.316429
   l= 1   rc=  1.661951   el= -0.388490   Ekb= -4.102504   kbcos= -0.351025
   l= 2   rc=  1.747182   el=  0.001971   Ekb= -1.006005   kbcos= -0.008530

KBgen: Total number of Kleinman-Bylander projectors:    9
atom: -------------------------------------------------------------------------

atom: SANKEY-TYPE ORBITALS:
atom: Selected multiple-zeta basis: split     

SPLIT: Orbitals with angular momentum L= 0

SPLIT: Basis orbitals for state 2s

SPLIT: PAO cut-off radius determined from an
SPLIT: energy shift=  0.000735 Ry

   izeta = 1
                 lambda =    1.000000
                     rc =    5.948690
                 energy =   -1.010099
                kinetic =    0.827121
    potential(screened) =   -1.837220
       potential(ionic) =   -5.392783

   izeta = 2
                 rmatch =    3.518811
              splitnorm =    0.150000
                 energy =   -0.877891
                kinetic =    1.289227
    potential(screened) =   -2.167118
       potential(ionic) =   -5.982073

SPLIT: Orbitals with angular momentum L= 1

SPLIT: Basis orbitals for state 2p

SPLIT: PAO cut-off radius determined from an
SPLIT: energy shift=  0.000735 Ry

   izeta = 1
                 lambda =    1.000000
                     rc =    7.638387
                 energy =   -0.387843
                kinetic =    2.314739
    potential(screened) =   -2.702582
       potential(ionic) =   -6.092371

   izeta = 2
                 rmatch =    3.840617
              splitnorm =    0.150000
                 energy =   -0.270479
                kinetic =    3.438347
    potential(screened) =   -3.708826
       potential(ionic) =   -7.497707

POLgen: Perturbative polarization orbital with L=  2

POLgen: Polarization orbital for state 2p

   izeta = 1
                     rc =    7.638387
                 energy =    0.921402
                kinetic =    1.955040
    potential(screened) =   -1.033637
       potential(ionic) =   -3.679558
atom: Total number of Sankey-type orbitals: 13

atm_pop: Valence configuration (for local Pseudopot. screening):
 2s( 2.00)                                                            
 2p( 2.00)                                                            
Vna: chval, zval:    4.00000   4.00000

Vna:  Cut-off radius for the neutral-atom potential:   7.638387

atom: _________________________________________________________________________

prinput: Basis input ----------------------------------------------------------

PAO.BasisType split     

%block ChemicalSpeciesLabel
    1    3 Li-gga                  # Species index, atomic number, species label
    2    6 C-gga                   # Species index, atomic number, species label
%endblock ChemicalSpeciesLabel

%block PAO.Basis                 # Define Basis set
Li-gga                1                    # Species label, number of l-shells
 n=2   0   2 P   1                   # n, l, Nzeta, Polarization, NzetaPol
  11.897      8.489   
   1.000      1.000   
C-gga                 2                    # Species label, number of l-shells
 n=2   0   2                         # n, l, Nzeta 
   5.949      3.519   
   1.000      1.000   
 n=2   1   2 P   1                   # n, l, Nzeta, Polarization, NzetaPol
   7.638      3.841   
   1.000      1.000   
%endblock PAO.Basis

prinput: ----------------------------------------------------------------------

coor:   Atomic-coordinates input format  =     Cartesian coordinates
coor:                                          (in Angstroms)

siesta: Atomic coordinates (Bohr) and species
siesta:      0.00000   0.00000   0.00000  2        1
siesta:     -1.32825   2.30060   4.82429  1        2
siesta:     -2.74990   4.76296   4.82429  1        3
siesta:      2.74990   4.76296   4.82429  1        4
siesta:      1.32825   2.30060   4.82429  1        5
siesta:      2.65651   0.00000   4.82429  1        6
siesta:      5.49980   0.00000   4.82429  1        7

siesta: System type = bulk      

initatomlists: Number of atoms, orbitals, and projectors:      7    43    63

siesta: ******************** Simulation parameters ****************************
siesta:
siesta: The following are some of the parameters of the simulation.
siesta: A complete list of the parameters used, including default values,
siesta: can be found in file out.fdf
siesta:
redata: Spin configuration                          = none
redata: Number of spin components                   = 1
redata: Time-Reversal Symmetry                      = T
redata: Spin spiral                                 = F
redata: Long output                                 =   F
redata: Number of Atomic Species                    =        2
redata: Charge density info will appear in .RHO file
redata: Write Mulliken Pop.                         = NO
redata: Matel table size (NRTAB)                    =     1024
redata: Mesh Cutoff                                 =   300.0000 Ry
redata: Net charge of the system                    =     0.0000 |e|
redata: Min. number of SCF Iter                     =        0
redata: Max. number of SCF Iter                     =     1000
redata: SCF convergence failure will abort job
redata: SCF mix quantity                            = Hamiltonian
redata: Mix DM or H after convergence               =   F
redata: Recompute H after scf cycle                 =   F
redata: Mix DM in first SCF step                    =   T
redata: Write Pulay info on disk                    =   F
redata: New DM Occupancy tolerance                  = 0.000000000001
redata: No kicks to SCF
redata: DM Mixing Weight for Kicks                  =     0.5000
redata: Require Harris convergence for SCF          =   F
redata: Harris energy tolerance for SCF             =     0.000100 eV
redata: Require DM convergence for SCF              =   T
redata: DM tolerance for SCF                        =     0.001000
redata: Require EDM convergence for SCF             =   F
redata: EDM tolerance for SCF                       =     0.005000 eV
redata: Require H convergence for SCF               =   T
redata: Hamiltonian tolerance for SCF               =     0.001000 eV
redata: Require (free) Energy convergence for SCF   =   T
redata: (free) Energy tolerance for SCF             =     0.001000 eV
redata: Using Saved Data (generic)                  =   F
redata: Use continuation files for DM               =   F
redata: Neglect nonoverlap interactions             =   F
redata: Method of Calculation                       = Diagonalization
redata: Electronic Temperature                      =   299.9869 K
redata: Fix the spin of the system                  =   F
redata: Dynamics option                             = Single-point calculation
mix.SCF: Pulay mixing                            = Pulay
mix.SCF:    Variant                              = stable
mix.SCF:    History steps                        = 4
mix.SCF:    Linear mixing weight                 =     0.250000
mix.SCF:    Mixing weight                        =     0.250000
mix.SCF:    SVD condition                        = 0.1000E-07
redata: ***********************************************************************

%block SCF.Mixers
  Pulay
%endblock SCF.Mixers

%block SCF.Mixer.Pulay
  # Mixing method
  method pulay
  variant stable

  # Mixing options
  weight 0.2500
  weight.linear 0.2500
  history 4
%endblock SCF.Mixer.Pulay

DM_history_depth set to one: no extrapolation allowed by default for geometry relaxation
Size of DM history Fstack: 1
Total number of electrons:    10.000000
Total ionic charge:    10.000000

* ProcessorY, Blocksize:    2   1


* Orbital distribution balance (max,min):    11    10

k-point displ. along   1 input, could be:     0.00    0.50
k-point displ. along   2 input, could be:     0.00    0.50
k-point displ. along   3 input, could be:     0.00    0.50
 Kpoints in:            8 . Kpoints trimmed:            8

siesta: k-grid: Number of k-points =     8
siesta: k-grid: Cutoff (effective) =     4.316 Ang
siesta: k-grid: Supercell and displacements
siesta: k-grid:    2   0   0      0.000
siesta: k-grid:    0   2   0      0.000
siesta: k-grid:    0   0   2      0.000

diag: Algorithm                                     = Expert
diag: Parallel over k                               =   T
diag: Use parallel 2D distribution                  =   T
diag: Parallel block-size                           = 1
diag: Parallel distribution                         =     2 x     2
diag: Used triangular part                          = Lower
diag: Absolute tolerance                            =  0.100E-15
diag: Orthogonalization factor                      =  0.100E-05
diag: Memory factor                                 =  1.0000

superc: Internal auxiliary supercell:     9 x     9 x     5  =     405
superc: Number of atoms, orbitals, and projectors:   2835  17415  25515


ts: **************************************************************
ts: Save H and S matrices                           =    F
ts: Save DM and EDM matrices                        =    F
ts: Only save the overlap matrix S                  =    F
ts: **************************************************************

************************ Begin: TS CHECKS AND WARNINGS ************************
************************ End: TS CHECKS AND WARNINGS **************************


                     ====================================
                        Single-point calculation
                     ====================================

outcoor: Atomic coordinates (Ang):                          
    0.00000000    0.00000000    0.00000000   2       1  C-gga
   -0.70288177    1.21742694    2.55290340   1       2  Li-gga
   -1.45518323    2.52045129    2.55290340   1       3  Li-gga
    1.45518323    2.52045129    2.55290340   1       4  Li-gga
    0.70288177    1.21742694    2.55290340   1       5  Li-gga
    1.40576354    0.00000000    2.55290340   1       6  Li-gga
    2.91036646    0.00000000    2.55290340   1       7  Li-gga

superc: Internal auxiliary supercell:     9 x     9 x     5  =     405
superc: Number of atoms, orbitals, and projectors:   2835  17415  25515

outcell: Unit cell vectors (Ang):
        4.316130    0.000000    0.000000
       -2.158065    3.737878    0.000000
        0.000000    0.000000    5.105807

outcell: Cell vector modules (Ang)   :    4.316130    4.316130    5.105807
outcell: Cell angles (23,13,12) (deg):     90.0000     90.0000    120.0000
outcell: Cell volume (Ang**3)        :     82.3728
<dSpData1D:S at geom step 0
  <sparsity:sparsity for geom step 0
    nrows_g=43 nrows=11 sparsity=25.8670 nnzs=47828, refcount: 7>
  <dData1D:(new from dSpData1D) n=47828, refcount: 1>
refcount: 1>
new_DM -- step:     1
Initializing Density Matrix...
DM filled with atomic data:
<dSpData2D:DM initialized from atoms
  <sparsity:sparsity for geom step 0
    nrows_g=43 nrows=11 sparsity=25.8670 nnzs=47828, refcount: 8>
  <dData2D:DM n=47828 m=1, refcount: 1>
refcount: 1>
No. of atoms with KB's overlaping orbs in proc 0. Max # of overlaps:     255     758
New grid distribution:   1
           1       1:   20    1:   10    1:   14
           2       1:   20    1:   10   15:   27
           3       1:   20   11:   20    1:   14
           4       1:   20   11:   20   15:   27

InitMesh: MESH =    40 x    40 x    54 =       86400
InitMesh: (bp) =    20 x    20 x    27 =       10800
InitMesh: Mesh cutoff (required, used) =   300.000   309.144 Ry
ExtMesh (bp) on 0 =   156 x   146 x   150 =     3416400
New grid distribution:   2
           1       1:   20    1:   10    1:   13
           2       1:   20    1:   10   14:   27
           3       1:   20   11:   20    1:   13
           4       1:   20   11:   20   14:   27
New grid distribution:   3
           1       1:   20    1:   10    1:   14
           2       1:   20    1:   10   15:   27
           3       1:   20   11:   20    1:   14
           4       1:   20   11:   20   15:   27
Setting up quadratic distribution...
ExtMesh (bp) on 0 =   156 x   146 x   149 =     3393624
PhiOnMesh: Number of (b)points on node 0 =                 2600
PhiOnMesh: nlist on node 0 =               979295

stepf: Fermi-Dirac step function

siesta: Program's energy decomposition (eV):
siesta: Ebs     =      -136.306776
siesta: Eions   =       321.344870
siesta: Ena     =        94.950732
siesta: Ekin    =        94.129025
siesta: Enl     =        25.960923
siesta: Eso     =         0.000000
siesta: Edftu   =         0.000000
siesta: DEna    =         8.793402
siesta: DUscf   =        16.184438
siesta: DUext   =         0.000000
siesta: Exc     =       -90.987659
siesta: eta*DQ  =         0.000000
siesta: Emadel  =         0.000000
siesta: Emeta   =         0.000000
siesta: Emolmec =        -2.689328
siesta: Ekinion =         0.000000
siesta: Eharris =      -152.129512
siesta: Etot    =      -175.003336
siesta: FreeEng =      -175.003463

        iscf     Eharris(eV)        E_KS(eV)     FreeEng(eV)     dDmax    Ef(eV) dHmax(eV)
   scf:    1     -152.129512     -175.003336     -175.003463 22.392627 -8.689791 13.134610
timer: Routine,Calls,Time,% = IterSCF        1       9.410  57.90
   scf:    2     -160.827130     -179.420977     -179.429616 11.486750-10.617353  9.310792
   scf:    3     -171.865110     -181.685191     -181.702645  7.508771 -9.707667  6.066898
   scf:    4      -94.031171     -158.209357     -158.209361 11.730649-10.289702 21.391259
   scf:    5     -134.570045     -146.855855     -146.856072  1.010026-10.145311 26.551184
   scf:    6     -156.778266     -180.674233     -180.691671 12.980010 -9.394664  7.645658
   scf:    7     -180.571069     -180.623195     -180.640649  0.686200 -9.335706  7.849368
   scf:    8     -182.958389     -181.848337     -181.868098  1.176172 -9.632466  6.127568
   scf:    9     -175.577137     -182.300007     -182.331856  3.976479-10.216080  5.163557
   scf:   10     -175.565153     -179.312755     -179.348567  1.441193-10.235284  8.606045
   scf:   11     -181.351912     -183.753883     -183.783431  4.003185 -9.916328  2.189348
   scf:   12     -184.086818     -183.983049     -184.011629  0.143241 -9.969167  0.751902
   scf:   13     -184.019195     -184.007082     -184.033721  0.105227-10.030784  0.233128
   scf:   14     -184.010849     -184.010066     -184.036451  0.121125-10.073531  0.232957
   scf:   15     -128.390077     -165.191854     -165.192241  9.175803-10.354310 17.592250
   scf:   16     -145.848073     -177.317420     -177.324228 12.814768 -8.761831 11.459877
   scf:   17     -186.737438     -183.332648     -183.357221  3.205300 -9.744704  3.630222
   scf:   18     -179.232672     -181.536827     -181.554424  0.643009 -9.532824  6.653574
   scf:   19     -184.686293     -183.387813     -183.412473  0.682427 -9.777822  3.462039
   scf:   20     -112.629962     -162.173135     -162.173226 10.411200-10.261133 19.240087
   scf:   21     -175.908907     -183.328486     -183.353341 10.163254 -9.713193  3.683586
   scf:   22     -184.066688     -183.748814     -183.779230  0.203061 -9.798744  2.331097
   scf:   23     -184.083852     -183.971838     -183.999473  0.085260 -9.910777  0.865305
   scf:   24     -183.924446     -183.950306     -183.979312  0.046434 -9.895677  1.137126
   scf:   25     -183.735297     -183.944596     -183.975297  0.666494-10.046264  0.555157
   scf:   26     -184.052589     -184.006896     -184.041331  0.225357-10.041283  0.444642
   scf:   27     -183.719752     -183.932458     -183.962981  0.109186-10.086607  1.179407
   scf:   28     -183.908059     -183.920456     -183.950483  0.010208-10.089992  1.262062
   scf:   29     -182.951348     -183.779471     -183.808659  0.454633-10.026216  2.008162
   scf:   30     -183.745104     -184.002094     -184.032971  0.412195-10.102854  0.796717
   scf:   31     -184.049654     -184.034489     -184.067199  0.138765-10.077029  0.250121
   scf:   32     -184.038298     -184.037668     -184.071517  0.038923-10.070158  0.049887
   scf:   33     -184.000057     -184.025475     -184.060675  0.068019-10.061243  0.389146
   scf:   34     -184.024886     -184.036071     -184.069406  0.078870-10.075216  0.185528
   scf:   35     -184.035286     -184.035688     -184.068938  0.004996-10.075515  0.203631
   scf:   36     -184.037143     -184.037609     -184.071731  0.035377-10.070651  0.008289
   scf:   37     -184.037544     -184.037579     -184.071736  0.001143-10.070513  0.000378
   scf:   38     -184.037570     -184.037575     -184.071736  0.001927-10.070990  0.001710
   scf:   39     -184.037587     -184.037581     -184.071736  0.000922-10.070983  0.001095
   scf:   40     -184.037573     -184.037577     -184.071736  0.000224-10.070937  0.000123

SCF Convergence by FreeE+DM+H criterion
|FreeE_i-FreeE_(i-1)| (eV) <     0.00100000
max |DM_out - DM_in|         :     0.0002243211
max |H_out - H_in|      (eV) :     0.0001225663
SCF cycle converged after 40 iterations

Using DM_out to compute the final energy and forces
No. of atoms with KB's overlaping orbs in proc 0. Max # of overlaps:     255     758

MM-Stress (kbar):       -6.72       -6.72       32.23        0.00        0.00       -0.00

siesta: E_KS(eV) =             -184.0376

siesta: E_KS - E_eggbox =      -184.0376

siesta: Atomic forces (eV/Ang):
     1    0.000000   -0.000000   -0.000000
     2    0.210012   -0.363770    0.000000
     3   -0.210011    0.363770    0.000000
     4    0.209984    0.363703    0.000000
     5   -0.209984   -0.363703    0.000000
     6   -0.420040   -0.000010    0.000000
     7    0.420040    0.000010    0.000000
----------------------------------------
   Tot   -0.000000   -0.000000    0.000000
----------------------------------------
   Max    0.420040
   Res    0.224508    sqrt( Sum f_i^2 / 3N )
----------------------------------------
   Max    0.420040    constrained

Stress tensor Voigt[x,y,z,yz,xz,xy] (kbar):     -743.81     -743.83      271.51        0.00       -0.00       -0.02
(Free)E + p*V (eV/cell)     -163.2303
Target enthalpy (eV/cell)     -184.0717

siesta: Eigenvalues (eV):
  ik is       eps
   1  1  -18.8268  -12.6229  -11.9473  -10.0847  -10.0414   -9.7752   -9.7751   -7.0542   -3.7526   -3.7525
          -2.6954   -1.7000   -1.6999   -1.2616   -1.2616   -0.3200   -0.3200    8.4545    8.4546    8.9983
   11.8017   11.8018   15.6954   18.1450   18.1450   24.9556   25.0953   25.0953   25.8618   27.1907
   27.1909   28.8344   28.8344   36.5050   36.5051   46.3680   48.3331   53.8554   57.8845   57.8849
   60.7296   78.6434   78.6434
   2  1  -18.6359  -12.6293  -11.8024  -11.1009  -10.2841  -10.0643   -9.2921   -8.2176   -5.4321   -3.6655
          -3.6261   -1.3190   -0.2354    0.0927    1.1398    1.9544    2.5331    2.7039    4.7464    7.5523
   10.1486   15.5871   16.4419   16.8685   18.0412   19.3071   20.5494   21.2064   22.0450   24.9727
   26.1711   27.5378   28.2588   28.6358   29.6868   30.0410   40.1720   49.6051   56.4472   58.2949
   63.2706   77.2358   82.6748
   3  1  -18.6359  -12.6293  -11.8024  -11.1009  -10.2841  -10.0643   -9.2921   -8.2176   -5.4321   -3.6655
          -3.6261   -1.3190   -0.2354    0.0927    1.1398    1.9544    2.5331    2.7039    4.7464    7.5523
   10.1486   15.5871   16.4419   16.8685   18.0412   19.3071   20.5494   21.2064   22.0450   24.9727
   26.1711   27.5378   28.2588   28.6358   29.6868   30.0410   40.1720   49.6051   56.4472   58.2949
   63.2706   77.2358   82.6747
   4  1  -18.6359  -12.6293  -11.8024  -11.1009  -10.2841  -10.0643   -9.2921   -8.2176   -5.4321   -3.6655
          -3.6261   -1.3189   -0.2354    0.0927    1.1398    1.9544    2.5331    2.7039    4.7465    7.5522
   10.1486   15.5871   16.4417   16.8684   18.0412   19.3071   20.5494   21.2065   22.0450   24.9727
   26.1715   27.5377   28.2587   28.6358   29.6869   30.0411   40.1721   49.6051   56.4472   58.2951
   63.2705   77.2357   82.6747
   5  1  -18.8063  -13.5926  -11.0870   -9.7520   -9.7519   -9.6963   -9.2551   -7.0036   -3.0777   -3.0777
          -2.7734   -2.7733   -1.1787   -1.1786    2.0407    2.0407    5.6074    7.4702   12.8183   14.7215
   14.7215   16.8236   16.8237   19.0599   19.0603   20.1856   20.1856   21.5698   21.5698   24.8486
   26.6212   29.4665   29.4666   34.7647   38.9380   38.9380   48.2234   50.4261   61.9178   64.3645
   64.3645   99.8790   99.8791
   6  1  -18.5794  -13.0440  -11.5704  -11.5691  -10.5254  -10.0821   -7.3299   -7.1895   -6.2822   -4.5086
          -2.7276   -1.9860   -0.2881   -0.1070    2.0257    2.3910    2.5435    7.4142    8.6714    9.0318
   10.5472   10.7692   11.7589   13.2552   13.4937   16.4417   19.1207   23.0736   25.3421   25.5711
   26.6933   27.6187   28.3543   32.5085   40.1699   44.5864   50.7564   52.3597   55.7555   59.0626
   64.3684   88.5697  106.2946
   7  1  -18.5794  -13.0440  -11.5704  -11.5691  -10.5254  -10.0821   -7.3299   -7.1895   -6.2822   -4.5086
          -2.7276   -1.9860   -0.2881   -0.1070    2.0257    2.3910    2.5435    7.4142    8.6714    9.0318
   10.5472   10.7692   11.7589   13.2552   13.4937   16.4417   19.1207   23.0736   25.3421   25.5711
   26.6933   27.6187   28.3543   32.5085   40.1699   44.5864   50.7564   52.3597   55.7555   59.0626
   64.3684   88.5697  106.2946
   8  1  -18.5794  -13.0440  -11.5704  -11.5691  -10.5254  -10.0822   -7.3299   -7.1895   -6.2822   -4.5086
          -2.7276   -1.9861   -0.2881   -0.1070    2.0257    2.3910    2.5435    7.4142    8.6713    9.0318
   10.5473   10.7692   11.7589   13.2552   13.4936   16.4418   19.1207   23.0736   25.3418   25.5711
   26.6933   27.6187   28.3544   32.5085   40.1699   44.5865   50.7564   52.3596   55.7556   59.0626
   64.3684   88.5697  106.2946
siesta: Fermi energy =     -10.070937 eV

siesta: Program's energy decomposition (eV):
siesta: Ebs     =      -129.100290
siesta: Eions   =       321.344870
siesta: Ena     =        94.950732
siesta: Ekin    =       122.505689
siesta: Enl     =        15.161581
siesta: Eso     =         0.000000
siesta: Edftu   =         0.000000
siesta: DEna    =         0.188233
siesta: DUscf   =         2.015929
siesta: DUext   =         0.000000
siesta: Exc     =       -94.825542
siesta: eta*DQ  =         0.000000
siesta: Emadel  =         0.000000
siesta: Emeta   =         0.000000
siesta: Emolmec =        -2.689328
siesta: Ekinion =         0.000000
siesta: Eharris =      -184.037573
siesta: Etot    =      -184.037577
siesta: FreeEng =      -184.071736

siesta: Final energy (eV):
siesta:  Band Struct. =    -129.100290
siesta:       Kinetic =     122.505689
siesta:       Hartree =      37.943820
siesta:       Edftu   =       0.000000
siesta:       Eso     =       0.000000
siesta:    Ext. field =       0.000000
siesta:   Exch.-corr. =     -94.825542
siesta:  Ion-electron =    -224.313133
siesta:       Ion-ion =     -22.659083
siesta:       Ekinion =       0.000000
siesta:         Total =    -184.037577
siesta:         Fermi =     -10.070937

siesta: Atomic forces (eV/Ang):
siesta:      1    0.000000   -0.000000   -0.000000
siesta:      2    0.210012   -0.363770    0.000000
siesta:      3   -0.210011    0.363770    0.000000
siesta:      4    0.209984    0.363703    0.000000
siesta:      5   -0.209984   -0.363703    0.000000
siesta:      6   -0.420040   -0.000010    0.000000
siesta:      7    0.420040    0.000010    0.000000
siesta: ----------------------------------------
siesta:    Tot   -0.000000   -0.000000    0.000000

siesta: Stress tensor (static) (eV/Ang**3):
siesta:    -0.464247   -0.000010   -0.000000
siesta:    -0.000010   -0.464259    0.000000
siesta:    -0.000000    0.000000    0.169464

siesta: Cell volume =         82.372841 Ang**3

siesta: Pressure (static):
siesta:                Solid            Molecule  Units
siesta:           0.00275565          0.00267209  Ry/Bohr**3
siesta:           0.25301402          0.24534210  eV/Ang**3
siesta:         405.37752569        393.08563545  kBar
(Free)E+ p_basis*V_orbitals  =        -164.638008
(Free)Eharris+ p_basis*V_orbitals  =        -164.638004

cite: Please see "LiC6_scf.bib" for an exhaustive BiBTeX file.
cite: Please clearly indicate Siesta version in published work: 4.1.5
cite: This calculation has made use of the following articles
cite: which are encouraged to be cited in a published work.
        Primary SIESTA paper
          DOI: www.doi.org/10.1088/0953-8984/14/11/302

>> End of run:   9-NOV-2022   4:28:33
Job completed
