-7.507805  20.786930 xlo xhi		  
-1.736495  13.469200 ylo yhi		  
-1.091796  12.077942 zlo zhi

189 atoms
2 atom types
		  

Masses

1 6.9410E+00 # Li     
2 1.2011E+01 # C_R    

Atoms

 1 1  0.00000 0.00000 0.00000
 2 1  0.00000 0.00000 3.69986
 3 1  0.00000 0.00000 7.39972
 4 1  -2.15807 3.73788 0.00000
 5 1  -4.31613 7.47576 0.00000
 6 1  4.31613 7.47576 0.00000
 7 1  2.15807 3.73788 0.00000
 8 1  4.31613 0.00000 0.00000
 9 1  8.63226 0.00000 0.00000
 10 1  -2.15807 3.73788 3.69986
 11 1  -4.31613 7.47576 7.39972
 12 1  4.31613 7.47576 3.69986
 13 1  2.15807 3.73788 7.39972
 14 1  4.31613 0.00000 3.69986
 15 1  8.63226 0.00000 7.39972
 16 1  -4.31613 7.47576 3.69986
 17 1  -2.15807 3.73788 7.39972
 18 1  2.15807 3.73788 3.69986
 19 1  4.31613 7.47576 7.39972
 20 1  8.63226 0.00000 3.69986
 21 1  4.31613 0.00000 7.39972
 22 1  0.00000 7.47576 0.00000
 23 1  6.47420 3.73788 0.00000
 24 1  0.00000 7.47576 3.69986
 25 1  6.47420 3.73788 7.39972
 26 1  6.47420 3.73788 3.69986
 27 1  0.00000 7.47576 7.39972
 28 2  -0.70288 1.21743 1.84993
 29 2  -5.77131 9.99621 9.24965
 30 2  5.77131 9.99621 1.84993
 31 2  0.70288 1.21743 9.24965
 32 2  1.40576 0.00000 1.84993
 33 2  11.54263 0.00000 9.24965
 34 2  -5.77131 9.99621 1.84993
 35 2  -0.70288 1.21743 9.24965
 36 2  0.70288 1.21743 1.84993
 37 2  5.77131 9.99621 9.24965
 38 2  11.54263 0.00000 1.84993
 39 2  1.40576 0.00000 9.24965
 40 2  -0.70288 1.21743 5.54979
 41 2  -5.77131 9.99621 5.54979
 42 2  5.77131 9.99621 5.54979
 43 2  0.70288 1.21743 5.54979
 44 2  1.40576 0.00000 5.54979
 45 2  11.54263 0.00000 5.54979
 46 2  -2.86095 4.95531 1.84993
 47 2  -3.61325 6.25833 9.24965
 48 2  3.61325 6.25833 1.84993
 49 2  2.86095 4.95531 9.24965
 50 2  5.72189 0.00000 1.84993
 51 2  7.22650 0.00000 9.24965
 52 2  -3.61325 6.25833 1.84993
 53 2  -2.86095 4.95531 9.24965
 54 2  2.86095 4.95531 1.84993
 55 2  3.61325 6.25833 9.24965
 56 2  7.22650 0.00000 1.84993
 57 2  5.72189 0.00000 9.24965
 58 2  -2.86095 4.95531 5.54979
 59 2  -3.61325 6.25833 5.54979
 60 2  3.61325 6.25833 5.54979
 61 2  2.86095 4.95531 5.54979
 62 2  5.72189 0.00000 5.54979
 63 2  7.22650 0.00000 5.54979
 64 2  -5.01901 8.69318 1.84993
 65 2  -1.45518 2.52045 9.24965
 66 2  1.45518 2.52045 1.84993
 67 2  5.01901 8.69318 9.24965
 68 2  10.03802 0.00000 1.84993
 69 2  2.91037 0.00000 9.24965
 70 2  -1.45518 2.52045 1.84993
 71 2  -5.01901 8.69318 9.24965
 72 2  5.01901 8.69318 1.84993
 73 2  1.45518 2.52045 9.24965
 74 2  2.91037 0.00000 1.84993
 75 2  10.03802 0.00000 9.24965
 76 2  -5.01901 8.69318 5.54979
 77 2  -1.45518 2.52045 5.54979
 78 2  1.45518 2.52045 5.54979
 79 2  5.01901 8.69318 5.54979
 80 2  10.03802 0.00000 5.54979
 81 2  2.91037 0.00000 5.54979
 82 2  3.61325 1.21743 1.84993
 83 2  2.86095 9.99621 9.24965
 84 2  10.08744 2.52045 1.84993
 85 2  -3.61325 8.69318 9.24965
 86 2  5.72189 7.47576 1.84993
 87 2  0.75230 3.73788 9.24965
 88 2  2.86095 9.99621 1.84993
 89 2  3.61325 1.21743 9.24965
 90 2  -3.61325 8.69318 1.84993
 91 2  10.08744 2.52045 9.24965
 92 2  0.75230 3.73788 1.84993
 93 2  5.72189 7.47576 9.24965
 94 2  -0.75230 3.73788 9.24965
 95 2  7.22650 7.47576 1.84993
 96 2  -2.86095 9.99621 9.24965
 97 2  9.33514 1.21743 1.84993
 98 2  3.61325 8.69318 9.24965
 99 2  2.86095 2.52045 1.84993
 100 2  7.22650 7.47576 9.24965
 101 2  -0.75230 3.73788 1.84993
 102 2  9.33514 1.21743 9.24965
 103 2  -2.86095 9.99621 1.84993
 104 2  2.86095 2.52045 9.24965
 105 2  3.61325 8.69318 1.84993
 106 2  3.61325 1.21743 5.54979
 107 2  2.86095 9.99621 5.54979
 108 2  10.08744 2.52045 5.54979
 109 2  -3.61325 8.69318 5.54979
 110 2  5.72189 7.47576 5.54979
 111 2  0.75230 3.73788 5.54979
 112 2  -0.75230 3.73788 5.54979
 113 2  7.22650 7.47576 5.54979
 114 2  -2.86095 9.99621 5.54979
 115 2  9.33514 1.21743 5.54979
 116 2  3.61325 8.69318 5.54979
 117 2  2.86095 2.52045 5.54979
 118 2  1.45518 4.95531 1.84993
 119 2  5.01901 6.25833 9.24965
 120 2  1.45518 9.99621 1.84993
 121 2  5.01901 1.21743 9.24965
 122 2  -2.91037 7.47576 1.84993
 123 2  9.38456 3.73788 9.24965
 124 2  5.01901 6.25833 1.84993
 125 2  1.45518 4.95531 9.24965
 126 2  5.01901 1.21743 1.84993
 127 2  1.45518 9.99621 9.24965
 128 2  9.38456 3.73788 1.84993
 129 2  -2.91037 7.47576 9.24965
 130 2  3.56383 3.73788 9.24965
 131 2  2.91037 7.47576 1.84993
 132 2  7.92938 6.25833 9.24965
 133 2  -1.45518 4.95531 1.84993
 134 2  7.92938 1.21743 9.24965
 135 2  -1.45518 9.99621 1.84993
 136 2  2.91037 7.47576 9.24965
 137 2  3.56383 3.73788 1.84993
 138 2  -1.45518 4.95531 9.24965
 139 2  7.92938 6.25833 1.84993
 140 2  -1.45518 9.99621 9.24965
 141 2  7.92938 1.21743 1.84993
 142 2  1.45518 4.95531 5.54979
 143 2  5.01901 6.25833 5.54979
 144 2  1.45518 9.99621 5.54979
 145 2  5.01901 1.21743 5.54979
 146 2  -2.91037 7.47576 5.54979
 147 2  9.38456 3.73788 5.54979
 148 2  3.56383 3.73788 5.54979
 149 2  2.91037 7.47576 5.54979
 150 2  7.92938 6.25833 5.54979
 151 2  -1.45518 4.95531 5.54979
 152 2  7.92938 1.21743 5.54979
 153 2  -1.45518 9.99621 5.54979
 154 2  -0.70288 8.69318 1.84993
 155 2  7.17708 2.52045 9.24965
 156 2  -0.70288 6.25833 1.84993
 157 2  7.17708 4.95531 9.24965
 158 2  1.40576 7.47576 1.84993
 159 2  5.06843 3.73788 9.24965
 160 2  7.17708 2.52045 1.84993
 161 2  -0.70288 8.69318 9.24965
 162 2  7.17708 4.95531 1.84993
 163 2  -0.70288 6.25833 9.24965
 164 2  5.06843 3.73788 1.84993
 165 2  1.40576 7.47576 9.24965
 166 2  7.87996 3.73788 9.24965
 167 2  -1.40576 7.47576 1.84993
 168 2  5.77131 2.52045 9.24965
 169 2  0.70288 8.69318 1.84993
 170 2  5.77131 4.95531 9.24965
 171 2  0.70288 6.25833 1.84993
 172 2  -1.40576 7.47576 9.24965
 173 2  7.87996 3.73788 1.84993
 174 2  0.70288 8.69318 9.24965
 175 2  5.77131 2.52045 1.84993
 176 2  0.70288 6.25833 9.24965
 177 2  5.77131 4.95531 1.84993
 178 2  -0.70288 8.69318 5.54979
 179 2  7.17708 2.52045 5.54979
 180 2  -0.70288 6.25833 5.54979
 181 2  7.17708 4.95531 5.54979
 182 2  1.40576 7.47576 5.54979
 183 2  5.06843 3.73788 5.54979
 184 2  7.87996 3.73788 5.54979
 185 2  -1.40576 7.47576 5.54979
 186 2  5.77131 2.52045 5.54979
 187 2  0.70288 8.69318 5.54979
 188 2  5.77131 4.95531 5.54979
 189 2  0.70288 6.25833 5.54979
