189 atoms
2 atom types
		  
-7.507805  20.786930 xlo xhi		  
-1.736495  13.469200 ylo yhi		  
-1.091796  12.077942 zlo zhi

Masses

1 6.9410E+00 # Li     
2 1.2011E+01 # C_R    

Atoms

       1        1        1  0.00000000    0.00000    0.00000    0.00000    0    0    0
       2        2        1  0.00000000    0.00000    0.00000    3.69986    0    0    0
       3        3        1  0.00000000    0.00000    0.00000    7.39972    0    0    0
       4        4        1  0.00000000   -2.15807    3.73788    0.00000    0    0    0
       5        5        1  0.00000000   -4.31613    7.47576    0.00000    0    0    0
       6        6        1  0.00000000    4.31613    7.47576    0.00000    0    0    0
       7        7        1  0.00000000    2.15807    3.73788    0.00000    0    0    0
       8        8        1  0.00000000    4.31613    0.00000    0.00000    0    0    0
       9        9        1  0.00000000    8.63226    0.00000    0.00000    0    0    0
      10       10        1  0.00000000   -2.15807    3.73788    3.69986    0    0    0
      11       11        1  0.00000000   -4.31613    7.47576    7.39972    0    0    0
      12       12        1  0.00000000    4.31613    7.47576    3.69986    0    0    0
      13       13        1  0.00000000    2.15807    3.73788    7.39972    0    0    0
      14       14        1  0.00000000    4.31613    0.00000    3.69986    0    0    0
      15       15        1  0.00000000    8.63226    0.00000    7.39972    0    0    0
      16       16        1  0.00000000   -4.31613    7.47576    3.69986    0    0    0
      17       17        1  0.00000000   -2.15807    3.73788    7.39972    0    0    0
      18       18        1  0.00000000    2.15807    3.73788    3.69986    0    0    0
      19       19        1  0.00000000    4.31613    7.47576    7.39972    0    0    0
      20       20        1  0.00000000    8.63226    0.00000    3.69986    0    0    0
      21       21        1  0.00000000    4.31613    0.00000    7.39972    0    0    0
      22       22        1  0.00000000    0.00000    7.47576    0.00000    0    0    0
      23       23        1  0.00000000    6.47420    3.73788    0.00000    0    0    0
      24       24        1  0.00000000    0.00000    7.47576    3.69986    0    0    0
      25       25        1  0.00000000    6.47420    3.73788    7.39972    0    0    0
      26       26        1  0.00000000    6.47420    3.73788    3.69986    0    0    0
      27       27        1  0.00000000    0.00000    7.47576    7.39972    0    0    0
      28       28        2  0.00000000   -0.70288    1.21743    1.84993    0    0    0
      29       29        2  0.00000000   -5.77131    9.99621    9.24965    0    0    0
      30       30        2  0.00000000    5.77131    9.99621    1.84993    0    0    0
      31       31        2  0.00000000    0.70288    1.21743    9.24965    0    0    0
      32       32        2  0.00000000    1.40576    0.00000    1.84993    0    0    0
      33       33        2  0.00000000   11.54263    0.00000    9.24965    0    0    0
      34       34        2  0.00000000   -5.77131    9.99621    1.84993    0    0    0
      35       35        2  0.00000000   -0.70288    1.21743    9.24965    0    0    0
      36       36        2  0.00000000    0.70288    1.21743    1.84993    0    0    0
      37       37        2  0.00000000    5.77131    9.99621    9.24965    0    0    0
      38       38        2  0.00000000   11.54263    0.00000    1.84993    0    0    0
      39       39        2  0.00000000    1.40576    0.00000    9.24965    0    0    0
      40       40        2  0.00000000   -0.70288    1.21743    5.54979    0    0    0
      41       41        2  0.00000000   -5.77131    9.99621    5.54979    0    0    0
      42       42        2  0.00000000    5.77131    9.99621    5.54979    0    0    0
      43       43        2  0.00000000    0.70288    1.21743    5.54979    0    0    0
      44       44        2  0.00000000    1.40576    0.00000    5.54979    0    0    0
      45       45        2  0.00000000   11.54263    0.00000    5.54979    0    0    0
      46       46        2  0.00000000   -2.86095    4.95531    1.84993    0    0    0
      47       47        2  0.00000000   -3.61325    6.25833    9.24965    0    0    0
      48       48        2  0.00000000    3.61325    6.25833    1.84993    0    0    0
      49       49        2  0.00000000    2.86095    4.95531    9.24965    0    0    0
      50       50        2  0.00000000    5.72189    0.00000    1.84993    0    0    0
      51       51        2  0.00000000    7.22650    0.00000    9.24965    0    0    0
      52       52        2  0.00000000   -3.61325    6.25833    1.84993    0    0    0
      53       53        2  0.00000000   -2.86095    4.95531    9.24965    0    0    0
      54       54        2  0.00000000    2.86095    4.95531    1.84993    0    0    0
      55       55        2  0.00000000    3.61325    6.25833    9.24965    0    0    0
      56       56        2  0.00000000    7.22650    0.00000    1.84993    0    0    0
      57       57        2  0.00000000    5.72189    0.00000    9.24965    0    0    0
      58       58        2  0.00000000   -2.86095    4.95531    5.54979    0    0    0
      59       59        2  0.00000000   -3.61325    6.25833    5.54979    0    0    0
      60       60        2  0.00000000    3.61325    6.25833    5.54979    0    0    0
      61       61        2  0.00000000    2.86095    4.95531    5.54979    0    0    0
      62       62        2  0.00000000    5.72189    0.00000    5.54979    0    0    0
      63       63        2  0.00000000    7.22650    0.00000    5.54979    0    0    0
      64       64        2  0.00000000   -5.01901    8.69318    1.84993    0    0    0
      65       65        2  0.00000000   -1.45518    2.52045    9.24965    0    0    0
      66       66        2  0.00000000    1.45518    2.52045    1.84993    0    0    0
      67       67        2  0.00000000    5.01901    8.69318    9.24965    0    0    0
      68       68        2  0.00000000   10.03802    0.00000    1.84993    0    0    0
      69       69        2  0.00000000    2.91037    0.00000    9.24965    0    0    0
      70       70        2  0.00000000   -1.45518    2.52045    1.84993    0    0    0
      71       71        2  0.00000000   -5.01901    8.69318    9.24965    0    0    0
      72       72        2  0.00000000    5.01901    8.69318    1.84993    0    0    0
      73       73        2  0.00000000    1.45518    2.52045    9.24965    0    0    0
      74       74        2  0.00000000    2.91037    0.00000    1.84993    0    0    0
      75       75        2  0.00000000   10.03802    0.00000    9.24965    0    0    0
      76       76        2  0.00000000   -5.01901    8.69318    5.54979    0    0    0
      77       77        2  0.00000000   -1.45518    2.52045    5.54979    0    0    0
      78       78        2  0.00000000    1.45518    2.52045    5.54979    0    0    0
      79       79        2  0.00000000    5.01901    8.69318    5.54979    0    0    0
      80       80        2  0.00000000   10.03802    0.00000    5.54979    0    0    0
      81       81        2  0.00000000    2.91037    0.00000    5.54979    0    0    0
      82       82        2  0.00000000    3.61325    1.21743    1.84993    0    0    0
      83       83        2  0.00000000    2.86095    9.99621    9.24965    0    0    0
      84       84        2  0.00000000   10.08744    2.52045    1.84993    0    0    0
      85       85        2  0.00000000   -3.61325    8.69318    9.24965    0    0    0
      86       86        2  0.00000000    5.72189    7.47576    1.84993    0    0    0
      87       87        2  0.00000000    0.75230    3.73788    9.24965    0    0    0
      88       88        2  0.00000000    2.86095    9.99621    1.84993    0    0    0
      89       89        2  0.00000000    3.61325    1.21743    9.24965    0    0    0
      90       90        2  0.00000000   -3.61325    8.69318    1.84993    0    0    0
      91       91        2  0.00000000   10.08744    2.52045    9.24965    0    0    0
      92       92        2  0.00000000    0.75230    3.73788    1.84993    0    0    0
      93       93        2  0.00000000    5.72189    7.47576    9.24965    0    0    0
      94       94        2  0.00000000   -0.75230    3.73788    9.24965    0    0    0
      95       95        2  0.00000000    7.22650    7.47576    1.84993    0    0    0
      96       96        2  0.00000000   -2.86095    9.99621    9.24965    0    0    0
      97       97        2  0.00000000    9.33514    1.21743    1.84993    0    0    0
      98       98        2  0.00000000    3.61325    8.69318    9.24965    0    0    0
      99       99        2  0.00000000    2.86095    2.52045    1.84993    0    0    0
     100      100        2  0.00000000    7.22650    7.47576    9.24965    0    0    0
     101      101        2  0.00000000   -0.75230    3.73788    1.84993    0    0    0
     102      102        2  0.00000000    9.33514    1.21743    9.24965    0    0    0
     103      103        2  0.00000000   -2.86095    9.99621    1.84993    0    0    0
     104      104        2  0.00000000    2.86095    2.52045    9.24965    0    0    0
     105      105        2  0.00000000    3.61325    8.69318    1.84993    0    0    0
     106      106        2  0.00000000    3.61325    1.21743    5.54979    0    0    0
     107      107        2  0.00000000    2.86095    9.99621    5.54979    0    0    0
     108      108        2  0.00000000   10.08744    2.52045    5.54979    0    0    0
     109      109        2  0.00000000   -3.61325    8.69318    5.54979    0    0    0
     110      110        2  0.00000000    5.72189    7.47576    5.54979    0    0    0
     111      111        2  0.00000000    0.75230    3.73788    5.54979    0    0    0
     112      112        2  0.00000000   -0.75230    3.73788    5.54979    0    0    0
     113      113        2  0.00000000    7.22650    7.47576    5.54979    0    0    0
     114      114        2  0.00000000   -2.86095    9.99621    5.54979    0    0    0
     115      115        2  0.00000000    9.33514    1.21743    5.54979    0    0    0
     116      116        2  0.00000000    3.61325    8.69318    5.54979    0    0    0
     117      117        2  0.00000000    2.86095    2.52045    5.54979    0    0    0
     118      118        2  0.00000000    1.45518    4.95531    1.84993    0    0    0
     119      119        2  0.00000000    5.01901    6.25833    9.24965    0    0    0
     120      120        2  0.00000000    1.45518    9.99621    1.84993    0    0    0
     121      121        2  0.00000000    5.01901    1.21743    9.24965    0    0    0
     122      122        2  0.00000000   -2.91037    7.47576    1.84993    0    0    0
     123      123        2  0.00000000    9.38456    3.73788    9.24965    0    0    0
     124      124        2  0.00000000    5.01901    6.25833    1.84993    0    0    0
     125      125        2  0.00000000    1.45518    4.95531    9.24965    0    0    0
     126      126        2  0.00000000    5.01901    1.21743    1.84993    0    0    0
     127      127        2  0.00000000    1.45518    9.99621    9.24965    0    0    0
     128      128        2  0.00000000    9.38456    3.73788    1.84993    0    0    0
     129      129        2  0.00000000   -2.91037    7.47576    9.24965    0    0    0
     130      130        2  0.00000000    3.56383    3.73788    9.24965    0    0    0
     131      131        2  0.00000000    2.91037    7.47576    1.84993    0    0    0
     132      132        2  0.00000000    7.92938    6.25833    9.24965    0    0    0
     133      133        2  0.00000000   -1.45518    4.95531    1.84993    0    0    0
     134      134        2  0.00000000    7.92938    1.21743    9.24965    0    0    0
     135      135        2  0.00000000   -1.45518    9.99621    1.84993    0    0    0
     136      136        2  0.00000000    2.91037    7.47576    9.24965    0    0    0
     137      137        2  0.00000000    3.56383    3.73788    1.84993    0    0    0
     138      138        2  0.00000000   -1.45518    4.95531    9.24965    0    0    0
     139      139        2  0.00000000    7.92938    6.25833    1.84993    0    0    0
     140      140        2  0.00000000   -1.45518    9.99621    9.24965    0    0    0
     141      141        2  0.00000000    7.92938    1.21743    1.84993    0    0    0
     142      142        2  0.00000000    1.45518    4.95531    5.54979    0    0    0
     143      143        2  0.00000000    5.01901    6.25833    5.54979    0    0    0
     144      144        2  0.00000000    1.45518    9.99621    5.54979    0    0    0
     145      145        2  0.00000000    5.01901    1.21743    5.54979    0    0    0
     146      146        2  0.00000000   -2.91037    7.47576    5.54979    0    0    0
     147      147        2  0.00000000    9.38456    3.73788    5.54979    0    0    0
     148      148        2  0.00000000    3.56383    3.73788    5.54979    0    0    0
     149      149        2  0.00000000    2.91037    7.47576    5.54979    0    0    0
     150      150        2  0.00000000    7.92938    6.25833    5.54979    0    0    0
     151      151        2  0.00000000   -1.45518    4.95531    5.54979    0    0    0
     152      152        2  0.00000000    7.92938    1.21743    5.54979    0    0    0
     153      153        2  0.00000000   -1.45518    9.99621    5.54979    0    0    0
     154      154        2  0.00000000   -0.70288    8.69318    1.84993    0    0    0
     155      155        2  0.00000000    7.17708    2.52045    9.24965    0    0    0
     156      156        2  0.00000000   -0.70288    6.25833    1.84993    0    0    0
     157      157        2  0.00000000    7.17708    4.95531    9.24965    0    0    0
     158      158        2  0.00000000    1.40576    7.47576    1.84993    0    0    0
     159      159        2  0.00000000    5.06843    3.73788    9.24965    0    0    0
     160      160        2  0.00000000    7.17708    2.52045    1.84993    0    0    0
     161      161        2  0.00000000   -0.70288    8.69318    9.24965    0    0    0
     162      162        2  0.00000000    7.17708    4.95531    1.84993    0    0    0
     163      163        2  0.00000000   -0.70288    6.25833    9.24965    0    0    0
     164      164        2  0.00000000    5.06843    3.73788    1.84993    0    0    0
     165      165        2  0.00000000    1.40576    7.47576    9.24965    0    0    0
     166      166        2  0.00000000    7.87996    3.73788    9.24965    0    0    0
     167      167        2  0.00000000   -1.40576    7.47576    1.84993    0    0    0
     168      168        2  0.00000000    5.77131    2.52045    9.24965    0    0    0
     169      169        2  0.00000000    0.70288    8.69318    1.84993    0    0    0
     170      170        2  0.00000000    5.77131    4.95531    9.24965    0    0    0
     171      171        2  0.00000000    0.70288    6.25833    1.84993    0    0    0
     172      172        2  0.00000000   -1.40576    7.47576    9.24965    0    0    0
     173      173        2  0.00000000    7.87996    3.73788    1.84993    0    0    0
     174      174        2  0.00000000    0.70288    8.69318    9.24965    0    0    0
     175      175        2  0.00000000    5.77131    2.52045    1.84993    0    0    0
     176      176        2  0.00000000    0.70288    6.25833    9.24965    0    0    0
     177      177        2  0.00000000    5.77131    4.95531    1.84993    0    0    0
     178      178        2  0.00000000   -0.70288    8.69318    5.54979    0    0    0
     179      179        2  0.00000000    7.17708    2.52045    5.54979    0    0    0
     180      180        2  0.00000000   -0.70288    6.25833    5.54979    0    0    0
     181      181        2  0.00000000    7.17708    4.95531    5.54979    0    0    0
     182      182        2  0.00000000    1.40576    7.47576    5.54979    0    0    0
     183      183        2  0.00000000    5.06843    3.73788    5.54979    0    0    0
     184      184        2  0.00000000    7.87996    3.73788    5.54979    0    0    0
     185      185        2  0.00000000   -1.40576    7.47576    5.54979    0    0    0
     186      186        2  0.00000000    5.77131    2.52045    5.54979    0    0    0
     187      187        2  0.00000000    0.70288    8.69318    5.54979    0    0    0
     188      188        2  0.00000000    5.77131    4.95531    5.54979    0    0    0
     189      189        2  0.00000000    0.70288    6.25833    5.54979    0    0    0

