LAMMPS (29 Sep 2021 - Update 3)
units                real
atom_style           atomic
boundary             p p p

read_data            data.test_2types
Reading data file ...
  orthogonal box = (-7.5078050 -1.7364950 -1.0917960) to (20.786930 13.469200 12.077942)
  1 by 1 by 1 MPI processor grid
  reading atoms ...
  0 atoms
ERROR: Unknown identifier in data file: 1 1  0.00000 0.00000 0.00000 (../read_data.cpp:731)
Last command: read_data            data.test_2types
