Siesta Version  : 4.1.5
Architecture    : x86_64-unknown-linux-gnu--unknown
Compiler version: GNU Fortran (GCC) 11.3.0
Compiler flags  : mpif90 -g -O2 -fallow-argument-mismatch
PP flags        : -DMPI -DFC_HAVE_FLUSH -DFC_HAVE_ABORT
Libraries       :  -I/global/software/sl-7.x86_64/modules/intel/2020.4.304/mkl/include  /globall/software/sl-7.x86_64/modules/intel/2020.4.304/mkl/lib/intel64/libmkl_scalapack_lp64.a -Wl,--start-group /global/software/sl-7.x86_64/modules/intel/2020.4.304/mkl/lib/intel64/libmkl_intel_lp64.a /global/software/sl-7.x86_64/modules/intel/2020.4.304/mkl/lib/intel64/libmkl_sequential.a /global/software/sl-7.x86_64/modules/intel/2020.4.304/mkl/lib/intel64/libmkl_core.a /global/software/sl-7.x86_64/modules/intel/2020.4.304/mkl/lib/intel64/libmkl_blacs_openmpi_lp64.a -Wl,--end-group -lpthread -lm -ldl
PARALLEL version

* Running on 4 nodes in parallel
>> Start of run:   9-NOV-2022  15:17:30

                           ***********************       
                           *  WELCOME TO SIESTA  *       
                           ***********************       

reinit: Reading from standard input
reinit: Dumped input in INPUT_TMP.17359
************************** Dump of input data file ****************************
SystemName LiC6_scf
SystemLabel LiC6_scf
NumberOfAtoms   7
NumberOfSpecies 2
%block ChemicalSpeciesLabel
1  3   Li-gga
2  6   C-gga
%endblock ChemicalSpeciesLabel
PAO.BasisSize  SZP
PAO.EnergyShift  10 meV
%block PS.Lmax
C-gga   2
Li-gga  2
%endblock PS.Lmax
LatticeConstant 1.000000 Ang
%block LatticeVectors
	4.3161300000	0.0000000000	0.0000000000
	-2.1580650000	3.7378782260	0.0000000000
	0.0000000000	0.0000000000	1.9979244000
%endblock LatticeVectors
AtomicCoordinatesFormat Ang
%block AtomicCoordinatesAndAtomicSpecies
	0.00000000	0.00000000	0.00000000	2
	-0.70288177	1.21742694	0.99896220	1
	-1.45518323	2.52045129	0.99896220	1
	1.45518323	2.52045129	0.99896220	1
	0.70288177	1.21742694	0.99896220	1
	1.40576354	0.00000000	0.99896220	1
	2.91036646	0.00000000	0.99896220	1
%endblock AtomicCoordinatesAndAtomicSpecies
Kgrid_NoTRS  T
%block kgrid_MonkhorstPack
4       0       0       0.0
0       4       0       0.0
0       0       4       0.0
%endblock kgrid_MonkhorstPack
AtomCoorFormatOut Ang
BlockSize 1
#ProcessorY 12
Diag.ParallelOverK   T
Diag.DivideAndConquer F
MeshCutoff   300 Ry
SCF.FreeE.Tolerance 1E-3 eV
SCF.EDM.Tolerance   5E-3 eV
DM.Tolerance  1E-3
DM.Require.Energy.Convergence T
DM.NumberPulay 4
XC.Functional GGA
XC.Authors    PBE
UseSaveData        F
MD.TypeOfRun       CG
MD.VariableCell    F
MD.NumCGsteps      00
MD.MaxCGDispl      0.200000 Bohr
MD.MaxStressTol    1.000000 GPa
MD.MaxForceTol     0.010000 eV/Ang
WriteMDHistory T
WriteCoorStep T
WriteForces T
WriteCoorStep    T
WriteEigenValues T
WriteDM    F
MM.UnitsDistance Ang  # what this program prints out DO NOT CHANGE
MM.UnitsEnergy    eV  # what this program prints out DO NOT CHANGE
MM.Grimme.S6     0.75 # Grimme-paper for PBE (correct for your functional)
MM.Grimme.D     20.   # Grimme-paper (correct for your functional)
%block MM.Potentials
  1   1 Grimme     16.69      1.650 # Li, 10.1002/jcc.20495
  1   2 Grimme     17.40      2.277 # Li / C
  2   2 Grimme     18.14      2.904 # C, 10.1002/jcc.20495
%endblock MM.Potentials
#%block ProjectedDensityOfStates
# -200.0  120.0  0.4  12800  eV
#%endblock ProjectedDensityOfStates
************************** End of input data file *****************************

reinit: -----------------------------------------------------------------------
reinit: System Name: LiC6_scf
reinit: -----------------------------------------------------------------------
reinit: System Label: LiC6_scf
reinit: -----------------------------------------------------------------------
Reading two-body potentials
Grimme - two-body potential between 1 and 1
Grimme - two-body potential between 1 and 2
Grimme - two-body potential between 2 and 2

initatom: Reading input for the pseudopotentials and atomic orbitals ----------
Species number:   1 Atomic number:    3 Label: Li-gga
Species number:   2 Atomic number:    6 Label: C-gga

Ground state valence configuration:   2s01
Reading pseudopotential information in formatted form from Li-gga.psf

Valence configuration for pseudopotential generation:
2s( 1.00) rc: 2.28
2p( 0.00) rc: 2.28
3d( 0.00) rc: 2.59
4f( 0.00) rc: 2.59
Ground state valence configuration:   2s02  2p02
Reading pseudopotential information in formatted form from C-gga.psf

Valence configuration for pseudopotential generation:
2s( 2.00) rc: 1.56
2p( 2.00) rc: 1.56
3d( 0.00) rc: 1.56
4f( 0.00) rc: 1.56
relmxkb: Read Max KB Ang. Momentum=    2 for species C-gga
relmxkb: Read Max KB Ang. Momentum=    2 for species Li-gga

<basis_specs>
===============================================================================
Li-gga               Z=   3    Mass=  6.9400        Charge= 0.17977+309
Lmxo=0 Lmxkb= 2    BasisType=split      Semic=F
L=0  Nsemic=0  Cnfigmx=2
          i=1  nzeta=1  polorb=1  (2s)
            splnorm:   0.15000    
               vcte:    0.0000    
               rinn:    0.0000    
               qcoe:    0.0000    
               qyuk:    0.0000    
               qwid:   0.10000E-01
                rcs:    0.0000    
            lambdas:    1.0000    
-------------------------------------------------------------------------------
L=0  Nkbl=1  erefs: 0.17977+309
L=1  Nkbl=1  erefs: 0.17977+309
L=2  Nkbl=1  erefs: 0.17977+309
===============================================================================
</basis_specs>

atom: Called for Li-gga                (Z =   3)

read_vps: Pseudopotential generation method:
read_vps: ATM 3.2.2 Troullier-Martins                       
Valence charge for ps generation:    1.00000

read_vps: Pseudopotential includes a core correction:
read_vps: Pseudo-core for xc-correction

xc_check: Exchange-correlation functional:
xc_check: GGA Perdew, Burke & Ernzerhof 1996
V l=0 = -2*Zval/r beyond r=  2.2278
V l=1 = -2*Zval/r beyond r=  2.2278
V l=2 = -2*Zval/r beyond r=  2.5245
All V_l potentials equal beyond r=  2.4622
This should be close to max(r_c) in ps generation
All pots = -2*Zval/r beyond r=  2.5245

VLOCAL1: 99.0% of the norm of Vloc inside      7.160 Ry
VLOCAL1: 99.9% of the norm of Vloc inside     16.318 Ry
atom: Maximum radius for 4*pi*r*r*local-pseudopot. charge    2.86079
atom: Maximum radius for r*vlocal+2*Zval:    2.43160
GHOST: No ghost state for L =  0
GHOST: No ghost state for L =  1
GHOST: No ghost state for L =  2

KBgen: Kleinman-Bylander projectors: 
   l= 0   rc=  2.654023   el= -0.211234   Ekb=  1.742119   kbcos=  0.228463
   l= 1   rc=  2.721230   el= -0.080095   Ekb= -1.122375   kbcos= -0.147941
   l= 2   rc=  2.825246   el=  0.002001   Ekb= -0.207076   kbcos= -0.031965

KBgen: Total number of Kleinman-Bylander projectors:    9
atom: -------------------------------------------------------------------------

atom: SANKEY-TYPE ORBITALS:

SPLIT: Orbitals with angular momentum L= 0

SPLIT: Basis orbitals for state 2s

SPLIT: PAO cut-off radius determined from an
SPLIT: energy shift=  0.000735 Ry

   izeta = 1
                 lambda =    1.000000
                     rc =   11.897381
                 energy =   -0.210580
                kinetic =    0.143382
    potential(screened) =   -0.353962
       potential(ionic) =   -0.533453

POLgen: Perturbative polarization orbital with L=  1

POLgen: Polarization orbital for state 2s

   izeta = 1
                     rc =   11.897381
                 energy =   -0.027011
                kinetic =    0.282985
    potential(screened) =   -0.309997
       potential(ionic) =   -0.490997
atom: Total number of Sankey-type orbitals:  4

atm_pop: Valence configuration (for local Pseudopot. screening):
 2s( 1.00)                                                            
Vna: chval, zval:    1.00000   1.00000

Vna:  Cut-off radius for the neutral-atom potential:  11.897381
comcore: Pseudo-core radius Rcore=  3.450946

atom: _________________________________________________________________________

<basis_specs>
===============================================================================
C-gga                Z=   6    Mass=  12.010        Charge= 0.17977+309
Lmxo=1 Lmxkb= 2    BasisType=split      Semic=F
L=0  Nsemic=0  Cnfigmx=2
          i=1  nzeta=1  polorb=0  (2s)
            splnorm:   0.15000    
               vcte:    0.0000    
               rinn:    0.0000    
               qcoe:    0.0000    
               qyuk:    0.0000    
               qwid:   0.10000E-01
                rcs:    0.0000    
            lambdas:    1.0000    
L=1  Nsemic=0  Cnfigmx=2
          i=1  nzeta=1  polorb=1  (2p)
            splnorm:   0.15000    
               vcte:    0.0000    
               rinn:    0.0000    
               qcoe:    0.0000    
               qyuk:    0.0000    
               qwid:   0.10000E-01
                rcs:    0.0000    
            lambdas:    1.0000    
-------------------------------------------------------------------------------
L=0  Nkbl=1  erefs: 0.17977+309
L=1  Nkbl=1  erefs: 0.17977+309
L=2  Nkbl=1  erefs: 0.17977+309
===============================================================================
</basis_specs>

atom: Called for C-gga                 (Z =   6)

read_vps: Pseudopotential generation method:
read_vps: ATM 3.2.2 Troullier-Martins                       
Valence charge for ps generation:    4.00000

xc_check: Exchange-correlation functional:
xc_check: GGA Perdew, Burke & Ernzerhof 1996
V l=0 = -2*Zval/r beyond r=  1.5227
V l=1 = -2*Zval/r beyond r=  1.5227
V l=2 = -2*Zval/r beyond r=  1.5227
All V_l potentials equal beyond r=  1.4851
This should be close to max(r_c) in ps generation
All pots = -2*Zval/r beyond r=  1.5227

VLOCAL1: 99.0% of the norm of Vloc inside     19.682 Ry
VLOCAL1: 99.9% of the norm of Vloc inside     44.856 Ry
atom: Maximum radius for 4*pi*r*r*local-pseudopot. charge    1.79142
atom: Maximum radius for r*vlocal+2*Zval:    1.54183
GHOST: No ghost state for L =  0
GHOST: No ghost state for L =  1
GHOST: No ghost state for L =  2

KBgen: Kleinman-Bylander projectors: 
   l= 0   rc=  1.661951   el= -1.010689   Ekb=  5.289847   kbcos=  0.316429
   l= 1   rc=  1.661951   el= -0.388490   Ekb= -4.102504   kbcos= -0.351025
   l= 2   rc=  1.747182   el=  0.001971   Ekb= -1.006005   kbcos= -0.008530

KBgen: Total number of Kleinman-Bylander projectors:    9
atom: -------------------------------------------------------------------------

atom: SANKEY-TYPE ORBITALS:

SPLIT: Orbitals with angular momentum L= 0

SPLIT: Basis orbitals for state 2s

SPLIT: PAO cut-off radius determined from an
SPLIT: energy shift=  0.000735 Ry

   izeta = 1
                 lambda =    1.000000
                     rc =    5.948690
                 energy =   -1.010099
                kinetic =    0.827121
    potential(screened) =   -1.837220
       potential(ionic) =   -5.392783

SPLIT: Orbitals with angular momentum L= 1

SPLIT: Basis orbitals for state 2p

SPLIT: PAO cut-off radius determined from an
SPLIT: energy shift=  0.000735 Ry

   izeta = 1
                 lambda =    1.000000
                     rc =    7.638387
                 energy =   -0.387843
                kinetic =    2.314739
    potential(screened) =   -2.702582
       potential(ionic) =   -6.092371

POLgen: Perturbative polarization orbital with L=  2

POLgen: Polarization orbital for state 2p

   izeta = 1
                     rc =    7.638387
                 energy =    0.921402
                kinetic =    1.955040
    potential(screened) =   -1.033637
       potential(ionic) =   -3.679558
atom: Total number of Sankey-type orbitals:  9

atm_pop: Valence configuration (for local Pseudopot. screening):
 2s( 2.00)                                                            
 2p( 2.00)                                                            
Vna: chval, zval:    4.00000   4.00000

Vna:  Cut-off radius for the neutral-atom potential:   7.638387

atom: _________________________________________________________________________

prinput: Basis input ----------------------------------------------------------

PAO.BasisType split     

%block ChemicalSpeciesLabel
    1    3 Li-gga                  # Species index, atomic number, species label
    2    6 C-gga                   # Species index, atomic number, species label
%endblock ChemicalSpeciesLabel

%block PAO.Basis                 # Define Basis set
Li-gga                1                    # Species label, number of l-shells
 n=2   0   1 P   1                   # n, l, Nzeta, Polarization, NzetaPol
  11.897   
   1.000   
C-gga                 2                    # Species label, number of l-shells
 n=2   0   1                         # n, l, Nzeta 
   5.949   
   1.000   
 n=2   1   1 P   1                   # n, l, Nzeta, Polarization, NzetaPol
   7.638   
   1.000   
%endblock PAO.Basis

prinput: ----------------------------------------------------------------------

coor:   Atomic-coordinates input format  =     Cartesian coordinates
coor:                                          (in Angstroms)

siesta: Atomic coordinates (Bohr) and species
siesta:      0.00000   0.00000   0.00000  2        1
siesta:     -1.32825   2.30060   1.88777  1        2
siesta:     -2.74990   4.76296   1.88777  1        3
siesta:      2.74990   4.76296   1.88777  1        4
siesta:      1.32825   2.30060   1.88777  1        5
siesta:      2.65651   0.00000   1.88777  1        6
siesta:      5.49980   0.00000   1.88777  1        7

siesta: System type = bulk      

initatomlists: Number of atoms, orbitals, and projectors:      7    33    63

siesta: ******************** Simulation parameters ****************************
siesta:
siesta: The following are some of the parameters of the simulation.
siesta: A complete list of the parameters used, including default values,
siesta: can be found in file out.fdf
siesta:
redata: Spin configuration                          = none
redata: Number of spin components                   = 1
redata: Time-Reversal Symmetry                      = T
redata: Spin spiral                                 = F
redata: Long output                                 =   F
redata: Number of Atomic Species                    =        2
redata: Charge density info will appear in .RHO file
redata: Write Mulliken Pop.                         = NO
redata: Matel table size (NRTAB)                    =     1024
redata: Mesh Cutoff                                 =   300.0000 Ry
redata: Net charge of the system                    =     0.0000 |e|
redata: Min. number of SCF Iter                     =        0
redata: Max. number of SCF Iter                     =     1000
redata: SCF convergence failure will abort job
redata: SCF mix quantity                            = Hamiltonian
redata: Mix DM or H after convergence               =   F
redata: Recompute H after scf cycle                 =   F
redata: Mix DM in first SCF step                    =   T
redata: Write Pulay info on disk                    =   F
redata: New DM Occupancy tolerance                  = 0.000000000001
redata: No kicks to SCF
redata: DM Mixing Weight for Kicks                  =     0.5000
redata: Require Harris convergence for SCF          =   F
redata: Harris energy tolerance for SCF             =     0.000100 eV
redata: Require DM convergence for SCF              =   T
redata: DM tolerance for SCF                        =     0.001000
redata: Require EDM convergence for SCF             =   F
redata: EDM tolerance for SCF                       =     0.005000 eV
redata: Require H convergence for SCF               =   T
redata: Hamiltonian tolerance for SCF               =     0.001000 eV
redata: Require (free) Energy convergence for SCF   =   T
redata: (free) Energy tolerance for SCF             =     0.001000 eV
redata: Using Saved Data (generic)                  =   F
redata: Use continuation files for DM               =   F
redata: Neglect nonoverlap interactions             =   F
redata: Method of Calculation                       = Diagonalization
redata: Electronic Temperature                      =   299.9869 K
redata: Fix the spin of the system                  =   F
redata: Dynamics option                             = Single-point calculation
mix.SCF: Pulay mixing                            = Pulay
mix.SCF:    Variant                              = stable
mix.SCF:    History steps                        = 4
mix.SCF:    Linear mixing weight                 =     0.250000
mix.SCF:    Mixing weight                        =     0.250000
mix.SCF:    SVD condition                        = 0.1000E-07
redata: ***********************************************************************

%block SCF.Mixers
  Pulay
%endblock SCF.Mixers

%block SCF.Mixer.Pulay
  # Mixing method
  method pulay
  variant stable

  # Mixing options
  weight 0.2500
  weight.linear 0.2500
  history 4
%endblock SCF.Mixer.Pulay

DM_history_depth set to one: no extrapolation allowed by default for geometry relaxation
Size of DM history Fstack: 1
Total number of electrons:    10.000000
Total ionic charge:    10.000000

* ProcessorY, Blocksize:    2   1


* Orbital distribution balance (max,min):     9     8

k-point displ. along   1 input, could be:     0.00    0.50
k-point displ. along   2 input, could be:     0.00    0.50
k-point displ. along   3 input, could be:     0.00    0.50
 Kpoints in:           48 . Kpoints trimmed:           44

siesta: k-grid: Number of k-points =    44
siesta: k-grid: Cutoff (effective) =     3.996 Ang
siesta: k-grid: Supercell and displacements
siesta: k-grid:    4   0   0      0.000
siesta: k-grid:    0   4   0      0.000
siesta: k-grid:    0   0   4      0.000

diag: Algorithm                                     = Expert
diag: Parallel over k                               =   T
diag: Use parallel 2D distribution                  =   T
diag: Parallel block-size                           = 1
diag: Parallel distribution                         =     2 x     2
diag: Used triangular part                          = Lower
diag: Absolute tolerance                            =  0.100E-15
diag: Orthogonalization factor                      =  0.100E-05
diag: Memory factor                                 =  1.0000

superc: Internal auxiliary supercell:     9 x     9 x    15  =    1215
superc: Number of atoms, orbitals, and projectors:   8505  40095  76545


ts: **************************************************************
ts: Save H and S matrices                           =    F
ts: Save DM and EDM matrices                        =    F
ts: Only save the overlap matrix S                  =    F
ts: **************************************************************

************************ Begin: TS CHECKS AND WARNINGS ************************
************************ End: TS CHECKS AND WARNINGS **************************


                     ====================================
                        Single-point calculation
                     ====================================

outcoor: Atomic coordinates (Ang):                          
    0.00000000    0.00000000    0.00000000   2       1  C-gga
   -0.70288177    1.21742694    0.99896220   1       2  Li-gga
   -1.45518323    2.52045129    0.99896220   1       3  Li-gga
    1.45518323    2.52045129    0.99896220   1       4  Li-gga
    0.70288177    1.21742694    0.99896220   1       5  Li-gga
    1.40576354    0.00000000    0.99896220   1       6  Li-gga
    2.91036646    0.00000000    0.99896220   1       7  Li-gga

superc: Internal auxiliary supercell:     9 x     9 x    15  =    1215
superc: Number of atoms, orbitals, and projectors:   8505  40095  76545

outcell: Unit cell vectors (Ang):
        4.316130    0.000000    0.000000
       -2.158065    3.737878    0.000000
        0.000000    0.000000    1.997924

outcell: Cell vector modules (Ang)   :    4.316130    4.316130    1.997924
outcell: Cell angles (23,13,12) (deg):     90.0000     90.0000    120.0000
outcell: Cell volume (Ang**3)        :     32.2329
<dSpData1D:S at geom step 0
  <sparsity:sparsity for geom step 0
    nrows_g=33 nrows=9 sparsity=92.4619 nnzs=100691, refcount: 7>
  <dData1D:(new from dSpData1D) n=100691, refcount: 1>
refcount: 1>
new_DM -- step:     1
Initializing Density Matrix...
DM filled with atomic data:
<dSpData2D:DM initialized from atoms
  <sparsity:sparsity for geom step 0
    nrows_g=33 nrows=9 sparsity=92.4619 nnzs=100691, refcount: 8>
  <dData2D:DM n=100691 m=1, refcount: 1>
refcount: 1>
No. of atoms with KB's overlaping orbs in proc 0. Max # of overlaps:     688    1712
New grid distribution:   1
           1       1:   20    1:   10    1:    6
           2       1:   20    1:   10    7:   12
           3       1:   20   11:   20    1:    6
           4       1:   20   11:   20    7:   12

InitMesh: MESH =    40 x    40 x    24 =       38400
InitMesh: (bp) =    20 x    20 x    12 =        4800
InitMesh: Mesh cutoff (required, used) =   300.000   316.498 Ry
ExtMesh (bp) on 0 =   156 x   146 x   158 =     3598608
New grid distribution:   2
           1       1:   10    1:   10    1:   12
           2      11:   20    1:   10    1:   12
           3       1:   10   11:   20    1:   12
           4      11:   20   11:   20    1:   12
New grid distribution:   3
           1       1:   10    1:   10    1:   12
           2      11:   20    1:   10    1:   12
           3       1:   10   11:   20    1:   12
           4      11:   20   11:   20    1:   12
Setting up quadratic distribution...
ExtMesh (bp) on 0 =   146 x   146 x   164 =     3495824
PhiOnMesh: Number of (b)points on node 0 =                 1200
PhiOnMesh: nlist on node 0 =              1053325

stepf: Fermi-Dirac step function

siesta: Program's energy decomposition (eV):
siesta: Ebs     =      -186.253688
siesta: Eions   =       321.344870
siesta: Ena     =        65.774840
siesta: Ekin    =       241.038316
siesta: Enl     =       -14.468364
siesta: Eso     =         0.000000
siesta: Edftu   =         0.000000
siesta: DEna    =       -41.184844
siesta: DUscf   =        23.944564
siesta: DUext   =         0.000000
siesta: Exc     =      -128.743054
siesta: eta*DQ  =         0.000000
siesta: Emadel  =         0.000000
siesta: Emeta   =         0.000000
siesta: Emolmec =        -5.965294
siesta: Ekinion =         0.000000
siesta: Eharris =      -146.264983
siesta: Etot    =      -180.948705
siesta: FreeEng =      -180.948724

        iscf     Eharris(eV)        E_KS(eV)     FreeEng(eV)     dDmax    Ef(eV) dHmax(eV)
   scf:    1     -146.264983     -180.948705     -180.948724  4.251682-21.424267 15.999171
timer: Routine,Calls,Time,% = IterSCF        1      26.048  59.53
   scf:    2     -200.147994     -193.085027     -193.089394  1.208674-20.954765  3.692378
   scf:    3     -194.138973     -193.811725     -193.816095  0.469611-20.203256  0.298186
   scf:    4     -193.813885     -193.818770     -193.823139  0.133615-20.043972  0.344331
   scf:    5     -193.826513     -193.823598     -193.827967  0.050103-20.089295  0.055992
   scf:    6     -193.823653     -193.823760     -193.828129  0.030113-20.103563  0.024848
   scf:    7     -193.823828     -193.823807     -193.828176  0.010049-20.099248  0.000338
   scf:    8     -193.823807     -193.823807     -193.828176  0.000143-20.099320  0.000216

SCF Convergence by FreeE+DM+H criterion
|FreeE_i-FreeE_(i-1)| (eV) <     0.00100000
max |DM_out - DM_in|         :     0.0001425300
max |H_out - H_in|      (eV) :     0.0002161532
SCF cycle converged after 8 iterations

Using DM_out to compute the final energy and forces
No. of atoms with KB's overlaping orbs in proc 0. Max # of overlaps:     688    1712

MM-Stress (kbar):      141.73      141.73      687.36        0.00        0.00       -0.00

siesta: E_KS(eV) =             -193.8238

siesta: E_KS - E_eggbox =      -193.8238

siesta: Atomic forces (eV/Ang):
     1   -0.000000    0.000000    0.000000
     2   -1.598769    2.769190   -0.000000
     3    1.598769   -2.769191   -0.000000
     4   -1.598685   -2.769004   -0.000000
     5    1.598685    2.769004   -0.000000
     6    3.197574    0.000020   -0.000000
     7   -3.197574   -0.000020   -0.000000
----------------------------------------
   Tot   -0.000000    0.000000   -0.000000
----------------------------------------
   Max    3.197574
   Res    1.709139    sqrt( Sum f_i^2 / 3N )
----------------------------------------
   Max    3.197574    constrained

Stress tensor Voigt[x,y,z,yz,xz,xy] (kbar):    -2055.43    -2055.49     -620.85        0.00       -0.00       -0.05
(Free)E + p*V (eV/cell)     -162.0970
Target enthalpy (eV/cell)     -193.8282

siesta: Eigenvalues (eV):
  ik is       eps
   1  1  -34.3143  -25.7156  -25.1393  -23.6615  -23.3991  -16.6283  -14.3086  -13.7848  -12.5432  -11.1404
          -1.6582    3.0117    4.9011    5.8986    7.2383    8.0344    9.8881   12.9748   18.9404   21.8654
   21.9287   24.3049   24.6167   26.5650   27.9721   30.5145   30.9541   36.9185   39.7105   44.7259
   45.4790   46.3137   61.4534
   2  1  -34.2731  -25.7171  -24.3625  -24.3397  -23.7154  -16.9236  -16.1209  -12.4508  -10.4115   -9.8743
           0.9047    2.0193    5.6308    7.3646    8.2755    8.7692   11.0214   12.1549   16.1465   20.1934
   20.9830   21.6073   24.4298   26.5023   30.8068   31.0161   31.3159   39.7768   41.5109   42.7334
   44.1449   49.4908   54.5768
   3  1  -34.2731  -25.7171  -24.3627  -24.3397  -23.7153  -16.9236  -16.1209  -12.4508  -10.4114   -9.8744
           0.9049    2.0187    5.6313    7.3645    8.2756    8.7696   11.0215   12.1544   16.1463   20.1934
   20.9832   21.6073   24.4295   26.5023   30.8068   31.0154   31.3166   39.7770   41.5107   42.7331
   44.1449   49.4908   54.5761
   4  1  -34.3143  -25.7155  -25.1394  -23.6617  -23.3989  -16.6283  -14.3086  -13.7848  -12.5432  -11.1404
          -1.6581    3.0120    4.9006    5.8980    7.2387    8.0350    9.8880   12.9749   18.9403   21.8657
   21.9288   24.3049   24.6164   26.5650   27.9717   30.5146   30.9541   36.9186   39.7105   44.7257
   45.4785   46.3140   61.4534
   5  1  -34.2731  -25.7171  -24.3625  -24.3397  -23.7154  -16.9236  -16.1209  -12.4508  -10.4115   -9.8743
           0.9047    2.0193    5.6308    7.3646    8.2755    8.7692   11.0214   12.1549   16.1465   20.1934
   20.9830   21.6073   24.4298   26.5023   30.8068   31.0161   31.3159   39.7768   41.5109   42.7334
   44.1449   49.4908   54.5768
   6  1  -33.9850  -25.2877  -24.3518  -24.3516  -23.8133  -17.3282  -17.3282  -12.3558   -5.8108   -5.8104
          -2.7930   -2.7929    2.7189    8.7663    9.1536    9.1537   14.4113   16.7694   16.7699   17.3875
   17.3879   18.3823   18.3823   26.8374   36.2159   36.3940   36.3956   36.9617   38.4153   39.3789
   39.3813   42.0836   42.0838
   7  1  -34.3296  -25.8402  -24.6791  -24.3689  -23.1797  -16.0257  -14.9131  -13.2078  -13.0031  -12.5184
          -0.5252    1.5837    2.8842    6.1667    7.6067    8.7081    9.2398   18.5569   19.1332   20.5020
   22.5022   23.3891   26.3464   27.1728   27.6550   29.1461   29.9342   40.1491   44.8423   46.2335
   49.4386   54.5719   55.5519
   8  1  -34.3143  -25.7155  -25.1394  -23.6617  -23.3989  -16.6283  -14.3086  -13.7848  -12.5432  -11.1404
          -1.6581    3.0120    4.9006    5.8980    7.2387    8.0350    9.8880   12.9749   18.9403   21.8657
   21.9288   24.3049   24.6164   26.5650   27.9717   30.5146   30.9541   36.9186   39.7105   44.7257
   45.4785   46.3140   61.4534
   9  1  -34.3143  -25.7155  -25.1394  -23.6617  -23.3989  -16.6283  -14.3086  -13.7848  -12.5432  -11.1404
          -1.6581    3.0120    4.9006    5.8980    7.2387    8.0350    9.8880   12.9749   18.9403   21.8657
   21.9288   24.3049   24.6164   26.5650   27.9717   30.5146   30.9541   36.9186   39.7105   44.7258
   45.4785   46.3140   61.4534
  10  1  -34.3296  -25.8402  -24.6791  -24.3689  -23.1797  -16.0257  -14.9131  -13.2078  -13.0031  -12.5184
          -0.5252    1.5837    2.8842    6.1667    7.6067    8.7081    9.2398   18.5569   19.1332   20.5020
   22.5022   23.3891   26.3464   27.1728   27.6550   29.1461   29.9342   40.1491   44.8423   46.2335
   49.4386   54.5719   55.5518
  11  1  -34.3143  -25.7155  -25.1394  -23.6617  -23.3989  -16.6283  -14.3086  -13.7848  -12.5432  -11.1404
          -1.6581    3.0120    4.9006    5.8980    7.2387    8.0350    9.8880   12.9749   18.9403   21.8657
   21.9288   24.3049   24.6164   26.5650   27.9717   30.5146   30.9541   36.9186   39.7105   44.7258
   45.4785   46.3140   61.4534
  12  1  -34.3296  -25.8401  -24.6791  -24.3691  -23.1796  -16.0257  -14.9131  -13.2078  -13.0031  -12.5184
          -0.5252    1.5830    2.8848    6.1666    7.6067    8.7092    9.2393   18.5571   19.1333   20.5019
   22.5019   23.3891   26.3466   27.1722   27.6550   29.1461   29.9345   40.1489   44.8420   46.2332
   49.4386   54.5720   55.5515
  13  1  -33.0652  -25.6791  -24.8071  -22.2282  -21.9336  -20.1410  -14.7932  -11.9151  -11.2648   -7.5122
          -4.2028   -1.1957   -0.0013    2.8691    3.0743    6.9146    7.1775    9.0803   13.7544   17.1303
   18.9573   21.1440   21.4186   22.4511   25.8506   26.6261   35.3789   39.3652   42.9176   43.1423
   45.1271   50.6246   60.0152
  14  1  -33.1107  -25.7418  -24.0442  -23.5012  -22.0150  -19.1003  -16.0843  -14.8469   -8.8678   -7.4118
          -4.6273    1.5882    1.6547    3.5990    4.7509    5.2633    9.3253   12.8012   12.8469   14.1866
   18.7784   21.6852   22.0184   23.9216   24.2095   25.5955   31.8287   39.2267   40.1379   44.1553
   57.2786   58.0060   65.3423
  15  1  -33.1107  -25.7418  -24.0444  -23.5011  -22.0150  -19.1003  -16.0844  -14.8469   -8.8677   -7.4120
          -4.6271    1.5880    1.6549    3.5995    4.7504    5.2633    9.3255   12.8015   12.8468   14.1861
   18.7783   21.6853   22.0182   23.9217   24.2101   25.5950   31.8294   39.2266   40.1378   44.1553
   57.2786   58.0055   65.3421
  16  1  -33.0652  -25.6790  -24.8072  -22.2281  -21.9337  -20.1409  -14.7932  -11.9152  -11.2648   -7.5123
          -4.2028   -1.1956   -0.0013    2.8694    3.0743    6.9144    7.1773    9.0805   13.7543   17.1304
   18.9570   21.1437   21.4189   22.4514   25.8504   26.6262   35.3789   39.3653   42.9176   43.1425
   45.1268   50.6246   60.0152
  17  1  -33.1107  -25.7418  -24.0442  -23.5012  -22.0150  -19.1003  -16.0843  -14.8469   -8.8678   -7.4118
          -4.6273    1.5882    1.6547    3.5990    4.7509    5.2633    9.3253   12.8012   12.8469   14.1866
   18.7784   21.6852   22.0184   23.9216   24.2095   25.5955   31.8287   39.2267   40.1379   44.1553
   57.2786   58.0060   65.3423
  18  1  -32.7144  -24.8251  -23.9396  -23.9393  -21.5057  -18.6406  -16.8323  -16.8322   -4.4020   -4.4013
          -0.1085   -0.1083    3.1101    3.1102    3.1263    9.8244    9.8244   15.2676   16.1389   23.6229
   23.6231   23.6806   23.6815   30.8021   34.7138   35.9937   35.9945   38.1009   42.1185   42.1198
   48.6027   56.9724   56.9731
  19  1  -33.1107  -25.7418  -24.0442  -23.5012  -22.0150  -19.1003  -16.0843  -14.8469   -8.8678   -7.4118
          -4.6273    1.5882    1.6547    3.5990    4.7509    5.2633    9.3253   12.8012   12.8469   14.1866
   18.7784   21.6852   22.0184   23.9216   24.2095   25.5955   31.8287   39.2267   40.1379   44.1553
   57.2786   58.0060   65.3423
  20  1  -33.0842  -25.8560  -24.1177  -23.5628  -20.9513  -20.3814  -14.5817  -12.2573  -10.7913   -9.9403
          -3.3652   -1.6517    0.9694    1.8143    4.1080    4.1819    7.2742   12.0597   12.9331   19.8710
   20.0162   21.1570   21.2651   21.6916   24.3905   26.6805   40.3784   41.3301   43.6181   45.5041
   52.1840   55.9925   58.2235
  21  1  -33.1107  -25.7418  -24.0444  -23.5011  -22.0150  -19.1003  -16.0844  -14.8469   -8.8677   -7.4120
          -4.6271    1.5880    1.6549    3.5995    4.7504    5.2633    9.3255   12.8015   12.8468   14.1861
   18.7783   21.6853   22.0182   23.9217   24.2101   25.5950   31.8294   39.2266   40.1378   44.1553
   57.2786   58.0055   65.3421
  22  1  -33.1107  -25.7418  -24.0442  -23.5012  -22.0150  -19.1003  -16.0843  -14.8469   -8.8678   -7.4118
          -4.6273    1.5882    1.6547    3.5990    4.7509    5.2633    9.3253   12.8012   12.8469   14.1866
   18.7784   21.6852   22.0184   23.9216   24.2095   25.5955   31.8287   39.2267   40.1379   44.1553
   57.2786   58.0060   65.3423
  23  1  -33.0652  -25.6791  -24.8071  -22.2282  -21.9336  -20.1410  -14.7932  -11.9151  -11.2648   -7.5122
          -4.2028   -1.1957   -0.0013    2.8691    3.0743    6.9146    7.1775    9.0803   13.7544   17.1303
   18.9573   21.1440   21.4186   22.4511   25.8506   26.6261   35.3789   39.3652   42.9176   43.1423
   45.1271   50.6246   60.0152
  24  1  -33.0652  -25.6790  -24.8072  -22.2281  -21.9337  -20.1409  -14.7932  -11.9152  -11.2648   -7.5123
          -4.2028   -1.1956   -0.0013    2.8694    3.0743    6.9144    7.1773    9.0805   13.7543   17.1304
   18.9570   21.1437   21.4189   22.4514   25.8504   26.6262   35.3789   39.3653   42.9176   43.1425
   45.1268   50.6246   60.0152
  25  1  -33.0652  -25.6790  -24.8072  -22.2281  -21.9337  -20.1409  -14.7932  -11.9152  -11.2648   -7.5123
          -4.2028   -1.1956   -0.0013    2.8694    3.0743    6.9144    7.1773    9.0805   13.7543   17.1304
   18.9570   21.1437   21.4189   22.4514   25.8504   26.6262   35.3789   39.3653   42.9176   43.1425
   45.1268   50.6246   60.0152
  26  1  -33.0842  -25.8560  -24.1177  -23.5628  -20.9513  -20.3814  -14.5817  -12.2573  -10.7913   -9.9403
          -3.3652   -1.6517    0.9694    1.8143    4.1080    4.1819    7.2742   12.0597   12.9331   19.8710
   20.0162   21.1570   21.2650   21.6916   24.3905   26.6805   40.3784   41.3301   43.6181   45.5041
   52.1840   55.9925   58.2235
  27  1  -33.0652  -25.6790  -24.8072  -22.2281  -21.9337  -20.1409  -14.7932  -11.9152  -11.2648   -7.5123
          -4.2028   -1.1956   -0.0013    2.8694    3.0743    6.9144    7.1773    9.0805   13.7543   17.1304
   18.9570   21.1437   21.4189   22.4514   25.8504   26.6262   35.3789   39.3653   42.9176   43.1425
   45.1268   50.6246   60.0152
  28  1  -33.0842  -25.8559  -24.1179  -23.5628  -20.9512  -20.3814  -14.5818  -12.2573  -10.7913   -9.9403
          -3.3651   -1.6516    0.9691    1.8144    4.1085    4.1815    7.2745   12.0593   12.9332   19.8704
   20.0161   21.1576   21.2647   21.6920   24.3910   26.6804   40.3784   41.3301   43.6181   45.5042
   52.1838   55.9924   58.2237
  29  1  -30.1668  -27.8795  -25.7939  -25.0415  -16.8895  -16.4003  -15.4105  -14.9841  -12.6950   -6.4035
          -5.4492   -4.9016   -3.9903   -2.3663    0.0144    2.1248    4.4101    4.9109   10.3519   14.3116
   14.6619   18.3962   22.8171   30.1770   30.2145   33.0773   35.6335   38.4573   40.0443   42.9887
   47.7703  107.0090  115.8374
  30  1  -30.5248  -27.8989  -25.0656  -24.0914  -18.3958  -16.2554  -15.5065  -14.8489  -14.3944   -5.7073
          -4.7407   -4.7343   -3.0814   -2.4309   -0.5316    5.5083    9.8181   12.8767   14.2128   15.9470
   17.8187   19.0871   23.8685   31.8408   33.6719   35.9113   37.0609   37.7478   39.1096   40.6682
   48.3069   77.0942  125.6617
  31  1  -30.5248  -27.8989  -25.0655  -24.0916  -18.3958  -16.2552  -15.5065  -14.8489  -14.3944   -5.7073
          -4.7403   -4.7343   -3.0819   -2.4309   -0.5316    5.5083    9.8180   12.8760   14.2139   15.9470
   17.8188   19.0871   23.8684   31.8409   33.6719   35.9112   37.0610   37.7468   39.1094   40.6682
   48.3069   77.0947  125.6611
  32  1  -30.1668  -27.8795  -25.7938  -25.0416  -16.8896  -16.4001  -15.4105  -14.9841  -12.6947   -6.4035
          -5.4492   -4.9016   -3.9908   -2.3663    0.0144    2.1248    4.4101    4.9108   10.3519   14.3116
   14.6619   18.3972   22.8171   30.1756   30.2144   33.0773   35.6335   38.4574   40.0443   42.9888
   47.7701  107.0083  115.8381
  33  1  -30.5248  -27.8989  -25.0656  -24.0914  -18.3958  -16.2554  -15.5065  -14.8489  -14.3944   -5.7073
          -4.7407   -4.7343   -3.0814   -2.4309   -0.5316    5.5083    9.8181   12.8767   14.2128   15.9470
   17.8187   19.0871   23.8685   31.8408   33.6719   35.9113   37.0609   37.7478   39.1096   40.6682
   48.3069   77.0942  125.6618
  34  1  -30.7790  -27.4771  -23.6816  -23.6814  -19.0924  -16.4587  -16.4587  -15.5361  -14.7156   -5.7803
          -5.7803   -3.4497   -3.4497   -2.4885   -2.4874   12.5352   12.5354   15.9372   15.9387   17.5258
   19.6353   27.8256   27.8258   31.2502   36.6715   36.6716   38.3124   38.3127   40.2807   43.0975
   51.7188   74.7382   74.7384
  35  1  -30.5248  -27.8989  -25.0656  -24.0914  -18.3958  -16.2554  -15.5065  -14.8489  -14.3944   -5.7073
          -4.7407   -4.7343   -3.0814   -2.4309   -0.5316    5.5083    9.8181   12.8767   14.2128   15.9470
   17.8187   19.0871   23.8685   31.8408   33.6719   35.9113   37.0609   37.7478   39.1096   40.6682
   48.3069   77.0942  125.6618
  36  1  -30.1618  -27.8249  -26.1719  -24.4259  -19.0174  -15.4199  -14.8273  -14.3507  -11.4644   -7.3887
          -5.5703   -5.1475   -5.0656   -1.0115    0.8143    2.0072    3.2425   10.6016   10.8141   14.9764
   16.3908   22.4934   23.7689   25.9309   26.6079   35.5532   37.7460   44.3399   47.2404   48.3715
   51.0978   71.4067   88.9977
  37  1  -30.5248  -27.8989  -25.0655  -24.0916  -18.3958  -16.2552  -15.5065  -14.8489  -14.3944   -5.7073
          -4.7403   -4.7343   -3.0819   -2.4309   -0.5316    5.5083    9.8180   12.8760   14.2139   15.9470
   17.8188   19.0871   23.8684   31.8409   33.6719   35.9112   37.0610   37.7468   39.1094   40.6682
   48.3069   77.0947  125.6611
  38  1  -30.5248  -27.8989  -25.0656  -24.0914  -18.3958  -16.2554  -15.5065  -14.8489  -14.3944   -5.7073
          -4.7407   -4.7343   -3.0814   -2.4309   -0.5316    5.5083    9.8181   12.8767   14.2128   15.9470
   17.8187   19.0871   23.8685   31.8408   33.6719   35.9113   37.0609   37.7478   39.1096   40.6682
   48.3069   77.0942  125.6617
  39  1  -30.1668  -27.8795  -25.7939  -25.0415  -16.8895  -16.4003  -15.4105  -14.9841  -12.6950   -6.4035
          -5.4492   -4.9016   -3.9903   -2.3663    0.0144    2.1248    4.4101    4.9109   10.3519   14.3116
   14.6619   18.3962   22.8171   30.1770   30.2145   33.0773   35.6335   38.4573   40.0443   42.9887
   47.7703  107.0090  115.8374
  40  1  -30.1668  -27.8795  -25.7938  -25.0416  -16.8896  -16.4001  -15.4105  -14.9841  -12.6947   -6.4035
          -5.4492   -4.9016   -3.9908   -2.3663    0.0144    2.1248    4.4101    4.9108   10.3519   14.3116
   14.6619   18.3972   22.8171   30.1756   30.2144   33.0773   35.6335   38.4574   40.0443   42.9888
   47.7701  107.0083  115.8381
  41  1  -30.1668  -27.8795  -25.7938  -25.0416  -16.8896  -16.4001  -15.4105  -14.9841  -12.6947   -6.4035
          -5.4492   -4.9016   -3.9908   -2.3663    0.0144    2.1248    4.4101    4.9108   10.3519   14.3116
   14.6619   18.3972   22.8171   30.1756   30.2144   33.0773   35.6335   38.4574   40.0443   42.9888
   47.7701  107.0083  115.8381
  42  1  -30.1618  -27.8249  -26.1719  -24.4259  -19.0174  -15.4199  -14.8273  -14.3507  -11.4644   -7.3887
          -5.5703   -5.1475   -5.0656   -1.0115    0.8143    2.0072    3.2425   10.6016   10.8141   14.9764
   16.3908   22.4934   23.7689   25.9309   26.6079   35.5532   37.7460   44.3399   47.2404   48.3715
   51.0978   71.4067   88.9977
  43  1  -30.1668  -27.8795  -25.7938  -25.0416  -16.8896  -16.4001  -15.4105  -14.9841  -12.6947   -6.4035
          -5.4492   -4.9016   -3.9908   -2.3663    0.0144    2.1248    4.4101    4.9108   10.3519   14.3116
   14.6619   18.3972   22.8171   30.1756   30.2144   33.0773   35.6335   38.4574   40.0443   42.9888
   47.7701  107.0083  115.8381
  44  1  -30.1618  -27.8249  -26.1718  -24.4261  -19.0174  -15.4199  -14.8273  -14.3501  -11.4647   -7.3887
          -5.5703   -5.1475   -5.0657   -1.0116    0.8143    2.0073    3.2425   10.6008   10.8141   14.9776
   16.3907   22.4934   23.7688   25.9295   26.6080   35.5531   37.7461   44.3400   47.2401   48.3715
   51.0980   71.4072   88.9973
siesta: Fermi energy =     -20.099320 eV

siesta: Program's energy decomposition (eV):
siesta: Ebs     =      -258.233650
siesta: Eions   =       321.344870
siesta: Ena     =        65.774840
siesta: Ekin    =       191.114477
siesta: Enl     =        -1.114307
siesta: Eso     =         0.000000
siesta: Edftu   =         0.000000
siesta: DEna    =        -7.508132
siesta: DUscf   =         4.336577
siesta: DUext   =         0.000000
siesta: Exc     =      -119.117099
siesta: eta*DQ  =         0.000000
siesta: Emadel  =         0.000000
siesta: Emeta   =         0.000000
siesta: Emolmec =        -5.965294
siesta: Ekinion =         0.000000
siesta: Eharris =      -193.823807
siesta: Etot    =      -193.823807
siesta: FreeEng =      -193.828176

siesta: Final energy (eV):
siesta:  Band Struct. =    -258.233650
siesta:       Kinetic =     191.114477
siesta:       Hartree =      75.014427
siesta:       Edftu   =       0.000000
siesta:       Eso     =       0.000000
siesta:    Ext. field =       0.000000
siesta:   Exch.-corr. =    -119.117099
siesta:  Ion-electron =    -465.022731
siesta:       Ion-ion =     130.152412
siesta:       Ekinion =       0.000000
siesta:         Total =    -193.823807
siesta:         Fermi =     -20.099320

siesta: Atomic forces (eV/Ang):
siesta:      1   -0.000000    0.000000    0.000000
siesta:      2   -1.598769    2.769190   -0.000000
siesta:      3    1.598769   -2.769191   -0.000000
siesta:      4   -1.598685   -2.769004   -0.000000
siesta:      5    1.598685    2.769004   -0.000000
siesta:      6    3.197574    0.000020   -0.000000
siesta:      7   -3.197574   -0.000020   -0.000000
siesta: ----------------------------------------
siesta:    Tot   -0.000000    0.000000   -0.000000

siesta: Stress tensor (static) (eV/Ang**3):
siesta:    -1.282885   -0.000033   -0.000000
siesta:    -0.000033   -1.282923   -0.000000
siesta:    -0.000000    0.000000   -0.387499

siesta: Cell volume =         32.232851 Ang**3

siesta: Pressure (static):
siesta:                Solid            Molecule  Units
siesta:           0.01072176          0.01234736  Ry/Bohr**3
siesta:           0.98443569          1.13369264  eV/Ang**3
siesta:        1577.25691026       1816.39549810  kBar
(Free)E+ p_basis*V_orbitals  =        -177.316251
(Free)Eharris+ p_basis*V_orbitals  =        -177.316251

cite: Please see "LiC6_scf.bib" for an exhaustive BiBTeX file.
cite: Please clearly indicate Siesta version in published work: 4.1.5
cite: This calculation has made use of the following articles
cite: which are encouraged to be cited in a published work.
        Primary SIESTA paper
          DOI: www.doi.org/10.1088/0953-8984/14/11/302

>> End of run:   9-NOV-2022  15:21:28
Job completed
