Siesta Version  : 4.1.5
Architecture    : x86_64-unknown-linux-gnu--unknown
Compiler version: GNU Fortran (GCC) 11.3.0
Compiler flags  : mpif90 -g -O2 -fallow-argument-mismatch
PP flags        : -DMPI -DFC_HAVE_FLUSH -DFC_HAVE_ABORT
Libraries       :  -I/global/software/sl-7.x86_64/modules/intel/2020.4.304/mkl/include  /globall/software/sl-7.x86_64/modules/intel/2020.4.304/mkl/lib/intel64/libmkl_scalapack_lp64.a -Wl,--start-group /global/software/sl-7.x86_64/modules/intel/2020.4.304/mkl/lib/intel64/libmkl_intel_lp64.a /global/software/sl-7.x86_64/modules/intel/2020.4.304/mkl/lib/intel64/libmkl_sequential.a /global/software/sl-7.x86_64/modules/intel/2020.4.304/mkl/lib/intel64/libmkl_core.a /global/software/sl-7.x86_64/modules/intel/2020.4.304/mkl/lib/intel64/libmkl_blacs_openmpi_lp64.a -Wl,--end-group -lpthread -lm -ldl
PARALLEL version

* Running on 4 nodes in parallel
>> Start of run:   9-NOV-2022  15:21:29

                           ***********************       
                           *  WELCOME TO SIESTA  *       
                           ***********************       

reinit: Reading from standard input
reinit: Dumped input in INPUT_TMP.56240
************************** Dump of input data file ****************************
SystemName LiC6_scf
SystemLabel LiC6_scf
NumberOfAtoms   7
NumberOfSpecies 2
%block ChemicalSpeciesLabel
1  3   Li-gga
2  6   C-gga
%endblock ChemicalSpeciesLabel
PAO.BasisSize  SZP
PAO.EnergyShift  10 meV
%block PS.Lmax
C-gga   2
Li-gga  2
%endblock PS.Lmax
LatticeConstant 1.000000 Ang
%block LatticeVectors
	4.3161300000	0.0000000000	0.0000000000
	-2.1580650000	3.7378782260	0.0000000000
	0.0000000000	0.0000000000	1.9239272000
%endblock LatticeVectors
AtomicCoordinatesFormat Ang
%block AtomicCoordinatesAndAtomicSpecies
	0.00000000	0.00000000	0.00000000	2
	-0.70288177	1.21742694	0.96196360	1
	-1.45518323	2.52045129	0.96196360	1
	1.45518323	2.52045129	0.96196360	1
	0.70288177	1.21742694	0.96196360	1
	1.40576354	0.00000000	0.96196360	1
	2.91036646	0.00000000	0.96196360	1
%endblock AtomicCoordinatesAndAtomicSpecies
Kgrid_NoTRS  T
%block kgrid_MonkhorstPack
4       0       0       0.0
0       4       0       0.0
0       0       4       0.0
%endblock kgrid_MonkhorstPack
AtomCoorFormatOut Ang
BlockSize 1
#ProcessorY 12
Diag.ParallelOverK   T
Diag.DivideAndConquer F
MeshCutoff   300 Ry
SCF.FreeE.Tolerance 1E-3 eV
SCF.EDM.Tolerance   5E-3 eV
DM.Tolerance  1E-3
DM.Require.Energy.Convergence T
DM.NumberPulay 4
XC.Functional GGA
XC.Authors    PBE
UseSaveData        F
MD.TypeOfRun       CG
MD.VariableCell    F
MD.NumCGsteps      00
MD.MaxCGDispl      0.200000 Bohr
MD.MaxStressTol    1.000000 GPa
MD.MaxForceTol     0.010000 eV/Ang
WriteMDHistory T
WriteCoorStep T
WriteForces T
WriteCoorStep    T
WriteEigenValues T
WriteDM    F
MM.UnitsDistance Ang  # what this program prints out DO NOT CHANGE
MM.UnitsEnergy    eV  # what this program prints out DO NOT CHANGE
MM.Grimme.S6     0.75 # Grimme-paper for PBE (correct for your functional)
MM.Grimme.D     20.   # Grimme-paper (correct for your functional)
%block MM.Potentials
  1   1 Grimme     16.69      1.650 # Li, 10.1002/jcc.20495
  1   2 Grimme     17.40      2.277 # Li / C
  2   2 Grimme     18.14      2.904 # C, 10.1002/jcc.20495
%endblock MM.Potentials
#%block ProjectedDensityOfStates
# -200.0  120.0  0.4  12800  eV
#%endblock ProjectedDensityOfStates
************************** End of input data file *****************************

reinit: -----------------------------------------------------------------------
reinit: System Name: LiC6_scf
reinit: -----------------------------------------------------------------------
reinit: System Label: LiC6_scf
reinit: -----------------------------------------------------------------------
Reading two-body potentials
Grimme - two-body potential between 1 and 1
Grimme - two-body potential between 1 and 2
Grimme - two-body potential between 2 and 2

initatom: Reading input for the pseudopotentials and atomic orbitals ----------
Species number:   1 Atomic number:    3 Label: Li-gga
Species number:   2 Atomic number:    6 Label: C-gga

Ground state valence configuration:   2s01
Reading pseudopotential information in formatted form from Li-gga.psf

Valence configuration for pseudopotential generation:
2s( 1.00) rc: 2.28
2p( 0.00) rc: 2.28
3d( 0.00) rc: 2.59
4f( 0.00) rc: 2.59
Ground state valence configuration:   2s02  2p02
Reading pseudopotential information in formatted form from C-gga.psf

Valence configuration for pseudopotential generation:
2s( 2.00) rc: 1.56
2p( 2.00) rc: 1.56
3d( 0.00) rc: 1.56
4f( 0.00) rc: 1.56
relmxkb: Read Max KB Ang. Momentum=    2 for species C-gga
relmxkb: Read Max KB Ang. Momentum=    2 for species Li-gga

<basis_specs>
===============================================================================
Li-gga               Z=   3    Mass=  6.9400        Charge= 0.17977+309
Lmxo=0 Lmxkb= 2    BasisType=split      Semic=F
L=0  Nsemic=0  Cnfigmx=2
          i=1  nzeta=1  polorb=1  (2s)
            splnorm:   0.15000    
               vcte:    0.0000    
               rinn:    0.0000    
               qcoe:    0.0000    
               qyuk:    0.0000    
               qwid:   0.10000E-01
                rcs:    0.0000    
            lambdas:    1.0000    
-------------------------------------------------------------------------------
L=0  Nkbl=1  erefs: 0.17977+309
L=1  Nkbl=1  erefs: 0.17977+309
L=2  Nkbl=1  erefs: 0.17977+309
===============================================================================
</basis_specs>

atom: Called for Li-gga                (Z =   3)

read_vps: Pseudopotential generation method:
read_vps: ATM 3.2.2 Troullier-Martins                       
Valence charge for ps generation:    1.00000

read_vps: Pseudopotential includes a core correction:
read_vps: Pseudo-core for xc-correction

xc_check: Exchange-correlation functional:
xc_check: GGA Perdew, Burke & Ernzerhof 1996
V l=0 = -2*Zval/r beyond r=  2.2278
V l=1 = -2*Zval/r beyond r=  2.2278
V l=2 = -2*Zval/r beyond r=  2.5245
All V_l potentials equal beyond r=  2.4622
This should be close to max(r_c) in ps generation
All pots = -2*Zval/r beyond r=  2.5245

VLOCAL1: 99.0% of the norm of Vloc inside      7.160 Ry
VLOCAL1: 99.9% of the norm of Vloc inside     16.318 Ry
atom: Maximum radius for 4*pi*r*r*local-pseudopot. charge    2.86079
atom: Maximum radius for r*vlocal+2*Zval:    2.43160
GHOST: No ghost state for L =  0
GHOST: No ghost state for L =  1
GHOST: No ghost state for L =  2

KBgen: Kleinman-Bylander projectors: 
   l= 0   rc=  2.654023   el= -0.211234   Ekb=  1.742119   kbcos=  0.228463
   l= 1   rc=  2.721230   el= -0.080095   Ekb= -1.122375   kbcos= -0.147941
   l= 2   rc=  2.825246   el=  0.002001   Ekb= -0.207076   kbcos= -0.031965

KBgen: Total number of Kleinman-Bylander projectors:    9
atom: -------------------------------------------------------------------------

atom: SANKEY-TYPE ORBITALS:

SPLIT: Orbitals with angular momentum L= 0

SPLIT: Basis orbitals for state 2s

SPLIT: PAO cut-off radius determined from an
SPLIT: energy shift=  0.000735 Ry

   izeta = 1
                 lambda =    1.000000
                     rc =   11.897381
                 energy =   -0.210580
                kinetic =    0.143382
    potential(screened) =   -0.353962
       potential(ionic) =   -0.533453

POLgen: Perturbative polarization orbital with L=  1

POLgen: Polarization orbital for state 2s

   izeta = 1
                     rc =   11.897381
                 energy =   -0.027011
                kinetic =    0.282985
    potential(screened) =   -0.309997
       potential(ionic) =   -0.490997
atom: Total number of Sankey-type orbitals:  4

atm_pop: Valence configuration (for local Pseudopot. screening):
 2s( 1.00)                                                            
Vna: chval, zval:    1.00000   1.00000

Vna:  Cut-off radius for the neutral-atom potential:  11.897381
comcore: Pseudo-core radius Rcore=  3.450946

atom: _________________________________________________________________________

<basis_specs>
===============================================================================
C-gga                Z=   6    Mass=  12.010        Charge= 0.17977+309
Lmxo=1 Lmxkb= 2    BasisType=split      Semic=F
L=0  Nsemic=0  Cnfigmx=2
          i=1  nzeta=1  polorb=0  (2s)
            splnorm:   0.15000    
               vcte:    0.0000    
               rinn:    0.0000    
               qcoe:    0.0000    
               qyuk:    0.0000    
               qwid:   0.10000E-01
                rcs:    0.0000    
            lambdas:    1.0000    
L=1  Nsemic=0  Cnfigmx=2
          i=1  nzeta=1  polorb=1  (2p)
            splnorm:   0.15000    
               vcte:    0.0000    
               rinn:    0.0000    
               qcoe:    0.0000    
               qyuk:    0.0000    
               qwid:   0.10000E-01
                rcs:    0.0000    
            lambdas:    1.0000    
-------------------------------------------------------------------------------
L=0  Nkbl=1  erefs: 0.17977+309
L=1  Nkbl=1  erefs: 0.17977+309
L=2  Nkbl=1  erefs: 0.17977+309
===============================================================================
</basis_specs>

atom: Called for C-gga                 (Z =   6)

read_vps: Pseudopotential generation method:
read_vps: ATM 3.2.2 Troullier-Martins                       
Valence charge for ps generation:    4.00000

xc_check: Exchange-correlation functional:
xc_check: GGA Perdew, Burke & Ernzerhof 1996
V l=0 = -2*Zval/r beyond r=  1.5227
V l=1 = -2*Zval/r beyond r=  1.5227
V l=2 = -2*Zval/r beyond r=  1.5227
All V_l potentials equal beyond r=  1.4851
This should be close to max(r_c) in ps generation
All pots = -2*Zval/r beyond r=  1.5227

VLOCAL1: 99.0% of the norm of Vloc inside     19.682 Ry
VLOCAL1: 99.9% of the norm of Vloc inside     44.856 Ry
atom: Maximum radius for 4*pi*r*r*local-pseudopot. charge    1.79142
atom: Maximum radius for r*vlocal+2*Zval:    1.54183
GHOST: No ghost state for L =  0
GHOST: No ghost state for L =  1
GHOST: No ghost state for L =  2

KBgen: Kleinman-Bylander projectors: 
   l= 0   rc=  1.661951   el= -1.010689   Ekb=  5.289847   kbcos=  0.316429
   l= 1   rc=  1.661951   el= -0.388490   Ekb= -4.102504   kbcos= -0.351025
   l= 2   rc=  1.747182   el=  0.001971   Ekb= -1.006005   kbcos= -0.008530

KBgen: Total number of Kleinman-Bylander projectors:    9
atom: -------------------------------------------------------------------------

atom: SANKEY-TYPE ORBITALS:

SPLIT: Orbitals with angular momentum L= 0

SPLIT: Basis orbitals for state 2s

SPLIT: PAO cut-off radius determined from an
SPLIT: energy shift=  0.000735 Ry

   izeta = 1
                 lambda =    1.000000
                     rc =    5.948690
                 energy =   -1.010099
                kinetic =    0.827121
    potential(screened) =   -1.837220
       potential(ionic) =   -5.392783

SPLIT: Orbitals with angular momentum L= 1

SPLIT: Basis orbitals for state 2p

SPLIT: PAO cut-off radius determined from an
SPLIT: energy shift=  0.000735 Ry

   izeta = 1
                 lambda =    1.000000
                     rc =    7.638387
                 energy =   -0.387843
                kinetic =    2.314739
    potential(screened) =   -2.702582
       potential(ionic) =   -6.092371

POLgen: Perturbative polarization orbital with L=  2

POLgen: Polarization orbital for state 2p

   izeta = 1
                     rc =    7.638387
                 energy =    0.921402
                kinetic =    1.955040
    potential(screened) =   -1.033637
       potential(ionic) =   -3.679558
atom: Total number of Sankey-type orbitals:  9

atm_pop: Valence configuration (for local Pseudopot. screening):
 2s( 2.00)                                                            
 2p( 2.00)                                                            
Vna: chval, zval:    4.00000   4.00000

Vna:  Cut-off radius for the neutral-atom potential:   7.638387

atom: _________________________________________________________________________

prinput: Basis input ----------------------------------------------------------

PAO.BasisType split     

%block ChemicalSpeciesLabel
    1    3 Li-gga                  # Species index, atomic number, species label
    2    6 C-gga                   # Species index, atomic number, species label
%endblock ChemicalSpeciesLabel

%block PAO.Basis                 # Define Basis set
Li-gga                1                    # Species label, number of l-shells
 n=2   0   1 P   1                   # n, l, Nzeta, Polarization, NzetaPol
  11.897   
   1.000   
C-gga                 2                    # Species label, number of l-shells
 n=2   0   1                         # n, l, Nzeta 
   5.949   
   1.000   
 n=2   1   1 P   1                   # n, l, Nzeta, Polarization, NzetaPol
   7.638   
   1.000   
%endblock PAO.Basis

prinput: ----------------------------------------------------------------------

coor:   Atomic-coordinates input format  =     Cartesian coordinates
coor:                                          (in Angstroms)

siesta: Atomic coordinates (Bohr) and species
siesta:      0.00000   0.00000   0.00000  2        1
siesta:     -1.32825   2.30060   1.81785  1        2
siesta:     -2.74990   4.76296   1.81785  1        3
siesta:      2.74990   4.76296   1.81785  1        4
siesta:      1.32825   2.30060   1.81785  1        5
siesta:      2.65651   0.00000   1.81785  1        6
siesta:      5.49980   0.00000   1.81785  1        7

siesta: System type = bulk      

initatomlists: Number of atoms, orbitals, and projectors:      7    33    63

siesta: ******************** Simulation parameters ****************************
siesta:
siesta: The following are some of the parameters of the simulation.
siesta: A complete list of the parameters used, including default values,
siesta: can be found in file out.fdf
siesta:
redata: Spin configuration                          = none
redata: Number of spin components                   = 1
redata: Time-Reversal Symmetry                      = T
redata: Spin spiral                                 = F
redata: Long output                                 =   F
redata: Number of Atomic Species                    =        2
redata: Charge density info will appear in .RHO file
redata: Write Mulliken Pop.                         = NO
redata: Matel table size (NRTAB)                    =     1024
redata: Mesh Cutoff                                 =   300.0000 Ry
redata: Net charge of the system                    =     0.0000 |e|
redata: Min. number of SCF Iter                     =        0
redata: Max. number of SCF Iter                     =     1000
redata: SCF convergence failure will abort job
redata: SCF mix quantity                            = Hamiltonian
redata: Mix DM or H after convergence               =   F
redata: Recompute H after scf cycle                 =   F
redata: Mix DM in first SCF step                    =   T
redata: Write Pulay info on disk                    =   F
redata: New DM Occupancy tolerance                  = 0.000000000001
redata: No kicks to SCF
redata: DM Mixing Weight for Kicks                  =     0.5000
redata: Require Harris convergence for SCF          =   F
redata: Harris energy tolerance for SCF             =     0.000100 eV
redata: Require DM convergence for SCF              =   T
redata: DM tolerance for SCF                        =     0.001000
redata: Require EDM convergence for SCF             =   F
redata: EDM tolerance for SCF                       =     0.005000 eV
redata: Require H convergence for SCF               =   T
redata: Hamiltonian tolerance for SCF               =     0.001000 eV
redata: Require (free) Energy convergence for SCF   =   T
redata: (free) Energy tolerance for SCF             =     0.001000 eV
redata: Using Saved Data (generic)                  =   F
redata: Use continuation files for DM               =   F
redata: Neglect nonoverlap interactions             =   F
redata: Method of Calculation                       = Diagonalization
redata: Electronic Temperature                      =   299.9869 K
redata: Fix the spin of the system                  =   F
redata: Dynamics option                             = Single-point calculation
mix.SCF: Pulay mixing                            = Pulay
mix.SCF:    Variant                              = stable
mix.SCF:    History steps                        = 4
mix.SCF:    Linear mixing weight                 =     0.250000
mix.SCF:    Mixing weight                        =     0.250000
mix.SCF:    SVD condition                        = 0.1000E-07
redata: ***********************************************************************

%block SCF.Mixers
  Pulay
%endblock SCF.Mixers

%block SCF.Mixer.Pulay
  # Mixing method
  method pulay
  variant stable

  # Mixing options
  weight 0.2500
  weight.linear 0.2500
  history 4
%endblock SCF.Mixer.Pulay

DM_history_depth set to one: no extrapolation allowed by default for geometry relaxation
Size of DM history Fstack: 1
Total number of electrons:    10.000000
Total ionic charge:    10.000000

* ProcessorY, Blocksize:    2   1


* Orbital distribution balance (max,min):     9     8

k-point displ. along   1 input, could be:     0.00    0.50
k-point displ. along   2 input, could be:     0.00    0.50
k-point displ. along   3 input, could be:     0.00    0.50
 Kpoints in:           48 . Kpoints trimmed:           44

siesta: k-grid: Number of k-points =    44
siesta: k-grid: Cutoff (effective) =     3.848 Ang
siesta: k-grid: Supercell and displacements
siesta: k-grid:    4   0   0      0.000
siesta: k-grid:    0   4   0      0.000
siesta: k-grid:    0   0   4      0.000

diag: Algorithm                                     = Expert
diag: Parallel over k                               =   T
diag: Use parallel 2D distribution                  =   T
diag: Parallel block-size                           = 1
diag: Parallel distribution                         =     2 x     2
diag: Used triangular part                          = Lower
diag: Absolute tolerance                            =  0.100E-15
diag: Orthogonalization factor                      =  0.100E-05
diag: Memory factor                                 =  1.0000

superc: Internal auxiliary supercell:     9 x     9 x    17  =    1377
superc: Number of atoms, orbitals, and projectors:   9639  45441  86751


ts: **************************************************************
ts: Save H and S matrices                           =    F
ts: Save DM and EDM matrices                        =    F
ts: Only save the overlap matrix S                  =    F
ts: **************************************************************

************************ Begin: TS CHECKS AND WARNINGS ************************
************************ End: TS CHECKS AND WARNINGS **************************


                     ====================================
                        Single-point calculation
                     ====================================

outcoor: Atomic coordinates (Ang):                          
    0.00000000    0.00000000    0.00000000   2       1  C-gga
   -0.70288177    1.21742694    0.96196360   1       2  Li-gga
   -1.45518323    2.52045129    0.96196360   1       3  Li-gga
    1.45518323    2.52045129    0.96196360   1       4  Li-gga
    0.70288177    1.21742694    0.96196360   1       5  Li-gga
    1.40576354    0.00000000    0.96196360   1       6  Li-gga
    2.91036646    0.00000000    0.96196360   1       7  Li-gga

superc: Internal auxiliary supercell:     9 x     9 x    17  =    1377
superc: Number of atoms, orbitals, and projectors:   9639  45441  86751

outcell: Unit cell vectors (Ang):
        4.316130    0.000000    0.000000
       -2.158065    3.737878    0.000000
        0.000000    0.000000    1.923927

outcell: Cell vector modules (Ang)   :    4.316130    4.316130    1.923927
outcell: Cell angles (23,13,12) (deg):     90.0000     90.0000    120.0000
outcell: Cell volume (Ang**3)        :     31.0390
<dSpData1D:S at geom step 0
  <sparsity:sparsity for geom step 0
    nrows_g=33 nrows=9 sparsity=95.8448 nnzs=104375, refcount: 7>
  <dData1D:(new from dSpData1D) n=104375, refcount: 1>
refcount: 1>
new_DM -- step:     1
Initializing Density Matrix...
DM filled with atomic data:
<dSpData2D:DM initialized from atoms
  <sparsity:sparsity for geom step 0
    nrows_g=33 nrows=9 sparsity=95.8448 nnzs=104375, refcount: 8>
  <dData2D:DM n=104375 m=1, refcount: 1>
refcount: 1>
No. of atoms with KB's overlaping orbs in proc 0. Max # of overlaps:     712    1768
New grid distribution:   1
           1       1:   20    1:   10    1:    6
           2       1:   20    1:   10    7:   12
           3       1:   20   11:   20    1:    6
           4       1:   20   11:   20    7:   12

InitMesh: MESH =    40 x    40 x    24 =       38400
InitMesh: (bp) =    20 x    20 x    12 =        4800
InitMesh: Mesh cutoff (required, used) =   300.000   316.498 Ry
ExtMesh (bp) on 0 =   156 x   146 x   166 =     3780816
New grid distribution:   2
           1       1:   10    1:   10    1:   12
           2      11:   20    1:   10    1:   12
           3       1:   10   11:   20    1:   12
           4      11:   20   11:   20    1:   12
New grid distribution:   3
           1       1:   10    1:   10    1:   12
           2      11:   20    1:   10    1:   12
           3       1:   10   11:   20    1:   12
           4      11:   20   11:   20    1:   12
Setting up quadratic distribution...
ExtMesh (bp) on 0 =   146 x   146 x   172 =     3666352
PhiOnMesh: Number of (b)points on node 0 =                 1200
PhiOnMesh: nlist on node 0 =              1092922

stepf: Fermi-Dirac step function

siesta: Program's energy decomposition (eV):
siesta: Ebs     =      -190.913835
siesta: Eions   =       321.344870
siesta: Ena     =        64.794560
siesta: Ekin    =       246.489932
siesta: Enl     =       -14.992473
siesta: Eso     =         0.000000
siesta: Edftu   =         0.000000
siesta: DEna    =       -43.028621
siesta: DUscf   =        25.384987
siesta: DUext   =         0.000000
siesta: Exc     =      -130.197842
siesta: eta*DQ  =         0.000000
siesta: Emadel  =         0.000000
siesta: Emeta   =         0.000000
siesta: Emolmec =        -6.521227
siesta: Ekinion =         0.000000
siesta: Eharris =      -143.271564
siesta: Etot    =      -179.415555
siesta: FreeEng =      -179.415586

        iscf     Eharris(eV)        E_KS(eV)     FreeEng(eV)     dDmax    Ef(eV) dHmax(eV)
   scf:    1     -143.271564     -179.415555     -179.415586  4.935763-22.179232 16.889352
timer: Routine,Calls,Time,% = IterSCF        1      27.997  59.77
   scf:    2     -200.049989     -192.556775     -192.561179  1.391992-21.553890  3.642896
   scf:    3     -193.586257     -193.252097     -193.256646  0.504452-20.725504  0.366588
   scf:    4     -193.242605     -193.258329     -193.262886  0.193728-20.510251  0.489826
   scf:    5     -193.273455     -193.267895     -193.272404  0.074518-20.594603  0.083524
   scf:    6     -193.268144     -193.268222     -193.272732  0.038474-20.615977  0.020804
   scf:    7     -193.268302     -193.268273     -193.272780  0.012273-20.612040  0.000287
   scf:    8     -193.268273     -193.268273     -193.272780  0.000143-20.612095  0.000210

SCF Convergence by FreeE+DM+H criterion
|FreeE_i-FreeE_(i-1)| (eV) <     0.00100000
max |DM_out - DM_in|         :     0.0001433216
max |H_out - H_in|      (eV) :     0.0002098886
SCF cycle converged after 8 iterations

Using DM_out to compute the final energy and forces
No. of atoms with KB's overlaping orbs in proc 0. Max # of overlaps:     712    1768

MM-Stress (kbar):      171.73      171.73      801.97        0.00        0.00        0.00

siesta: E_KS(eV) =             -193.2683

siesta: E_KS - E_eggbox =      -193.2683

siesta: Atomic forces (eV/Ang):
     1   -0.000000    0.000000    0.000000
     2   -1.751971    3.034512   -0.000000
     3    1.751971   -3.034512   -0.000000
     4   -1.751869   -3.034326   -0.000000
     5    1.751869    3.034326   -0.000000
     6    3.503950    0.000004   -0.000000
     7   -3.503950   -0.000004   -0.000000
----------------------------------------
   Tot   -0.000000   -0.000000    0.000000
----------------------------------------
   Max    3.503950
   Res    1.872902    sqrt( Sum f_i^2 / 3N )
----------------------------------------
   Max    3.503950    constrained

Stress tensor Voigt[x,y,z,yz,xz,xy] (kbar):    -2142.38    -2142.44     -879.32       -0.00       -0.00       -0.05
(Free)E + p*V (eV/cell)     -159.9247
Target enthalpy (eV/cell)     -193.2728

siesta: Eigenvalues (eV):
  ik is       eps
   1  1  -35.4938  -26.5118  -26.0240  -24.8194  -24.6049  -17.4962  -15.2886  -14.7757  -12.1735  -12.1113
          -2.7453    1.8308    3.6241    5.2078    6.9705    8.1807    9.4156   10.0804   18.5653   21.8563
   22.5848   23.4598   24.1620   25.3484   26.2556   27.9907   30.6312   32.2153   39.0211   42.5264
   43.3518   46.5484   47.6407
   2  1  -35.4555  -26.5088  -25.4211  -25.3401  -24.8683  -17.8229  -17.0639  -12.0554  -11.3316  -10.8882
          -0.2769    0.9503    4.7999    7.3390    8.6435    9.8039   10.6582   10.9817   14.6859   22.1620
   24.7233   25.4031   25.6031   28.4757   29.1030   30.4526   30.9271   31.9746   42.3782   42.4122
   43.0801   44.0307   54.9854
   3  1  -35.4555  -26.5087  -25.4213  -25.3401  -24.8681  -17.8229  -17.0639  -12.0554  -11.3316  -10.8883
          -0.2767    0.9496    4.8005    7.3395    8.6435    9.8040   10.6577   10.9818   14.6858   22.1622
   24.7233   25.4029   25.6031   28.4758   29.1030   30.4526   30.9264   31.9754   42.3778   42.4120
   43.0800   44.0309   54.9846
   4  1  -35.4938  -26.5117  -26.0241  -24.8195  -24.6047  -17.4962  -15.2886  -14.7757  -12.1734  -12.1113
          -2.7452    1.8312    3.6236    5.2071    6.9713    8.1807    9.4156   10.0805   18.5653   21.8563
   22.5850   23.4600   24.1619   25.3484   26.2556   27.9902   30.6312   32.2153   39.0212   42.5261
   43.3520   46.5478   47.6410
   5  1  -35.4555  -26.5088  -25.4211  -25.3401  -24.8683  -17.8229  -17.0639  -12.0554  -11.3316  -10.8882
          -0.2769    0.9503    4.7999    7.3390    8.6435    9.8039   10.6582   10.9817   14.6859   22.1620
   24.7233   25.4031   25.6031   28.4757   29.1030   30.4526   30.9271   31.9746   42.3782   42.4122
   43.0801   44.0307   54.9854
   6  1  -35.1937  -26.1036  -25.4233  -25.4230  -24.8817  -18.1814  -18.1814  -11.9197   -6.7435   -6.7431
          -3.7784   -3.7783    1.5244   10.5175   12.6367   12.9711   12.9712   15.0252   15.0257   16.4021
   16.4025   23.4732   23.4732   25.8305   34.7617   36.2201   37.9857   37.9875   38.7285   40.3262
   40.3287   45.5490   45.5493
   7  1  -35.5149  -26.6260  -25.6247  -25.4224  -24.4370  -16.9996  -15.7998  -14.2167  -14.0969  -12.1780
          -1.6381    0.7911    1.4393    6.1420    7.8694    8.4218    9.2842   12.2042   19.8885   20.5572
   21.0869   21.6874   23.7558   27.8631   28.2406   30.1218   30.9889   31.0324   40.2638   42.5551
   44.7477   45.5450   54.2469
   8  1  -35.4938  -26.5117  -26.0241  -24.8195  -24.6047  -17.4962  -15.2886  -14.7757  -12.1734  -12.1113
          -2.7452    1.8312    3.6236    5.2071    6.9713    8.1807    9.4156   10.0805   18.5653   21.8563
   22.5850   23.4600   24.1619   25.3484   26.2556   27.9902   30.6312   32.2153   39.0212   42.5261
   43.3520   46.5478   47.6410
   9  1  -35.4938  -26.5117  -26.0241  -24.8195  -24.6047  -17.4962  -15.2886  -14.7757  -12.1734  -12.1113
          -2.7452    1.8312    3.6236    5.2071    6.9713    8.1807    9.4156   10.0805   18.5653   21.8563
   22.5850   23.4600   24.1619   25.3484   26.2556   27.9902   30.6312   32.2153   39.0212   42.5261
   43.3520   46.5478   47.6411
  10  1  -35.5149  -26.6260  -25.6247  -25.4224  -24.4370  -16.9996  -15.7998  -14.2167  -14.0969  -12.1780
          -1.6381    0.7911    1.4393    6.1420    7.8694    8.4218    9.2842   12.2042   19.8885   20.5572
   21.0869   21.6874   23.7558   27.8631   28.2406   30.1218   30.9889   31.0324   40.2638   42.5551
   44.7477   45.5450   54.2469
  11  1  -35.4938  -26.5117  -26.0241  -24.8195  -24.6047  -17.4962  -15.2886  -14.7757  -12.1734  -12.1113
          -2.7452    1.8312    3.6236    5.2071    6.9713    8.1807    9.4156   10.0805   18.5653   21.8563
   22.5850   23.4600   24.1619   25.3484   26.2556   27.9902   30.6312   32.2153   39.0212   42.5261
   43.3520   46.5478   47.6411
  12  1  -35.5149  -26.6259  -25.6247  -25.4225  -24.4369  -16.9996  -15.7998  -14.2167  -14.0969  -12.1780
          -1.6381    0.7904    1.4398    6.1420    7.8688    8.4229    9.2842   12.2043   19.8887   20.5570
   21.0867   21.6873   23.7558   27.8636   28.2400   30.1218   30.9889   31.0326   40.2635   42.5552
   44.7475   45.5447   54.2465
  13  1  -34.1218  -26.4227  -25.6347  -23.0246  -22.8473  -20.6543  -15.5962  -12.9717  -12.0709   -8.7028
          -3.0928   -0.7302   -0.7069    2.7814    3.0196    6.4917    6.7829    9.6487   12.7067   17.0421
   18.6612   20.0013   20.5529   24.1444   25.3254   25.5676   31.5575   38.1638   43.1162   43.4776
   49.5986   50.7370   64.1176
  14  1  -34.1561  -26.4443  -24.9984  -24.3429  -22.8499  -19.4329  -16.9843  -15.7341   -9.6130   -8.5689
          -3.3467    1.5578    2.0255    3.4870    4.0315    5.6398    9.0463   12.5611   13.2425   15.5516
   18.8535   21.3713   22.7173   23.3012   25.0288   25.2988   29.7903   38.8344   41.9557   44.4139
   57.5629   59.6220   68.7474
  15  1  -34.1561  -26.4442  -24.9986  -24.3428  -22.8499  -19.4328  -16.9843  -15.7341   -9.6129   -8.5691
          -3.3466    1.5574    2.0257    3.4874    4.0311    5.6399    9.0465   12.5608   13.2427   15.5513
   18.8534   21.3713   22.7171   23.3016   25.0282   25.2995   29.7907   38.8343   41.9557   44.4138
   57.5626   59.6221   68.7471
  16  1  -34.1218  -26.4226  -25.6348  -23.0245  -22.8474  -20.6543  -15.5962  -12.9718  -12.0709   -8.7028
          -3.0928   -0.7302   -0.7069    2.7816    3.0196    6.4913    6.7829    9.6489   12.7066   17.0423
   18.6611   20.0013   20.5527   24.1445   25.3254   25.5675   31.5576   38.1639   43.1164   43.4771
   49.5986   50.7370   64.1177
  17  1  -34.1561  -26.4443  -24.9984  -24.3429  -22.8499  -19.4329  -16.9843  -15.7341   -9.6130   -8.5689
          -3.3467    1.5578    2.0255    3.4870    4.0315    5.6398    9.0463   12.5611   13.2425   15.5516
   18.8535   21.3713   22.7173   23.3012   25.0288   25.2988   29.7903   38.8344   41.9557   44.4139
   57.5629   59.6220   68.7474
  18  1  -33.9417  -25.5411  -24.9144  -24.9141  -22.2915  -18.8344  -17.6621  -17.6621   -5.3160   -5.3153
          -1.7605   -1.7603    3.2715    3.2716    3.6574   11.8790   11.8791   14.3800   18.0125   23.2251
   23.2252   25.1746   25.1759   29.6538   33.2398   36.3113   38.0600   38.0609   41.1771   41.1781
   53.3564   53.3570   62.9291
  19  1  -34.1561  -26.4443  -24.9984  -24.3429  -22.8499  -19.4329  -16.9843  -15.7341   -9.6130   -8.5689
          -3.3467    1.5578    2.0255    3.4870    4.0315    5.6398    9.0463   12.5611   13.2425   15.5516
   18.8535   21.3713   22.7173   23.3012   25.0288   25.2988   29.7903   38.8344   41.9557   44.4139
   57.5629   59.6220   68.7474
  20  1  -34.1392  -26.5901  -25.0412  -24.2673  -21.9915  -20.7421  -15.5042  -12.9190  -11.7169  -10.9026
          -2.0718   -1.4243    0.9868    1.9870    3.5384    4.0541    6.6570   11.0419   13.3761   18.9887
   19.5478   20.6217   21.4154   21.5604   23.1658   27.6000   37.7288   37.9641   45.9150   46.1260
   53.4284   55.7649   62.0499
  21  1  -34.1561  -26.4442  -24.9986  -24.3428  -22.8499  -19.4328  -16.9843  -15.7341   -9.6129   -8.5691
          -3.3466    1.5574    2.0257    3.4874    4.0311    5.6399    9.0465   12.5608   13.2427   15.5513
   18.8534   21.3713   22.7171   23.3016   25.0282   25.2995   29.7907   38.8343   41.9557   44.4138
   57.5626   59.6221   68.7471
  22  1  -34.1561  -26.4443  -24.9984  -24.3429  -22.8499  -19.4329  -16.9843  -15.7341   -9.6130   -8.5689
          -3.3467    1.5578    2.0255    3.4870    4.0315    5.6398    9.0463   12.5611   13.2425   15.5516
   18.8535   21.3713   22.7173   23.3012   25.0288   25.2988   29.7903   38.8344   41.9557   44.4139
   57.5629   59.6220   68.7474
  23  1  -34.1218  -26.4227  -25.6347  -23.0246  -22.8473  -20.6543  -15.5962  -12.9717  -12.0709   -8.7028
          -3.0928   -0.7302   -0.7069    2.7814    3.0196    6.4917    6.7829    9.6487   12.7067   17.0421
   18.6612   20.0013   20.5529   24.1444   25.3254   25.5676   31.5575   38.1638   43.1162   43.4776
   49.5986   50.7370   64.1176
  24  1  -34.1218  -26.4226  -25.6348  -23.0245  -22.8474  -20.6543  -15.5962  -12.9718  -12.0709   -8.7028
          -3.0928   -0.7302   -0.7069    2.7816    3.0196    6.4913    6.7829    9.6489   12.7066   17.0423
   18.6611   20.0013   20.5527   24.1445   25.3254   25.5675   31.5576   38.1639   43.1164   43.4771
   49.5986   50.7370   64.1177
  25  1  -34.1218  -26.4226  -25.6348  -23.0245  -22.8474  -20.6543  -15.5962  -12.9718  -12.0709   -8.7028
          -3.0928   -0.7302   -0.7069    2.7816    3.0196    6.4913    6.7829    9.6489   12.7066   17.0423
   18.6611   20.0013   20.5527   24.1445   25.3254   25.5675   31.5576   38.1639   43.1164   43.4771
   49.5986   50.7370   64.1176
  26  1  -34.1392  -26.5901  -25.0412  -24.2673  -21.9915  -20.7421  -15.5042  -12.9190  -11.7169  -10.9026
          -2.0718   -1.4243    0.9868    1.9870    3.5384    4.0541    6.6570   11.0419   13.3761   18.9887
   19.5478   20.6217   21.4154   21.5604   23.1658   27.6000   37.7288   37.9641   45.9150   46.1260
   53.4284   55.7649   62.0499
  27  1  -34.1218  -26.4226  -25.6348  -23.0245  -22.8474  -20.6543  -15.5962  -12.9718  -12.0709   -8.7028
          -3.0928   -0.7302   -0.7069    2.7816    3.0196    6.4913    6.7829    9.6489   12.7066   17.0423
   18.6611   20.0013   20.5527   24.1445   25.3254   25.5675   31.5576   38.1639   43.1164   43.4771
   49.5986   50.7370   64.1176
  28  1  -34.1392  -26.5900  -25.0414  -24.2673  -21.9914  -20.7421  -15.5043  -12.9190  -11.7169  -10.9026
          -2.0718   -1.4241    0.9864    1.9870    3.5381    4.0546    6.6572   11.0414   13.3762   18.9885
   19.5471   20.6223   21.4151   21.5610   23.1661   27.5999   37.7287   37.9641   45.9150   46.1260
   53.4283   55.7649   62.0502
  29  1  -30.7904  -28.9273  -26.5785  -25.8253  -17.4369  -16.9342  -15.3530  -14.9846  -13.2665   -6.8014
          -5.6965   -5.2471   -4.2355   -1.6872    1.0215    2.8422    4.6987    6.7817   10.7453   13.9946
   14.8011   18.1970   23.6926   29.4773   32.0167   33.0706   35.8142   38.7611   40.8017   42.0678
   49.4786  105.5241  113.1941
  30  1  -31.1606  -28.9528  -25.8377  -24.8869  -18.9783  -16.8858  -15.4655  -14.8829  -14.8525   -5.9621
          -5.2735   -5.1515   -3.5575   -2.0387    0.3088    5.6595   10.1376   12.6669   13.8760   15.6268
   17.2723   21.0343   25.3378   33.7118   34.6426   35.6246   36.1120   39.9696   39.9817   40.0535
   53.3953   57.2366  130.2275
  31  1  -31.1606  -28.9528  -25.8376  -24.8871  -18.9783  -16.8856  -15.4655  -14.8830  -14.8525   -5.9621
          -5.2730   -5.1514   -3.5581   -2.0387    0.3088    5.6596   10.1375   12.6661   13.8771   15.6267
   17.2724   21.0342   25.3378   33.7119   34.6426   35.6245   36.1110   39.9695   39.9818   40.0536
   53.3953   57.2370  130.2270
  32  1  -30.7904  -28.9273  -26.5783  -25.8254  -17.4370  -16.9340  -15.3530  -14.9846  -13.2662   -6.8014
          -5.6965   -5.2471   -4.2360   -1.6872    1.0215    2.8422    4.6987    6.7816   10.7453   13.9946
   14.8011   18.1981   23.6926   29.4759   32.0166   33.0706   35.8141   38.7612   40.8018   42.0678
   49.4785  105.5235  113.1947
  33  1  -31.1606  -28.9528  -25.8377  -24.8869  -18.9783  -16.8858  -15.4655  -14.8829  -14.8525   -5.9621
          -5.2735   -5.1515   -3.5575   -2.0387    0.3088    5.6595   10.1376   12.6669   13.8760   15.6268
   17.2723   21.0343   25.3378   33.7118   34.6426   35.6246   36.1120   39.9696   39.9817   40.0535
   53.3953   57.2366  130.2276
  34  1  -31.4155  -28.4483  -24.4794  -24.4791  -19.6281  -17.1537  -17.1537  -15.5166  -14.7816   -6.1118
          -6.1118   -3.1260   -3.1250   -3.0183   -3.0182   11.3413   11.3415   12.6845   12.6849   15.3934
   15.3949   19.6046   20.8141   28.7851   31.6792   35.2089   35.2090   37.6625   37.6626   40.0911
   43.1562   76.2012   76.2014
  35  1  -31.1606  -28.9528  -25.8377  -24.8869  -18.9783  -16.8858  -15.4655  -14.8829  -14.8525   -5.9621
          -5.2735   -5.1515   -3.5575   -2.0387    0.3088    5.6595   10.1376   12.6669   13.8760   15.6268
   17.2723   21.0343   25.3378   33.7118   34.6426   35.6246   36.1120   39.9696   39.9817   40.0535
   53.3953   57.2366  130.2276
  36  1  -30.7886  -28.8753  -26.9592  -25.2231  -19.6306  -15.3629  -14.9888  -14.8429  -12.0033   -7.9330
          -5.8165   -5.5175   -5.3735   -0.6999    1.5697    2.4141    4.2279   10.6632   11.0348   14.5613
   15.7939   24.7462   24.7999   25.1048   25.9537   35.6873   41.4151   41.4275   46.9922   48.9315
   49.3262   55.7445   89.3172
  37  1  -31.1606  -28.9528  -25.8376  -24.8871  -18.9783  -16.8856  -15.4655  -14.8830  -14.8525   -5.9621
          -5.2730   -5.1514   -3.5581   -2.0387    0.3088    5.6596   10.1375   12.6661   13.8771   15.6267
   17.2724   21.0342   25.3378   33.7119   34.6426   35.6245   36.1110   39.9695   39.9818   40.0536
   53.3953   57.2370  130.2270
  38  1  -31.1606  -28.9528  -25.8377  -24.8869  -18.9783  -16.8858  -15.4655  -14.8829  -14.8525   -5.9621
          -5.2735   -5.1515   -3.5575   -2.0387    0.3088    5.6595   10.1376   12.6669   13.8760   15.6268
   17.2723   21.0343   25.3378   33.7118   34.6426   35.6246   36.1120   39.9696   39.9817   40.0535
   53.3953   57.2366  130.2275
  39  1  -30.7904  -28.9273  -26.5785  -25.8253  -17.4369  -16.9342  -15.3530  -14.9846  -13.2665   -6.8014
          -5.6965   -5.2471   -4.2355   -1.6872    1.0215    2.8422    4.6987    6.7817   10.7453   13.9946
   14.8011   18.1970   23.6926   29.4773   32.0167   33.0706   35.8142   38.7611   40.8017   42.0678
   49.4786  105.5241  113.1941
  40  1  -30.7904  -28.9273  -26.5783  -25.8254  -17.4370  -16.9340  -15.3530  -14.9846  -13.2662   -6.8014
          -5.6965   -5.2471   -4.2360   -1.6872    1.0215    2.8422    4.6987    6.7816   10.7453   13.9946
   14.8011   18.1981   23.6926   29.4759   32.0166   33.0706   35.8141   38.7612   40.8018   42.0678
   49.4785  105.5235  113.1947
  41  1  -30.7904  -28.9273  -26.5783  -25.8254  -17.4370  -16.9340  -15.3530  -14.9846  -13.2662   -6.8014
          -5.6965   -5.2471   -4.2360   -1.6872    1.0215    2.8422    4.6987    6.7816   10.7453   13.9946
   14.8011   18.1981   23.6926   29.4759   32.0166   33.0706   35.8141   38.7612   40.8018   42.0678
   49.4785  105.5234  113.1947
  42  1  -30.7886  -28.8753  -26.9592  -25.2231  -19.6306  -15.3629  -14.9888  -14.8429  -12.0033   -7.9330
          -5.8165   -5.5175   -5.3735   -0.6999    1.5697    2.4141    4.2279   10.6632   11.0348   14.5613
   15.7939   24.7462   24.7999   25.1048   25.9537   35.6873   41.4151   41.4275   46.9922   48.9315
   49.3262   55.7445   89.3172
  43  1  -30.7904  -28.9273  -26.5783  -25.8254  -17.4370  -16.9340  -15.3530  -14.9846  -13.2662   -6.8014
          -5.6965   -5.2471   -4.2360   -1.6872    1.0215    2.8422    4.6987    6.7816   10.7453   13.9946
   14.8011   18.1981   23.6926   29.4759   32.0166   33.0706   35.8141   38.7612   40.8018   42.0678
   49.4785  105.5234  113.1947
  44  1  -30.7886  -28.8753  -26.9591  -25.2233  -19.6306  -15.3629  -14.9883  -14.8429  -12.0036   -7.9329
          -5.8165   -5.5175   -5.3736   -0.6999    1.5697    2.4141    4.2278   10.6632   11.0340   14.5625
   15.7938   24.7462   24.7999   25.1034   25.9539   35.6872   41.4152   41.4275   46.9922   48.9311
   49.3264   55.7450   89.3169
siesta: Fermi energy =     -20.612095 eV

siesta: Program's energy decomposition (eV):
siesta: Ebs     =      -267.088219
siesta: Eions   =       321.344870
siesta: Ena     =        64.794560
siesta: Ekin    =       195.060655
siesta: Enl     =        -1.098844
siesta: Eso     =         0.000000
siesta: Edftu   =         0.000000
siesta: DEna    =        -8.323229
siesta: DUscf   =         4.527602
siesta: DUext   =         0.000000
siesta: Exc     =      -120.362920
siesta: eta*DQ  =         0.000000
siesta: Emadel  =         0.000000
siesta: Emeta   =         0.000000
siesta: Emolmec =        -6.521227
siesta: Ekinion =         0.000000
siesta: Eharris =      -193.268273
siesta: Etot    =      -193.268273
siesta: FreeEng =      -193.272780

siesta: Final energy (eV):
siesta:  Band Struct. =    -267.088219
siesta:       Kinetic =     195.060655
siesta:       Hartree =      77.031412
siesta:       Edftu   =       0.000000
siesta:       Eso     =       0.000000
siesta:    Ext. field =       0.000000
siesta:   Exch.-corr. =    -120.362920
siesta:  Ion-electron =    -480.376440
siesta:       Ion-ion =     141.900246
siesta:       Ekinion =       0.000000
siesta:         Total =    -193.268273
siesta:         Fermi =     -20.612095

siesta: Atomic forces (eV/Ang):
siesta:      1   -0.000000    0.000000    0.000000
siesta:      2   -1.751971    3.034512   -0.000000
siesta:      3    1.751971   -3.034512   -0.000000
siesta:      4   -1.751869   -3.034326   -0.000000
siesta:      5    1.751869    3.034326   -0.000000
siesta:      6    3.503950    0.000004   -0.000000
siesta:      7   -3.503950   -0.000004   -0.000000
siesta: ----------------------------------------
siesta:    Tot   -0.000000   -0.000000    0.000000

siesta: Stress tensor (static) (eV/Ang**3):
siesta:    -1.337154   -0.000033   -0.000000
siesta:    -0.000033   -1.337192    0.000000
siesta:    -0.000000   -0.000000   -0.548824

siesta: Cell volume =         31.039041 Ang**3

siesta: Pressure (static):
siesta:                Solid            Molecule  Units
siesta:           0.01170148          0.01355135  Ry/Bohr**3
siesta:           1.07439003          1.24423892  eV/Ang**3
siesta:        1721.38120485       1993.51207884  kBar
(Free)E+ p_basis*V_orbitals  =        -176.760855
(Free)Eharris+ p_basis*V_orbitals  =        -176.760855

cite: Please see "LiC6_scf.bib" for an exhaustive BiBTeX file.
cite: Please clearly indicate Siesta version in published work: 4.1.5
cite: This calculation has made use of the following articles
cite: which are encouraged to be cited in a published work.
        Primary SIESTA paper
          DOI: www.doi.org/10.1088/0953-8984/14/11/302

>> End of run:   9-NOV-2022  15:25:47
Job completed
