Siesta Version  : 4.1.5
Architecture    : x86_64-unknown-linux-gnu--unknown
Compiler version: GNU Fortran (GCC) 11.3.0
Compiler flags  : mpif90 -g -O2 -fallow-argument-mismatch
PP flags        : -DMPI -DFC_HAVE_FLUSH -DFC_HAVE_ABORT
Libraries       :  -I/global/software/sl-7.x86_64/modules/intel/2020.4.304/mkl/include  /globall/software/sl-7.x86_64/modules/intel/2020.4.304/mkl/lib/intel64/libmkl_scalapack_lp64.a -Wl,--start-group /global/software/sl-7.x86_64/modules/intel/2020.4.304/mkl/lib/intel64/libmkl_intel_lp64.a /global/software/sl-7.x86_64/modules/intel/2020.4.304/mkl/lib/intel64/libmkl_sequential.a /global/software/sl-7.x86_64/modules/intel/2020.4.304/mkl/lib/intel64/libmkl_core.a /global/software/sl-7.x86_64/modules/intel/2020.4.304/mkl/lib/intel64/libmkl_blacs_openmpi_lp64.a -Wl,--end-group -lpthread -lm -ldl
PARALLEL version

* Running on 4 nodes in parallel
>> Start of run:   9-NOV-2022  15:58:45

                           ***********************       
                           *  WELCOME TO SIESTA  *       
                           ***********************       

reinit: Reading from standard input
reinit: Dumped input in INPUT_TMP.92300
************************** Dump of input data file ****************************
SystemName LiC6_scf
SystemLabel LiC6_scf
NumberOfAtoms   7
NumberOfSpecies 2
%block ChemicalSpeciesLabel
1  3   Li-gga
2  6   C-gga
%endblock ChemicalSpeciesLabel
PAO.BasisSize  SZP
PAO.EnergyShift  10 meV
%block PS.Lmax
C-gga   2
Li-gga  2
%endblock PS.Lmax
LatticeConstant 1.000000 Ang
%block LatticeVectors
	4.3161300000	0.0000000000	0.0000000000
	-2.1580650000	3.7378782260	0.0000000000
	0.0000000000	0.0000000000	4.9578124000
%endblock LatticeVectors
AtomicCoordinatesFormat Ang
%block AtomicCoordinatesAndAtomicSpecies
	0.00000000	0.00000000	0.00000000	2
	-0.70288177	1.21742694	2.47890620	1
	-1.45518323	2.52045129	2.47890620	1
	1.45518323	2.52045129	2.47890620	1
	0.70288177	1.21742694	2.47890620	1
	1.40576354	0.00000000	2.47890620	1
	2.91036646	0.00000000	2.47890620	1
%endblock AtomicCoordinatesAndAtomicSpecies
Kgrid_NoTRS  T
%block kgrid_MonkhorstPack
4       0       0       0.0
0       4       0       0.0
0       0       4       0.0
%endblock kgrid_MonkhorstPack
AtomCoorFormatOut Ang
BlockSize 1
#ProcessorY 12
Diag.ParallelOverK   T
Diag.DivideAndConquer F
MeshCutoff   300 Ry
SCF.FreeE.Tolerance 1E-3 eV
SCF.EDM.Tolerance   5E-3 eV
DM.Tolerance  1E-3
DM.Require.Energy.Convergence T
DM.NumberPulay 4
XC.Functional GGA
XC.Authors    PBE
UseSaveData        F
MD.TypeOfRun       CG
MD.VariableCell    F
MD.NumCGsteps      00
MD.MaxCGDispl      0.200000 Bohr
MD.MaxStressTol    1.000000 GPa
MD.MaxForceTol     0.010000 eV/Ang
WriteMDHistory T
WriteCoorStep T
WriteForces T
WriteCoorStep    T
WriteEigenValues T
WriteDM    F
MM.UnitsDistance Ang  # what this program prints out DO NOT CHANGE
MM.UnitsEnergy    eV  # what this program prints out DO NOT CHANGE
MM.Grimme.S6     0.75 # Grimme-paper for PBE (correct for your functional)
MM.Grimme.D     20.   # Grimme-paper (correct for your functional)
%block MM.Potentials
  1   1 Grimme     16.69      1.650 # Li, 10.1002/jcc.20495
  1   2 Grimme     17.40      2.277 # Li / C
  2   2 Grimme     18.14      2.904 # C, 10.1002/jcc.20495
%endblock MM.Potentials
#%block ProjectedDensityOfStates
# -200.0  120.0  0.4  12800  eV
#%endblock ProjectedDensityOfStates
************************** End of input data file *****************************

reinit: -----------------------------------------------------------------------
reinit: System Name: LiC6_scf
reinit: -----------------------------------------------------------------------
reinit: System Label: LiC6_scf
reinit: -----------------------------------------------------------------------
Reading two-body potentials
Grimme - two-body potential between 1 and 1
Grimme - two-body potential between 1 and 2
Grimme - two-body potential between 2 and 2

initatom: Reading input for the pseudopotentials and atomic orbitals ----------
Species number:   1 Atomic number:    3 Label: Li-gga
Species number:   2 Atomic number:    6 Label: C-gga

Ground state valence configuration:   2s01
Reading pseudopotential information in formatted form from Li-gga.psf

Valence configuration for pseudopotential generation:
2s( 1.00) rc: 2.28
2p( 0.00) rc: 2.28
3d( 0.00) rc: 2.59
4f( 0.00) rc: 2.59
Ground state valence configuration:   2s02  2p02
Reading pseudopotential information in formatted form from C-gga.psf

Valence configuration for pseudopotential generation:
2s( 2.00) rc: 1.56
2p( 2.00) rc: 1.56
3d( 0.00) rc: 1.56
4f( 0.00) rc: 1.56
relmxkb: Read Max KB Ang. Momentum=    2 for species C-gga
relmxkb: Read Max KB Ang. Momentum=    2 for species Li-gga

<basis_specs>
===============================================================================
Li-gga               Z=   3    Mass=  6.9400        Charge= 0.17977+309
Lmxo=0 Lmxkb= 2    BasisType=split      Semic=F
L=0  Nsemic=0  Cnfigmx=2
          i=1  nzeta=1  polorb=1  (2s)
            splnorm:   0.15000    
               vcte:    0.0000    
               rinn:    0.0000    
               qcoe:    0.0000    
               qyuk:    0.0000    
               qwid:   0.10000E-01
                rcs:    0.0000    
            lambdas:    1.0000    
-------------------------------------------------------------------------------
L=0  Nkbl=1  erefs: 0.17977+309
L=1  Nkbl=1  erefs: 0.17977+309
L=2  Nkbl=1  erefs: 0.17977+309
===============================================================================
</basis_specs>

atom: Called for Li-gga                (Z =   3)

read_vps: Pseudopotential generation method:
read_vps: ATM 3.2.2 Troullier-Martins                       
Valence charge for ps generation:    1.00000

read_vps: Pseudopotential includes a core correction:
read_vps: Pseudo-core for xc-correction

xc_check: Exchange-correlation functional:
xc_check: GGA Perdew, Burke & Ernzerhof 1996
V l=0 = -2*Zval/r beyond r=  2.2278
V l=1 = -2*Zval/r beyond r=  2.2278
V l=2 = -2*Zval/r beyond r=  2.5245
All V_l potentials equal beyond r=  2.4622
This should be close to max(r_c) in ps generation
All pots = -2*Zval/r beyond r=  2.5245

VLOCAL1: 99.0% of the norm of Vloc inside      7.160 Ry
VLOCAL1: 99.9% of the norm of Vloc inside     16.318 Ry
atom: Maximum radius for 4*pi*r*r*local-pseudopot. charge    2.86079
atom: Maximum radius for r*vlocal+2*Zval:    2.43160
GHOST: No ghost state for L =  0
GHOST: No ghost state for L =  1
GHOST: No ghost state for L =  2

KBgen: Kleinman-Bylander projectors: 
   l= 0   rc=  2.654023   el= -0.211234   Ekb=  1.742119   kbcos=  0.228463
   l= 1   rc=  2.721230   el= -0.080095   Ekb= -1.122375   kbcos= -0.147941
   l= 2   rc=  2.825246   el=  0.002001   Ekb= -0.207076   kbcos= -0.031965

KBgen: Total number of Kleinman-Bylander projectors:    9
atom: -------------------------------------------------------------------------

atom: SANKEY-TYPE ORBITALS:

SPLIT: Orbitals with angular momentum L= 0

SPLIT: Basis orbitals for state 2s

SPLIT: PAO cut-off radius determined from an
SPLIT: energy shift=  0.000735 Ry

   izeta = 1
                 lambda =    1.000000
                     rc =   11.897381
                 energy =   -0.210580
                kinetic =    0.143382
    potential(screened) =   -0.353962
       potential(ionic) =   -0.533453

POLgen: Perturbative polarization orbital with L=  1

POLgen: Polarization orbital for state 2s

   izeta = 1
                     rc =   11.897381
                 energy =   -0.027011
                kinetic =    0.282985
    potential(screened) =   -0.309997
       potential(ionic) =   -0.490997
atom: Total number of Sankey-type orbitals:  4

atm_pop: Valence configuration (for local Pseudopot. screening):
 2s( 1.00)                                                            
Vna: chval, zval:    1.00000   1.00000

Vna:  Cut-off radius for the neutral-atom potential:  11.897381
comcore: Pseudo-core radius Rcore=  3.450946

atom: _________________________________________________________________________

<basis_specs>
===============================================================================
C-gga                Z=   6    Mass=  12.010        Charge= 0.17977+309
Lmxo=1 Lmxkb= 2    BasisType=split      Semic=F
L=0  Nsemic=0  Cnfigmx=2
          i=1  nzeta=1  polorb=0  (2s)
            splnorm:   0.15000    
               vcte:    0.0000    
               rinn:    0.0000    
               qcoe:    0.0000    
               qyuk:    0.0000    
               qwid:   0.10000E-01
                rcs:    0.0000    
            lambdas:    1.0000    
L=1  Nsemic=0  Cnfigmx=2
          i=1  nzeta=1  polorb=1  (2p)
            splnorm:   0.15000    
               vcte:    0.0000    
               rinn:    0.0000    
               qcoe:    0.0000    
               qyuk:    0.0000    
               qwid:   0.10000E-01
                rcs:    0.0000    
            lambdas:    1.0000    
-------------------------------------------------------------------------------
L=0  Nkbl=1  erefs: 0.17977+309
L=1  Nkbl=1  erefs: 0.17977+309
L=2  Nkbl=1  erefs: 0.17977+309
===============================================================================
</basis_specs>

atom: Called for C-gga                 (Z =   6)

read_vps: Pseudopotential generation method:
read_vps: ATM 3.2.2 Troullier-Martins                       
Valence charge for ps generation:    4.00000

xc_check: Exchange-correlation functional:
xc_check: GGA Perdew, Burke & Ernzerhof 1996
V l=0 = -2*Zval/r beyond r=  1.5227
V l=1 = -2*Zval/r beyond r=  1.5227
V l=2 = -2*Zval/r beyond r=  1.5227
All V_l potentials equal beyond r=  1.4851
This should be close to max(r_c) in ps generation
All pots = -2*Zval/r beyond r=  1.5227

VLOCAL1: 99.0% of the norm of Vloc inside     19.682 Ry
VLOCAL1: 99.9% of the norm of Vloc inside     44.856 Ry
atom: Maximum radius for 4*pi*r*r*local-pseudopot. charge    1.79142
atom: Maximum radius for r*vlocal+2*Zval:    1.54183
GHOST: No ghost state for L =  0
GHOST: No ghost state for L =  1
GHOST: No ghost state for L =  2

KBgen: Kleinman-Bylander projectors: 
   l= 0   rc=  1.661951   el= -1.010689   Ekb=  5.289847   kbcos=  0.316429
   l= 1   rc=  1.661951   el= -0.388490   Ekb= -4.102504   kbcos= -0.351025
   l= 2   rc=  1.747182   el=  0.001971   Ekb= -1.006005   kbcos= -0.008530

KBgen: Total number of Kleinman-Bylander projectors:    9
atom: -------------------------------------------------------------------------

atom: SANKEY-TYPE ORBITALS:

SPLIT: Orbitals with angular momentum L= 0

SPLIT: Basis orbitals for state 2s

SPLIT: PAO cut-off radius determined from an
SPLIT: energy shift=  0.000735 Ry

   izeta = 1
                 lambda =    1.000000
                     rc =    5.948690
                 energy =   -1.010099
                kinetic =    0.827121
    potential(screened) =   -1.837220
       potential(ionic) =   -5.392783

SPLIT: Orbitals with angular momentum L= 1

SPLIT: Basis orbitals for state 2p

SPLIT: PAO cut-off radius determined from an
SPLIT: energy shift=  0.000735 Ry

   izeta = 1
                 lambda =    1.000000
                     rc =    7.638387
                 energy =   -0.387843
                kinetic =    2.314739
    potential(screened) =   -2.702582
       potential(ionic) =   -6.092371

POLgen: Perturbative polarization orbital with L=  2

POLgen: Polarization orbital for state 2p

   izeta = 1
                     rc =    7.638387
                 energy =    0.921402
                kinetic =    1.955040
    potential(screened) =   -1.033637
       potential(ionic) =   -3.679558
atom: Total number of Sankey-type orbitals:  9

atm_pop: Valence configuration (for local Pseudopot. screening):
 2s( 2.00)                                                            
 2p( 2.00)                                                            
Vna: chval, zval:    4.00000   4.00000

Vna:  Cut-off radius for the neutral-atom potential:   7.638387

atom: _________________________________________________________________________

prinput: Basis input ----------------------------------------------------------

PAO.BasisType split     

%block ChemicalSpeciesLabel
    1    3 Li-gga                  # Species index, atomic number, species label
    2    6 C-gga                   # Species index, atomic number, species label
%endblock ChemicalSpeciesLabel

%block PAO.Basis                 # Define Basis set
Li-gga                1                    # Species label, number of l-shells
 n=2   0   1 P   1                   # n, l, Nzeta, Polarization, NzetaPol
  11.897   
   1.000   
C-gga                 2                    # Species label, number of l-shells
 n=2   0   1                         # n, l, Nzeta 
   5.949   
   1.000   
 n=2   1   1 P   1                   # n, l, Nzeta, Polarization, NzetaPol
   7.638   
   1.000   
%endblock PAO.Basis

prinput: ----------------------------------------------------------------------

coor:   Atomic-coordinates input format  =     Cartesian coordinates
coor:                                          (in Angstroms)

siesta: Atomic coordinates (Bohr) and species
siesta:      0.00000   0.00000   0.00000  2        1
siesta:     -1.32825   2.30060   4.68446  1        2
siesta:     -2.74990   4.76296   4.68446  1        3
siesta:      2.74990   4.76296   4.68446  1        4
siesta:      1.32825   2.30060   4.68446  1        5
siesta:      2.65651   0.00000   4.68446  1        6
siesta:      5.49980   0.00000   4.68446  1        7

siesta: System type = bulk      

initatomlists: Number of atoms, orbitals, and projectors:      7    33    63

siesta: ******************** Simulation parameters ****************************
siesta:
siesta: The following are some of the parameters of the simulation.
siesta: A complete list of the parameters used, including default values,
siesta: can be found in file out.fdf
siesta:
redata: Spin configuration                          = none
redata: Number of spin components                   = 1
redata: Time-Reversal Symmetry                      = T
redata: Spin spiral                                 = F
redata: Long output                                 =   F
redata: Number of Atomic Species                    =        2
redata: Charge density info will appear in .RHO file
redata: Write Mulliken Pop.                         = NO
redata: Matel table size (NRTAB)                    =     1024
redata: Mesh Cutoff                                 =   300.0000 Ry
redata: Net charge of the system                    =     0.0000 |e|
redata: Min. number of SCF Iter                     =        0
redata: Max. number of SCF Iter                     =     1000
redata: SCF convergence failure will abort job
redata: SCF mix quantity                            = Hamiltonian
redata: Mix DM or H after convergence               =   F
redata: Recompute H after scf cycle                 =   F
redata: Mix DM in first SCF step                    =   T
redata: Write Pulay info on disk                    =   F
redata: New DM Occupancy tolerance                  = 0.000000000001
redata: No kicks to SCF
redata: DM Mixing Weight for Kicks                  =     0.5000
redata: Require Harris convergence for SCF          =   F
redata: Harris energy tolerance for SCF             =     0.000100 eV
redata: Require DM convergence for SCF              =   T
redata: DM tolerance for SCF                        =     0.001000
redata: Require EDM convergence for SCF             =   F
redata: EDM tolerance for SCF                       =     0.005000 eV
redata: Require H convergence for SCF               =   T
redata: Hamiltonian tolerance for SCF               =     0.001000 eV
redata: Require (free) Energy convergence for SCF   =   T
redata: (free) Energy tolerance for SCF             =     0.001000 eV
redata: Using Saved Data (generic)                  =   F
redata: Use continuation files for DM               =   F
redata: Neglect nonoverlap interactions             =   F
redata: Method of Calculation                       = Diagonalization
redata: Electronic Temperature                      =   299.9869 K
redata: Fix the spin of the system                  =   F
redata: Dynamics option                             = Single-point calculation
mix.SCF: Pulay mixing                            = Pulay
mix.SCF:    Variant                              = stable
mix.SCF:    History steps                        = 4
mix.SCF:    Linear mixing weight                 =     0.250000
mix.SCF:    Mixing weight                        =     0.250000
mix.SCF:    SVD condition                        = 0.1000E-07
redata: ***********************************************************************

%block SCF.Mixers
  Pulay
%endblock SCF.Mixers

%block SCF.Mixer.Pulay
  # Mixing method
  method pulay
  variant stable

  # Mixing options
  weight 0.2500
  weight.linear 0.2500
  history 4
%endblock SCF.Mixer.Pulay

DM_history_depth set to one: no extrapolation allowed by default for geometry relaxation
Size of DM history Fstack: 1
Total number of electrons:    10.000000
Total ionic charge:    10.000000

* ProcessorY, Blocksize:    2   1


* Orbital distribution balance (max,min):     9     8

k-point displ. along   1 input, could be:     0.00    0.50
k-point displ. along   2 input, could be:     0.00    0.50
k-point displ. along   3 input, could be:     0.00    0.50
 Kpoints in:           48 . Kpoints trimmed:           44

siesta: k-grid: Number of k-points =    44
siesta: k-grid: Cutoff (effective) =     8.632 Ang
siesta: k-grid: Supercell and displacements
siesta: k-grid:    4   0   0      0.000
siesta: k-grid:    0   4   0      0.000
siesta: k-grid:    0   0   4      0.000

diag: Algorithm                                     = Expert
diag: Parallel over k                               =   T
diag: Use parallel 2D distribution                  =   T
diag: Parallel block-size                           = 1
diag: Parallel distribution                         =     2 x     2
diag: Used triangular part                          = Lower
diag: Absolute tolerance                            =  0.100E-15
diag: Orthogonalization factor                      =  0.100E-05
diag: Memory factor                                 =  1.0000

superc: Internal auxiliary supercell:     9 x     9 x     5  =     405
superc: Number of atoms, orbitals, and projectors:   2835  13365  25515


ts: **************************************************************
ts: Save H and S matrices                           =    F
ts: Save DM and EDM matrices                        =    F
ts: Only save the overlap matrix S                  =    F
ts: **************************************************************

************************ Begin: TS CHECKS AND WARNINGS ************************
************************ End: TS CHECKS AND WARNINGS **************************


                     ====================================
                        Single-point calculation
                     ====================================

outcoor: Atomic coordinates (Ang):                          
    0.00000000    0.00000000    0.00000000   2       1  C-gga
   -0.70288177    1.21742694    2.47890620   1       2  Li-gga
   -1.45518323    2.52045129    2.47890620   1       3  Li-gga
    1.45518323    2.52045129    2.47890620   1       4  Li-gga
    0.70288177    1.21742694    2.47890620   1       5  Li-gga
    1.40576354    0.00000000    2.47890620   1       6  Li-gga
    2.91036646    0.00000000    2.47890620   1       7  Li-gga

superc: Internal auxiliary supercell:     9 x     9 x     5  =     405
superc: Number of atoms, orbitals, and projectors:   2835  13365  25515

outcell: Unit cell vectors (Ang):
        4.316130    0.000000    0.000000
       -2.158065    3.737878    0.000000
        0.000000    0.000000    4.957812

outcell: Cell vector modules (Ang)   :    4.316130    4.316130    4.957812
outcell: Cell angles (23,13,12) (deg):     90.0000     90.0000    120.0000
outcell: Cell volume (Ang**3)        :     79.9852
<dSpData1D:S at geom step 0
  <sparsity:sparsity for geom step 0
    nrows_g=33 nrows=9 sparsity=32.1699 nnzs=35033, refcount: 7>
  <dData1D:(new from dSpData1D) n=35033, refcount: 1>
refcount: 1>
new_DM -- step:     1
Initializing Density Matrix...
DM filled with atomic data:
<dSpData2D:DM initialized from atoms
  <sparsity:sparsity for geom step 0
    nrows_g=33 nrows=9 sparsity=32.1699 nnzs=35033, refcount: 8>
  <dData2D:DM n=35033 m=1, refcount: 1>
refcount: 1>
No. of atoms with KB's overlaping orbs in proc 0. Max # of overlaps:     269     684
New grid distribution:   1
           1       1:   20    1:   10    1:   14
           2       1:   20    1:   10   15:   27
           3       1:   20   11:   20    1:   14
           4       1:   20   11:   20   15:   27

InitMesh: MESH =    40 x    40 x    54 =       86400
InitMesh: (bp) =    20 x    20 x    27 =       10800
InitMesh: Mesh cutoff (required, used) =   300.000   316.498 Ry
ExtMesh (bp) on 0 =   156 x   146 x   154 =     3507504
New grid distribution:   2
           1       1:   20    1:   10    1:   14
           2       1:   20    1:   10   15:   27
           3       1:   20   11:   20    1:   14
           4       1:   20   11:   20   15:   27
New grid distribution:   3
           1       1:   20    1:   10    1:   14
           2       1:   20    1:   10   15:   27
           3       1:   20   11:   20    1:   14
           4       1:   20   11:   20   15:   27
Setting up quadratic distribution...
ExtMesh (bp) on 0 =   156 x   146 x   154 =     3507504
PhiOnMesh: Number of (b)points on node 0 =                 2800
PhiOnMesh: nlist on node 0 =               997649

stepf: Fermi-Dirac step function

siesta: Program's energy decomposition (eV):
siesta: Ebs     =      -142.389815
siesta: Eions   =       321.344870
siesta: Ena     =        94.429739
siesta: Ekin    =        94.741456
siesta: Enl     =        22.947353
siesta: Eso     =         0.000000
siesta: Edftu   =         0.000000
siesta: DEna    =        16.004825
siesta: DUscf   =         7.502149
siesta: DUext   =         0.000000
siesta: Exc     =       -90.036835
siesta: eta*DQ  =         0.000000
siesta: Emadel  =         0.000000
siesta: Emeta   =         0.000000
siesta: Emolmec =        -2.740719
siesta: Ekinion =         0.000000
siesta: Eharris =      -165.479841
siesta: Etot    =      -178.496902
siesta: FreeEng =      -178.500663

        iscf     Eharris(eV)        E_KS(eV)     FreeEng(eV)     dDmax    Ef(eV) dHmax(eV)
   scf:    1     -165.479841     -178.496902     -178.500663  1.461372 -9.396522  7.975696
timer: Routine,Calls,Time,% = IterSCF        1       8.832  59.73
   scf:    2     -182.999389     -182.424564     -182.437912  0.319374-10.316988  0.472189
   scf:    3     -182.418737     -182.429691     -182.440863  0.021558-10.282217  0.225982
   scf:    4     -180.891804     -181.934771     -181.952478  0.169016-10.371957  2.490295
   scf:    5     -182.590657     -182.329481     -182.346270  0.079845-10.321812  1.135889
   scf:    6     -182.376881     -182.429821     -182.441544  0.083669-10.253502  0.333016
   scf:    7     -182.412017     -182.421624     -182.432535  0.007456-10.243039  0.478289
   scf:    8     -182.411408     -182.432466     -182.446813  0.036995-10.287253  0.203257
   scf:    9     -182.436149     -182.436675     -182.449880  0.013700-10.273042  0.055781
   scf:   10     -182.436419     -182.436651     -182.450119  0.002935-10.276296  0.002324
   scf:   11     -182.436697     -182.436675     -182.450118  0.000342-10.275749  0.004193
   scf:   12     -182.436640     -182.436658     -182.450120  0.000198-10.275937  0.000136

SCF Convergence by FreeE+DM+H criterion
|FreeE_i-FreeE_(i-1)| (eV) <     0.00100000
max |DM_out - DM_in|         :     0.0001981288
max |H_out - H_in|      (eV) :     0.0001359919
SCF cycle converged after 12 iterations

Using DM_out to compute the final energy and forces
No. of atoms with KB's overlaping orbs in proc 0. Max # of overlaps:     269     684

MM-Stress (kbar):       -5.80       -5.80       36.66        0.00        0.00        0.00

siesta: E_KS(eV) =             -182.4367

siesta: E_KS - E_eggbox =      -182.4367

siesta: Atomic forces (eV/Ang):
     1    0.000000   -0.000000   -0.000000
     2   -0.148515    0.257256    0.000000
     3    0.148515   -0.257256    0.000000
     4   -0.148545   -0.257288    0.000000
     5    0.148545    0.257288    0.000000
     6    0.297048    0.000010    0.000000
     7   -0.297048   -0.000010    0.000000
----------------------------------------
   Tot    0.000000   -0.000000    0.000000
----------------------------------------
   Max    0.297048
   Res    0.158786    sqrt( Sum f_i^2 / 3N )
----------------------------------------
   Max    0.297048    constrained

Stress tensor Voigt[x,y,z,yz,xz,xy] (kbar):     -821.24     -821.25      344.34        0.00       -0.00       -0.01
(Free)E + p*V (eV/cell)     -160.8480
Target enthalpy (eV/cell)     -182.4501

siesta: Eigenvalues (eV):
  ik is       eps
   1  1  -18.9975  -12.2920  -12.2417  -11.5674  -10.4025   -9.5354   -9.2256   -7.8647   -6.3687   -3.4734
          -3.1057   -2.1389    1.4800    2.3976    2.5090    3.7920    5.7580    7.3804   10.0993   10.4164
   16.6202   17.0752   17.5844   18.4255   18.8837   22.9282   23.9039   24.8805   25.2840   25.9071
   40.3375   46.3854   48.7650
   2  1  -19.1096  -12.6894  -12.2354  -10.8059  -10.5972  -10.1351   -9.4993   -7.4380   -3.9714   -3.9382
          -3.1500   -2.9159   -1.0835   -0.4965    0.2284    4.5470    5.4851    9.2706   10.2728   10.6393
   12.1769   17.0030   19.0560   19.0949   20.9297   25.0587   25.5282   26.3048   26.9982   34.5977
   47.9451   52.3414   55.2003
   3  1  -19.1096  -12.6894  -12.2354  -10.8059  -10.5972  -10.1352   -9.4992   -7.4380   -3.9714   -3.9382
          -3.1500   -2.9159   -1.0835   -0.4964    0.2284    4.5470    5.4851    9.2707   10.2727   10.6393
   12.1768   17.0030   19.0560   19.0948   20.9297   25.0588   25.5282   26.3047   26.9982   34.5977
   47.9451   52.3414   55.2002
   4  1  -18.9975  -12.2920  -12.2417  -11.5674  -10.4025   -9.5354   -9.2255   -7.8647   -6.3687   -3.4734
          -3.1057   -2.1390    1.4800    2.3976    2.5090    3.7920    5.7580    7.3804   10.0994   10.4164
   16.6202   17.0750   17.5844   18.4255   18.8837   22.9283   23.9039   24.8804   25.2840   25.9071
   40.3374   46.3854   48.7651
   5  1  -19.1096  -12.6894  -12.2354  -10.8059  -10.5972  -10.1351   -9.4993   -7.4380   -3.9714   -3.9382
          -3.1500   -2.9159   -1.0835   -0.4965    0.2284    4.5470    5.4851    9.2706   10.2728   10.6393
   12.1769   17.0030   19.0560   19.0949   20.9297   25.0587   25.5282   26.3048   26.9982   34.5977
   47.9451   52.3414   55.2003
   6  1  -19.1857  -13.0145  -12.0151  -10.7157  -10.3859   -9.9891   -9.9890   -6.6092   -4.0505   -4.0505
          -2.0014   -2.0014   -1.4322   -1.4322   -0.1341   -0.1341    6.7911    9.5353    9.5354   16.6508
   16.6508   19.4575   19.4576   25.1640   26.2059   26.2059   27.2886   27.2889   35.2428   35.2429
   45.6633   47.8217   55.8668
   7  1  -19.0013  -12.4843  -12.2289  -11.0976  -10.4763  -10.2692   -8.9850   -8.2916   -5.0345   -3.8745
          -3.8289   -0.3925    0.2669    1.1378    2.2924    2.4737    3.7567    7.0649   15.9231   15.9446
   16.6784   16.7597   16.9929   18.2161   18.6337   19.5469   20.5632   25.7087   27.6740   31.8263
   50.5695   52.6225   57.3051
   8  1  -18.9975  -12.2920  -12.2417  -11.5674  -10.4025   -9.5354   -9.2255   -7.8647   -6.3687   -3.4734
          -3.1057   -2.1390    1.4800    2.3976    2.5090    3.7920    5.7580    7.3804   10.0994   10.4164
   16.6202   17.0750   17.5844   18.4255   18.8837   22.9283   23.9039   24.8804   25.2840   25.9071
   40.3374   46.3854   48.7651
   9  1  -18.9975  -12.2920  -12.2417  -11.5674  -10.4025   -9.5354   -9.2255   -7.8647   -6.3687   -3.4734
          -3.1057   -2.1390    1.4800    2.3976    2.5090    3.7920    5.7580    7.3804   10.0994   10.4164
   16.6202   17.0750   17.5844   18.4255   18.8837   22.9283   23.9039   24.8804   25.2840   25.9071
   40.3374   46.3854   48.7651
  10  1  -19.0013  -12.4843  -12.2289  -11.0976  -10.4763  -10.2692   -8.9850   -8.2916   -5.0345   -3.8745
          -3.8289   -0.3925    0.2669    1.1378    2.2924    2.4737    3.7567    7.0649   15.9231   15.9446
   16.6784   16.7597   16.9929   18.2161   18.6337   19.5469   20.5632   25.7087   27.6740   31.8263
   50.5695   52.6225   57.3051
  11  1  -18.9975  -12.2920  -12.2417  -11.5674  -10.4025   -9.5354   -9.2255   -7.8647   -6.3687   -3.4734
          -3.1057   -2.1390    1.4800    2.3976    2.5090    3.7920    5.7580    7.3804   10.0994   10.4164
   16.6202   17.0750   17.5844   18.4255   18.8837   22.9283   23.9039   24.8804   25.2840   25.9071
   40.3374   46.3854   48.7651
  12  1  -19.0013  -12.4843  -12.2289  -11.0975  -10.4763  -10.2693   -8.9849   -8.2916   -5.0345   -3.8746
          -3.8289   -0.3924    0.2669    1.1378    2.2924    2.4737    3.7567    7.0651   15.9231   15.9445
   16.6784   16.7595   16.9929   18.2162   18.6337   19.5469   20.5633   25.7087   27.6739   31.8263
   50.5694   52.6225   57.3053
  13  1  -18.9400  -13.2179  -12.1020  -11.3899  -10.3750  -10.0294   -8.6863   -6.5980   -5.7851   -3.4662
          -3.4286   -2.7795    0.9336    2.0535    2.1342    3.0133    3.4056    7.4183   11.1428   13.3332
   13.3659   15.5481   16.1545   17.7068   20.9867   22.2410   24.0015   24.4970   28.4883   30.0588
   42.8512   46.6927   49.4061
  14  1  -19.0569  -13.4795  -12.0739  -10.7336  -10.2993  -10.1083   -8.9291   -6.9134   -4.3085   -4.1509
          -3.1326   -2.4664   -0.9903   -0.8244   -0.0112    3.5652    7.7779   10.5232   11.5903   12.4241
   14.6810   14.7118   17.0634   17.1745   24.0726   25.1454   26.3032   27.0390   30.2723   35.3663
   47.5759   51.7761   53.4122
  15  1  -19.0569  -13.4795  -12.0739  -10.7336  -10.2993  -10.1084   -8.9291   -6.9134   -4.3085   -4.1509
          -3.1326   -2.4664   -0.9903   -0.8244   -0.0112    3.5652    7.7779   10.5232   11.5904   12.4241
   14.6809   14.7118   17.0632   17.1745   24.0727   25.1453   26.3032   27.0390   30.2723   35.3663
   47.5760   51.7761   53.4121
  16  1  -18.9400  -13.2179  -12.1020  -11.3899  -10.3750  -10.0294   -8.6863   -6.5980   -5.7852   -3.4662
          -3.4286   -2.7795    0.9336    2.0535    2.1342    3.0133    3.4056    7.4183   11.1428   13.3332
   13.3659   15.5481   16.1546   17.7068   20.9866   22.2411   24.0015   24.4968   28.4883   30.0588
   42.8512   46.6927   49.4062
  17  1  -19.0569  -13.4795  -12.0739  -10.7336  -10.2993  -10.1083   -8.9291   -6.9134   -4.3085   -4.1509
          -3.1326   -2.4664   -0.9903   -0.8244   -0.0112    3.5652    7.7779   10.5232   11.5903   12.4241
   14.6810   14.7118   17.0634   17.1745   24.0726   25.1454   26.3032   27.0390   30.2723   35.3663
   47.5759   51.7761   53.4122
  18  1  -19.1512  -13.5072  -11.8266  -10.2630   -9.9585   -9.9584   -9.4562   -6.8394   -3.7668   -3.7668
          -3.0420   -3.0420   -0.7470   -0.7470    0.6106    0.6106    6.9689   13.1258   13.1260   16.7545
   16.7546   19.8685   19.8685   25.2658   25.7304   25.7307   28.3910   28.3910   38.6698   38.6699
   42.5996   46.5074   48.7462
  19  1  -19.0569  -13.4795  -12.0739  -10.7336  -10.2993  -10.1083   -8.9291   -6.9134   -4.3085   -4.1509
          -3.1326   -2.4664   -0.9903   -0.8244   -0.0112    3.5652    7.7779   10.5232   11.5903   12.4241
   14.6810   14.7118   17.0634   17.1745   24.0726   25.1454   26.3032   27.0390   30.2723   35.3663
   47.5759   51.7761   53.4122
  20  1  -18.9415  -13.2501  -12.3150  -10.9702  -10.5112  -10.2456   -8.7888   -6.4248   -5.7126   -4.6427
          -2.4809   -0.8356   -0.2410    0.2685    2.0124    2.1785    2.9881   11.0308   11.0991   11.5715
   12.4187   15.3264   16.6732   17.4336   20.2744   23.3341   24.7444   24.9399   27.4434   32.3886
   50.1808   52.2448   56.5480
  21  1  -19.0569  -13.4795  -12.0739  -10.7336  -10.2993  -10.1084   -8.9291   -6.9134   -4.3085   -4.1509
          -3.1326   -2.4664   -0.9903   -0.8244   -0.0112    3.5652    7.7779   10.5232   11.5904   12.4241
   14.6809   14.7118   17.0632   17.1745   24.0727   25.1453   26.3032   27.0390   30.2723   35.3663
   47.5760   51.7761   53.4121
  22  1  -19.0569  -13.4795  -12.0739  -10.7336  -10.2993  -10.1083   -8.9291   -6.9134   -4.3085   -4.1509
          -3.1326   -2.4664   -0.9903   -0.8244   -0.0112    3.5652    7.7779   10.5232   11.5903   12.4241
   14.6810   14.7118   17.0634   17.1745   24.0726   25.1454   26.3032   27.0390   30.2723   35.3663
   47.5759   51.7761   53.4122
  23  1  -18.9400  -13.2179  -12.1020  -11.3899  -10.3750  -10.0294   -8.6863   -6.5980   -5.7851   -3.4662
          -3.4286   -2.7795    0.9336    2.0535    2.1342    3.0133    3.4056    7.4183   11.1428   13.3332
   13.3659   15.5481   16.1545   17.7068   20.9867   22.2410   24.0015   24.4970   28.4883   30.0588
   42.8512   46.6927   49.4061
  24  1  -18.9400  -13.2179  -12.1020  -11.3899  -10.3750  -10.0294   -8.6863   -6.5980   -5.7852   -3.4662
          -3.4286   -2.7795    0.9336    2.0535    2.1342    3.0133    3.4056    7.4183   11.1428   13.3332
   13.3659   15.5481   16.1546   17.7068   20.9866   22.2411   24.0015   24.4968   28.4883   30.0588
   42.8512   46.6927   49.4062
  25  1  -18.9400  -13.2179  -12.1020  -11.3899  -10.3750  -10.0294   -8.6863   -6.5980   -5.7852   -3.4662
          -3.4286   -2.7795    0.9336    2.0535    2.1342    3.0133    3.4056    7.4183   11.1428   13.3332
   13.3659   15.5481   16.1546   17.7068   20.9866   22.2411   24.0015   24.4968   28.4883   30.0588
   42.8511   46.6928   49.4062
  26  1  -18.9415  -13.2501  -12.3150  -10.9702  -10.5112  -10.2456   -8.7888   -6.4248   -5.7126   -4.6427
          -2.4809   -0.8356   -0.2410    0.2685    2.0124    2.1785    2.9881   11.0308   11.0991   11.5715
   12.4187   15.3264   16.6732   17.4336   20.2744   23.3341   24.7444   24.9399   27.4434   32.3886
   50.1808   52.2448   56.5480
  27  1  -18.9400  -13.2179  -12.1020  -11.3899  -10.3750  -10.0294   -8.6863   -6.5980   -5.7852   -3.4662
          -3.4286   -2.7795    0.9336    2.0535    2.1342    3.0133    3.4056    7.4183   11.1428   13.3332
   13.3659   15.5481   16.1546   17.7068   20.9866   22.2411   24.0015   24.4968   28.4883   30.0588
   42.8511   46.6928   49.4062
  28  1  -18.9415  -13.2501  -12.3151  -10.9702  -10.5111  -10.2457   -8.7888   -6.4248   -5.7126   -4.6427
          -2.4810   -0.8356   -0.2410    0.2685    2.0124    2.1785    2.9881   11.0307   11.0992   11.5715
   12.4186   15.3264   16.6732   17.4336   20.2745   23.3340   24.7444   24.9399   27.4432   32.3886
   50.1807   52.2447   56.5481
  29  1  -18.8798  -13.7691  -11.6244  -11.2492  -11.0327  -10.6241   -7.0164   -6.3427   -5.3058   -3.8925
          -3.6316   -3.5064    0.0888    1.7024    1.9328    2.2851    3.2561    7.0901   10.1234   11.1264
   12.2446   16.5074   16.5718   19.5090   20.8955   22.7775   24.0761   24.2862   30.6191   32.7632
   45.1703   46.7882   49.9571
  30  1  -18.9983  -13.9664  -11.7560  -10.9087  -10.6194  -10.0735   -7.5590   -7.0417   -4.5460   -4.1410
          -3.5488   -1.6105   -1.4255   -0.9931   -0.4678    3.7145    9.7630   10.2703   10.5415   13.9091
   14.3353   15.9252   18.4410   20.1313   20.9441   23.2232   25.9882   30.9937   34.1396   37.0089
   47.3599   51.1672   51.8799
  31  1  -18.9983  -13.9664  -11.7560  -10.9087  -10.6194  -10.0735   -7.5590   -7.0417   -4.5460   -4.1409
          -3.5488   -1.6105   -1.4255   -0.9931   -0.4678    3.7144    9.7630   10.2703   10.5415   13.9091
   14.3353   15.9252   18.4413   20.1311   20.9442   23.2231   25.9882   30.9937   34.1396   37.0089
   47.3599   51.1671   51.8798
  32  1  -18.8798  -13.7691  -11.6244  -11.2492  -11.0327  -10.6242   -7.0164   -6.3426   -5.3058   -3.8925
          -3.6316   -3.5064    0.0888    1.7024    1.9328    2.2851    3.2561    7.0901   10.1233   11.1264
   12.2446   16.5074   16.5718   19.5092   20.8956   22.7775   24.0760   24.2859   30.6191   32.7632
   45.1703   46.7882   49.9571
  33  1  -18.9983  -13.9664  -11.7560  -10.9087  -10.6194  -10.0735   -7.5590   -7.0417   -4.5460   -4.1410
          -3.5488   -1.6105   -1.4255   -0.9931   -0.4678    3.7145    9.7630   10.2703   10.5415   13.9091
   14.3353   15.9252   18.4410   20.1313   20.9441   23.2232   25.9882   30.9937   34.1396   37.0089
   47.3599   51.1672   51.8799
  34  1  -19.1137  -13.8875  -11.6083  -10.1360   -9.9222   -9.9221   -8.6980   -6.9872   -3.4311   -3.4311
          -3.3967   -3.3967   -1.3003   -1.3003    2.1788    2.1790    5.6317   15.1742   15.1742   20.0936
   20.0940   21.0300   21.0301   21.9870   21.9870   25.5611   29.4469   29.4470   35.2364   41.3018
   41.3019   46.8217   49.1182
  35  1  -18.9983  -13.9664  -11.7560  -10.9087  -10.6194  -10.0735   -7.5590   -7.0417   -4.5460   -4.1410
          -3.5488   -1.6105   -1.4255   -0.9931   -0.4678    3.7145    9.7630   10.2703   10.5415   13.9091
   14.3353   15.9252   18.4410   20.1313   20.9441   23.2232   25.9882   30.9937   34.1396   37.0089
   47.3599   51.1672   51.8799
  36  1  -18.8786  -13.8186  -11.8232  -11.4820  -10.8376  -10.2133   -7.0780   -6.6639   -5.6130   -4.9293
          -1.9105   -1.5372   -0.7823   -0.1823    1.2970    2.0070    2.1370    8.3497   10.6842   12.2854
   13.2244   13.4702   15.2606   17.7742   19.8521   25.2217   25.8470   26.2374   28.5174   33.8029
   49.8252   51.8535   55.9417
  37  1  -18.9983  -13.9664  -11.7560  -10.9087  -10.6194  -10.0735   -7.5590   -7.0417   -4.5460   -4.1409
          -3.5488   -1.6105   -1.4255   -0.9931   -0.4678    3.7144    9.7630   10.2703   10.5415   13.9091
   14.3353   15.9252   18.4413   20.1311   20.9442   23.2231   25.9882   30.9937   34.1396   37.0089
   47.3599   51.1671   51.8798
  38  1  -18.9983  -13.9664  -11.7560  -10.9087  -10.6194  -10.0735   -7.5590   -7.0417   -4.5460   -4.1410
          -3.5488   -1.6105   -1.4255   -0.9931   -0.4678    3.7145    9.7630   10.2703   10.5415   13.9091
   14.3353   15.9252   18.4410   20.1313   20.9441   23.2232   25.9882   30.9937   34.1396   37.0089
   47.3599   51.1672   51.8799
  39  1  -18.8798  -13.7691  -11.6244  -11.2492  -11.0327  -10.6241   -7.0164   -6.3427   -5.3058   -3.8925
          -3.6316   -3.5064    0.0888    1.7024    1.9328    2.2851    3.2561    7.0901   10.1234   11.1264
   12.2446   16.5074   16.5718   19.5090   20.8955   22.7775   24.0761   24.2862   30.6191   32.7632
   45.1703   46.7882   49.9571
  40  1  -18.8798  -13.7691  -11.6244  -11.2492  -11.0327  -10.6242   -7.0164   -6.3426   -5.3058   -3.8925
          -3.6316   -3.5064    0.0888    1.7024    1.9328    2.2851    3.2561    7.0901   10.1233   11.1264
   12.2446   16.5074   16.5718   19.5092   20.8956   22.7775   24.0760   24.2859   30.6191   32.7632
   45.1703   46.7882   49.9571
  41  1  -18.8798  -13.7691  -11.6244  -11.2492  -11.0327  -10.6242   -7.0164   -6.3426   -5.3058   -3.8925
          -3.6316   -3.5064    0.0888    1.7024    1.9328    2.2851    3.2561    7.0901   10.1233   11.1264
   12.2446   16.5074   16.5718   19.5092   20.8956   22.7775   24.0760   24.2859   30.6191   32.7632
   45.1703   46.7882   49.9571
  42  1  -18.8786  -13.8186  -11.8232  -11.4820  -10.8376  -10.2133   -7.0780   -6.6639   -5.6130   -4.9293
          -1.9105   -1.5372   -0.7823   -0.1823    1.2970    2.0070    2.1370    8.3497   10.6842   12.2854
   13.2244   13.4702   15.2606   17.7742   19.8521   25.2217   25.8470   26.2374   28.5174   33.8029
   49.8252   51.8534   55.9417
  43  1  -18.8798  -13.7691  -11.6244  -11.2492  -11.0327  -10.6242   -7.0164   -6.3426   -5.3058   -3.8925
          -3.6316   -3.5064    0.0888    1.7024    1.9328    2.2851    3.2561    7.0901   10.1233   11.1264
   12.2446   16.5074   16.5718   19.5092   20.8956   22.7775   24.0760   24.2859   30.6191   32.7632
   45.1703   46.7882   49.9571
  44  1  -18.8786  -13.8186  -11.8232  -11.4819  -10.8376  -10.2133   -7.0780   -6.6639   -5.6128   -4.9293
          -1.9105   -1.5372   -0.7823   -0.1823    1.2970    2.0070    2.1370    8.3497   10.6842   12.2854
   13.2243   13.4701   15.2607   17.7745   19.8521   25.2217   25.8469   26.2371   28.5174   33.8028
   49.8251   51.8534   55.9419
siesta: Fermi energy =     -10.275937 eV

siesta: Program's energy decomposition (eV):
siesta: Ebs     =      -131.788678
siesta: Eions   =       321.344870
siesta: Ena     =        94.429739
siesta: Ekin    =       116.573169
siesta: Enl     =        15.596477
siesta: Eso     =         0.000000
siesta: Edftu   =         0.000000
siesta: DEna    =         7.401115
siesta: DUscf   =         1.289691
siesta: DUext   =         0.000000
siesta: Exc     =       -93.641261
siesta: eta*DQ  =         0.000000
siesta: Emadel  =         0.000000
siesta: Emeta   =         0.000000
siesta: Emolmec =        -2.740719
siesta: Ekinion =         0.000000
siesta: Eharris =      -182.436640
siesta: Etot    =      -182.436658
siesta: FreeEng =      -182.450120

siesta: Final energy (eV):
siesta:  Band Struct. =    -131.788678
siesta:       Kinetic =     116.573169
siesta:       Hartree =      35.138244
siesta:       Edftu   =       0.000000
siesta:       Eso     =       0.000000
siesta:    Ext. field =       0.000000
siesta:   Exch.-corr. =     -93.641261
siesta:  Ion-electron =    -216.848919
siesta:       Ion-ion =     -20.917173
siesta:       Ekinion =       0.000000
siesta:         Total =    -182.436658
siesta:         Fermi =     -10.275937

siesta: Atomic forces (eV/Ang):
siesta:      1    0.000000   -0.000000   -0.000000
siesta:      2   -0.148515    0.257256    0.000000
siesta:      3    0.148515   -0.257256    0.000000
siesta:      4   -0.148545   -0.257288    0.000000
siesta:      5    0.148545    0.257288    0.000000
siesta:      6    0.297048    0.000010    0.000000
siesta:      7   -0.297048   -0.000010    0.000000
siesta: ----------------------------------------
siesta:    Tot    0.000000   -0.000000    0.000000

siesta: Stress tensor (static) (eV/Ang**3):
siesta:    -0.512572   -0.000005   -0.000000
siesta:    -0.000005   -0.512578   -0.000000
siesta:    -0.000000    0.000000    0.214921

siesta: Cell volume =         79.985222 Ang**3

siesta: Pressure (static):
siesta:                Solid            Molecule  Units
siesta:           0.00294148          0.00300234  Ry/Bohr**3
siesta:           0.27007635          0.27566438  eV/Ang**3
siesta:         432.71469044        441.66780834  kBar
(Free)E+ p_basis*V_orbitals  =        -165.938194
(Free)Eharris+ p_basis*V_orbitals  =        -165.938177

cite: Please see "LiC6_scf.bib" for an exhaustive BiBTeX file.
cite: Please clearly indicate Siesta version in published work: 4.1.5
cite: This calculation has made use of the following articles
cite: which are encouraged to be cited in a published work.
        Primary SIESTA paper
          DOI: www.doi.org/10.1088/0953-8984/14/11/302

>> End of run:   9-NOV-2022  16:00:11
Job completed
