Siesta Version  : 4.1.5
Architecture    : x86_64-unknown-linux-gnu--unknown
Compiler version: GNU Fortran (GCC) 11.3.0
Compiler flags  : mpif90 -g -O2 -fallow-argument-mismatch
PP flags        : -DMPI -DFC_HAVE_FLUSH -DFC_HAVE_ABORT
Libraries       :  -I/global/software/sl-7.x86_64/modules/intel/2020.4.304/mkl/include  /globall/software/sl-7.x86_64/modules/intel/2020.4.304/mkl/lib/intel64/libmkl_scalapack_lp64.a -Wl,--start-group /global/software/sl-7.x86_64/modules/intel/2020.4.304/mkl/lib/intel64/libmkl_intel_lp64.a /global/software/sl-7.x86_64/modules/intel/2020.4.304/mkl/lib/intel64/libmkl_sequential.a /global/software/sl-7.x86_64/modules/intel/2020.4.304/mkl/lib/intel64/libmkl_core.a /global/software/sl-7.x86_64/modules/intel/2020.4.304/mkl/lib/intel64/libmkl_blacs_openmpi_lp64.a -Wl,--end-group -lpthread -lm -ldl
PARALLEL version

* Running on 10 nodes in parallel
>> Start of run:  27-OCT-2022  19:06:25

                           ***********************       
                           *  WELCOME TO SIESTA  *       
                           ***********************       

reinit: Reading from standard input
reinit: Dumped input in INPUT_TMP.35392
************************** Dump of input data file ****************************
SystemName graphite_scf
SystemLabel graphite_scf
NumberOfAtoms   36
NumberOfSpecies 1
%block ChemicalSpeciesLabel
1  6   C-gga
%endblock ChemicalSpeciesLabel
PAO.BasisSize  SZ
PAO.EnergyShift  10 meV
%block PS.Lmax
C-gga   2
%endblock PS.Lmax
LatticeConstant 1.000000 Ang
%block LatticeVectors
	7.3920000000	0.0000000000	0.0000000000
	-3.6960000000	6.4016597848	0.0000000000
	0.0000000000	0.0000000000	6.5096700000
%endblock LatticeVectors
AtomicCoordinatesFormat Ang
%block AtomicCoordinatesAndAtomicSpecies
	0.00000000	0.00000000	1.62741750	1
	0.00000000	0.00000000	4.88225250	1
	-1.23200000	2.13388659	1.62741750	1
	-2.46400000	4.26777319	4.88225250	1
	2.46400000	4.26777319	1.62741750	1
	1.23200000	2.13388659	4.88225250	1
	2.46400000	0.00000000	1.62741750	1
	4.92800000	0.00000000	4.88225250	1
	2.46400000	0.00000000	4.88225250	1
	4.92800000	0.00000000	1.62741750	1
	2.46400000	4.26777319	4.88225250	1
	1.23200000	2.13388659	1.62741750	1
	-1.23200000	2.13388659	4.88225250	1
	-2.46400000	4.26777319	1.62741750	1
	0.00000000	4.26777319	1.62741750	1
	3.69600000	2.13388659	4.88225250	1
	3.69600000	2.13388659	1.62741750	1
	0.00000000	4.26777319	4.88225250	1
	0.00000000	1.42258964	1.62741750	1
	3.69600000	4.97907014	4.88225250	1
	2.46400123	5.69036496	1.62741750	1
	1.23199877	0.71129482	4.88225250	1
	-2.46400123	5.69036496	1.62741750	1
	6.16000123	0.71129482	4.88225250	1
	-1.23200000	3.55647624	1.62741750	1
	4.92800000	2.84518355	4.88225250	1
	1.23200123	3.55647837	1.62741750	1
	2.46399877	2.84518142	4.88225250	1
	-0.00000123	5.69036496	1.62741750	1
	3.69600123	0.71129482	4.88225250	1
	2.46400000	1.42258964	1.62741750	1
	1.23200000	4.97907014	4.88225250	1
	4.92800123	1.42259177	1.62741750	1
	-1.23200123	4.97906801	4.88225250	1
	3.69599877	3.55647837	1.62741750	1
	0.00000123	2.84518142	4.88225250	1
%endblock AtomicCoordinatesAndAtomicSpecies
Kgrid_NoTRS  T
%block kgrid_MonkhorstPack
2       0       0       0.0
0       2       0       0.0
0       0       2       0.0
%endblock kgrid_MonkhorstPack
AtomCoorFormatOut Ang
BlockSize 1
#ProcessorY 12
Diag.ParallelOverK   T
Diag.DivideAndConquer F
MeshCutoff   300 Ry
SCF.FreeE.Tolerance 1E-3 eV
SCF.EDM.Tolerance   5E-3 eV
DM.Tolerance  1E-3
DM.Require.Energy.Convergence T
DM.NumberPulay 4
#XC.Functional GGA
#CX.Authors    PBE
UseSaveData        F
SolutionMethod     diagon
MD.TypeOfRun       CG
MD.VariableCell    F
MD.NumCGsteps      00
MD.MaxCGDispl      0.200000 Bohr
#MD.MaxStressTol    1.000000 GPa
#MD.MaxForceTol     0.010000 eV/Ang
WriteMDHistory T
WriteCoorStep T
WriteForces T
WriteCoorStep    T
WriteEigenValues T
WriteDM    F
MM.UnitsDistance Ang  # what this program prints out DO NOT CHANGE
MM.UnitsEnergy    eV  # what this program prints out DO NOT CHANGE
MM.Grimme.S6     0.75 # Grimme-paper for PBE (correct for your functional)
MM.Grimme.D     20.   # Grimme-paper (correct for your functional)
%block MM.Potentials
  1   1 Grimme     18.14      2.904 # C, 10.1002/jcc.20495
%endblock MM.Potentials
#%block ProjectedDensityOfStates
# -200.0  120.0  0.4  12800  eV
#%endblock ProjectedDensityOfStates
************************** End of input data file *****************************

reinit: -----------------------------------------------------------------------
reinit: System Name: graphite_scf
reinit: -----------------------------------------------------------------------
reinit: System Label: graphite_scf
reinit: -----------------------------------------------------------------------
Reading two-body potentials
Grimme - two-body potential between 1 and 1

initatom: Reading input for the pseudopotentials and atomic orbitals ----------
Species number:   1 Atomic number:    6 Label: C-gga

Ground state valence configuration:   2s02  2p02
Reading pseudopotential information in formatted form from C-gga.psf

Valence configuration for pseudopotential generation:
2s( 2.00) rc: 1.56
2p( 2.00) rc: 1.56
3d( 0.00) rc: 1.56
4f( 0.00) rc: 1.56
relmxkb: Read Max KB Ang. Momentum=    2 for species C-gga

<basis_specs>
===============================================================================
C-gga                Z=   6    Mass=  12.010        Charge= 0.17977+309
Lmxo=1 Lmxkb= 2    BasisType=split      Semic=F
L=0  Nsemic=0  Cnfigmx=2
          i=1  nzeta=1  polorb=0  (2s)
            splnorm:   0.15000    
               vcte:    0.0000    
               rinn:    0.0000    
               qcoe:    0.0000    
               qyuk:    0.0000    
               qwid:   0.10000E-01
                rcs:    0.0000    
            lambdas:    1.0000    
L=1  Nsemic=0  Cnfigmx=2
          i=1  nzeta=1  polorb=0  (2p)
            splnorm:   0.15000    
               vcte:    0.0000    
               rinn:    0.0000    
               qcoe:    0.0000    
               qyuk:    0.0000    
               qwid:   0.10000E-01
                rcs:    0.0000    
            lambdas:    1.0000    
-------------------------------------------------------------------------------
L=0  Nkbl=1  erefs: 0.17977+309
L=1  Nkbl=1  erefs: 0.17977+309
L=2  Nkbl=1  erefs: 0.17977+309
===============================================================================
</basis_specs>

atom: Called for C-gga                 (Z =   6)

read_vps: Pseudopotential generation method:
read_vps: ATM 3.2.2 Troullier-Martins                       
Valence charge for ps generation:    4.00000

xc_check: Exchange-correlation functional:
xc_check: Ceperley-Alder
xc_check: WARNING: Pseudopotential generated with GGA PBE functional
V l=0 = -2*Zval/r beyond r=  1.5227
V l=1 = -2*Zval/r beyond r=  1.5227
V l=2 = -2*Zval/r beyond r=  1.5227
All V_l potentials equal beyond r=  1.4851
This should be close to max(r_c) in ps generation
All pots = -2*Zval/r beyond r=  1.5227

VLOCAL1: 99.0% of the norm of Vloc inside     19.682 Ry
VLOCAL1: 99.9% of the norm of Vloc inside     44.856 Ry
atom: Maximum radius for 4*pi*r*r*local-pseudopot. charge    1.79142
atom: Maximum radius for r*vlocal+2*Zval:    1.54183
GHOST: No ghost state for L =  0
GHOST: No ghost state for L =  1
GHOST: No ghost state for L =  2

KBgen: Kleinman-Bylander projectors: 
   l= 0   rc=  1.661951   el= -0.994756   Ekb=  5.296364   kbcos=  0.313951
   l= 1   rc=  1.661951   el= -0.376633   Ekb= -4.104879   kbcos= -0.344765
   l= 2   rc=  1.747182   el=  0.002326   Ekb= -1.006421   kbcos= -0.008606

KBgen: Total number of Kleinman-Bylander projectors:    9
atom: -------------------------------------------------------------------------

atom: SANKEY-TYPE ORBITALS:

SPLIT: Orbitals with angular momentum L= 0

SPLIT: Basis orbitals for state 2s

SPLIT: PAO cut-off radius determined from an
SPLIT: energy shift=  0.000735 Ry

   izeta = 1
                 lambda =    1.000000
                     rc =    5.948690
                 energy =   -0.994108
                kinetic =    0.809152
    potential(screened) =   -1.803260
       potential(ionic) =   -5.360717

SPLIT: Orbitals with angular momentum L= 1

SPLIT: Basis orbitals for state 2p

SPLIT: PAO cut-off radius determined from an
SPLIT: energy shift=  0.000735 Ry

   izeta = 1
                 lambda =    1.000000
                     rc =    7.638387
                 energy =   -0.375915
                kinetic =    2.245823
    potential(screened) =   -2.621738
       potential(ionic) =   -5.993382
atom: Total number of Sankey-type orbitals:  4

atm_pop: Valence configuration (for local Pseudopot. screening):
 2s( 2.00)                                                            
 2p( 2.00)                                                            
Vna: chval, zval:    4.00000   4.00000

Vna:  Cut-off radius for the neutral-atom potential:   7.638387

atom: _________________________________________________________________________

prinput: Basis input ----------------------------------------------------------

PAO.BasisType split     

%block ChemicalSpeciesLabel
    1    6 C-gga                   # Species index, atomic number, species label
%endblock ChemicalSpeciesLabel

%block PAO.Basis                 # Define Basis set
C-gga                 2                    # Species label, number of l-shells
 n=2   0   1                         # n, l, Nzeta 
   5.949   
   1.000   
 n=2   1   1                         # n, l, Nzeta 
   7.638   
   1.000   
%endblock PAO.Basis

prinput: ----------------------------------------------------------------------

coor:   Atomic-coordinates input format  =     Cartesian coordinates
coor:                                          (in Angstroms)

siesta: Atomic coordinates (Bohr) and species
siesta:      0.00000   0.00000   3.07537  1        1
siesta:      0.00000   0.00000   9.22612  1        2
siesta:     -2.32814   4.03246   3.07537  1        3
siesta:     -4.65629   8.06493   9.22612  1        4
siesta:      4.65629   8.06493   3.07537  1        5
siesta:      2.32814   4.03246   9.22612  1        6
siesta:      4.65629   0.00000   3.07537  1        7
siesta:      9.31257   0.00000   9.22612  1        8
siesta:      4.65629   0.00000   9.22612  1        9
siesta:      9.31257   0.00000   3.07537  1       10
siesta:      4.65629   8.06493   9.22612  1       11
siesta:      2.32814   4.03246   3.07537  1       12
siesta:     -2.32814   4.03246   9.22612  1       13
siesta:     -4.65629   8.06493   3.07537  1       14
siesta:      0.00000   8.06493   3.07537  1       15
siesta:      6.98443   4.03246   9.22612  1       16
siesta:      6.98443   4.03246   3.07537  1       17
siesta:      0.00000   8.06493   9.22612  1       18
siesta:      0.00000   2.68831   3.07537  1       19
siesta:      6.98443   9.40908   9.22612  1       20
siesta:      4.65629  10.75324   3.07537  1       21
siesta:      2.32814   1.34415   9.22612  1       22
siesta:     -4.65629  10.75324   3.07537  1       23
siesta:     11.64072   1.34415   9.22612  1       24
siesta:     -2.32814   6.72077   3.07537  1       25
siesta:      9.31257   5.37662   9.22612  1       26
siesta:      2.32815   6.72077   3.07537  1       27
siesta:      4.65628   5.37662   9.22612  1       28
siesta:     -0.00000  10.75324   3.07537  1       29
siesta:      6.98443   1.34415   9.22612  1       30
siesta:      4.65629   2.68831   3.07537  1       31
siesta:      2.32814   9.40908   9.22612  1       32
siesta:      9.31258   2.68831   3.07537  1       33
siesta:     -2.32815   9.40908   9.22612  1       34
siesta:      6.98443   6.72077   3.07537  1       35
siesta:      0.00000   5.37662   9.22612  1       36

siesta: System type = bulk      

initatomlists: Number of atoms, orbitals, and projectors:     36   144   324

siesta: ******************** Simulation parameters ****************************
siesta:
siesta: The following are some of the parameters of the simulation.
siesta: A complete list of the parameters used, including default values,
siesta: can be found in file out.fdf
siesta:
redata: Spin configuration                          = none
redata: Number of spin components                   = 1
redata: Time-Reversal Symmetry                      = T
redata: Spin spiral                                 = F
redata: Long output                                 =   F
redata: Number of Atomic Species                    =        1
redata: Charge density info will appear in .RHO file
redata: Write Mulliken Pop.                         = NO
redata: Matel table size (NRTAB)                    =     1024
redata: Mesh Cutoff                                 =   300.0000 Ry
redata: Net charge of the system                    =     0.0000 |e|
redata: Min. number of SCF Iter                     =        0
redata: Max. number of SCF Iter                     =     1000
redata: SCF convergence failure will abort job
redata: SCF mix quantity                            = Hamiltonian
redata: Mix DM or H after convergence               =   F
redata: Recompute H after scf cycle                 =   F
redata: Mix DM in first SCF step                    =   T
redata: Write Pulay info on disk                    =   F
redata: New DM Occupancy tolerance                  = 0.000000000001
redata: No kicks to SCF
redata: DM Mixing Weight for Kicks                  =     0.5000
redata: Require Harris convergence for SCF          =   F
redata: Harris energy tolerance for SCF             =     0.000100 eV
redata: Require DM convergence for SCF              =   T
redata: DM tolerance for SCF                        =     0.001000
redata: Require EDM convergence for SCF             =   F
redata: EDM tolerance for SCF                       =     0.005000 eV
redata: Require H convergence for SCF               =   T
redata: Hamiltonian tolerance for SCF               =     0.001000 eV
redata: Require (free) Energy convergence for SCF   =   T
redata: (free) Energy tolerance for SCF             =     0.001000 eV
redata: Using Saved Data (generic)                  =   F
redata: Use continuation files for DM               =   F
redata: Neglect nonoverlap interactions             =   F
redata: Method of Calculation                       = Diagonalization
redata: Electronic Temperature                      =   299.9869 K
redata: Fix the spin of the system                  =   F
redata: Dynamics option                             = Single-point calculation
mix.SCF: Pulay mixing                            = Pulay
mix.SCF:    Variant                              = stable
mix.SCF:    History steps                        = 4
mix.SCF:    Linear mixing weight                 =     0.250000
mix.SCF:    Mixing weight                        =     0.250000
mix.SCF:    SVD condition                        = 0.1000E-07
redata: ***********************************************************************

%block SCF.Mixers
  Pulay
%endblock SCF.Mixers

%block SCF.Mixer.Pulay
  # Mixing method
  method pulay
  variant stable

  # Mixing options
  weight 0.2500
  weight.linear 0.2500
  history 4
%endblock SCF.Mixer.Pulay

DM_history_depth set to one: no extrapolation allowed by default for geometry relaxation
Size of DM history Fstack: 1
Total number of electrons:   144.000000
Total ionic charge:   144.000000

* ProcessorY, Blocksize:    2   1


* Orbital distribution balance (max,min):    15    14

k-point displ. along   1 input, could be:     0.00    0.50
k-point displ. along   2 input, could be:     0.00    0.50
k-point displ. along   3 input, could be:     0.00    0.50
 Kpoints in:            8 . Kpoints trimmed:            8

siesta: k-grid: Number of k-points =     8
siesta: k-grid: Cutoff (effective) =     6.510 Ang
siesta: k-grid: Supercell and displacements
siesta: k-grid:    2   0   0      0.000
siesta: k-grid:    0   2   0      0.000
siesta: k-grid:    0   0   2      0.000

diag: Algorithm                                     = Expert
diag: Parallel over k                               =   T
diag: Use parallel 2D distribution                  =   T
diag: Parallel block-size                           = 1
diag: Parallel distribution                         =     2 x     5
diag: Used triangular part                          = Lower
diag: Absolute tolerance                            =  0.100E-15
diag: Orthogonalization factor                      =  0.100E-05
diag: Memory factor                                 =  1.0000

superc: Internal auxiliary supercell:     5 x     5 x     3  =      75
superc: Number of atoms, orbitals, and projectors:   2700  10800  24300


ts: **************************************************************
ts: Save H and S matrices                           =    F
ts: Save DM and EDM matrices                        =    F
ts: Only save the overlap matrix S                  =    F
ts: **************************************************************

************************ Begin: TS CHECKS AND WARNINGS ************************
************************ End: TS CHECKS AND WARNINGS **************************


                     ====================================
                        Single-point calculation
                     ====================================

outcoor: Atomic coordinates (Ang):                          
    0.00000000    0.00000000    1.62741750   1       1  C-gga
    0.00000000    0.00000000    4.88225250   1       2  C-gga
   -1.23200000    2.13388659    1.62741750   1       3  C-gga
   -2.46400000    4.26777319    4.88225250   1       4  C-gga
    2.46400000    4.26777319    1.62741750   1       5  C-gga
    1.23200000    2.13388659    4.88225250   1       6  C-gga
    2.46400000    0.00000000    1.62741750   1       7  C-gga
    4.92800000    0.00000000    4.88225250   1       8  C-gga
    2.46400000    0.00000000    4.88225250   1       9  C-gga
    4.92800000    0.00000000    1.62741750   1      10  C-gga
    2.46400000    4.26777319    4.88225250   1      11  C-gga
    1.23200000    2.13388659    1.62741750   1      12  C-gga
   -1.23200000    2.13388659    4.88225250   1      13  C-gga
   -2.46400000    4.26777319    1.62741750   1      14  C-gga
    0.00000000    4.26777319    1.62741750   1      15  C-gga
    3.69600000    2.13388659    4.88225250   1      16  C-gga
    3.69600000    2.13388659    1.62741750   1      17  C-gga
    0.00000000    4.26777319    4.88225250   1      18  C-gga
    0.00000000    1.42258964    1.62741750   1      19  C-gga
    3.69600000    4.97907014    4.88225250   1      20  C-gga
    2.46400123    5.69036496    1.62741750   1      21  C-gga
    1.23199877    0.71129482    4.88225250   1      22  C-gga
   -2.46400123    5.69036496    1.62741750   1      23  C-gga
    6.16000123    0.71129482    4.88225250   1      24  C-gga
   -1.23200000    3.55647624    1.62741750   1      25  C-gga
    4.92800000    2.84518355    4.88225250   1      26  C-gga
    1.23200123    3.55647837    1.62741750   1      27  C-gga
    2.46399877    2.84518142    4.88225250   1      28  C-gga
   -0.00000123    5.69036496    1.62741750   1      29  C-gga
    3.69600123    0.71129482    4.88225250   1      30  C-gga
    2.46400000    1.42258964    1.62741750   1      31  C-gga
    1.23200000    4.97907014    4.88225250   1      32  C-gga
    4.92800123    1.42259177    1.62741750   1      33  C-gga
   -1.23200123    4.97906801    4.88225250   1      34  C-gga
    3.69599877    3.55647837    1.62741750   1      35  C-gga
    0.00000123    2.84518142    4.88225250   1      36  C-gga

superc: Internal auxiliary supercell:     5 x     5 x     3  =      75
superc: Number of atoms, orbitals, and projectors:   2700  10800  24300

outcell: Unit cell vectors (Ang):
        7.392000    0.000000    0.000000
       -3.696000    6.401660    0.000000
        0.000000    0.000000    6.509670

outcell: Cell vector modules (Ang)   :    7.392000    7.392000    6.509670
outcell: Cell angles (23,13,12) (deg):     90.0000     90.0000    120.0000
outcell: Cell volume (Ang**3)        :    308.0445
<dSpData1D:S at geom step 0
  <sparsity:sparsity for geom step 0
    nrows_g=144 nrows=15 sparsity=.7568 nnzs=15694, refcount: 7>
  <dData1D:(new from dSpData1D) n=15694, refcount: 1>
refcount: 1>
new_DM -- step:     1
Initializing Density Matrix...
DM filled with atomic data:
<dSpData2D:DM initialized from atoms
  <sparsity:sparsity for geom step 0
    nrows_g=144 nrows=15 sparsity=.7568 nnzs=15694, refcount: 8>
  <dData2D:DM n=15694 m=1, refcount: 1>
refcount: 1>
No. of atoms with KB's overlaping orbs in proc 0. Max # of overlaps:     216     198
New grid distribution:   1
           1       1:   36    1:   18    1:    8
           2       1:   36    1:   18    9:   15
           3       1:   36    1:   18   16:   22
           4       1:   36    1:   18   23:   29
           5       1:   36    1:   18   30:   36
           6       1:   36   19:   36    1:    8
           7       1:   36   19:   36    9:   15
           8       1:   36   19:   36   16:   22
           9       1:   36   19:   36   23:   29
          10       1:   36   19:   36   30:   36

InitMesh: MESH =    72 x    72 x    72 =      373248
InitMesh: (bp) =    36 x    36 x    36 =       46656
InitMesh: Mesh cutoff (required, used) =   300.000   338.103 Ry
ExtMesh (bp) on 0 =   128 x   110 x   100 =     1408000
New grid distribution:   2
           1       1:   18    1:   15    1:   18
           2      13:   36   16:   36    1:    9
           3      13:   36   16:   36   10:   18
           4       1:   18    1:   15   19:   36
           5      19:   36    1:   15   19:   36
           6      13:   36   16:   36   28:   36
           7       1:   12   16:   36    1:   18
           8      13:   36   16:   36   19:   27
           9      19:   36    1:   15    1:   18
          10       1:   12   16:   36   19:   36
New grid distribution:   3
           1       1:   18    1:   15    1:   18
           2      13:   36   16:   36    1:    9
           3      13:   36   16:   36   10:   18
           4       1:   18    1:   15   19:   36
           5      19:   36    1:   15   19:   36
           6      13:   36   16:   36   28:   36
           7       1:   12   16:   36    1:   18
           8      13:   36   16:   36   19:   27
           9      19:   36    1:   15    1:   18
          10       1:   12   16:   36   19:   36
Setting up quadratic distribution...
ExtMesh (bp) on 0 =   110 x   107 x   110 =     1294700
PhiOnMesh: Number of (b)points on node 0 =                 4860
PhiOnMesh: nlist on node 0 =               575780

stepf: Fermi-Dirac step function

siesta: Program's energy decomposition (eV):
siesta: Ebs     =     -2557.443493
siesta: Eions   =      9434.507561
siesta: Ena     =      2267.755051
siesta: Ekin    =      3631.947779
siesta: Enl     =      -341.741479
siesta: Eso     =         0.000000
siesta: Edftu   =         0.000000
siesta: DEna    =        -4.178152
siesta: DUscf   =         2.535723
siesta: DUext   =         0.000000
siesta: Exc     =     -1634.802867
siesta: eta*DQ  =         0.000000
siesta: Emadel  =         0.000000
siesta: Emeta   =         0.000000
siesta: Emolmec =        -4.708988
siesta: Ekinion =         0.000000
siesta: Eharris =     -5364.650132
siesta: Etot    =     -5517.700494
siesta: FreeEng =     -5517.752278

        iscf     Eharris(eV)        E_KS(eV)     FreeEng(eV)     dDmax    Ef(eV) dHmax(eV)
   scf:    1    -5364.650132    -5517.700494    -5517.752278  1.338801 -8.358907  0.155426
timer: Routine,Calls,Time,% = IterSCF        1       1.965  52.29
   scf:    2    -5517.706917    -5517.704265    -5517.755987  0.005039 -8.329565  0.109356
   scf:    3    -5517.709562    -5517.707523    -5517.759175  0.004623 -8.254320  0.014566
   scf:    4    -5517.708150    -5517.707986    -5517.759633  0.003268 -8.248720  0.000487
   scf:    5    -5517.707986    -5517.707986    -5517.759633  0.000070 -8.249080  0.000904

SCF Convergence by FreeE+DM+H criterion
|FreeE_i-FreeE_(i-1)| (eV) <     0.00100000
max |DM_out - DM_in|         :     0.0000704850
max |H_out - H_in|      (eV) :     0.0009037255
SCF cycle converged after 5 iterations

Using DM_out to compute the final energy and forces
No. of atoms with KB's overlaping orbs in proc 0. Max # of overlaps:     216     198

MM-Stress (kbar):       14.82       14.82       54.22        0.00       -0.00        0.00

siesta: E_KS(eV) =            -5517.7080

siesta: E_KS - E_eggbox =     -5517.7080

siesta: Atomic forces (eV/Ang):
     1    0.000000   -0.000000   -0.000000
     2   -0.000000   -0.000000   -0.000000
     3    0.000074   -0.000055   -0.000000
     4   -0.000074    0.000056   -0.000000
     5    0.000011    0.000092   -0.000000
     6   -0.000011   -0.000091   -0.000000
     7   -0.000085   -0.000036   -0.000000
     8    0.000085    0.000036   -0.000000
     9   -0.000015   -0.000013   -0.000000
    10    0.000015    0.000013   -0.000000
    11   -0.000004    0.000020   -0.000000
    12    0.000004   -0.000019   -0.000000
    13    0.000019   -0.000006   -0.000000
    14   -0.000019    0.000007   -0.000000
    15   -0.000000   -0.000000   -0.000000
    16    0.000000    0.000000   -0.000000
    17   -0.000000    0.000000   -0.000000
    18    0.000000    0.000000   -0.000000
    19    0.000005    0.000129    0.000000
    20   -0.000005   -0.000129    0.000000
    21   -0.000114   -0.000059    0.000000
    22    0.000114    0.000059    0.000000
    23    0.000109   -0.000069    0.000000
    24   -0.000109    0.000069    0.000000
    25    0.000009    0.000112    0.000000
    26   -0.000009   -0.000113    0.000000
    27   -0.000102   -0.000049    0.000000
    28    0.000102    0.000048    0.000000
    29    0.000093   -0.000064    0.000000
    30   -0.000093    0.000064    0.000000
    31    0.000010    0.000113    0.000000
    32   -0.000010   -0.000112    0.000000
    33   -0.000102   -0.000048    0.000000
    34    0.000102    0.000048    0.000000
    35    0.000093   -0.000065    0.000000
    36   -0.000093    0.000064    0.000000
----------------------------------------
   Tot   -0.000000    0.000000    0.000000
----------------------------------------
   Max    0.000129
   Res    0.000053    sqrt( Sum f_i^2 / 3N )
----------------------------------------
   Max    0.000129    constrained

Stress tensor Voigt[x,y,z,yz,xz,xy] (kbar):     -390.71     -390.71      274.71        0.00       -0.00        0.00
(Free)E + p*V (eV/cell)    -5485.2855
Target enthalpy (eV/cell)    -5517.7596

siesta: Eigenvalues (eV):
  ik is       eps
   1  1  -28.0697  -27.9558  -25.3379  -25.3379  -25.3379  -25.3379  -25.3379  -25.3379  -25.2269  -25.2268
         -25.2268  -25.2268  -25.2268  -25.2268  -21.4757  -21.4757  -21.4399  -21.4399  -21.4398  -21.4398
  -21.4130  -21.4130  -18.9495  -18.9495  -18.9495  -18.9495  -18.5832  -18.5832  -18.5832  -18.5832
  -18.5832  -18.5832  -18.5216  -18.5216  -18.5216  -18.5216  -18.5216  -18.5216  -15.4105  -15.1786
  -15.1786  -15.1786  -15.1786  -15.1786  -15.1786  -15.0998  -15.0998  -15.0998  -15.0998  -15.0998
  -15.0998  -14.3145  -13.1184  -13.1184  -13.1184  -13.1184  -13.1184  -13.1184  -12.5649  -12.5649
  -12.5444  -12.5444  -11.8256  -11.8256  -11.8256  -11.8256  -11.8256  -11.8256   -8.8801   -8.8801
   -8.2633   -8.2633   -8.2632   -8.2632   -7.5512   -7.5512   -3.2576   -3.2576   -3.2576   -3.2576
   -3.2576   -3.2576   -2.6479   -2.6479   -2.6479   -2.6479   -2.6479   -2.6479    0.6040    0.6040
    0.6402    0.6402    0.8654    0.8654    0.8654    0.8654    0.8654    0.8654    1.1370    1.1370
    1.1370    1.1370    1.1370    1.1370    2.4606    2.6681    4.1666    4.2390    7.2005    7.2005
    7.2643    7.2643    7.2644    7.2644    7.3401    7.3401    8.5624    8.5624    8.5624    8.5625
    8.5625    8.5625    8.5904    8.5904    8.5904    8.5905    8.5905    8.5905   10.2174   10.2174
   10.2175   10.2175   10.2175   10.2175   10.2483   10.2483   10.2483   10.2483   10.2483   10.2483
   15.0954   15.0954   15.0955   15.0955
   2  1  -27.3118  -27.3118  -27.2663  -27.2663  -25.9567  -25.9567  -25.8848  -25.8848  -23.6387  -23.6387
         -23.6387  -23.6387  -23.4776  -23.4776  -23.4776  -23.4776  -23.0479  -23.0147  -21.5077  -21.3323
  -20.1879  -20.1879  -20.1879  -20.1879  -20.1026  -20.1026  -20.1026  -20.1026  -17.1133  -17.1133
  -17.1133  -17.1133  -17.0569  -17.0569  -17.0569  -17.0569  -17.0298  -17.0298  -16.9944  -16.9944
  -15.7540  -15.6771  -15.6410  -15.6410  -15.5455  -15.5455  -14.8436  -14.8436  -14.7370  -14.7370
  -14.6585  -14.6585  -13.6934  -13.6934  -13.6874  -13.6874  -13.6662  -13.6662  -13.6006  -13.6006
  -12.4198  -12.4198  -11.3614  -11.3614  -11.3614  -11.3614  -10.9309  -10.3039  -10.1819  -10.1819
  -10.1819  -10.1819   -6.1629   -5.7887   -5.7887   -5.7887   -5.7887   -5.6714   -5.1767   -5.1766
   -5.1766   -5.1766   -1.9554   -1.9554   -1.5820   -1.5820    0.6070    0.7988    0.7988    0.9094
    1.0572    1.0572    1.1211    1.1211    1.2043    1.2043    3.3165    3.3165    3.3165    3.3165
    3.3858    3.3858    3.4145    3.4145    3.5366    3.5367    3.5367    3.5367    3.7129    3.7129
    3.7928    3.7928    3.9640    3.9640    3.9907    3.9907    5.7360    5.7360    5.8251    5.8251
    8.6234    8.6234    8.6234    8.6234    8.7233    8.7233    8.7233    8.7233    9.8909    9.8909
    9.9306    9.9306   11.1079   11.1260   13.0180   13.2017   13.6822   13.6822   13.6822   13.6822
   13.7080   13.7080   13.7080   13.7080
   3  1  -27.3118  -27.3118  -27.2663  -27.2663  -25.9567  -25.9567  -25.8848  -25.8848  -23.6387  -23.6387
         -23.6387  -23.6387  -23.4776  -23.4776  -23.4776  -23.4776  -23.0479  -23.0147  -21.5077  -21.3323
  -20.1879  -20.1879  -20.1879  -20.1879  -20.1026  -20.1026  -20.1026  -20.1026  -17.1133  -17.1133
  -17.1133  -17.1133  -17.0569  -17.0569  -17.0569  -17.0569  -17.0298  -17.0298  -16.9944  -16.9944
  -15.7540  -15.6771  -15.6410  -15.6410  -15.5455  -15.5455  -14.8436  -14.8436  -14.7370  -14.7370
  -14.6585  -14.6585  -13.6934  -13.6934  -13.6874  -13.6874  -13.6662  -13.6662  -13.6006  -13.6006
  -12.4198  -12.4198  -11.3614  -11.3614  -11.3614  -11.3614  -10.9309  -10.3039  -10.1819  -10.1819
  -10.1819  -10.1819   -6.1629   -5.7887   -5.7887   -5.7887   -5.7887   -5.6714   -5.1767   -5.1766
   -5.1766   -5.1766   -1.9554   -1.9554   -1.5820   -1.5820    0.6070    0.7988    0.7988    0.9094
    1.0572    1.0572    1.1211    1.1211    1.2043    1.2043    3.3165    3.3165    3.3165    3.3165
    3.3858    3.3858    3.4145    3.4145    3.5366    3.5367    3.5367    3.5367    3.7129    3.7129
    3.7928    3.7928    3.9640    3.9640    3.9907    3.9907    5.7360    5.7360    5.8251    5.8251
    8.6234    8.6234    8.6234    8.6234    8.7233    8.7233    8.7233    8.7233    9.8909    9.8909
    9.9306    9.9306   11.1079   11.1260   13.0180   13.2017   13.6822   13.6822   13.6822   13.6822
   13.7080   13.7080   13.7080   13.7080
   4  1  -27.3118  -27.3118  -27.2663  -27.2663  -25.9567  -25.9567  -25.8848  -25.8848  -23.6387  -23.6387
         -23.6387  -23.6387  -23.4776  -23.4776  -23.4776  -23.4776  -23.0479  -23.0147  -21.5077  -21.3323
  -20.1879  -20.1879  -20.1879  -20.1879  -20.1026  -20.1026  -20.1026  -20.1026  -17.1133  -17.1133
  -17.1133  -17.1133  -17.0569  -17.0569  -17.0569  -17.0569  -17.0298  -17.0298  -16.9944  -16.9944
  -15.7540  -15.6771  -15.6410  -15.6410  -15.5455  -15.5455  -14.8436  -14.8436  -14.7370  -14.7370
  -14.6585  -14.6585  -13.6934  -13.6934  -13.6874  -13.6874  -13.6662  -13.6662  -13.6006  -13.6006
  -12.4198  -12.4198  -11.3614  -11.3614  -11.3614  -11.3614  -10.9309  -10.3039  -10.1819  -10.1819
  -10.1819  -10.1819   -6.1629   -5.7887   -5.7887   -5.7887   -5.7887   -5.6714   -5.1767   -5.1766
   -5.1766   -5.1766   -1.9554   -1.9554   -1.5820   -1.5820    0.6070    0.7988    0.7988    0.9094
    1.0572    1.0572    1.1211    1.1211    1.2043    1.2043    3.3165    3.3165    3.3165    3.3165
    3.3858    3.3858    3.4145    3.4145    3.5366    3.5367    3.5367    3.5367    3.7129    3.7129
    3.7928    3.7928    3.9640    3.9640    3.9907    3.9907    5.7360    5.7360    5.8251    5.8251
    8.6234    8.6234    8.6234    8.6234    8.7233    8.7233    8.7233    8.7233    9.8909    9.8909
    9.9306    9.9306   11.1079   11.1260   13.0180   13.2017   13.6822   13.6822   13.6822   13.6822
   13.7080   13.7080   13.7080   13.7080
   5  1  -28.0431  -28.0431  -25.3009  -25.3009  -25.3009  -25.3009  -25.3009  -25.3009  -25.3008  -25.3008
         -25.3008  -25.3008  -25.3008  -25.3008  -21.4465  -21.4465  -21.4464  -21.4464  -21.4306  -21.4306
  -21.4305  -21.4305  -18.9552  -18.9552  -18.9551  -18.9551  -18.5581  -18.5581  -18.5581  -18.5581
  -18.5581  -18.5581  -18.5581  -18.5581  -18.5580  -18.5580  -18.5580  -18.5580  -15.1396  -15.1396
  -15.1396  -15.1396  -15.1396  -15.1396  -15.1395  -15.1395  -15.1395  -15.1395  -15.1395  -15.1395
  -14.8561  -14.8560  -12.5541  -12.5541  -12.5541  -12.5541  -12.5405  -12.5405  -12.5405  -12.5405
  -12.5405  -12.5405  -12.5404  -12.5404  -12.5404  -12.5404  -12.5404  -12.5404   -8.2507   -8.2507
   -8.2506   -8.2506   -8.2332   -8.2332   -8.2332   -8.2332   -2.9686   -2.9686   -2.9686   -2.9685
   -2.9685   -2.9685   -2.9685   -2.9685   -2.9685   -2.9685   -2.9685   -2.9685    0.6220    0.6220
    0.6221    0.6221    1.0278    1.0278    1.0278    1.0278    1.0278    1.0278    1.0278    1.0278
    1.0278    1.0279    1.0279    1.0279    2.5611    2.5611    4.2075    4.2076    7.2662    7.2662
    7.2663    7.2663    7.2689    7.2690    7.2690    7.2691    8.5763    8.5763    8.5763    8.5763
    8.5763    8.5763    8.5764    8.5764    8.5764    8.5764    8.5764    8.5764   10.2593   10.2593
   10.2593   10.2593   10.2593   10.2593   10.2594   10.2594   10.2594   10.2594   10.2594   10.2594
   15.0958   15.0958   15.0959   15.0959
   6  1  -27.3172  -27.3172  -27.3172  -27.3171  -25.9433  -25.9433  -25.9433  -25.9433  -23.5640  -23.5640
         -23.5640  -23.5640  -23.5639  -23.5639  -23.5639  -23.5639  -23.0268  -23.0268  -21.4328  -21.4328
  -20.1472  -20.1472  -20.1472  -20.1472  -20.1471  -20.1471  -20.1471  -20.1471  -17.0873  -17.0873
  -17.0873  -17.0873  -17.0872  -17.0872  -17.0872  -17.0872  -17.0119  -17.0118  -17.0118  -17.0118
  -15.7160  -15.7159  -15.6024  -15.6024  -15.6024  -15.6024  -14.7084  -14.7084  -14.7083  -14.7083
  -14.2897  -14.2897  -14.2897  -14.2896  -13.6334  -13.6333  -13.6333  -13.6333  -13.1228  -13.1228
  -13.1228  -13.1228  -10.8022  -10.8022  -10.8022  -10.8022  -10.8021  -10.8021  -10.8021  -10.8021
  -10.5676  -10.5675   -6.0517   -6.0516   -5.5087   -5.5087   -5.5087   -5.5087   -5.5086   -5.5086
   -5.5086   -5.5086   -1.7722   -1.7722   -1.7721   -1.7721    0.7725    0.7726    0.8992    0.8992
    0.8993    0.8993    1.2284    1.2284    1.2285    1.2285    3.4002    3.4003    3.4003    3.4003
    3.4373    3.4373    3.4373    3.4373    3.4374    3.4374    3.4374    3.4374    3.7711    3.7711
    3.7711    3.7711    4.0187    4.0187    4.0188    4.0188    5.7905    5.7905    5.7906    5.7906
    8.6794    8.6794    8.6794    8.6795    8.6795    8.6795    8.6795    8.6795    9.9108    9.9108
    9.9109    9.9109   11.1166   11.1167   13.1072   13.1073   13.6960   13.6960   13.6960   13.6960
   13.6961   13.6961   13.6961   13.6961
   7  1  -27.3172  -27.3172  -27.3172  -27.3171  -25.9433  -25.9433  -25.9433  -25.9433  -23.5640  -23.5640
         -23.5640  -23.5640  -23.5639  -23.5639  -23.5639  -23.5639  -23.0268  -23.0268  -21.4328  -21.4328
  -20.1472  -20.1472  -20.1472  -20.1472  -20.1471  -20.1471  -20.1471  -20.1471  -17.0873  -17.0873
  -17.0873  -17.0873  -17.0872  -17.0872  -17.0872  -17.0872  -17.0119  -17.0118  -17.0118  -17.0118
  -15.7160  -15.7159  -15.6024  -15.6024  -15.6024  -15.6024  -14.7084  -14.7084  -14.7083  -14.7083
  -14.2897  -14.2897  -14.2897  -14.2896  -13.6334  -13.6333  -13.6333  -13.6333  -13.1228  -13.1228
  -13.1228  -13.1228  -10.8022  -10.8022  -10.8022  -10.8022  -10.8021  -10.8021  -10.8021  -10.8021
  -10.5676  -10.5675   -6.0517   -6.0516   -5.5087   -5.5087   -5.5087   -5.5087   -5.5086   -5.5086
   -5.5086   -5.5086   -1.7722   -1.7722   -1.7721   -1.7721    0.7725    0.7726    0.8992    0.8992
    0.8993    0.8993    1.2284    1.2284    1.2285    1.2285    3.4002    3.4003    3.4003    3.4003
    3.4373    3.4373    3.4373    3.4373    3.4374    3.4374    3.4374    3.4374    3.7711    3.7711
    3.7711    3.7711    4.0187    4.0187    4.0188    4.0188    5.7905    5.7905    5.7906    5.7906
    8.6794    8.6794    8.6794    8.6795    8.6795    8.6795    8.6795    8.6795    9.9108    9.9108
    9.9109    9.9109   11.1166   11.1167   13.1072   13.1073   13.6960   13.6960   13.6960   13.6960
   13.6961   13.6961   13.6961   13.6961
   8  1  -27.3172  -27.3172  -27.3172  -27.3171  -25.9433  -25.9433  -25.9433  -25.9433  -23.5640  -23.5640
         -23.5640  -23.5640  -23.5639  -23.5639  -23.5639  -23.5639  -23.0268  -23.0268  -21.4328  -21.4328
  -20.1472  -20.1472  -20.1472  -20.1472  -20.1471  -20.1471  -20.1471  -20.1471  -17.0873  -17.0873
  -17.0873  -17.0873  -17.0872  -17.0872  -17.0872  -17.0872  -17.0119  -17.0118  -17.0118  -17.0118
  -15.7160  -15.7159  -15.6024  -15.6024  -15.6024  -15.6024  -14.7084  -14.7084  -14.7083  -14.7083
  -14.2897  -14.2897  -14.2897  -14.2896  -13.6334  -13.6333  -13.6333  -13.6333  -13.1228  -13.1228
  -13.1228  -13.1228  -10.8022  -10.8022  -10.8022  -10.8022  -10.8021  -10.8021  -10.8021  -10.8021
  -10.5676  -10.5675   -6.0517   -6.0516   -5.5087   -5.5087   -5.5087   -5.5087   -5.5086   -5.5086
   -5.5086   -5.5086   -1.7722   -1.7722   -1.7721   -1.7721    0.7725    0.7726    0.8992    0.8992
    0.8993    0.8993    1.2284    1.2284    1.2285    1.2285    3.4002    3.4003    3.4003    3.4003
    3.4373    3.4373    3.4373    3.4373    3.4374    3.4374    3.4374    3.4374    3.7711    3.7711
    3.7711    3.7711    4.0187    4.0187    4.0188    4.0188    5.7905    5.7905    5.7906    5.7906
    8.6794    8.6794    8.6794    8.6795    8.6795    8.6795    8.6795    8.6795    9.9108    9.9108
    9.9109    9.9109   11.1166   11.1167   13.1072   13.1073   13.6960   13.6960   13.6960   13.6960
   13.6961   13.6961   13.6961   13.6961
siesta: Fermi energy =      -8.249080 eV

siesta: Program's energy decomposition (eV):
siesta: Ebs     =     -2557.979699
siesta: Eions   =      9434.507561
siesta: Ena     =      2267.755051
siesta: Ekin    =      3631.233602
siesta: Enl     =      -342.003507
siesta: Eso     =         0.000000
siesta: Edftu   =         0.000000
siesta: DEna    =        -3.349801
siesta: DUscf   =         2.507213
siesta: DUext   =         0.000000
siesta: Exc     =     -1634.633995
siesta: eta*DQ  =         0.000000
siesta: Emadel  =         0.000000
siesta: Emeta   =         0.000000
siesta: Emolmec =        -4.708988
siesta: Ekinion =         0.000000
siesta: Eharris =     -5517.707986
siesta: Etot    =     -5517.707986
siesta: FreeEng =     -5517.759633

siesta: Final energy (eV):
siesta:  Band Struct. =   -2557.979699
siesta:       Kinetic =    3631.233602
siesta:       Hartree =    1219.023538
siesta:       Edftu   =       0.000000
siesta:       Eso     =       0.000000
siesta:    Ext. field =       0.000000
siesta:   Exch.-corr. =   -1634.633995
siesta:  Ion-electron =   -6490.793914
siesta:       Ion-ion =   -2237.828228
siesta:       Ekinion =       0.000000
siesta:         Total =   -5517.707986
siesta:         Fermi =      -8.249080

siesta: Stress tensor (static) (eV/Ang**3):
siesta:    -0.243859    0.000000    0.000000
siesta:     0.000000   -0.243859    0.000000
siesta:    -0.000000    0.000000    0.171458

siesta: Cell volume =        308.044544 Ang**3

siesta: Pressure (static):
siesta:                Solid            Molecule  Units
siesta:           0.00114816          0.00114819  Ry/Bohr**3
siesta:           0.10542012          0.10542287  eV/Ang**3
siesta:         168.90347189        168.90788932  kBar
(Free)E+ p_basis*V_orbitals  =       -5499.456587
(Free)Eharris+ p_basis*V_orbitals  =       -5499.456586

cite: Please see "graphite_scf.bib" for an exhaustive BiBTeX file.
cite: Please clearly indicate Siesta version in published work: 4.1.5
cite: This calculation has made use of the following articles
cite: which are encouraged to be cited in a published work.
        Primary SIESTA paper
          DOI: www.doi.org/10.1088/0953-8984/14/11/302

>> End of run:  27-OCT-2022  19:06:37
Job completed
