Siesta Version  : 4.1.5
Architecture    : x86_64-unknown-linux-gnu--unknown
Compiler version: GNU Fortran (GCC) 11.3.0
Compiler flags  : mpif90 -g -O2 -fallow-argument-mismatch
PP flags        : -DMPI -DFC_HAVE_FLUSH -DFC_HAVE_ABORT
Libraries       :  -I/global/software/sl-7.x86_64/modules/intel/2020.4.304/mkl/include  /globall/software/sl-7.x86_64/modules/intel/2020.4.304/mkl/lib/intel64/libmkl_scalapack_lp64.a -Wl,--start-group /global/software/sl-7.x86_64/modules/intel/2020.4.304/mkl/lib/intel64/libmkl_intel_lp64.a /global/software/sl-7.x86_64/modules/intel/2020.4.304/mkl/lib/intel64/libmkl_sequential.a /global/software/sl-7.x86_64/modules/intel/2020.4.304/mkl/lib/intel64/libmkl_core.a /global/software/sl-7.x86_64/modules/intel/2020.4.304/mkl/lib/intel64/libmkl_blacs_openmpi_lp64.a -Wl,--end-group -lpthread -lm -ldl
PARALLEL version

* Running on 10 nodes in parallel
>> Start of run:  27-OCT-2022  19:07:34

                           ***********************       
                           *  WELCOME TO SIESTA  *       
                           ***********************       

reinit: Reading from standard input
reinit: Dumped input in INPUT_TMP.04702
************************** Dump of input data file ****************************
SystemName graphite_scf
SystemLabel graphite_scf
NumberOfAtoms   36
NumberOfSpecies 1
%block ChemicalSpeciesLabel
1  6   C-gga
%endblock ChemicalSpeciesLabel
PAO.BasisSize  SZ
PAO.EnergyShift  10 meV
%block PS.Lmax
C-gga   2
%endblock PS.Lmax
LatticeConstant 1.000000 Ang
%block LatticeVectors
	7.3920000000	0.0000000000	0.0000000000
	-3.6960000000	6.4016597848	0.0000000000
	0.0000000000	0.0000000000	6.1741200000
%endblock LatticeVectors
AtomicCoordinatesFormat Ang
%block AtomicCoordinatesAndAtomicSpecies
	0.00000000	0.00000000	1.54353000	1
	0.00000000	0.00000000	4.63059000	1
	-1.23200000	2.13388659	1.54353000	1
	-2.46400000	4.26777319	4.63059000	1
	2.46400000	4.26777319	1.54353000	1
	1.23200000	2.13388659	4.63059000	1
	2.46400000	0.00000000	1.54353000	1
	4.92800000	0.00000000	4.63059000	1
	2.46400000	0.00000000	4.63059000	1
	4.92800000	0.00000000	1.54353000	1
	2.46400000	4.26777319	4.63059000	1
	1.23200000	2.13388659	1.54353000	1
	-1.23200000	2.13388659	4.63059000	1
	-2.46400000	4.26777319	1.54353000	1
	0.00000000	4.26777319	1.54353000	1
	3.69600000	2.13388659	4.63059000	1
	3.69600000	2.13388659	1.54353000	1
	0.00000000	4.26777319	4.63059000	1
	0.00000000	1.42258964	1.54353000	1
	3.69600000	4.97907014	4.63059000	1
	2.46400123	5.69036496	1.54353000	1
	1.23199877	0.71129482	4.63059000	1
	-2.46400123	5.69036496	1.54353000	1
	6.16000123	0.71129482	4.63059000	1
	-1.23200000	3.55647624	1.54353000	1
	4.92800000	2.84518355	4.63059000	1
	1.23200123	3.55647837	1.54353000	1
	2.46399877	2.84518142	4.63059000	1
	-0.00000123	5.69036496	1.54353000	1
	3.69600123	0.71129482	4.63059000	1
	2.46400000	1.42258964	1.54353000	1
	1.23200000	4.97907014	4.63059000	1
	4.92800123	1.42259177	1.54353000	1
	-1.23200123	4.97906801	4.63059000	1
	3.69599877	3.55647837	1.54353000	1
	0.00000123	2.84518142	4.63059000	1
%endblock AtomicCoordinatesAndAtomicSpecies
Kgrid_NoTRS  T
%block kgrid_MonkhorstPack
2       0       0       0.0
0       2       0       0.0
0       0       2       0.0
%endblock kgrid_MonkhorstPack
AtomCoorFormatOut Ang
BlockSize 1
#ProcessorY 12
Diag.ParallelOverK   T
Diag.DivideAndConquer F
MeshCutoff   300 Ry
SCF.FreeE.Tolerance 1E-3 eV
SCF.EDM.Tolerance   5E-3 eV
DM.Tolerance  1E-3
DM.Require.Energy.Convergence T
DM.NumberPulay 4
#XC.Functional GGA
#CX.Authors    PBE
UseSaveData        F
SolutionMethod     diagon
MD.TypeOfRun       CG
MD.VariableCell    F
MD.NumCGsteps      00
MD.MaxCGDispl      0.200000 Bohr
#MD.MaxStressTol    1.000000 GPa
#MD.MaxForceTol     0.010000 eV/Ang
WriteMDHistory T
WriteCoorStep T
WriteForces T
WriteCoorStep    T
WriteEigenValues T
WriteDM    F
MM.UnitsDistance Ang  # what this program prints out DO NOT CHANGE
MM.UnitsEnergy    eV  # what this program prints out DO NOT CHANGE
MM.Grimme.S6     0.75 # Grimme-paper for PBE (correct for your functional)
MM.Grimme.D     20.   # Grimme-paper (correct for your functional)
%block MM.Potentials
  1   1 Grimme     18.14      2.904 # C, 10.1002/jcc.20495
%endblock MM.Potentials
#%block ProjectedDensityOfStates
# -200.0  120.0  0.4  12800  eV
#%endblock ProjectedDensityOfStates
************************** End of input data file *****************************

reinit: -----------------------------------------------------------------------
reinit: System Name: graphite_scf
reinit: -----------------------------------------------------------------------
reinit: System Label: graphite_scf
reinit: -----------------------------------------------------------------------
Reading two-body potentials
Grimme - two-body potential between 1 and 1

initatom: Reading input for the pseudopotentials and atomic orbitals ----------
Species number:   1 Atomic number:    6 Label: C-gga

Ground state valence configuration:   2s02  2p02
Reading pseudopotential information in formatted form from C-gga.psf

Valence configuration for pseudopotential generation:
2s( 2.00) rc: 1.56
2p( 2.00) rc: 1.56
3d( 0.00) rc: 1.56
4f( 0.00) rc: 1.56
relmxkb: Read Max KB Ang. Momentum=    2 for species C-gga

<basis_specs>
===============================================================================
C-gga                Z=   6    Mass=  12.010        Charge= 0.17977+309
Lmxo=1 Lmxkb= 2    BasisType=split      Semic=F
L=0  Nsemic=0  Cnfigmx=2
          i=1  nzeta=1  polorb=0  (2s)
            splnorm:   0.15000    
               vcte:    0.0000    
               rinn:    0.0000    
               qcoe:    0.0000    
               qyuk:    0.0000    
               qwid:   0.10000E-01
                rcs:    0.0000    
            lambdas:    1.0000    
L=1  Nsemic=0  Cnfigmx=2
          i=1  nzeta=1  polorb=0  (2p)
            splnorm:   0.15000    
               vcte:    0.0000    
               rinn:    0.0000    
               qcoe:    0.0000    
               qyuk:    0.0000    
               qwid:   0.10000E-01
                rcs:    0.0000    
            lambdas:    1.0000    
-------------------------------------------------------------------------------
L=0  Nkbl=1  erefs: 0.17977+309
L=1  Nkbl=1  erefs: 0.17977+309
L=2  Nkbl=1  erefs: 0.17977+309
===============================================================================
</basis_specs>

atom: Called for C-gga                 (Z =   6)

read_vps: Pseudopotential generation method:
read_vps: ATM 3.2.2 Troullier-Martins                       
Valence charge for ps generation:    4.00000

xc_check: Exchange-correlation functional:
xc_check: Ceperley-Alder
xc_check: WARNING: Pseudopotential generated with GGA PBE functional
V l=0 = -2*Zval/r beyond r=  1.5227
V l=1 = -2*Zval/r beyond r=  1.5227
V l=2 = -2*Zval/r beyond r=  1.5227
All V_l potentials equal beyond r=  1.4851
This should be close to max(r_c) in ps generation
All pots = -2*Zval/r beyond r=  1.5227

VLOCAL1: 99.0% of the norm of Vloc inside     19.682 Ry
VLOCAL1: 99.9% of the norm of Vloc inside     44.856 Ry
atom: Maximum radius for 4*pi*r*r*local-pseudopot. charge    1.79142
atom: Maximum radius for r*vlocal+2*Zval:    1.54183
GHOST: No ghost state for L =  0
GHOST: No ghost state for L =  1
GHOST: No ghost state for L =  2

KBgen: Kleinman-Bylander projectors: 
   l= 0   rc=  1.661951   el= -0.994756   Ekb=  5.296364   kbcos=  0.313951
   l= 1   rc=  1.661951   el= -0.376633   Ekb= -4.104879   kbcos= -0.344765
   l= 2   rc=  1.747182   el=  0.002326   Ekb= -1.006421   kbcos= -0.008606

KBgen: Total number of Kleinman-Bylander projectors:    9
atom: -------------------------------------------------------------------------

atom: SANKEY-TYPE ORBITALS:

SPLIT: Orbitals with angular momentum L= 0

SPLIT: Basis orbitals for state 2s

SPLIT: PAO cut-off radius determined from an
SPLIT: energy shift=  0.000735 Ry

   izeta = 1
                 lambda =    1.000000
                     rc =    5.948690
                 energy =   -0.994108
                kinetic =    0.809152
    potential(screened) =   -1.803260
       potential(ionic) =   -5.360717

SPLIT: Orbitals with angular momentum L= 1

SPLIT: Basis orbitals for state 2p

SPLIT: PAO cut-off radius determined from an
SPLIT: energy shift=  0.000735 Ry

   izeta = 1
                 lambda =    1.000000
                     rc =    7.638387
                 energy =   -0.375915
                kinetic =    2.245823
    potential(screened) =   -2.621738
       potential(ionic) =   -5.993382
atom: Total number of Sankey-type orbitals:  4

atm_pop: Valence configuration (for local Pseudopot. screening):
 2s( 2.00)                                                            
 2p( 2.00)                                                            
Vna: chval, zval:    4.00000   4.00000

Vna:  Cut-off radius for the neutral-atom potential:   7.638387

atom: _________________________________________________________________________

prinput: Basis input ----------------------------------------------------------

PAO.BasisType split     

%block ChemicalSpeciesLabel
    1    6 C-gga                   # Species index, atomic number, species label
%endblock ChemicalSpeciesLabel

%block PAO.Basis                 # Define Basis set
C-gga                 2                    # Species label, number of l-shells
 n=2   0   1                         # n, l, Nzeta 
   5.949   
   1.000   
 n=2   1   1                         # n, l, Nzeta 
   7.638   
   1.000   
%endblock PAO.Basis

prinput: ----------------------------------------------------------------------

coor:   Atomic-coordinates input format  =     Cartesian coordinates
coor:                                          (in Angstroms)

siesta: Atomic coordinates (Bohr) and species
siesta:      0.00000   0.00000   2.91685  1        1
siesta:      0.00000   0.00000   8.75055  1        2
siesta:     -2.32814   4.03246   2.91685  1        3
siesta:     -4.65629   8.06493   8.75055  1        4
siesta:      4.65629   8.06493   2.91685  1        5
siesta:      2.32814   4.03246   8.75055  1        6
siesta:      4.65629   0.00000   2.91685  1        7
siesta:      9.31257   0.00000   8.75055  1        8
siesta:      4.65629   0.00000   8.75055  1        9
siesta:      9.31257   0.00000   2.91685  1       10
siesta:      4.65629   8.06493   8.75055  1       11
siesta:      2.32814   4.03246   2.91685  1       12
siesta:     -2.32814   4.03246   8.75055  1       13
siesta:     -4.65629   8.06493   2.91685  1       14
siesta:      0.00000   8.06493   2.91685  1       15
siesta:      6.98443   4.03246   8.75055  1       16
siesta:      6.98443   4.03246   2.91685  1       17
siesta:      0.00000   8.06493   8.75055  1       18
siesta:      0.00000   2.68831   2.91685  1       19
siesta:      6.98443   9.40908   8.75055  1       20
siesta:      4.65629  10.75324   2.91685  1       21
siesta:      2.32814   1.34415   8.75055  1       22
siesta:     -4.65629  10.75324   2.91685  1       23
siesta:     11.64072   1.34415   8.75055  1       24
siesta:     -2.32814   6.72077   2.91685  1       25
siesta:      9.31257   5.37662   8.75055  1       26
siesta:      2.32815   6.72077   2.91685  1       27
siesta:      4.65628   5.37662   8.75055  1       28
siesta:     -0.00000  10.75324   2.91685  1       29
siesta:      6.98443   1.34415   8.75055  1       30
siesta:      4.65629   2.68831   2.91685  1       31
siesta:      2.32814   9.40908   8.75055  1       32
siesta:      9.31258   2.68831   2.91685  1       33
siesta:     -2.32815   9.40908   8.75055  1       34
siesta:      6.98443   6.72077   2.91685  1       35
siesta:      0.00000   5.37662   8.75055  1       36

siesta: System type = bulk      

initatomlists: Number of atoms, orbitals, and projectors:     36   144   324

siesta: ******************** Simulation parameters ****************************
siesta:
siesta: The following are some of the parameters of the simulation.
siesta: A complete list of the parameters used, including default values,
siesta: can be found in file out.fdf
siesta:
redata: Spin configuration                          = none
redata: Number of spin components                   = 1
redata: Time-Reversal Symmetry                      = T
redata: Spin spiral                                 = F
redata: Long output                                 =   F
redata: Number of Atomic Species                    =        1
redata: Charge density info will appear in .RHO file
redata: Write Mulliken Pop.                         = NO
redata: Matel table size (NRTAB)                    =     1024
redata: Mesh Cutoff                                 =   300.0000 Ry
redata: Net charge of the system                    =     0.0000 |e|
redata: Min. number of SCF Iter                     =        0
redata: Max. number of SCF Iter                     =     1000
redata: SCF convergence failure will abort job
redata: SCF mix quantity                            = Hamiltonian
redata: Mix DM or H after convergence               =   F
redata: Recompute H after scf cycle                 =   F
redata: Mix DM in first SCF step                    =   T
redata: Write Pulay info on disk                    =   F
redata: New DM Occupancy tolerance                  = 0.000000000001
redata: No kicks to SCF
redata: DM Mixing Weight for Kicks                  =     0.5000
redata: Require Harris convergence for SCF          =   F
redata: Harris energy tolerance for SCF             =     0.000100 eV
redata: Require DM convergence for SCF              =   T
redata: DM tolerance for SCF                        =     0.001000
redata: Require EDM convergence for SCF             =   F
redata: EDM tolerance for SCF                       =     0.005000 eV
redata: Require H convergence for SCF               =   T
redata: Hamiltonian tolerance for SCF               =     0.001000 eV
redata: Require (free) Energy convergence for SCF   =   T
redata: (free) Energy tolerance for SCF             =     0.001000 eV
redata: Using Saved Data (generic)                  =   F
redata: Use continuation files for DM               =   F
redata: Neglect nonoverlap interactions             =   F
redata: Method of Calculation                       = Diagonalization
redata: Electronic Temperature                      =   299.9869 K
redata: Fix the spin of the system                  =   F
redata: Dynamics option                             = Single-point calculation
mix.SCF: Pulay mixing                            = Pulay
mix.SCF:    Variant                              = stable
mix.SCF:    History steps                        = 4
mix.SCF:    Linear mixing weight                 =     0.250000
mix.SCF:    Mixing weight                        =     0.250000
mix.SCF:    SVD condition                        = 0.1000E-07
redata: ***********************************************************************

%block SCF.Mixers
  Pulay
%endblock SCF.Mixers

%block SCF.Mixer.Pulay
  # Mixing method
  method pulay
  variant stable

  # Mixing options
  weight 0.2500
  weight.linear 0.2500
  history 4
%endblock SCF.Mixer.Pulay

DM_history_depth set to one: no extrapolation allowed by default for geometry relaxation
Size of DM history Fstack: 1
Total number of electrons:   144.000000
Total ionic charge:   144.000000

* ProcessorY, Blocksize:    2   1


* Orbital distribution balance (max,min):    15    14

k-point displ. along   1 input, could be:     0.00    0.50
k-point displ. along   2 input, could be:     0.00    0.50
k-point displ. along   3 input, could be:     0.00    0.50
 Kpoints in:            8 . Kpoints trimmed:            8

siesta: k-grid: Number of k-points =     8
siesta: k-grid: Cutoff (effective) =     6.174 Ang
siesta: k-grid: Supercell and displacements
siesta: k-grid:    2   0   0      0.000
siesta: k-grid:    0   2   0      0.000
siesta: k-grid:    0   0   2      0.000

diag: Algorithm                                     = Expert
diag: Parallel over k                               =   T
diag: Use parallel 2D distribution                  =   T
diag: Parallel block-size                           = 1
diag: Parallel distribution                         =     2 x     5
diag: Used triangular part                          = Lower
diag: Absolute tolerance                            =  0.100E-15
diag: Orthogonalization factor                      =  0.100E-05
diag: Memory factor                                 =  1.0000

superc: Internal auxiliary supercell:     5 x     5 x     3  =      75
superc: Number of atoms, orbitals, and projectors:   2700  10800  24300


ts: **************************************************************
ts: Save H and S matrices                           =    F
ts: Save DM and EDM matrices                        =    F
ts: Only save the overlap matrix S                  =    F
ts: **************************************************************

************************ Begin: TS CHECKS AND WARNINGS ************************
************************ End: TS CHECKS AND WARNINGS **************************


                     ====================================
                        Single-point calculation
                     ====================================

outcoor: Atomic coordinates (Ang):                          
    0.00000000    0.00000000    1.54353000   1       1  C-gga
    0.00000000    0.00000000    4.63059000   1       2  C-gga
   -1.23200000    2.13388659    1.54353000   1       3  C-gga
   -2.46400000    4.26777319    4.63059000   1       4  C-gga
    2.46400000    4.26777319    1.54353000   1       5  C-gga
    1.23200000    2.13388659    4.63059000   1       6  C-gga
    2.46400000    0.00000000    1.54353000   1       7  C-gga
    4.92800000    0.00000000    4.63059000   1       8  C-gga
    2.46400000    0.00000000    4.63059000   1       9  C-gga
    4.92800000    0.00000000    1.54353000   1      10  C-gga
    2.46400000    4.26777319    4.63059000   1      11  C-gga
    1.23200000    2.13388659    1.54353000   1      12  C-gga
   -1.23200000    2.13388659    4.63059000   1      13  C-gga
   -2.46400000    4.26777319    1.54353000   1      14  C-gga
    0.00000000    4.26777319    1.54353000   1      15  C-gga
    3.69600000    2.13388659    4.63059000   1      16  C-gga
    3.69600000    2.13388659    1.54353000   1      17  C-gga
    0.00000000    4.26777319    4.63059000   1      18  C-gga
    0.00000000    1.42258964    1.54353000   1      19  C-gga
    3.69600000    4.97907014    4.63059000   1      20  C-gga
    2.46400123    5.69036496    1.54353000   1      21  C-gga
    1.23199877    0.71129482    4.63059000   1      22  C-gga
   -2.46400123    5.69036496    1.54353000   1      23  C-gga
    6.16000123    0.71129482    4.63059000   1      24  C-gga
   -1.23200000    3.55647624    1.54353000   1      25  C-gga
    4.92800000    2.84518355    4.63059000   1      26  C-gga
    1.23200123    3.55647837    1.54353000   1      27  C-gga
    2.46399877    2.84518142    4.63059000   1      28  C-gga
   -0.00000123    5.69036496    1.54353000   1      29  C-gga
    3.69600123    0.71129482    4.63059000   1      30  C-gga
    2.46400000    1.42258964    1.54353000   1      31  C-gga
    1.23200000    4.97907014    4.63059000   1      32  C-gga
    4.92800123    1.42259177    1.54353000   1      33  C-gga
   -1.23200123    4.97906801    4.63059000   1      34  C-gga
    3.69599877    3.55647837    1.54353000   1      35  C-gga
    0.00000123    2.84518142    4.63059000   1      36  C-gga

superc: Internal auxiliary supercell:     5 x     5 x     3  =      75
superc: Number of atoms, orbitals, and projectors:   2700  10800  24300

outcell: Unit cell vectors (Ang):
        7.392000    0.000000    0.000000
       -3.696000    6.401660    0.000000
        0.000000    0.000000    6.174120

outcell: Cell vector modules (Ang)   :    7.392000    7.392000    6.174120
outcell: Cell angles (23,13,12) (deg):     90.0000     90.0000    120.0000
outcell: Cell volume (Ang**3)        :    292.1660
<dSpData1D:S at geom step 0
  <sparsity:sparsity for geom step 0
    nrows_g=144 nrows=15 sparsity=.9727 nnzs=20170, refcount: 7>
  <dData1D:(new from dSpData1D) n=20170, refcount: 1>
refcount: 1>
new_DM -- step:     1
Initializing Density Matrix...
DM filled with atomic data:
<dSpData2D:DM initialized from atoms
  <sparsity:sparsity for geom step 0
    nrows_g=144 nrows=15 sparsity=.9727 nnzs=20170, refcount: 8>
  <dData2D:DM n=20170 m=1, refcount: 1>
refcount: 1>
No. of atoms with KB's overlaping orbs in proc 0. Max # of overlaps:     249     268
New grid distribution:   1
           1       1:   36    1:   18    1:    8
           2       1:   36    1:   18    9:   15
           3       1:   36    1:   18   16:   22
           4       1:   36    1:   18   23:   29
           5       1:   36    1:   18   30:   36
           6       1:   36   19:   36    1:    8
           7       1:   36   19:   36    9:   15
           8       1:   36   19:   36   16:   22
           9       1:   36   19:   36   23:   29
          10       1:   36   19:   36   30:   36

InitMesh: MESH =    72 x    72 x    72 =      373248
InitMesh: (bp) =    36 x    36 x    36 =       46656
InitMesh: Mesh cutoff (required, used) =   300.000   349.608 Ry
ExtMesh (bp) on 0 =   128 x   110 x   104 =     1464320
New grid distribution:   2
           1       1:   18    1:   15    1:   18
           2      13:   36   16:   36    1:    9
           3      13:   36   16:   36   10:   18
           4       1:   18    1:   15   19:   36
           5      19:   36    1:   15   19:   36
           6      13:   36   16:   36   28:   36
           7       1:   12   16:   36    1:   18
           8      13:   36   16:   36   19:   27
           9      19:   36    1:   15    1:   18
          10       1:   12   16:   36   19:   36
New grid distribution:   3
           1       1:   18    1:   15    1:   18
           2      13:   36   16:   36    1:    9
           3      13:   36   16:   36   10:   18
           4       1:   18    1:   15   19:   36
           5      19:   36    1:   15   19:   36
           6      13:   36   16:   36   28:   36
           7       1:   12   16:   36    1:   18
           8      13:   36   16:   36   19:   27
           9      19:   36    1:   15    1:   18
          10       1:   12   16:   36   19:   36
Setting up quadratic distribution...
ExtMesh (bp) on 0 =   110 x   107 x   114 =     1341780
PhiOnMesh: Number of (b)points on node 0 =                 4860
PhiOnMesh: nlist on node 0 =               606485

stepf: Fermi-Dirac step function

siesta: Program's energy decomposition (eV):
siesta: Ebs     =     -2551.777891
siesta: Eions   =      9434.507561
siesta: Ena     =      2265.590007
siesta: Ekin    =      3651.516254
siesta: Enl     =      -345.013811
siesta: Eso     =         0.000000
siesta: Edftu   =         0.000000
siesta: DEna    =       -14.917812
siesta: DUscf   =         2.605542
siesta: DUext   =         0.000000
siesta: Exc     =     -1640.500615
siesta: eta*DQ  =         0.000000
siesta: Emadel  =         0.000000
siesta: Emeta   =         0.000000
siesta: Emolmec =        -5.290756
siesta: Ekinion =         0.000000
siesta: Eharris =     -5364.547119
siesta: Etot    =     -5520.518752
siesta: FreeEng =     -5520.567739

        iscf     Eharris(eV)        E_KS(eV)     FreeEng(eV)     dDmax    Ef(eV) dHmax(eV)
   scf:    1    -5364.547119    -5520.518752    -5520.567739  1.337895 -8.407852  0.247281
timer: Routine,Calls,Time,% = IterSCF        1       2.310  53.42
   scf:    2    -5520.529580    -5520.526133    -5520.574957  0.008517 -8.363037  0.173247
   scf:    3    -5520.531478    -5520.530082    -5520.578572  0.007232 -8.246832  0.023501
   scf:    4    -5520.532230    -5520.531818    -5520.580282  0.005040 -8.237813  0.000602
   scf:    5    -5520.531822    -5520.531820    -5520.580282  0.000115 -8.238229  0.000680

SCF Convergence by FreeE+DM+H criterion
|FreeE_i-FreeE_(i-1)| (eV) <     0.00100000
max |DM_out - DM_in|         :     0.0001147901
max |H_out - H_in|      (eV) :     0.0006803124
SCF cycle converged after 5 iterations

Using DM_out to compute the final energy and forces
No. of atoms with KB's overlaping orbs in proc 0. Max # of overlaps:     249     268

MM-Stress (kbar):       18.81       18.81       62.10        0.00        0.00       -0.00

siesta: E_KS(eV) =            -5520.5318

siesta: E_KS - E_eggbox =     -5520.5318

siesta: Atomic forces (eV/Ang):
     1    0.000000   -0.000000   -0.000000
     2   -0.000000   -0.000000   -0.000000
     3    0.000073   -0.000055   -0.000000
     4   -0.000073    0.000055   -0.000000
     5    0.000011    0.000091   -0.000000
     6   -0.000011   -0.000091   -0.000000
     7   -0.000085   -0.000036   -0.000000
     8    0.000085    0.000036   -0.000000
     9   -0.000015   -0.000013   -0.000000
    10    0.000015    0.000013   -0.000000
    11   -0.000004    0.000020   -0.000000
    12    0.000004   -0.000019   -0.000000
    13    0.000019   -0.000006   -0.000000
    14   -0.000019    0.000007   -0.000000
    15   -0.000000   -0.000000   -0.000000
    16   -0.000000    0.000000   -0.000000
    17    0.000000    0.000000   -0.000000
    18    0.000000   -0.000000   -0.000000
    19    0.000006    0.000128    0.000000
    20   -0.000006   -0.000128    0.000000
    21   -0.000114   -0.000059    0.000000
    22    0.000114    0.000059    0.000000
    23    0.000108   -0.000069    0.000000
    24   -0.000108    0.000069    0.000000
    25    0.000009    0.000112    0.000000
    26   -0.000009   -0.000112    0.000000
    27   -0.000101   -0.000049    0.000000
    28    0.000101    0.000048    0.000000
    29    0.000092   -0.000063    0.000000
    30   -0.000092    0.000064    0.000000
    31    0.000009    0.000112    0.000000
    32   -0.000009   -0.000112    0.000000
    33   -0.000102   -0.000048    0.000000
    34    0.000102    0.000048    0.000000
    35    0.000092   -0.000065    0.000000
    36   -0.000092    0.000064    0.000000
----------------------------------------
   Tot   -0.000000   -0.000000    0.000000
----------------------------------------
   Max    0.000128
   Res    0.000053    sqrt( Sum f_i^2 / 3N )
----------------------------------------
   Max    0.000128    constrained

Stress tensor Voigt[x,y,z,yz,xz,xy] (kbar):     -390.76     -390.76      290.79       -0.00       -0.00        0.00
(Free)E + p*V (eV/cell)    -5490.7519
Target enthalpy (eV/cell)    -5520.5803

siesta: Eigenvalues (eV):
  ik is       eps
   1  1  -28.0854  -27.8635  -25.2568  -25.2568  -25.2568  -25.2568  -25.2568  -25.2568  -25.2422  -25.2422
         -25.2422  -25.2422  -25.2422  -25.2422  -21.4102  -21.4102  -21.3774  -21.3774  -21.3774  -21.3774
  -21.3673  -21.3673  -18.9059  -18.9059  -18.9058  -18.9058  -18.5424  -18.5424  -18.5424  -18.5424
  -18.5424  -18.5424  -18.4277  -18.4277  -18.4277  -18.4276  -18.4276  -18.4276  -15.7671  -15.0978
  -15.0978  -15.0977  -15.0977  -15.0977  -15.0977  -14.9956  -14.9956  -14.9956  -14.9956  -14.9956
  -14.9956  -14.0738  -13.4046  -13.4046  -13.4046  -13.4046  -13.4046  -13.4046  -12.4651  -12.4651
  -12.4419  -12.4419  -11.5553  -11.5553  -11.5553  -11.5553  -11.5553  -11.5553   -9.0989   -9.0989
   -8.2613   -8.2613   -8.2613   -8.2613   -7.2679   -7.2679   -3.3208   -3.3208   -3.3208   -3.3208
   -3.3208   -3.3208   -2.4842   -2.4842   -2.4842   -2.4842   -2.4842   -2.4842    0.7017    0.7017
    0.7477    0.7477    0.8855    0.8855    0.8855    0.8855    0.8855    0.8855    1.2910    1.2910
    1.2910    1.2910    1.2910    1.2910    2.4721    2.7852    4.2114    4.3605    7.3269    7.3269
    7.3650    7.3650    7.3651    7.3651    7.4206    7.4206    8.6652    8.6652    8.6652    8.6652
    8.6652    8.6652    8.7217    8.7217    8.7217    8.7217    8.7217    8.7217   10.3119   10.3119
   10.3119   10.3119   10.3119   10.3119   10.3894   10.3894   10.3894   10.3894   10.3894   10.3894
   15.2202   15.2202   15.2202   15.2202
   2  1  -27.3278  -27.3278  -27.1796  -27.1796  -25.9011  -25.9011  -25.8756  -25.8756  -23.5535  -23.5535
         -23.5535  -23.5535  -23.4837  -23.4837  -23.4837  -23.4837  -22.9906  -22.9660  -21.4622  -21.3182
  -20.1169  -20.1169  -20.1169  -20.1169  -20.0590  -20.0590  -20.0590  -20.0590  -17.0586  -17.0586
  -17.0586  -17.0586  -16.9635  -16.9635  -16.9602  -16.9602  -16.9602  -16.9602  -16.8936  -16.8936
  -15.6757  -15.5737  -15.5680  -15.5680  -15.4513  -15.4513  -15.1836  -15.1836  -14.6636  -14.6636
  -14.5485  -14.5485  -13.9987  -13.9987  -13.5771  -13.5771  -13.4952  -13.4952  -13.4288  -13.4288
  -12.1424  -12.1424  -11.5879  -11.5879  -11.5879  -11.5879  -11.1068  -10.2476   -9.9717   -9.9717
   -9.9717   -9.9717   -6.0846   -5.8394   -5.8394   -5.8394   -5.8394   -5.5209   -5.0202   -5.0202
   -5.0202   -5.0202   -1.9965   -1.9965   -1.4433   -1.4433    0.6222    0.7884    0.7884    1.0582
    1.1794    1.1794    1.1850    1.1851    1.3516    1.3516    3.3645    3.3645    3.3645    3.3645
    3.4848    3.4848    3.5328    3.5328    3.6748    3.6748    3.6748    3.6749    3.7770    3.7770
    3.8701    3.8701    4.0708    4.0708    4.1598    4.1598    5.7981    5.7981    5.9527    5.9527
    8.7207    8.7208    8.7208    8.7208    8.8489    8.8489    8.8489    8.8490    9.9916    9.9916
   10.0563   10.0563   11.2205   11.2534   13.1307   13.3227   13.8048   13.8048   13.8048   13.8048
   13.8288   13.8288   13.8288   13.8288
   3  1  -27.3278  -27.3278  -27.1796  -27.1796  -25.9011  -25.9011  -25.8756  -25.8756  -23.5535  -23.5535
         -23.5535  -23.5535  -23.4837  -23.4837  -23.4837  -23.4837  -22.9906  -22.9660  -21.4622  -21.3182
  -20.1169  -20.1169  -20.1169  -20.1169  -20.0590  -20.0590  -20.0590  -20.0590  -17.0586  -17.0586
  -17.0586  -17.0586  -16.9635  -16.9635  -16.9602  -16.9602  -16.9602  -16.9602  -16.8936  -16.8936
  -15.6757  -15.5737  -15.5680  -15.5680  -15.4513  -15.4513  -15.1836  -15.1836  -14.6636  -14.6636
  -14.5485  -14.5485  -13.9987  -13.9987  -13.5771  -13.5771  -13.4952  -13.4952  -13.4288  -13.4288
  -12.1424  -12.1424  -11.5879  -11.5879  -11.5879  -11.5879  -11.1068  -10.2476   -9.9717   -9.9717
   -9.9717   -9.9717   -6.0846   -5.8394   -5.8394   -5.8394   -5.8394   -5.5209   -5.0202   -5.0202
   -5.0202   -5.0202   -1.9965   -1.9965   -1.4433   -1.4433    0.6222    0.7884    0.7884    1.0582
    1.1794    1.1794    1.1850    1.1851    1.3516    1.3516    3.3645    3.3645    3.3645    3.3645
    3.4848    3.4848    3.5328    3.5328    3.6748    3.6748    3.6748    3.6749    3.7770    3.7770
    3.8701    3.8701    4.0708    4.0708    4.1598    4.1598    5.7981    5.7981    5.9527    5.9527
    8.7207    8.7208    8.7208    8.7208    8.8489    8.8489    8.8489    8.8490    9.9916    9.9916
   10.0563   10.0563   11.2205   11.2534   13.1307   13.3227   13.8048   13.8048   13.8048   13.8048
   13.8288   13.8288   13.8288   13.8288
   4  1  -27.3278  -27.3278  -27.1796  -27.1796  -25.9011  -25.9011  -25.8756  -25.8756  -23.5535  -23.5535
         -23.5535  -23.5535  -23.4837  -23.4837  -23.4837  -23.4837  -22.9906  -22.9660  -21.4622  -21.3182
  -20.1169  -20.1169  -20.1169  -20.1169  -20.0590  -20.0590  -20.0590  -20.0590  -17.0586  -17.0586
  -17.0586  -17.0586  -16.9635  -16.9635  -16.9602  -16.9602  -16.9602  -16.9602  -16.8936  -16.8936
  -15.6757  -15.5737  -15.5680  -15.5680  -15.4513  -15.4513  -15.1836  -15.1836  -14.6636  -14.6636
  -14.5485  -14.5485  -13.9987  -13.9987  -13.5771  -13.5771  -13.4952  -13.4952  -13.4288  -13.4288
  -12.1424  -12.1424  -11.5879  -11.5879  -11.5879  -11.5879  -11.1068  -10.2476   -9.9717   -9.9717
   -9.9717   -9.9717   -6.0846   -5.8394   -5.8394   -5.8394   -5.8394   -5.5209   -5.0202   -5.0202
   -5.0202   -5.0202   -1.9965   -1.9965   -1.4433   -1.4433    0.6222    0.7884    0.7884    1.0582
    1.1794    1.1794    1.1850    1.1851    1.3516    1.3516    3.3645    3.3645    3.3645    3.3645
    3.4848    3.4848    3.5328    3.5328    3.6748    3.6748    3.6748    3.6749    3.7770    3.7770
    3.8701    3.8701    4.0708    4.0708    4.1598    4.1598    5.7981    5.7981    5.9527    5.9527
    8.7207    8.7208    8.7208    8.7208    8.8489    8.8489    8.8489    8.8490    9.9916    9.9916
   10.0563   10.0563   11.2205   11.2534   13.1307   13.3227   13.8048   13.8048   13.8048   13.8048
   13.8288   13.8288   13.8288   13.8288
   5  1  -28.0125  -28.0124  -25.2714  -25.2714  -25.2714  -25.2714  -25.2714  -25.2714  -25.2713  -25.2713
         -25.2713  -25.2713  -25.2713  -25.2713  -21.3919  -21.3919  -21.3918  -21.3918  -21.3685  -21.3685
  -21.3685  -21.3685  -18.9091  -18.9091  -18.9091  -18.9091  -18.4916  -18.4916  -18.4916  -18.4916
  -18.4916  -18.4916  -18.4916  -18.4916  -18.4916  -18.4916  -18.4916  -18.4916  -15.0465  -15.0465
  -15.0465  -15.0465  -15.0465  -15.0465  -15.0464  -15.0464  -15.0464  -15.0464  -15.0464  -15.0464
  -14.9638  -14.9637  -12.5918  -12.5918  -12.5918  -12.5918  -12.5918  -12.5918  -12.5918  -12.5917
  -12.5917  -12.5917  -12.5917  -12.5917  -12.4529  -12.4529  -12.4529  -12.4529   -8.2407   -8.2407
   -8.2407   -8.2407   -8.2121   -8.2121   -8.2121   -8.2121   -2.9299   -2.9299   -2.9299   -2.9299
   -2.9299   -2.9299   -2.9299   -2.9299   -2.9299   -2.9298   -2.9298   -2.9298    0.7253    0.7253
    0.7254    0.7254    1.1227    1.1227    1.1227    1.1227    1.1227    1.1227    1.1227    1.1227
    1.1227    1.1228    1.1228    1.1228    2.6187    2.6187    4.2976    4.2977    7.3688    7.3688
    7.3689    7.3689    7.3748    7.3748    7.3749    7.3749    8.6933    8.6933    8.6933    8.6933
    8.6933    8.6933    8.6933    8.6933    8.6933    8.6934    8.6934    8.6934   10.3782   10.3782
   10.3782   10.3782   10.3782   10.3782   10.3782   10.3782   10.3782   10.3783   10.3783   10.3783
   15.2196   15.2196   15.2197   15.2197
   6  1  -27.2885  -27.2885  -27.2885  -27.2884  -25.9153  -25.9153  -25.9152  -25.9152  -23.5254  -23.5254
         -23.5254  -23.5254  -23.5254  -23.5254  -23.5254  -23.5254  -22.9770  -22.9769  -21.4001  -21.4000
  -20.0898  -20.0898  -20.0898  -20.0898  -20.0898  -20.0898  -20.0898  -20.0898  -17.0118  -17.0118
  -17.0118  -17.0118  -17.0117  -17.0117  -17.0117  -17.0117  -16.9279  -16.9279  -16.9279  -16.9279
  -15.6246  -15.6245  -15.5205  -15.5205  -15.5204  -15.5204  -14.6232  -14.6231  -14.6231  -14.6231
  -14.3795  -14.3795  -14.3795  -14.3795  -13.5357  -13.5357  -13.5356  -13.5356  -13.1892  -13.1892
  -13.1892  -13.1892  -10.8166  -10.8166  -10.8166  -10.8166  -10.8165  -10.8165  -10.8165  -10.8165
  -10.5766  -10.5765   -6.0188   -6.0187   -5.4769   -5.4769   -5.4769   -5.4769   -5.4768   -5.4768
   -5.4768   -5.4768   -1.7308   -1.7308   -1.7308   -1.7308    0.8620    0.8621    0.9279    0.9279
    0.9279    0.9279    1.3568    1.3568    1.3568    1.3568    3.5087    3.5087    3.5088    3.5088
    3.5349    3.5349    3.5350    3.5350    3.5350    3.5350    3.5350    3.5350    3.8684    3.8685
    3.8685    3.8685    4.1373    4.1373    4.1373    4.1373    5.8886    5.8886    5.8886    5.8887
    8.7916    8.7916    8.7916    8.7917    8.7917    8.7917    8.7917    8.7917   10.0245   10.0245
   10.0245   10.0246   11.2376   11.2377   13.2211   13.2211   13.8176   13.8176   13.8176   13.8176
   13.8176   13.8176   13.8176   13.8176
   7  1  -27.2885  -27.2885  -27.2885  -27.2884  -25.9153  -25.9153  -25.9152  -25.9152  -23.5254  -23.5254
         -23.5254  -23.5254  -23.5254  -23.5254  -23.5254  -23.5254  -22.9770  -22.9769  -21.4001  -21.4000
  -20.0898  -20.0898  -20.0898  -20.0898  -20.0898  -20.0898  -20.0898  -20.0898  -17.0118  -17.0118
  -17.0118  -17.0118  -17.0117  -17.0117  -17.0117  -17.0117  -16.9279  -16.9279  -16.9279  -16.9279
  -15.6246  -15.6245  -15.5205  -15.5205  -15.5204  -15.5204  -14.6232  -14.6231  -14.6231  -14.6231
  -14.3795  -14.3795  -14.3795  -14.3795  -13.5357  -13.5357  -13.5356  -13.5356  -13.1892  -13.1892
  -13.1892  -13.1892  -10.8166  -10.8166  -10.8166  -10.8166  -10.8165  -10.8165  -10.8165  -10.8165
  -10.5766  -10.5765   -6.0188   -6.0187   -5.4769   -5.4769   -5.4769   -5.4769   -5.4768   -5.4768
   -5.4768   -5.4768   -1.7308   -1.7308   -1.7308   -1.7308    0.8620    0.8621    0.9279    0.9279
    0.9279    0.9279    1.3568    1.3568    1.3568    1.3568    3.5087    3.5087    3.5088    3.5088
    3.5349    3.5349    3.5350    3.5350    3.5350    3.5350    3.5350    3.5350    3.8684    3.8685
    3.8685    3.8685    4.1373    4.1373    4.1373    4.1373    5.8886    5.8886    5.8886    5.8887
    8.7916    8.7916    8.7916    8.7917    8.7917    8.7917    8.7917    8.7917   10.0245   10.0245
   10.0245   10.0246   11.2376   11.2377   13.2211   13.2211   13.8176   13.8176   13.8176   13.8176
   13.8176   13.8176   13.8176   13.8176
   8  1  -27.2885  -27.2885  -27.2885  -27.2884  -25.9153  -25.9153  -25.9152  -25.9152  -23.5254  -23.5254
         -23.5254  -23.5254  -23.5254  -23.5254  -23.5254  -23.5254  -22.9770  -22.9769  -21.4001  -21.4000
  -20.0898  -20.0898  -20.0898  -20.0898  -20.0898  -20.0898  -20.0898  -20.0898  -17.0118  -17.0118
  -17.0118  -17.0118  -17.0117  -17.0117  -17.0117  -17.0117  -16.9279  -16.9279  -16.9279  -16.9279
  -15.6246  -15.6245  -15.5205  -15.5205  -15.5204  -15.5204  -14.6232  -14.6231  -14.6231  -14.6231
  -14.3795  -14.3795  -14.3795  -14.3795  -13.5357  -13.5357  -13.5356  -13.5356  -13.1892  -13.1892
  -13.1892  -13.1892  -10.8166  -10.8166  -10.8166  -10.8166  -10.8165  -10.8165  -10.8165  -10.8165
  -10.5766  -10.5765   -6.0188   -6.0187   -5.4769   -5.4769   -5.4769   -5.4769   -5.4768   -5.4768
   -5.4768   -5.4768   -1.7308   -1.7308   -1.7308   -1.7308    0.8620    0.8621    0.9279    0.9279
    0.9279    0.9279    1.3568    1.3568    1.3568    1.3568    3.5087    3.5087    3.5088    3.5088
    3.5349    3.5349    3.5350    3.5350    3.5350    3.5350    3.5350    3.5350    3.8684    3.8685
    3.8685    3.8685    4.1373    4.1373    4.1373    4.1373    5.8886    5.8886    5.8886    5.8887
    8.7916    8.7916    8.7916    8.7917    8.7917    8.7917    8.7917    8.7917   10.0245   10.0245
   10.0245   10.0246   11.2376   11.2377   13.2211   13.2211   13.8176   13.8176   13.8176   13.8176
   13.8176   13.8176   13.8176   13.8176
siesta: Fermi energy =      -8.238229 eV

siesta: Program's energy decomposition (eV):
siesta: Ebs     =     -2552.433219
siesta: Eions   =      9434.507561
siesta: Ena     =      2265.590007
siesta: Ekin    =      3650.414000
siesta: Enl     =      -345.079040
siesta: Eso     =         0.000000
siesta: Edftu   =         0.000000
siesta: DEna    =       -13.925880
siesta: DUscf   =         2.564384
siesta: DUext   =         0.000000
siesta: Exc     =     -1640.296974
siesta: eta*DQ  =         0.000000
siesta: Emadel  =         0.000000
siesta: Emeta   =         0.000000
siesta: Emolmec =        -5.290756
siesta: Ekinion =         0.000000
siesta: Eharris =     -5520.531822
siesta: Etot    =     -5520.531820
siesta: FreeEng =     -5520.580282

siesta: Final energy (eV):
siesta:  Band Struct. =   -2552.433219
siesta:       Kinetic =    3650.414000
siesta:       Hartree =    1063.870689
siesta:       Edftu   =       0.000000
siesta:       Eso     =       0.000000
siesta:    Ext. field =       0.000000
siesta:   Exch.-corr. =   -1640.296974
siesta:  Ion-electron =   -6186.688634
siesta:       Ion-ion =   -2402.540144
siesta:       Ekinion =       0.000000
siesta:         Total =   -5520.531820
siesta:         Fermi =      -8.238229

siesta: Stress tensor (static) (eV/Ang**3):
siesta:    -0.243889    0.000000   -0.000000
siesta:     0.000000   -0.243889    0.000000
siesta:    -0.000000   -0.000000    0.181497

siesta: Cell volume =        292.165959 Ang**3

siesta: Pressure (static):
siesta:                Solid            Molecule  Units
siesta:           0.00111193          0.00111197  Ry/Bohr**3
siesta:           0.10209399          0.10209688  eV/Ang**3
siesta:         163.57437308        163.57900413  kBar
(Free)E+ p_basis*V_orbitals  =       -5502.277236
(Free)Eharris+ p_basis*V_orbitals  =       -5502.277237

cite: Please see "graphite_scf.bib" for an exhaustive BiBTeX file.
cite: Please clearly indicate Siesta version in published work: 4.1.5
cite: This calculation has made use of the following articles
cite: which are encouraged to be cited in a published work.
        Primary SIESTA paper
          DOI: www.doi.org/10.1088/0953-8984/14/11/302

>> End of run:  27-OCT-2022  19:07:49
Job completed
