Siesta Version  : 4.1.5
Architecture    : x86_64-unknown-linux-gnu--unknown
Compiler version: GNU Fortran (GCC) 11.3.0
Compiler flags  : mpif90 -g -O2 -fallow-argument-mismatch
PP flags        : -DMPI -DFC_HAVE_FLUSH -DFC_HAVE_ABORT
Libraries       :  -I/global/software/sl-7.x86_64/modules/intel/2020.4.304/mkl/include  /globall/software/sl-7.x86_64/modules/intel/2020.4.304/mkl/lib/intel64/libmkl_scalapack_lp64.a -Wl,--start-group /global/software/sl-7.x86_64/modules/intel/2020.4.304/mkl/lib/intel64/libmkl_intel_lp64.a /global/software/sl-7.x86_64/modules/intel/2020.4.304/mkl/lib/intel64/libmkl_sequential.a /global/software/sl-7.x86_64/modules/intel/2020.4.304/mkl/lib/intel64/libmkl_core.a /global/software/sl-7.x86_64/modules/intel/2020.4.304/mkl/lib/intel64/libmkl_blacs_openmpi_lp64.a -Wl,--end-group -lpthread -lm -ldl
PARALLEL version

* Running on 16 nodes in parallel
>> Start of run:   9-NOV-2022  14:35:57

                           ***********************       
                           *  WELCOME TO SIESTA  *       
                           ***********************       

reinit: Reading from standard input
reinit: Dumped input in INPUT_TMP.32498
************************** Dump of input data file ****************************
SystemName LiC18_scf
SystemLabel LiC18_scf
NumberOfAtoms   19
NumberOfSpecies 2
%block ChemicalSpeciesLabel
1  3   Li-gga
2  6   C-gga
%endblock ChemicalSpeciesLabel
PAO.BasisSize  SZ
PAO.EnergyShift  10 meV
%block PS.Lmax
C-gga   2
Li-gga  2
%endblock PS.Lmax
LatticeConstant 1.000000 Ang
%block LatticeVectors
	4.3161300000	0.0000000000	0.0000000000
	-2.1580650000	3.7378782260	0.0000000000
	0.0000000000	0.0000000000	8.4356815600
%endblock LatticeVectors
AtomicCoordinatesFormat Ang
%block AtomicCoordinatesAndAtomicSpecies
	0.00000000	0.00000000	0.00000000	2
	-0.70288177	1.21742694	1.40594974	1
	-1.45518323	2.52045129	7.02973182	1
	1.45518323	2.52045129	1.40594974	1
	0.70288177	1.21742694	7.02973182	1
	1.40576354	0.00000000	1.40594974	1
	2.91036646	0.00000000	7.02973182	1
	-1.45518323	2.52045129	1.40594974	1
	-0.70288177	1.21742694	7.02973182	1
	0.70288177	1.21742694	1.40594974	1
	1.45518323	2.52045129	7.02973182	1
	2.91036646	0.00000000	1.40594974	1
	1.40576354	0.00000000	7.02973182	1
	-0.70288177	1.21742694	4.21784078	1
	-1.45518323	2.52045129	4.21784078	1
	1.45518323	2.52045129	4.21784078	1
	0.70288177	1.21742694	4.21784078	1
	1.40576354	0.00000000	4.21784078	1
	2.91036646	0.00000000	4.21784078	1
%endblock AtomicCoordinatesAndAtomicSpecies
Kgrid_NoTRS  T
%block kgrid_MonkhorstPack
2       0       0       0.0
0       2       0       0.0
0       0       2       0.0
%endblock kgrid_MonkhorstPack
AtomCoorFormatOut Ang
BlockSize 1
#ProcessorY 12
Diag.ParallelOverK   T
Diag.DivideAndConquer F
MeshCutoff   300 Ry
SCF.FreeE.Tolerance 1E-3 eV
SCF.EDM.Tolerance   5E-3 eV
DM.Tolerance  1E-3
DM.Require.Energy.Convergence T
DM.NumberPulay 4
XC.Functional GGA
XC.Authors    PBE
UseSaveData        F
MD.TypeOfRun       CG
MD.VariableCell    F
MD.NumCGsteps      00
MD.MaxCGDispl      0.200000 Bohr
MD.MaxStressTol    1.000000 GPa
MD.MaxForceTol     0.010000 eV/Ang
WriteMDHistory T
WriteCoorStep T
WriteForces T
WriteCoorStep    T
WriteEigenValues T
WriteDM    F
MM.UnitsDistance Ang  # what this program prints out DO NOT CHANGE
MM.UnitsEnergy    eV  # what this program prints out DO NOT CHANGE
MM.Grimme.S6     0.75 # Grimme-paper for PBE (correct for your functional)
MM.Grimme.D     20.   # Grimme-paper (correct for your functional)
%block MM.Potentials
  1   1 Grimme     16.69      1.650 # Li, 10.1002/jcc.20495
  1   2 Grimme     17.40      2.277 # Li / C
  2   2 Grimme     18.14      2.904 # C, 10.1002/jcc.20495
%endblock MM.Potentials
#%block ProjectedDensityOfStates
# -200.0  120.0  0.4  12800  eV
#%endblock ProjectedDensityOfStates
************************** End of input data file *****************************

reinit: -----------------------------------------------------------------------
reinit: System Name: LiC18_scf
reinit: -----------------------------------------------------------------------
reinit: System Label: LiC18_scf
reinit: -----------------------------------------------------------------------
Reading two-body potentials
Grimme - two-body potential between 1 and 1
Grimme - two-body potential between 1 and 2
Grimme - two-body potential between 2 and 2

initatom: Reading input for the pseudopotentials and atomic orbitals ----------
Species number:   1 Atomic number:    3 Label: Li-gga
Species number:   2 Atomic number:    6 Label: C-gga

Ground state valence configuration:   2s01
Reading pseudopotential information in formatted form from Li-gga.psf

Valence configuration for pseudopotential generation:
2s( 1.00) rc: 2.28
2p( 0.00) rc: 2.28
3d( 0.00) rc: 2.59
4f( 0.00) rc: 2.59
Ground state valence configuration:   2s02  2p02
Reading pseudopotential information in formatted form from C-gga.psf

Valence configuration for pseudopotential generation:
2s( 2.00) rc: 1.56
2p( 2.00) rc: 1.56
3d( 0.00) rc: 1.56
4f( 0.00) rc: 1.56
relmxkb: Read Max KB Ang. Momentum=    2 for species C-gga
relmxkb: Read Max KB Ang. Momentum=    2 for species Li-gga

<basis_specs>
===============================================================================
Li-gga               Z=   3    Mass=  6.9400        Charge= 0.17977+309
Lmxo=0 Lmxkb= 2    BasisType=split      Semic=F
L=0  Nsemic=0  Cnfigmx=2
          i=1  nzeta=1  polorb=0  (2s)
            splnorm:   0.15000    
               vcte:    0.0000    
               rinn:    0.0000    
               qcoe:    0.0000    
               qyuk:    0.0000    
               qwid:   0.10000E-01
                rcs:    0.0000    
            lambdas:    1.0000    
-------------------------------------------------------------------------------
L=0  Nkbl=1  erefs: 0.17977+309
L=1  Nkbl=1  erefs: 0.17977+309
L=2  Nkbl=1  erefs: 0.17977+309
===============================================================================
</basis_specs>

atom: Called for Li-gga                (Z =   3)

read_vps: Pseudopotential generation method:
read_vps: ATM 3.2.2 Troullier-Martins                       
Valence charge for ps generation:    1.00000

read_vps: Pseudopotential includes a core correction:
read_vps: Pseudo-core for xc-correction

xc_check: Exchange-correlation functional:
xc_check: GGA Perdew, Burke & Ernzerhof 1996
V l=0 = -2*Zval/r beyond r=  2.2278
V l=1 = -2*Zval/r beyond r=  2.2278
V l=2 = -2*Zval/r beyond r=  2.5245
All V_l potentials equal beyond r=  2.4622
This should be close to max(r_c) in ps generation
All pots = -2*Zval/r beyond r=  2.5245

VLOCAL1: 99.0% of the norm of Vloc inside      7.160 Ry
VLOCAL1: 99.9% of the norm of Vloc inside     16.318 Ry
atom: Maximum radius for 4*pi*r*r*local-pseudopot. charge    2.86079
atom: Maximum radius for r*vlocal+2*Zval:    2.43160
GHOST: No ghost state for L =  0
GHOST: No ghost state for L =  1
GHOST: No ghost state for L =  2

KBgen: Kleinman-Bylander projectors: 
   l= 0   rc=  2.654023   el= -0.211234   Ekb=  1.742119   kbcos=  0.228463
   l= 1   rc=  2.721230   el= -0.080095   Ekb= -1.122375   kbcos= -0.147941
   l= 2   rc=  2.825246   el=  0.002001   Ekb= -0.207076   kbcos= -0.031965

KBgen: Total number of Kleinman-Bylander projectors:    9
atom: -------------------------------------------------------------------------

atom: SANKEY-TYPE ORBITALS:

SPLIT: Orbitals with angular momentum L= 0

SPLIT: Basis orbitals for state 2s

SPLIT: PAO cut-off radius determined from an
SPLIT: energy shift=  0.000735 Ry

   izeta = 1
                 lambda =    1.000000
                     rc =   11.897381
                 energy =   -0.210580
                kinetic =    0.143382
    potential(screened) =   -0.353962
       potential(ionic) =   -0.533453
atom: Total number of Sankey-type orbitals:  1

atm_pop: Valence configuration (for local Pseudopot. screening):
 2s( 1.00)                                                            
Vna: chval, zval:    1.00000   1.00000

Vna:  Cut-off radius for the neutral-atom potential:  11.897381
comcore: Pseudo-core radius Rcore=  3.450946

atom: _________________________________________________________________________

<basis_specs>
===============================================================================
C-gga                Z=   6    Mass=  12.010        Charge= 0.17977+309
Lmxo=1 Lmxkb= 2    BasisType=split      Semic=F
L=0  Nsemic=0  Cnfigmx=2
          i=1  nzeta=1  polorb=0  (2s)
            splnorm:   0.15000    
               vcte:    0.0000    
               rinn:    0.0000    
               qcoe:    0.0000    
               qyuk:    0.0000    
               qwid:   0.10000E-01
                rcs:    0.0000    
            lambdas:    1.0000    
L=1  Nsemic=0  Cnfigmx=2
          i=1  nzeta=1  polorb=0  (2p)
            splnorm:   0.15000    
               vcte:    0.0000    
               rinn:    0.0000    
               qcoe:    0.0000    
               qyuk:    0.0000    
               qwid:   0.10000E-01
                rcs:    0.0000    
            lambdas:    1.0000    
-------------------------------------------------------------------------------
L=0  Nkbl=1  erefs: 0.17977+309
L=1  Nkbl=1  erefs: 0.17977+309
L=2  Nkbl=1  erefs: 0.17977+309
===============================================================================
</basis_specs>

atom: Called for C-gga                 (Z =   6)

read_vps: Pseudopotential generation method:
read_vps: ATM 3.2.2 Troullier-Martins                       
Valence charge for ps generation:    4.00000

xc_check: Exchange-correlation functional:
xc_check: GGA Perdew, Burke & Ernzerhof 1996
V l=0 = -2*Zval/r beyond r=  1.5227
V l=1 = -2*Zval/r beyond r=  1.5227
V l=2 = -2*Zval/r beyond r=  1.5227
All V_l potentials equal beyond r=  1.4851
This should be close to max(r_c) in ps generation
All pots = -2*Zval/r beyond r=  1.5227

VLOCAL1: 99.0% of the norm of Vloc inside     19.682 Ry
VLOCAL1: 99.9% of the norm of Vloc inside     44.856 Ry
atom: Maximum radius for 4*pi*r*r*local-pseudopot. charge    1.79142
atom: Maximum radius for r*vlocal+2*Zval:    1.54183
GHOST: No ghost state for L =  0
GHOST: No ghost state for L =  1
GHOST: No ghost state for L =  2

KBgen: Kleinman-Bylander projectors: 
   l= 0   rc=  1.661951   el= -1.010689   Ekb=  5.289847   kbcos=  0.316429
   l= 1   rc=  1.661951   el= -0.388490   Ekb= -4.102504   kbcos= -0.351025
   l= 2   rc=  1.747182   el=  0.001971   Ekb= -1.006005   kbcos= -0.008530

KBgen: Total number of Kleinman-Bylander projectors:    9
atom: -------------------------------------------------------------------------

atom: SANKEY-TYPE ORBITALS:

SPLIT: Orbitals with angular momentum L= 0

SPLIT: Basis orbitals for state 2s

SPLIT: PAO cut-off radius determined from an
SPLIT: energy shift=  0.000735 Ry

   izeta = 1
                 lambda =    1.000000
                     rc =    5.948690
                 energy =   -1.010099
                kinetic =    0.827121
    potential(screened) =   -1.837220
       potential(ionic) =   -5.392783

SPLIT: Orbitals with angular momentum L= 1

SPLIT: Basis orbitals for state 2p

SPLIT: PAO cut-off radius determined from an
SPLIT: energy shift=  0.000735 Ry

   izeta = 1
                 lambda =    1.000000
                     rc =    7.638387
                 energy =   -0.387843
                kinetic =    2.314739
    potential(screened) =   -2.702582
       potential(ionic) =   -6.092371
atom: Total number of Sankey-type orbitals:  4

atm_pop: Valence configuration (for local Pseudopot. screening):
 2s( 2.00)                                                            
 2p( 2.00)                                                            
Vna: chval, zval:    4.00000   4.00000

Vna:  Cut-off radius for the neutral-atom potential:   7.638387

atom: _________________________________________________________________________

prinput: Basis input ----------------------------------------------------------

PAO.BasisType split     

%block ChemicalSpeciesLabel
    1    3 Li-gga                  # Species index, atomic number, species label
    2    6 C-gga                   # Species index, atomic number, species label
%endblock ChemicalSpeciesLabel

%block PAO.Basis                 # Define Basis set
Li-gga                1                    # Species label, number of l-shells
 n=2   0   1                         # n, l, Nzeta 
  11.897   
   1.000   
C-gga                 2                    # Species label, number of l-shells
 n=2   0   1                         # n, l, Nzeta 
   5.949   
   1.000   
 n=2   1   1                         # n, l, Nzeta 
   7.638   
   1.000   
%endblock PAO.Basis

prinput: ----------------------------------------------------------------------

coor:   Atomic-coordinates input format  =     Cartesian coordinates
coor:                                          (in Angstroms)

siesta: Atomic coordinates (Bohr) and species
siesta:      0.00000   0.00000   0.00000  2        1
siesta:     -1.32825   2.30060   2.65686  1        2
siesta:     -2.74990   4.76296  13.28427  1        3
siesta:      2.74990   4.76296   2.65686  1        4
siesta:      1.32825   2.30060  13.28427  1        5
siesta:      2.65651   0.00000   2.65686  1        6
siesta:      5.49980   0.00000  13.28427  1        7
siesta:     -2.74990   4.76296   2.65686  1        8
siesta:     -1.32825   2.30060  13.28427  1        9
siesta:      1.32825   2.30060   2.65686  1       10
siesta:      2.74990   4.76296  13.28427  1       11
siesta:      5.49980   0.00000   2.65686  1       12
siesta:      2.65651   0.00000  13.28427  1       13
siesta:     -1.32825   2.30060   7.97057  1       14
siesta:     -2.74990   4.76296   7.97057  1       15
siesta:      2.74990   4.76296   7.97057  1       16
siesta:      1.32825   2.30060   7.97057  1       17
siesta:      2.65651   0.00000   7.97057  1       18
siesta:      5.49980   0.00000   7.97057  1       19

siesta: System type = bulk      

initatomlists: Number of atoms, orbitals, and projectors:     19    22   171

siesta: ******************** Simulation parameters ****************************
siesta:
siesta: The following are some of the parameters of the simulation.
siesta: A complete list of the parameters used, including default values,
siesta: can be found in file out.fdf
siesta:
redata: Spin configuration                          = none
redata: Number of spin components                   = 1
redata: Time-Reversal Symmetry                      = T
redata: Spin spiral                                 = F
redata: Long output                                 =   F
redata: Number of Atomic Species                    =        2
redata: Charge density info will appear in .RHO file
redata: Write Mulliken Pop.                         = NO
redata: Matel table size (NRTAB)                    =     1024
redata: Mesh Cutoff                                 =   300.0000 Ry
redata: Net charge of the system                    =     0.0000 |e|
redata: Min. number of SCF Iter                     =        0
redata: Max. number of SCF Iter                     =     1000
redata: SCF convergence failure will abort job
redata: SCF mix quantity                            = Hamiltonian
redata: Mix DM or H after convergence               =   F
redata: Recompute H after scf cycle                 =   F
redata: Mix DM in first SCF step                    =   T
redata: Write Pulay info on disk                    =   F
redata: New DM Occupancy tolerance                  = 0.000000000001
redata: No kicks to SCF
redata: DM Mixing Weight for Kicks                  =     0.5000
redata: Require Harris convergence for SCF          =   F
redata: Harris energy tolerance for SCF             =     0.000100 eV
redata: Require DM convergence for SCF              =   T
redata: DM tolerance for SCF                        =     0.001000
redata: Require EDM convergence for SCF             =   F
redata: EDM tolerance for SCF                       =     0.005000 eV
redata: Require H convergence for SCF               =   T
redata: Hamiltonian tolerance for SCF               =     0.001000 eV
redata: Require (free) Energy convergence for SCF   =   T
redata: (free) Energy tolerance for SCF             =     0.001000 eV
redata: Using Saved Data (generic)                  =   F
redata: Use continuation files for DM               =   F
redata: Neglect nonoverlap interactions             =   F
redata: Method of Calculation                       = Diagonalization
redata: Electronic Temperature                      =   299.9869 K
redata: Fix the spin of the system                  =   F
redata: Dynamics option                             = Single-point calculation
mix.SCF: Pulay mixing                            = Pulay
mix.SCF:    Variant                              = stable
mix.SCF:    History steps                        = 4
mix.SCF:    Linear mixing weight                 =     0.250000
mix.SCF:    Mixing weight                        =     0.250000
mix.SCF:    SVD condition                        = 0.1000E-07
redata: ***********************************************************************

%block SCF.Mixers
  Pulay
%endblock SCF.Mixers

%block SCF.Mixer.Pulay
  # Mixing method
  method pulay
  variant stable

  # Mixing options
  weight 0.2500
  weight.linear 0.2500
  history 4
%endblock SCF.Mixer.Pulay

DM_history_depth set to one: no extrapolation allowed by default for geometry relaxation
Size of DM history Fstack: 1
Total number of electrons:    22.000000
Total ionic charge:    22.000000

* ProcessorY, Blocksize:    4   1


* Orbital distribution balance (max,min):     2     1

k-point displ. along   1 input, could be:     0.00    0.50
k-point displ. along   2 input, could be:     0.00    0.50
k-point displ. along   3 input, could be:     0.00    0.50
 Kpoints in:            8 . Kpoints trimmed:            8

siesta: k-grid: Number of k-points =     8
siesta: k-grid: Cutoff (effective) =     4.316 Ang
siesta: k-grid: Supercell and displacements
siesta: k-grid:    2   0   0      0.000
siesta: k-grid:    0   2   0      0.000
siesta: k-grid:    0   0   2      0.000

diag: Algorithm                                     = Expert
diag: Parallel over k                               =   T
diag: Use parallel 2D distribution                  =   T
diag: Parallel block-size                           = 1
diag: Parallel distribution                         =     4 x     4
diag: Used triangular part                          = Lower
diag: Absolute tolerance                            =  0.100E-15
diag: Orthogonalization factor                      =  0.100E-05
diag: Memory factor                                 =  1.0000

superc: Internal auxiliary supercell:     9 x     9 x     5  =     405
superc: Number of atoms, orbitals, and projectors:   7695   8910  69255


ts: **************************************************************
ts: Save H and S matrices                           =    F
ts: Save DM and EDM matrices                        =    F
ts: Only save the overlap matrix S                  =    F
ts: **************************************************************

************************ Begin: TS CHECKS AND WARNINGS ************************
************************ End: TS CHECKS AND WARNINGS **************************


                     ====================================
                        Single-point calculation
                     ====================================

outcoor: Atomic coordinates (Ang):                          
    0.00000000    0.00000000    0.00000000   2       1  C-gga
   -0.70288177    1.21742694    1.40594974   1       2  Li-gga
   -1.45518323    2.52045129    7.02973182   1       3  Li-gga
    1.45518323    2.52045129    1.40594974   1       4  Li-gga
    0.70288177    1.21742694    7.02973182   1       5  Li-gga
    1.40576354    0.00000000    1.40594974   1       6  Li-gga
    2.91036646    0.00000000    7.02973182   1       7  Li-gga
   -1.45518323    2.52045129    1.40594974   1       8  Li-gga
   -0.70288177    1.21742694    7.02973182   1       9  Li-gga
    0.70288177    1.21742694    1.40594974   1      10  Li-gga
    1.45518323    2.52045129    7.02973182   1      11  Li-gga
    2.91036646    0.00000000    1.40594974   1      12  Li-gga
    1.40576354    0.00000000    7.02973182   1      13  Li-gga
   -0.70288177    1.21742694    4.21784078   1      14  Li-gga
   -1.45518323    2.52045129    4.21784078   1      15  Li-gga
    1.45518323    2.52045129    4.21784078   1      16  Li-gga
    0.70288177    1.21742694    4.21784078   1      17  Li-gga
    1.40576354    0.00000000    4.21784078   1      18  Li-gga
    2.91036646    0.00000000    4.21784078   1      19  Li-gga

superc: Internal auxiliary supercell:     9 x     9 x     5  =     405
superc: Number of atoms, orbitals, and projectors:   7695   8910  69255

outcell: Unit cell vectors (Ang):
        4.316130    0.000000    0.000000
       -2.158065    3.737878    0.000000
        0.000000    0.000000    8.435682

outcell: Cell vector modules (Ang)   :    4.316130    4.316130    8.435682
outcell: Cell angles (23,13,12) (deg):     90.0000     90.0000    120.0000
outcell: Cell volume (Ang**3)        :    136.0943
<dSpData1D:S at geom step 0
  <sparsity:sparsity for geom step 0
    nrows_g=22 nrows=2 sparsity=6.1260 nnzs=2965, refcount: 7>
  <dData1D:(new from dSpData1D) n=2965, refcount: 1>
refcount: 1>
new_DM -- step:     1
Initializing Density Matrix...
DM filled with atomic data:
<dSpData2D:DM initialized from atoms
  <sparsity:sparsity for geom step 0
    nrows_g=22 nrows=2 sparsity=6.1260 nnzs=2965, refcount: 8>
  <dData2D:DM n=2965 m=1, refcount: 1>
refcount: 1>
No. of atoms with KB's overlaping orbs in proc 0. Max # of overlaps:     289     291
New grid distribution:   1
           1       1:   20    1:    5    1:   12
           2       1:   20    1:    5   13:   23
           3       1:   20    1:    5   24:   34
           4       1:   20    1:    5   35:   45
           5       1:   20    6:   10    1:   12
           6       1:   20    6:   10   13:   23
           7       1:   20    6:   10   24:   34
           8       1:   20    6:   10   35:   45
           9       1:   20   11:   15    1:   12
          10       1:   20   11:   15   13:   23
          11       1:   20   11:   15   24:   34
          12       1:   20   11:   15   35:   45
          13       1:   20   16:   20    1:   12
          14       1:   20   16:   20   13:   23
          15       1:   20   16:   20   24:   34
          16       1:   20   16:   20   35:   45

InitMesh: MESH =    40 x    40 x    90 =      144000
InitMesh: (bp) =    20 x    20 x    45 =       18000
InitMesh: Mesh cutoff (required, used) =   300.000   314.591 Ry
ExtMesh (bp) on 0 =   156 x   141 x   148 =     3255408
New grid distribution:   2
           1       1:   10    1:   10    1:   11
           2       1:   10    1:   10   12:   22
           3       1:   10    1:   10   23:   34
           4       1:   10    1:   10   35:   45
           5      11:   20    1:   10    1:   11
           6      11:   20    1:   10   12:   22
           7      11:   20    1:   10   23:   34
           8      11:   20    1:   10   35:   45
           9       1:   10   11:   20    1:   11
          10       1:   10   11:   20   12:   22
          11       1:   10   11:   20   23:   34
          12       1:   10   11:   20   35:   45
          13      11:   20   11:   20    1:   11
          14      11:   20   11:   20   12:   22
          15      11:   20   11:   20   23:   34
          16      11:   20   11:   20   35:   45
New grid distribution:   3
           1       1:   10    1:   10    1:   12
           2      11:   20    1:   10   13:   23
           3       1:   10    1:   10   13:   23
           4       1:   10    1:   10   35:   45
           5      11:   20    1:   10    1:   12
           6       1:   10   11:   20   35:   45
           7       1:   10    1:   10   24:   34
           8      11:   20    1:   10   35:   45
           9       1:   10   11:   20    1:   12
          10      11:   20    1:   10   24:   34
          11      11:   20   11:   20   24:   34
          12      11:   20   11:   20   35:   45
          13      11:   20   11:   20    1:   12
          14       1:   10   11:   20   13:   23
          15       1:   10   11:   20   24:   34
          16      11:   20   11:   20   13:   23
Setting up quadratic distribution...
ExtMesh (bp) on 0 =   146 x   146 x   147 =     3133452
PhiOnMesh: Number of (b)points on node 0 =                 1100
PhiOnMesh: nlist on node 0 =               169121

stepf: Fermi-Dirac step function

siesta: Program's energy decomposition (eV):
siesta: Ebs     =      -167.169822
siesta: Eions   =       439.895300
siesta: Ena     =       115.106107
siesta: Ekin    =       345.309060
siesta: Enl     =        57.603104
siesta: Eso     =         0.000000
siesta: Edftu   =         0.000000
siesta: DEna    =       -58.340440
siesta: DUscf   =        47.287036
siesta: DUext   =         0.000000
siesta: Exc     =      -245.086106
siesta: eta*DQ  =         0.000000
siesta: Emadel  =         0.000000
siesta: Emeta   =         0.000000
siesta: Emolmec =        -9.528139
siesta: Ekinion =         0.000000
siesta: Eharris =       -48.466639
siesta: Etot    =      -187.544679
siesta: FreeEng =      -187.557022

        iscf     Eharris(eV)        E_KS(eV)     FreeEng(eV)     dDmax    Ef(eV) dHmax(eV)
   scf:    1      -48.466639     -187.544679     -187.557022  9.484489 -8.017221 26.784129
timer: Routine,Calls,Time,% = IterSCF        1       0.790  14.85
   scf:    2     -210.181839     -199.656528     -199.668869  2.660882 -7.532957 14.785959
   scf:    3     -126.632427     -185.079569     -185.105569 14.604762 -3.482476 21.740991
   scf:    4     -122.696960     -156.312913     -156.312914  3.733402 -1.734574 34.962987
   scf:    5      -93.416765     -126.135101     -126.144066  3.688586  0.606700 45.839340
   scf:    6      -84.464861     -180.980793     -180.993134 29.535449 -7.014640 26.956874
   scf:    7     -220.039793     -203.998834     -204.011175  7.555102 -6.225480  9.273819
   scf:    8     -208.367341     -206.679998     -206.705099  1.801323 -5.307838  3.257204
   scf:    9     -206.450032     -207.101018     -207.101738  2.061580 -4.825597  1.880997
   scf:   10     -201.157972     -205.455696     -205.468613  3.158196 -5.571512  6.168304
   scf:   11     -206.779381     -207.196906     -207.204565  2.921251 -5.107877  0.852886
   scf:   12     -207.167750     -207.182894     -207.188595  0.059540 -5.052343  1.066172
   scf:   13     -207.029291     -207.111983     -207.115592  0.142912 -4.806768  1.826510
   scf:   14     -207.266324     -207.216035     -207.234140  0.448263 -5.115596  0.471972
   scf:   15     -206.956409     -207.143398     -207.174923  0.671755 -5.236086  1.115792
   scf:   16     -206.835533     -207.135701     -207.138985  1.107265 -4.884913  1.611288
   scf:   17     -207.118577     -207.127205     -207.130119  0.027068 -4.860503  1.692118
   scf:   18     -207.249806     -207.196530     -207.207249  0.255583 -5.061429  0.898118
   scf:   19     -207.227259     -207.214243     -207.230073  0.143581 -5.123508  0.541549
   scf:   20     -207.032764     -207.170548     -207.200327  0.627892 -5.230600  0.904427
   scf:   21     -207.051881     -207.188829     -207.198026  0.805340 -5.037120  1.012848
   scf:   22     -207.234121     -207.217124     -207.234040  0.223540 -5.139115  0.449076
   scf:   23     -207.221320     -207.219395     -207.237482  0.037712 -5.153080  0.354193
   scf:   24     -207.220461     -207.221984     -207.243120  0.119476 -5.193062  0.033621
   scf:   25     -207.216880     -207.219875     -207.242758  0.064546 -5.199469  0.104930
   scf:   26     -207.221430     -207.220717     -207.243169  0.023702 -5.195336  0.050482
   scf:   27     -207.221117     -207.220921     -207.243224  0.005886 -5.194524  0.037658
   scf:   28     -207.221608     -207.221290     -207.243292  0.013519 -5.191650  0.003175
   scf:   29     -207.221341     -207.221315     -207.243292  0.001118 -5.191411  0.000361
   scf:   30     -207.221325     -207.221320     -207.243292  0.000269 -5.191361  0.000248

SCF Convergence by FreeE+DM+H criterion
|FreeE_i-FreeE_(i-1)| (eV) <     0.00100000
max |DM_out - DM_in|         :     0.0002692875
max |H_out - H_in|      (eV) :     0.0002478892
SCF cycle converged after 30 iterations

Using DM_out to compute the final energy and forces
No. of atoms with KB's overlaping orbs in proc 0. Max # of overlaps:     289     291

MM-Stress (kbar):       -0.25       -0.25      103.19        0.00       -0.00       -0.00

siesta: E_KS(eV) =             -207.2213

siesta: E_KS - E_eggbox =      -207.2213

siesta: Atomic forces (eV/Ang):
     1    0.000000   -0.000000    0.000000
     2    0.039829   -0.068895   -1.246259
     3   -0.039829    0.068895    1.246259
     4    0.039835    0.068996   -1.246384
     5   -0.039835   -0.068996    1.246384
     6   -0.079579    0.000046   -1.246259
     7    0.079579   -0.000046    1.246259
     8   -0.039829    0.068895   -1.246259
     9    0.039829   -0.068895    1.246259
    10   -0.039835   -0.068996   -1.246384
    11    0.039835    0.068996    1.246384
    12    0.079579   -0.000046   -1.246259
    13   -0.079579    0.000046    1.246259
    14   -0.966625    1.674220   -0.000000
    15    0.966625   -1.674220   -0.000000
    16   -0.966624   -1.674241   -0.000000
    17    0.966624    1.674241   -0.000000
    18    1.933230   -0.000012   -0.000000
    19   -1.933230    0.000012   -0.000000
----------------------------------------
   Tot    0.000000    0.000000    0.000000
----------------------------------------
   Max    1.933230
   Res    0.849558    sqrt( Sum f_i^2 / 3N )
----------------------------------------
   Max    1.933230    constrained

Stress tensor Voigt[x,y,z,yz,xz,xy] (kbar):    -2861.66    -2861.68      453.21       -0.00       -0.00       -0.02
(Free)E + p*V (eV/cell)      -58.0241
Target enthalpy (eV/cell)     -207.2433

siesta: Eigenvalues (eV):
  ik is       eps
   1  1  -19.3085  -18.3654  -16.7606  -10.3655   -9.8315   -9.8315   -9.2056   -5.2720   -5.2720   -3.6611
          -3.6610    4.9916    4.9916    6.8078    6.8079    7.2583    7.2583   20.6082   20.6085   21.2391
   22.9227   23.5003
   2  1  -18.5572  -17.5587  -17.2863  -15.5775  -15.5458  -15.5162  -12.3014  -12.0757  -10.8046   -9.4152
          -8.8382   -7.5753   -5.1587    0.0990    2.5374    3.9078   15.6005   15.9976   17.0839   17.2822
   18.1236   18.6493
   3  1  -18.5572  -17.5587  -17.2863  -15.5775  -15.5458  -15.5162  -12.3014  -12.0757  -10.8046   -9.4152
          -8.8382   -7.5753   -5.1587    0.0990    2.5374    3.9078   15.6005   15.9976   17.0839   17.2822
   18.1236   18.6493
   4  1  -18.5572  -17.5587  -17.2863  -15.5775  -15.5458  -15.5162  -12.3013  -12.0757  -10.8046   -9.4152
          -8.8382   -7.5752   -5.1586    0.0991    2.5372    3.9078   15.6005   15.9976   17.0838   17.2822
   18.1236   18.6494
   5  1  -19.1338  -18.8970  -12.7177  -12.6507   -9.6532   -9.6532   -7.4029   -4.2693   -4.2693   -3.0519
          -3.0519   -1.7699   -1.7698    7.9503    7.9506   21.4279   23.0557   23.0557   23.0865   23.1760
   23.5576   23.5577
   6  1  -18.5203  -17.6717  -17.5502  -16.5174  -12.9208  -12.2539  -12.2083  -11.8398  -11.8230  -10.2994
          -6.8373   -5.2285   -4.5099   -2.6683    3.8003   10.6216   15.6609   16.0249   17.3490   17.6177
   17.8367   18.2645
   7  1  -18.5203  -17.6717  -17.5502  -16.5174  -12.9208  -12.2539  -12.2083  -11.8398  -11.8230  -10.2994
          -6.8373   -5.2285   -4.5099   -2.6683    3.8003   10.6216   15.6609   16.0249   17.3490   17.6177
   17.8367   18.2645
   8  1  -18.5203  -17.6717  -17.5502  -16.5174  -12.9208  -12.2539  -12.2083  -11.8398  -11.8230  -10.2994
          -6.8371   -5.2285   -4.5099   -2.6685    3.8003   10.6216   15.6609   16.0249   17.3490   17.6177
   17.8367   18.2645
siesta: Fermi energy =      -5.191361 eV

siesta: Program's energy decomposition (eV):
siesta: Ebs     =      -284.611131
siesta: Eions   =       439.895300
siesta: Ena     =       115.106107
siesta: Ekin    =       295.267034
siesta: Enl     =        73.381693
siesta: Eso     =         0.000000
siesta: Edftu   =         0.000000
siesta: DEna    =       -20.490701
siesta: DUscf   =        10.112133
siesta: DUext   =         0.000000
siesta: Exc     =      -231.174147
siesta: eta*DQ  =         0.000000
siesta: Emadel  =         0.000000
siesta: Emeta   =         0.000000
siesta: Emolmec =        -9.528139
siesta: Ekinion =         0.000000
siesta: Eharris =      -207.221325
siesta: Etot    =      -207.221320
siesta: FreeEng =      -207.243292

siesta: Final energy (eV):
siesta:  Band Struct. =    -284.611131
siesta:       Kinetic =     295.267034
siesta:       Hartree =     131.191285
siesta:       Edftu   =       0.000000
siesta:       Eso     =       0.000000
siesta:    Ext. field =       0.000000
siesta:   Exch.-corr. =    -231.174147
siesta:  Ion-electron =    -603.293587
siesta:       Ion-ion =     210.316234
siesta:       Ekinion =       0.000000
siesta:         Total =    -207.221320
siesta:         Fermi =      -5.191361

siesta: Atomic forces (eV/Ang):
siesta:      1    0.000000   -0.000000    0.000000
siesta:      2    0.039829   -0.068895   -1.246259
siesta:      3   -0.039829    0.068895    1.246259
siesta:      4    0.039835    0.068996   -1.246384
siesta:      5   -0.039835   -0.068996    1.246384
siesta:      6   -0.079579    0.000046   -1.246259
siesta:      7    0.079579   -0.000046    1.246259
siesta:      8   -0.039829    0.068895   -1.246259
siesta:      9    0.039829   -0.068895    1.246259
siesta:     10   -0.039835   -0.068996   -1.246384
siesta:     11    0.039835    0.068996    1.246384
siesta:     12    0.079579   -0.000046   -1.246259
siesta:     13   -0.079579    0.000046    1.246259
siesta:     14   -0.966625    1.674220   -0.000000
siesta:     15    0.966625   -1.674220   -0.000000
siesta:     16   -0.966624   -1.674241   -0.000000
siesta:     17    0.966624    1.674241   -0.000000
siesta:     18    1.933230   -0.000012   -0.000000
siesta:     19   -1.933230    0.000012   -0.000000
siesta: ----------------------------------------
siesta:    Tot    0.000000    0.000000    0.000000

siesta: Stress tensor (static) (eV/Ang**3):
siesta:    -1.786089   -0.000009   -0.000000
siesta:    -0.000009   -1.786100    0.000000
siesta:    -0.000000   -0.000000    0.282868

siesta: Cell volume =        136.094271 Ang**3

siesta: Pressure (static):
siesta:                Solid            Molecule  Units
siesta:           0.01194163          0.01103343  Ry/Bohr**3
siesta:           1.09644001          1.01305180  eV/Ang**3
siesta:        1756.70955375       1623.10546554  kBar
(Free)E+ p_basis*V_orbitals  =        -183.247581
(Free)Eharris+ p_basis*V_orbitals  =        -183.247586

cite: Please see "LiC18_scf.bib" for an exhaustive BiBTeX file.
cite: Please clearly indicate Siesta version in published work: 4.1.5
cite: This calculation has made use of the following articles
cite: which are encouraged to be cited in a published work.
        Primary SIESTA paper
          DOI: www.doi.org/10.1088/0953-8984/14/11/302

>> End of run:   9-NOV-2022  14:36:17
Job completed
