Siesta Version  : 4.1.5
Architecture    : x86_64-unknown-linux-gnu--unknown
Compiler version: GNU Fortran (GCC) 11.3.0
Compiler flags  : mpif90 -g -O2 -fallow-argument-mismatch
PP flags        : -DMPI -DFC_HAVE_FLUSH -DFC_HAVE_ABORT
Libraries       :  -I/global/software/sl-7.x86_64/modules/intel/2020.4.304/mkl/include  /globall/software/sl-7.x86_64/modules/intel/2020.4.304/mkl/lib/intel64/libmkl_scalapack_lp64.a -Wl,--start-group /global/software/sl-7.x86_64/modules/intel/2020.4.304/mkl/lib/intel64/libmkl_intel_lp64.a /global/software/sl-7.x86_64/modules/intel/2020.4.304/mkl/lib/intel64/libmkl_sequential.a /global/software/sl-7.x86_64/modules/intel/2020.4.304/mkl/lib/intel64/libmkl_core.a /global/software/sl-7.x86_64/modules/intel/2020.4.304/mkl/lib/intel64/libmkl_blacs_openmpi_lp64.a -Wl,--end-group -lpthread -lm -ldl
PARALLEL version

* Running on 16 nodes in parallel
>> Start of run:   9-NOV-2022  14:34:12

                           ***********************       
                           *  WELCOME TO SIESTA  *       
                           ***********************       

reinit: Reading from standard input
reinit: Dumped input in INPUT_TMP.27514
************************** Dump of input data file ****************************
SystemName LiC18_scf
SystemLabel LiC18_scf
NumberOfAtoms   19
NumberOfSpecies 2
%block ChemicalSpeciesLabel
1  3   Li-gga
2  6   C-gga
%endblock ChemicalSpeciesLabel
PAO.BasisSize  SZ
PAO.EnergyShift  10 meV
%block PS.Lmax
C-gga   2
Li-gga  2
%endblock PS.Lmax
LatticeConstant 1.000000 Ang
%block LatticeVectors
	4.3161300000	0.0000000000	0.0000000000
	-2.1580650000	3.7378782260	0.0000000000
	0.0000000000	0.0000000000	9.7676312800
%endblock LatticeVectors
AtomicCoordinatesFormat Ang
%block AtomicCoordinatesAndAtomicSpecies
	0.00000000	0.00000000	0.00000000	2
	-0.70288177	1.21742694	1.62794180	1
	-1.45518323	2.52045129	8.13968948	1
	1.45518323	2.52045129	1.62794180	1
	0.70288177	1.21742694	8.13968948	1
	1.40576354	0.00000000	1.62794180	1
	2.91036646	0.00000000	8.13968948	1
	-1.45518323	2.52045129	1.62794180	1
	-0.70288177	1.21742694	8.13968948	1
	0.70288177	1.21742694	1.62794180	1
	1.45518323	2.52045129	8.13968948	1
	2.91036646	0.00000000	1.62794180	1
	1.40576354	0.00000000	8.13968948	1
	-0.70288177	1.21742694	4.88381564	1
	-1.45518323	2.52045129	4.88381564	1
	1.45518323	2.52045129	4.88381564	1
	0.70288177	1.21742694	4.88381564	1
	1.40576354	0.00000000	4.88381564	1
	2.91036646	0.00000000	4.88381564	1
%endblock AtomicCoordinatesAndAtomicSpecies
Kgrid_NoTRS  T
%block kgrid_MonkhorstPack
2       0       0       0.0
0       2       0       0.0
0       0       2       0.0
%endblock kgrid_MonkhorstPack
AtomCoorFormatOut Ang
BlockSize 1
#ProcessorY 12
Diag.ParallelOverK   T
Diag.DivideAndConquer F
MeshCutoff   300 Ry
SCF.FreeE.Tolerance 1E-3 eV
SCF.EDM.Tolerance   5E-3 eV
DM.Tolerance  1E-3
DM.Require.Energy.Convergence T
DM.NumberPulay 4
XC.Functional GGA
XC.Authors    PBE
UseSaveData        F
MD.TypeOfRun       CG
MD.VariableCell    F
MD.NumCGsteps      00
MD.MaxCGDispl      0.200000 Bohr
MD.MaxStressTol    1.000000 GPa
MD.MaxForceTol     0.010000 eV/Ang
WriteMDHistory T
WriteCoorStep T
WriteForces T
WriteCoorStep    T
WriteEigenValues T
WriteDM    F
MM.UnitsDistance Ang  # what this program prints out DO NOT CHANGE
MM.UnitsEnergy    eV  # what this program prints out DO NOT CHANGE
MM.Grimme.S6     0.75 # Grimme-paper for PBE (correct for your functional)
MM.Grimme.D     20.   # Grimme-paper (correct for your functional)
%block MM.Potentials
  1   1 Grimme     16.69      1.650 # Li, 10.1002/jcc.20495
  1   2 Grimme     17.40      2.277 # Li / C
  2   2 Grimme     18.14      2.904 # C, 10.1002/jcc.20495
%endblock MM.Potentials
#%block ProjectedDensityOfStates
# -200.0  120.0  0.4  12800  eV
#%endblock ProjectedDensityOfStates
************************** End of input data file *****************************

reinit: -----------------------------------------------------------------------
reinit: System Name: LiC18_scf
reinit: -----------------------------------------------------------------------
reinit: System Label: LiC18_scf
reinit: -----------------------------------------------------------------------
Reading two-body potentials
Grimme - two-body potential between 1 and 1
Grimme - two-body potential between 1 and 2
Grimme - two-body potential between 2 and 2

initatom: Reading input for the pseudopotentials and atomic orbitals ----------
Species number:   1 Atomic number:    3 Label: Li-gga
Species number:   2 Atomic number:    6 Label: C-gga

Ground state valence configuration:   2s01
Reading pseudopotential information in formatted form from Li-gga.psf

Valence configuration for pseudopotential generation:
2s( 1.00) rc: 2.28
2p( 0.00) rc: 2.28
3d( 0.00) rc: 2.59
4f( 0.00) rc: 2.59
Ground state valence configuration:   2s02  2p02
Reading pseudopotential information in formatted form from C-gga.psf

Valence configuration for pseudopotential generation:
2s( 2.00) rc: 1.56
2p( 2.00) rc: 1.56
3d( 0.00) rc: 1.56
4f( 0.00) rc: 1.56
relmxkb: Read Max KB Ang. Momentum=    2 for species C-gga
relmxkb: Read Max KB Ang. Momentum=    2 for species Li-gga

<basis_specs>
===============================================================================
Li-gga               Z=   3    Mass=  6.9400        Charge= 0.17977+309
Lmxo=0 Lmxkb= 2    BasisType=split      Semic=F
L=0  Nsemic=0  Cnfigmx=2
          i=1  nzeta=1  polorb=0  (2s)
            splnorm:   0.15000    
               vcte:    0.0000    
               rinn:    0.0000    
               qcoe:    0.0000    
               qyuk:    0.0000    
               qwid:   0.10000E-01
                rcs:    0.0000    
            lambdas:    1.0000    
-------------------------------------------------------------------------------
L=0  Nkbl=1  erefs: 0.17977+309
L=1  Nkbl=1  erefs: 0.17977+309
L=2  Nkbl=1  erefs: 0.17977+309
===============================================================================
</basis_specs>

atom: Called for Li-gga                (Z =   3)

read_vps: Pseudopotential generation method:
read_vps: ATM 3.2.2 Troullier-Martins                       
Valence charge for ps generation:    1.00000

read_vps: Pseudopotential includes a core correction:
read_vps: Pseudo-core for xc-correction

xc_check: Exchange-correlation functional:
xc_check: GGA Perdew, Burke & Ernzerhof 1996
V l=0 = -2*Zval/r beyond r=  2.2278
V l=1 = -2*Zval/r beyond r=  2.2278
V l=2 = -2*Zval/r beyond r=  2.5245
All V_l potentials equal beyond r=  2.4622
This should be close to max(r_c) in ps generation
All pots = -2*Zval/r beyond r=  2.5245

VLOCAL1: 99.0% of the norm of Vloc inside      7.160 Ry
VLOCAL1: 99.9% of the norm of Vloc inside     16.318 Ry
atom: Maximum radius for 4*pi*r*r*local-pseudopot. charge    2.86079
atom: Maximum radius for r*vlocal+2*Zval:    2.43160
GHOST: No ghost state for L =  0
GHOST: No ghost state for L =  1
GHOST: No ghost state for L =  2

KBgen: Kleinman-Bylander projectors: 
   l= 0   rc=  2.654023   el= -0.211234   Ekb=  1.742119   kbcos=  0.228463
   l= 1   rc=  2.721230   el= -0.080095   Ekb= -1.122375   kbcos= -0.147941
   l= 2   rc=  2.825246   el=  0.002001   Ekb= -0.207076   kbcos= -0.031965

KBgen: Total number of Kleinman-Bylander projectors:    9
atom: -------------------------------------------------------------------------

atom: SANKEY-TYPE ORBITALS:

SPLIT: Orbitals with angular momentum L= 0

SPLIT: Basis orbitals for state 2s

SPLIT: PAO cut-off radius determined from an
SPLIT: energy shift=  0.000735 Ry

   izeta = 1
                 lambda =    1.000000
                     rc =   11.897381
                 energy =   -0.210580
                kinetic =    0.143382
    potential(screened) =   -0.353962
       potential(ionic) =   -0.533453
atom: Total number of Sankey-type orbitals:  1

atm_pop: Valence configuration (for local Pseudopot. screening):
 2s( 1.00)                                                            
Vna: chval, zval:    1.00000   1.00000

Vna:  Cut-off radius for the neutral-atom potential:  11.897381
comcore: Pseudo-core radius Rcore=  3.450946

atom: _________________________________________________________________________

<basis_specs>
===============================================================================
C-gga                Z=   6    Mass=  12.010        Charge= 0.17977+309
Lmxo=1 Lmxkb= 2    BasisType=split      Semic=F
L=0  Nsemic=0  Cnfigmx=2
          i=1  nzeta=1  polorb=0  (2s)
            splnorm:   0.15000    
               vcte:    0.0000    
               rinn:    0.0000    
               qcoe:    0.0000    
               qyuk:    0.0000    
               qwid:   0.10000E-01
                rcs:    0.0000    
            lambdas:    1.0000    
L=1  Nsemic=0  Cnfigmx=2
          i=1  nzeta=1  polorb=0  (2p)
            splnorm:   0.15000    
               vcte:    0.0000    
               rinn:    0.0000    
               qcoe:    0.0000    
               qyuk:    0.0000    
               qwid:   0.10000E-01
                rcs:    0.0000    
            lambdas:    1.0000    
-------------------------------------------------------------------------------
L=0  Nkbl=1  erefs: 0.17977+309
L=1  Nkbl=1  erefs: 0.17977+309
L=2  Nkbl=1  erefs: 0.17977+309
===============================================================================
</basis_specs>

atom: Called for C-gga                 (Z =   6)

read_vps: Pseudopotential generation method:
read_vps: ATM 3.2.2 Troullier-Martins                       
Valence charge for ps generation:    4.00000

xc_check: Exchange-correlation functional:
xc_check: GGA Perdew, Burke & Ernzerhof 1996
V l=0 = -2*Zval/r beyond r=  1.5227
V l=1 = -2*Zval/r beyond r=  1.5227
V l=2 = -2*Zval/r beyond r=  1.5227
All V_l potentials equal beyond r=  1.4851
This should be close to max(r_c) in ps generation
All pots = -2*Zval/r beyond r=  1.5227

VLOCAL1: 99.0% of the norm of Vloc inside     19.682 Ry
VLOCAL1: 99.9% of the norm of Vloc inside     44.856 Ry
atom: Maximum radius for 4*pi*r*r*local-pseudopot. charge    1.79142
atom: Maximum radius for r*vlocal+2*Zval:    1.54183
GHOST: No ghost state for L =  0
GHOST: No ghost state for L =  1
GHOST: No ghost state for L =  2

KBgen: Kleinman-Bylander projectors: 
   l= 0   rc=  1.661951   el= -1.010689   Ekb=  5.289847   kbcos=  0.316429
   l= 1   rc=  1.661951   el= -0.388490   Ekb= -4.102504   kbcos= -0.351025
   l= 2   rc=  1.747182   el=  0.001971   Ekb= -1.006005   kbcos= -0.008530

KBgen: Total number of Kleinman-Bylander projectors:    9
atom: -------------------------------------------------------------------------

atom: SANKEY-TYPE ORBITALS:

SPLIT: Orbitals with angular momentum L= 0

SPLIT: Basis orbitals for state 2s

SPLIT: PAO cut-off radius determined from an
SPLIT: energy shift=  0.000735 Ry

   izeta = 1
                 lambda =    1.000000
                     rc =    5.948690
                 energy =   -1.010099
                kinetic =    0.827121
    potential(screened) =   -1.837220
       potential(ionic) =   -5.392783

SPLIT: Orbitals with angular momentum L= 1

SPLIT: Basis orbitals for state 2p

SPLIT: PAO cut-off radius determined from an
SPLIT: energy shift=  0.000735 Ry

   izeta = 1
                 lambda =    1.000000
                     rc =    7.638387
                 energy =   -0.387843
                kinetic =    2.314739
    potential(screened) =   -2.702582
       potential(ionic) =   -6.092371
atom: Total number of Sankey-type orbitals:  4

atm_pop: Valence configuration (for local Pseudopot. screening):
 2s( 2.00)                                                            
 2p( 2.00)                                                            
Vna: chval, zval:    4.00000   4.00000

Vna:  Cut-off radius for the neutral-atom potential:   7.638387

atom: _________________________________________________________________________

prinput: Basis input ----------------------------------------------------------

PAO.BasisType split     

%block ChemicalSpeciesLabel
    1    3 Li-gga                  # Species index, atomic number, species label
    2    6 C-gga                   # Species index, atomic number, species label
%endblock ChemicalSpeciesLabel

%block PAO.Basis                 # Define Basis set
Li-gga                1                    # Species label, number of l-shells
 n=2   0   1                         # n, l, Nzeta 
  11.897   
   1.000   
C-gga                 2                    # Species label, number of l-shells
 n=2   0   1                         # n, l, Nzeta 
   5.949   
   1.000   
 n=2   1   1                         # n, l, Nzeta 
   7.638   
   1.000   
%endblock PAO.Basis

prinput: ----------------------------------------------------------------------

coor:   Atomic-coordinates input format  =     Cartesian coordinates
coor:                                          (in Angstroms)

siesta: Atomic coordinates (Bohr) and species
siesta:      0.00000   0.00000   0.00000  2        1
siesta:     -1.32825   2.30060   3.07637  1        2
siesta:     -2.74990   4.76296  15.38179  1        3
siesta:      2.74990   4.76296   3.07637  1        4
siesta:      1.32825   2.30060  15.38179  1        5
siesta:      2.65651   0.00000   3.07637  1        6
siesta:      5.49980   0.00000  15.38179  1        7
siesta:     -2.74990   4.76296   3.07637  1        8
siesta:     -1.32825   2.30060  15.38179  1        9
siesta:      1.32825   2.30060   3.07637  1       10
siesta:      2.74990   4.76296  15.38179  1       11
siesta:      5.49980   0.00000   3.07637  1       12
siesta:      2.65651   0.00000  15.38179  1       13
siesta:     -1.32825   2.30060   9.22908  1       14
siesta:     -2.74990   4.76296   9.22908  1       15
siesta:      2.74990   4.76296   9.22908  1       16
siesta:      1.32825   2.30060   9.22908  1       17
siesta:      2.65651   0.00000   9.22908  1       18
siesta:      5.49980   0.00000   9.22908  1       19

siesta: System type = bulk      

initatomlists: Number of atoms, orbitals, and projectors:     19    22   171

siesta: ******************** Simulation parameters ****************************
siesta:
siesta: The following are some of the parameters of the simulation.
siesta: A complete list of the parameters used, including default values,
siesta: can be found in file out.fdf
siesta:
redata: Spin configuration                          = none
redata: Number of spin components                   = 1
redata: Time-Reversal Symmetry                      = T
redata: Spin spiral                                 = F
redata: Long output                                 =   F
redata: Number of Atomic Species                    =        2
redata: Charge density info will appear in .RHO file
redata: Write Mulliken Pop.                         = NO
redata: Matel table size (NRTAB)                    =     1024
redata: Mesh Cutoff                                 =   300.0000 Ry
redata: Net charge of the system                    =     0.0000 |e|
redata: Min. number of SCF Iter                     =        0
redata: Max. number of SCF Iter                     =     1000
redata: SCF convergence failure will abort job
redata: SCF mix quantity                            = Hamiltonian
redata: Mix DM or H after convergence               =   F
redata: Recompute H after scf cycle                 =   F
redata: Mix DM in first SCF step                    =   T
redata: Write Pulay info on disk                    =   F
redata: New DM Occupancy tolerance                  = 0.000000000001
redata: No kicks to SCF
redata: DM Mixing Weight for Kicks                  =     0.5000
redata: Require Harris convergence for SCF          =   F
redata: Harris energy tolerance for SCF             =     0.000100 eV
redata: Require DM convergence for SCF              =   T
redata: DM tolerance for SCF                        =     0.001000
redata: Require EDM convergence for SCF             =   F
redata: EDM tolerance for SCF                       =     0.005000 eV
redata: Require H convergence for SCF               =   T
redata: Hamiltonian tolerance for SCF               =     0.001000 eV
redata: Require (free) Energy convergence for SCF   =   T
redata: (free) Energy tolerance for SCF             =     0.001000 eV
redata: Using Saved Data (generic)                  =   F
redata: Use continuation files for DM               =   F
redata: Neglect nonoverlap interactions             =   F
redata: Method of Calculation                       = Diagonalization
redata: Electronic Temperature                      =   299.9869 K
redata: Fix the spin of the system                  =   F
redata: Dynamics option                             = Single-point calculation
mix.SCF: Pulay mixing                            = Pulay
mix.SCF:    Variant                              = stable
mix.SCF:    History steps                        = 4
mix.SCF:    Linear mixing weight                 =     0.250000
mix.SCF:    Mixing weight                        =     0.250000
mix.SCF:    SVD condition                        = 0.1000E-07
redata: ***********************************************************************

%block SCF.Mixers
  Pulay
%endblock SCF.Mixers

%block SCF.Mixer.Pulay
  # Mixing method
  method pulay
  variant stable

  # Mixing options
  weight 0.2500
  weight.linear 0.2500
  history 4
%endblock SCF.Mixer.Pulay

DM_history_depth set to one: no extrapolation allowed by default for geometry relaxation
Size of DM history Fstack: 1
Total number of electrons:    22.000000
Total ionic charge:    22.000000

* ProcessorY, Blocksize:    4   1


* Orbital distribution balance (max,min):     2     1

k-point displ. along   1 input, could be:     0.00    0.50
k-point displ. along   2 input, could be:     0.00    0.50
k-point displ. along   3 input, could be:     0.00    0.50
 Kpoints in:            8 . Kpoints trimmed:            8

siesta: k-grid: Number of k-points =     8
siesta: k-grid: Cutoff (effective) =     4.316 Ang
siesta: k-grid: Supercell and displacements
siesta: k-grid:    2   0   0      0.000
siesta: k-grid:    0   2   0      0.000
siesta: k-grid:    0   0   2      0.000

diag: Algorithm                                     = Expert
diag: Parallel over k                               =   T
diag: Use parallel 2D distribution                  =   T
diag: Parallel block-size                           = 1
diag: Parallel distribution                         =     4 x     4
diag: Used triangular part                          = Lower
diag: Absolute tolerance                            =  0.100E-15
diag: Orthogonalization factor                      =  0.100E-05
diag: Memory factor                                 =  1.0000

superc: Internal auxiliary supercell:     9 x     9 x     5  =     405
superc: Number of atoms, orbitals, and projectors:   7695   8910  69255


ts: **************************************************************
ts: Save H and S matrices                           =    F
ts: Save DM and EDM matrices                        =    F
ts: Only save the overlap matrix S                  =    F
ts: **************************************************************

************************ Begin: TS CHECKS AND WARNINGS ************************
************************ End: TS CHECKS AND WARNINGS **************************


                     ====================================
                        Single-point calculation
                     ====================================

outcoor: Atomic coordinates (Ang):                          
    0.00000000    0.00000000    0.00000000   2       1  C-gga
   -0.70288177    1.21742694    1.62794180   1       2  Li-gga
   -1.45518323    2.52045129    8.13968948   1       3  Li-gga
    1.45518323    2.52045129    1.62794180   1       4  Li-gga
    0.70288177    1.21742694    8.13968948   1       5  Li-gga
    1.40576354    0.00000000    1.62794180   1       6  Li-gga
    2.91036646    0.00000000    8.13968948   1       7  Li-gga
   -1.45518323    2.52045129    1.62794180   1       8  Li-gga
   -0.70288177    1.21742694    8.13968948   1       9  Li-gga
    0.70288177    1.21742694    1.62794180   1      10  Li-gga
    1.45518323    2.52045129    8.13968948   1      11  Li-gga
    2.91036646    0.00000000    1.62794180   1      12  Li-gga
    1.40576354    0.00000000    8.13968948   1      13  Li-gga
   -0.70288177    1.21742694    4.88381564   1      14  Li-gga
   -1.45518323    2.52045129    4.88381564   1      15  Li-gga
    1.45518323    2.52045129    4.88381564   1      16  Li-gga
    0.70288177    1.21742694    4.88381564   1      17  Li-gga
    1.40576354    0.00000000    4.88381564   1      18  Li-gga
    2.91036646    0.00000000    4.88381564   1      19  Li-gga

superc: Internal auxiliary supercell:     9 x     9 x     5  =     405
superc: Number of atoms, orbitals, and projectors:   7695   8910  69255

outcell: Unit cell vectors (Ang):
        4.316130    0.000000    0.000000
       -2.158065    3.737878    0.000000
        0.000000    0.000000    9.767631

outcell: Cell vector modules (Ang)   :    4.316130    4.316130    9.767631
outcell: Cell angles (23,13,12) (deg):     90.0000     90.0000    120.0000
outcell: Cell volume (Ang**3)        :    157.5828
<dSpData1D:S at geom step 0
  <sparsity:sparsity for geom step 0
    nrows_g=22 nrows=2 sparsity=5.2665 nnzs=2549, refcount: 7>
  <dData1D:(new from dSpData1D) n=2549, refcount: 1>
refcount: 1>
new_DM -- step:     1
Initializing Density Matrix...
DM filled with atomic data:
<dSpData2D:DM initialized from atoms
  <sparsity:sparsity for geom step 0
    nrows_g=22 nrows=2 sparsity=5.2665 nnzs=2549, refcount: 8>
  <dData2D:DM n=2549 m=1, refcount: 1>
refcount: 1>
No. of atoms with KB's overlaping orbs in proc 0. Max # of overlaps:     246     249
New grid distribution:   1
           1       1:   20    1:    5    1:   14
           2       1:   20    1:    5   15:   28
           3       1:   20    1:    5   29:   41
           4       1:   20    1:    5   42:   54
           5       1:   20    6:   10    1:   14
           6       1:   20    6:   10   15:   28
           7       1:   20    6:   10   29:   41
           8       1:   20    6:   10   42:   54
           9       1:   20   11:   15    1:   14
          10       1:   20   11:   15   15:   28
          11       1:   20   11:   15   29:   41
          12       1:   20   11:   15   42:   54
          13       1:   20   16:   20    1:   14
          14       1:   20   16:   20   15:   28
          15       1:   20   16:   20   29:   41
          16       1:   20   16:   20   42:   54

InitMesh: MESH =    40 x    40 x   108 =      172800
InitMesh: (bp) =    20 x    20 x    54 =       21600
InitMesh: Mesh cutoff (required, used) =   300.000   316.498 Ry
ExtMesh (bp) on 0 =   156 x   141 x   154 =     3387384
New grid distribution:   2
           1      11:   20    1:   10    1:   13
           2      11:   20    1:   10   14:   27
           3       1:   10    1:   10   28:   41
           4       1:   10    1:   10   42:   54
           5       1:   10    1:   10    1:   13
           6       1:   10    1:   10   14:   27
           7      11:   20    1:   10   28:   41
           8      11:   20    1:   10   42:   54
           9      11:   20   11:   20    1:   13
          10      11:   20   11:   20   14:   27
          11       1:   10   11:   20   28:   41
          12       1:   10   11:   20   42:   54
          13       1:   10   11:   20    1:   13
          14       1:   10   11:   20   14:   27
          15      11:   20   11:   20   28:   41
          16      11:   20   11:   20   42:   54
New grid distribution:   3
           1       1:   10    1:   10    1:   14
           2      11:   20    1:   10   15:   27
           3      11:   20    1:   10   28:   41
           4       1:   10    1:   10   42:   54
           5      11:   20    1:   10    1:   14
           6       1:   10    1:   10   15:   27
           7       1:   10    1:   10   28:   41
           8      11:   20    1:   10   42:   54
           9       1:   10   11:   20    1:   14
          10      11:   20   11:   20   15:   27
          11      11:   20   11:   20   28:   41
          12       1:   10   11:   20   42:   54
          13      11:   20   11:   20    1:   14
          14       1:   10   11:   20   15:   27
          15       1:   10   11:   20   28:   41
          16      11:   20   11:   20   42:   54
Setting up quadratic distribution...
ExtMesh (bp) on 0 =   146 x   146 x   153 =     3261348
PhiOnMesh: Number of (b)points on node 0 =                 1300
PhiOnMesh: nlist on node 0 =               174161

stepf: Fermi-Dirac step function

siesta: Program's energy decomposition (eV):
siesta: Ebs     =      -101.691578
siesta: Eions   =       439.895300
siesta: Ena     =       128.567788
siesta: Ekin    =       328.898897
siesta: Enl     =        54.761648
siesta: Eso     =         0.000000
siesta: Edftu   =         0.000000
siesta: DEna    =       -52.681046
siesta: DUscf   =        49.960065
siesta: DUext   =         0.000000
siesta: Exc     =      -238.097207
siesta: eta*DQ  =         0.000000
siesta: Emadel  =         0.000000
siesta: Emeta   =         0.000000
siesta: Emolmec =        -8.653994
siesta: Ekinion =         0.000000
siesta: Eharris =       -31.236459
siesta: Etot    =      -177.139149
siesta: FreeEng =      -177.151865

        iscf     Eharris(eV)        E_KS(eV)     FreeEng(eV)     dDmax    Ef(eV) dHmax(eV)
   scf:    1      -31.236459     -177.139149     -177.151865  9.477941 -5.615719 29.655218
timer: Routine,Calls,Time,% = IterSCF        1       0.695  14.43
   scf:    2     -209.372172     -195.626853     -195.639209  4.678905 -6.075717 12.399195
   scf:    3     -194.224492     -199.166127     -199.179059  5.021634 -2.360846  5.571558
   scf:    4     -159.084992     -187.766952     -187.779297  9.090446 -5.412467 20.529163
   scf:    5     -201.782932     -200.654154     -200.666812  4.555655 -2.696178  1.559488
   scf:    6     -198.911398     -200.303977     -200.316361  2.183104 -2.959488  3.354788
   scf:    7     -200.812244     -200.589089     -200.609883  0.505108 -2.767660  2.033412
   scf:    8     -198.274284     -200.114171     -200.126515  2.205582 -2.510429  4.425333
   scf:    9     -201.002600     -200.621424     -200.633796  0.568509 -2.638134  1.994891
   scf:   10     -200.574124     -200.598088     -200.610435  0.041907 -2.629961  2.167527
   scf:   11     -200.705762     -200.653996     -200.666757  0.107399 -2.651061  1.729657
   scf:   12     -198.775278     -200.268641     -200.280984  2.141061 -3.054096  3.488648
   scf:   13     -199.994242     -200.134590     -200.146931  0.128185 -3.252369  4.049126
   scf:   14     -200.102553     -200.118610     -200.130951  0.014305 -3.273265  4.110923
   scf:   15     -200.938486     -200.595354     -200.615932  0.678053 -2.756808  1.934376
   scf:   16     -199.975854     -200.316092     -200.328453  0.477696 -2.980346  3.275551
   scf:   17     -199.777025     -200.615003     -200.627369  2.154248 -2.635618  2.050547
   scf:   18     -200.834277     -200.750992     -200.771050  0.440084 -2.682945  0.794025
   scf:   19     -200.734044     -200.772038     -200.796542  0.507901 -2.709941  0.329340
   scf:   20     -200.749830     -200.772646     -200.795081  0.320063 -2.693113  0.375432
   scf:   21     -200.578091     -200.723093     -200.747349  0.648612 -2.728849  1.044439
   scf:   22     -200.711055     -200.769942     -200.791991  0.682474 -2.692729  0.449397
   scf:   23     -200.778568     -200.778252     -200.801953  0.187404 -2.703145  0.036066
   scf:   24     -200.777891     -200.778143     -200.802003  0.025085 -2.704671  0.018886
   scf:   25     -200.778286     -200.778236     -200.802013  0.013818 -2.704059  0.011723
   scf:   26     -200.778162     -200.778203     -200.802020  0.006280 -2.704398  0.001991
   scf:   27     -200.778213     -200.778208     -200.802020  0.000767 -2.704319  0.000232

SCF Convergence by FreeE+DM+H criterion
|FreeE_i-FreeE_(i-1)| (eV) <     0.00100000
max |DM_out - DM_in|         :     0.0007666886
max |H_out - H_in|      (eV) :     0.0002319494
SCF cycle converged after 27 iterations

Using DM_out to compute the final energy and forces
No. of atoms with KB's overlaping orbs in proc 0. Max # of overlaps:     246     249

MM-Stress (kbar):      -13.65      -13.65       36.54        0.00       -0.00       -0.00

siesta: E_KS(eV) =             -200.7782

siesta: E_KS - E_eggbox =      -200.7782

siesta: Atomic forces (eV/Ang):
     1   -0.000000   -0.000000    0.000000
     2    0.062634   -0.108310   -1.312750
     3   -0.062634    0.108310    1.312750
     4    0.062653    0.108518   -1.312565
     5   -0.062653   -0.108518    1.312565
     6   -0.125116    0.000088   -1.312750
     7    0.125116   -0.000088    1.312750
     8   -0.062634    0.108310   -1.312750
     9    0.062634   -0.108310    1.312750
    10   -0.062653   -0.108518   -1.312565
    11    0.062653    0.108518    1.312565
    12    0.125116   -0.000088   -1.312750
    13   -0.125116    0.000088    1.312750
    14   -0.637776    1.104614   -0.000000
    15    0.637776   -1.104614   -0.000000
    16   -0.637785   -1.104676   -0.000000
    17    0.637785    1.104676   -0.000000
    18    1.275511   -0.000023   -0.000000
    19   -1.275511    0.000023   -0.000000
----------------------------------------
   Tot   -0.000000    0.000000    0.000000
----------------------------------------
   Max    1.312750
   Res    0.733027    sqrt( Sum f_i^2 / 3N )
----------------------------------------
   Max    1.312750    constrained

Stress tensor Voigt[x,y,z,yz,xz,xy] (kbar):    -2571.81    -2571.80      511.51       -0.00       -0.00        0.00
(Free)E + p*V (eV/cell)      -48.9393
Target enthalpy (eV/cell)     -200.8020

siesta: Eigenvalues (eV):
  ik is       eps
   1  1  -17.4954  -16.1009  -15.2580   -8.3383   -6.2705   -6.0212   -6.0212   -1.6516   -1.6515   -0.7677
          -0.7677    6.3340    6.3340    7.9290    7.9290    8.7902    8.7903   22.1589   22.3977   22.3980
   24.1390   24.1837
   2  1  -16.1018  -15.9359  -15.2114  -13.8750  -13.7885  -13.5331   -9.6310   -8.8852   -7.8369   -6.9095
          -6.4088   -6.3059   -2.6737    0.3033    1.3101    3.2086   16.4423   16.7614   18.2639   18.4457
   18.8572   19.2605
   3  1  -16.1018  -15.9359  -15.2114  -13.8750  -13.7885  -13.5331   -9.6310   -8.8852   -7.8369   -6.9095
          -6.4088   -6.3059   -2.6737    0.3033    1.3101    3.2086   16.4423   16.7614   18.2639   18.4457
   18.8572   19.2605
   4  1  -16.1018  -15.9359  -15.2114  -13.8750  -13.7885  -13.5332   -9.6310   -8.8852   -7.8369   -6.9095
          -6.4088   -6.3058   -2.6736    0.3033    1.3101    3.2084   16.4422   16.7614   18.2638   18.4458
   18.8571   19.2605
   5  1  -17.4453  -16.6280  -12.4984  -10.0431   -5.9723   -5.9723   -5.0345   -1.9341   -1.9341   -0.8793
          -0.8792    1.0991    1.0992    9.6060    9.6063   22.1663   24.0898   24.2255   27.1534   27.1535
   27.5343   27.5343
   6  1  -15.9579  -15.9351  -15.6604  -14.2833  -12.1011  -12.0392   -9.7472   -9.5820   -8.8183   -7.6835
          -4.2082   -3.8063   -2.6973   -1.6133    0.0979    4.9987   16.3389   16.6107   18.3156   18.5499
   18.9644   19.3104
   7  1  -15.9579  -15.9351  -15.6604  -14.2833  -12.1011  -12.0392   -9.7472   -9.5820   -8.8183   -7.6835
          -4.2082   -3.8063   -2.6973   -1.6133    0.0979    4.9987   16.3389   16.6107   18.3156   18.5499
   18.9644   19.3104
   8  1  -15.9579  -15.9351  -15.6604  -14.2833  -12.1011  -12.0392   -9.7472   -9.5820   -8.8183   -7.6835
          -4.2082   -3.8061   -2.6973   -1.6133    0.0977    4.9987   16.3388   16.6107   18.3155   18.5500
   18.9643   19.3104
siesta: Fermi energy =      -2.704319 eV

siesta: Program's energy decomposition (eV):
siesta: Ebs     =      -236.802316
siesta: Eions   =       439.895300
siesta: Ena     =       128.567788
siesta: Ekin    =       277.748205
siesta: Enl     =        73.149764
siesta: Eso     =         0.000000
siesta: Edftu   =         0.000000
siesta: DEna    =       -17.171605
siesta: DUscf   =         8.884791
siesta: DUext   =         0.000000
siesta: Exc     =      -223.407856
siesta: eta*DQ  =         0.000000
siesta: Emadel  =         0.000000
siesta: Emeta   =         0.000000
siesta: Emolmec =        -8.653994
siesta: Ekinion =         0.000000
siesta: Eharris =      -200.778213
siesta: Etot    =      -200.778208
siesta: FreeEng =      -200.802020

siesta: Final energy (eV):
siesta:  Band Struct. =    -236.802316
siesta:       Kinetic =     277.748205
siesta:       Hartree =     138.622754
siesta:       Edftu   =       0.000000
siesta:       Eso     =       0.000000
siesta:    Ext. field =       0.000000
siesta:   Exch.-corr. =    -223.407856
siesta:  Ion-electron =    -562.698387
siesta:       Ion-ion =     177.611070
siesta:       Ekinion =       0.000000
siesta:         Total =    -200.778208
siesta:         Fermi =      -2.704319

siesta: Atomic forces (eV/Ang):
siesta:      1   -0.000000   -0.000000    0.000000
siesta:      2    0.062634   -0.108310   -1.312750
siesta:      3   -0.062634    0.108310    1.312750
siesta:      4    0.062653    0.108518   -1.312565
siesta:      5   -0.062653   -0.108518    1.312565
siesta:      6   -0.125116    0.000088   -1.312750
siesta:      7    0.125116   -0.000088    1.312750
siesta:      8   -0.062634    0.108310   -1.312750
siesta:      9    0.062634   -0.108310    1.312750
siesta:     10   -0.062653   -0.108518   -1.312565
siesta:     11    0.062653    0.108518    1.312565
siesta:     12    0.125116   -0.000088   -1.312750
siesta:     13   -0.125116    0.000088    1.312750
siesta:     14   -0.637776    1.104614   -0.000000
siesta:     15    0.637776   -1.104614   -0.000000
siesta:     16   -0.637785   -1.104676   -0.000000
siesta:     17    0.637785    1.104676   -0.000000
siesta:     18    1.275511   -0.000023   -0.000000
siesta:     19   -1.275511    0.000023   -0.000000
siesta: ----------------------------------------
siesta:    Tot   -0.000000    0.000000    0.000000

siesta: Stress tensor (static) (eV/Ang**3):
siesta:    -1.605179    0.000002   -0.000000
siesta:     0.000002   -1.605176   -0.000000
siesta:    -0.000000   -0.000000    0.319253

siesta: Cell volume =        157.582840 Ang**3

siesta: Pressure (static):
siesta:                Solid            Molecule  Units
siesta:           0.01049593          0.00942097  Ry/Bohr**3
siesta:           0.96370073          0.86500145  eV/Ang**3
siesta:        1544.03547894       1385.90008500  kBar
(Free)E+ p_basis*V_orbitals  =        -176.806309
(Free)Eharris+ p_basis*V_orbitals  =        -176.806313

cite: Please see "LiC18_scf.bib" for an exhaustive BiBTeX file.
cite: Please clearly indicate Siesta version in published work: 4.1.5
cite: This calculation has made use of the following articles
cite: which are encouraged to be cited in a published work.
        Primary SIESTA paper
          DOI: www.doi.org/10.1088/0953-8984/14/11/302

>> End of run:   9-NOV-2022  14:34:29
Job completed
