Siesta Version  : 4.1.5
Architecture    : x86_64-unknown-linux-gnu--unknown
Compiler version: GNU Fortran (GCC) 11.3.0
Compiler flags  : mpif90 -g -O2 -fallow-argument-mismatch
PP flags        : -DMPI -DFC_HAVE_FLUSH -DFC_HAVE_ABORT
Libraries       :  -I/global/software/sl-7.x86_64/modules/intel/2020.4.304/mkl/include  /globall/software/sl-7.x86_64/modules/intel/2020.4.304/mkl/lib/intel64/libmkl_scalapack_lp64.a -Wl,--start-group /global/software/sl-7.x86_64/modules/intel/2020.4.304/mkl/lib/intel64/libmkl_intel_lp64.a /global/software/sl-7.x86_64/modules/intel/2020.4.304/mkl/lib/intel64/libmkl_sequential.a /global/software/sl-7.x86_64/modules/intel/2020.4.304/mkl/lib/intel64/libmkl_core.a /global/software/sl-7.x86_64/modules/intel/2020.4.304/mkl/lib/intel64/libmkl_blacs_openmpi_lp64.a -Wl,--end-group -lpthread -lm -ldl
PARALLEL version

* Running on 12 nodes in parallel
>> Start of run:   9-NOV-2022  14:55:50

                           ***********************       
                           *  WELCOME TO SIESTA  *       
                           ***********************       

reinit: Reading from standard input
reinit: Dumped input in INPUT_TMP.17402
************************** Dump of input data file ****************************
SystemName LiC12_scf
SystemLabel LiC12_scf
NumberOfAtoms   13
NumberOfSpecies 2
%block ChemicalSpeciesLabel
1  3   Li-gga
2  6   C-gga
%endblock ChemicalSpeciesLabel
PAO.BasisSize  SZ
PAO.EnergyShift  10 meV
%block PS.Lmax
C-gga   2
Li-gga  2
%endblock PS.Lmax
LatticeConstant 1.000000 Ang
%block LatticeVectors
	4.2686000000	0.0000000000	0.0000000000
	-2.1343000000	3.6967160386	0.0000000000
	0.0000000000	0.0000000000	8.8488540000
%endblock LatticeVectors
AtomicCoordinatesFormat Ang
%block AtomicCoordinatesAndAtomicSpecies
	0.00000000	0.00000000	0.00000000	2
	1.42144380	0.00000000	2.21221350	1
	2.84715620	0.00000000	6.63664050	1
	-0.71072190	1.23100644	2.21221350	1
	-1.42357810	2.46570960	6.63664050	1
	1.42357810	2.46570960	2.21221350	1
	0.71072190	1.23100644	6.63664050	1
	2.84715620	0.00000000	2.21221350	1
	1.42144380	0.00000000	6.63664050	1
	-1.42357810	2.46570960	2.21221350	1
	-0.71072190	1.23100644	6.63664050	1
	0.71072190	1.23100644	2.21221350	1
	1.42357810	2.46570960	6.63664050	1
%endblock AtomicCoordinatesAndAtomicSpecies
Kgrid_NoTRS  T
%block kgrid_MonkhorstPack
4       0       0       0.0
0       4       0       0.0
0       0       4       0.0
%endblock kgrid_MonkhorstPack
AtomCoorFormatOut Ang
BlockSize 1
#ProcessorY 12
Diag.ParallelOverK   T
Diag.DivideAndConquer F
MeshCutoff   300 Ry
SCF.FreeE.Tolerance 1E-3 eV
SCF.EDM.Tolerance   5E-3 eV
DM.Tolerance  1E-3
DM.Require.Energy.Convergence T
DM.NumberPulay 4
XC.Functional GGA
XC.Authors    PBE
UseSaveData        F
MD.TypeOfRun       CG
MD.VariableCell    F
MD.NumCGsteps      00
MD.MaxCGDispl      0.200000 Bohr
MD.MaxStressTol    1.000000 GPa
MD.MaxForceTol     0.010000 eV/Ang
WriteMDHistory T
WriteCoorStep T
WriteForces T
WriteCoorStep    T
WriteEigenValues T
WriteDM    F
MM.UnitsDistance Ang  # what this program prints out DO NOT CHANGE
MM.UnitsEnergy    eV  # what this program prints out DO NOT CHANGE
MM.Grimme.S6     0.75 # Grimme-paper for PBE (correct for your functional)
MM.Grimme.D     20.   # Grimme-paper (correct for your functional)
%block MM.Potentials
  1   1 Grimme     16.69      1.650 # Li, 10.1002/jcc.20495
  1   2 Grimme     17.40      2.277 # Li / C
  2   2 Grimme     18.14      2.904 # C, 10.1002/jcc.20495
%endblock MM.Potentials
#%block ProjectedDensityOfStates
# -200.0  120.0  0.4  12800  eV
#%endblock ProjectedDensityOfStates
************************** End of input data file *****************************

reinit: -----------------------------------------------------------------------
reinit: System Name: LiC12_scf
reinit: -----------------------------------------------------------------------
reinit: System Label: LiC12_scf
reinit: -----------------------------------------------------------------------
Reading two-body potentials
Grimme - two-body potential between 1 and 1
Grimme - two-body potential between 1 and 2
Grimme - two-body potential between 2 and 2

initatom: Reading input for the pseudopotentials and atomic orbitals ----------
Species number:   1 Atomic number:    3 Label: Li-gga
Species number:   2 Atomic number:    6 Label: C-gga

Ground state valence configuration:   2s01
Reading pseudopotential information in formatted form from Li-gga.psf

Valence configuration for pseudopotential generation:
2s( 1.00) rc: 2.28
2p( 0.00) rc: 2.28
3d( 0.00) rc: 2.59
4f( 0.00) rc: 2.59
Ground state valence configuration:   2s02  2p02
Reading pseudopotential information in formatted form from C-gga.psf

Valence configuration for pseudopotential generation:
2s( 2.00) rc: 1.56
2p( 2.00) rc: 1.56
3d( 0.00) rc: 1.56
4f( 0.00) rc: 1.56
relmxkb: Read Max KB Ang. Momentum=    2 for species C-gga
relmxkb: Read Max KB Ang. Momentum=    2 for species Li-gga

<basis_specs>
===============================================================================
Li-gga               Z=   3    Mass=  6.9400        Charge= 0.17977+309
Lmxo=0 Lmxkb= 2    BasisType=split      Semic=F
L=0  Nsemic=0  Cnfigmx=2
          i=1  nzeta=1  polorb=0  (2s)
            splnorm:   0.15000    
               vcte:    0.0000    
               rinn:    0.0000    
               qcoe:    0.0000    
               qyuk:    0.0000    
               qwid:   0.10000E-01
                rcs:    0.0000    
            lambdas:    1.0000    
-------------------------------------------------------------------------------
L=0  Nkbl=1  erefs: 0.17977+309
L=1  Nkbl=1  erefs: 0.17977+309
L=2  Nkbl=1  erefs: 0.17977+309
===============================================================================
</basis_specs>

atom: Called for Li-gga                (Z =   3)

read_vps: Pseudopotential generation method:
read_vps: ATM 3.2.2 Troullier-Martins                       
Valence charge for ps generation:    1.00000

read_vps: Pseudopotential includes a core correction:
read_vps: Pseudo-core for xc-correction

xc_check: Exchange-correlation functional:
xc_check: GGA Perdew, Burke & Ernzerhof 1996
V l=0 = -2*Zval/r beyond r=  2.2278
V l=1 = -2*Zval/r beyond r=  2.2278
V l=2 = -2*Zval/r beyond r=  2.5245
All V_l potentials equal beyond r=  2.4622
This should be close to max(r_c) in ps generation
All pots = -2*Zval/r beyond r=  2.5245

VLOCAL1: 99.0% of the norm of Vloc inside      7.160 Ry
VLOCAL1: 99.9% of the norm of Vloc inside     16.318 Ry
atom: Maximum radius for 4*pi*r*r*local-pseudopot. charge    2.86079
atom: Maximum radius for r*vlocal+2*Zval:    2.43160
GHOST: No ghost state for L =  0
GHOST: No ghost state for L =  1
GHOST: No ghost state for L =  2

KBgen: Kleinman-Bylander projectors: 
   l= 0   rc=  2.654023   el= -0.211234   Ekb=  1.742119   kbcos=  0.228463
   l= 1   rc=  2.721230   el= -0.080095   Ekb= -1.122375   kbcos= -0.147941
   l= 2   rc=  2.825246   el=  0.002001   Ekb= -0.207076   kbcos= -0.031965

KBgen: Total number of Kleinman-Bylander projectors:    9
atom: -------------------------------------------------------------------------

atom: SANKEY-TYPE ORBITALS:

SPLIT: Orbitals with angular momentum L= 0

SPLIT: Basis orbitals for state 2s

SPLIT: PAO cut-off radius determined from an
SPLIT: energy shift=  0.000735 Ry

   izeta = 1
                 lambda =    1.000000
                     rc =   11.897381
                 energy =   -0.210580
                kinetic =    0.143382
    potential(screened) =   -0.353962
       potential(ionic) =   -0.533453
atom: Total number of Sankey-type orbitals:  1

atm_pop: Valence configuration (for local Pseudopot. screening):
 2s( 1.00)                                                            
Vna: chval, zval:    1.00000   1.00000

Vna:  Cut-off radius for the neutral-atom potential:  11.897381
comcore: Pseudo-core radius Rcore=  3.450946

atom: _________________________________________________________________________

<basis_specs>
===============================================================================
C-gga                Z=   6    Mass=  12.010        Charge= 0.17977+309
Lmxo=1 Lmxkb= 2    BasisType=split      Semic=F
L=0  Nsemic=0  Cnfigmx=2
          i=1  nzeta=1  polorb=0  (2s)
            splnorm:   0.15000    
               vcte:    0.0000    
               rinn:    0.0000    
               qcoe:    0.0000    
               qyuk:    0.0000    
               qwid:   0.10000E-01
                rcs:    0.0000    
            lambdas:    1.0000    
L=1  Nsemic=0  Cnfigmx=2
          i=1  nzeta=1  polorb=0  (2p)
            splnorm:   0.15000    
               vcte:    0.0000    
               rinn:    0.0000    
               qcoe:    0.0000    
               qyuk:    0.0000    
               qwid:   0.10000E-01
                rcs:    0.0000    
            lambdas:    1.0000    
-------------------------------------------------------------------------------
L=0  Nkbl=1  erefs: 0.17977+309
L=1  Nkbl=1  erefs: 0.17977+309
L=2  Nkbl=1  erefs: 0.17977+309
===============================================================================
</basis_specs>

atom: Called for C-gga                 (Z =   6)

read_vps: Pseudopotential generation method:
read_vps: ATM 3.2.2 Troullier-Martins                       
Valence charge for ps generation:    4.00000

xc_check: Exchange-correlation functional:
xc_check: GGA Perdew, Burke & Ernzerhof 1996
V l=0 = -2*Zval/r beyond r=  1.5227
V l=1 = -2*Zval/r beyond r=  1.5227
V l=2 = -2*Zval/r beyond r=  1.5227
All V_l potentials equal beyond r=  1.4851
This should be close to max(r_c) in ps generation
All pots = -2*Zval/r beyond r=  1.5227

VLOCAL1: 99.0% of the norm of Vloc inside     19.682 Ry
VLOCAL1: 99.9% of the norm of Vloc inside     44.856 Ry
atom: Maximum radius for 4*pi*r*r*local-pseudopot. charge    1.79142
atom: Maximum radius for r*vlocal+2*Zval:    1.54183
GHOST: No ghost state for L =  0
GHOST: No ghost state for L =  1
GHOST: No ghost state for L =  2

KBgen: Kleinman-Bylander projectors: 
   l= 0   rc=  1.661951   el= -1.010689   Ekb=  5.289847   kbcos=  0.316429
   l= 1   rc=  1.661951   el= -0.388490   Ekb= -4.102504   kbcos= -0.351025
   l= 2   rc=  1.747182   el=  0.001971   Ekb= -1.006005   kbcos= -0.008530

KBgen: Total number of Kleinman-Bylander projectors:    9
atom: -------------------------------------------------------------------------

atom: SANKEY-TYPE ORBITALS:

SPLIT: Orbitals with angular momentum L= 0

SPLIT: Basis orbitals for state 2s

SPLIT: PAO cut-off radius determined from an
SPLIT: energy shift=  0.000735 Ry

   izeta = 1
                 lambda =    1.000000
                     rc =    5.948690
                 energy =   -1.010099
                kinetic =    0.827121
    potential(screened) =   -1.837220
       potential(ionic) =   -5.392783

SPLIT: Orbitals with angular momentum L= 1

SPLIT: Basis orbitals for state 2p

SPLIT: PAO cut-off radius determined from an
SPLIT: energy shift=  0.000735 Ry

   izeta = 1
                 lambda =    1.000000
                     rc =    7.638387
                 energy =   -0.387843
                kinetic =    2.314739
    potential(screened) =   -2.702582
       potential(ionic) =   -6.092371
atom: Total number of Sankey-type orbitals:  4

atm_pop: Valence configuration (for local Pseudopot. screening):
 2s( 2.00)                                                            
 2p( 2.00)                                                            
Vna: chval, zval:    4.00000   4.00000

Vna:  Cut-off radius for the neutral-atom potential:   7.638387

atom: _________________________________________________________________________

prinput: Basis input ----------------------------------------------------------

PAO.BasisType split     

%block ChemicalSpeciesLabel
    1    3 Li-gga                  # Species index, atomic number, species label
    2    6 C-gga                   # Species index, atomic number, species label
%endblock ChemicalSpeciesLabel

%block PAO.Basis                 # Define Basis set
Li-gga                1                    # Species label, number of l-shells
 n=2   0   1                         # n, l, Nzeta 
  11.897   
   1.000   
C-gga                 2                    # Species label, number of l-shells
 n=2   0   1                         # n, l, Nzeta 
   5.949   
   1.000   
 n=2   1   1                         # n, l, Nzeta 
   7.638   
   1.000   
%endblock PAO.Basis

prinput: ----------------------------------------------------------------------

coor:   Atomic-coordinates input format  =     Cartesian coordinates
coor:                                          (in Angstroms)

siesta: Atomic coordinates (Bohr) and species
siesta:      0.00000   0.00000   0.00000  2        1
siesta:      2.68614   0.00000   4.18048  1        2
siesta:      5.38035   0.00000  12.54144  1        3
siesta:     -1.34307   2.32627   4.18048  1        4
siesta:     -2.69017   4.65952  12.54144  1        5
siesta:      2.69017   4.65952   4.18048  1        6
siesta:      1.34307   2.32627  12.54144  1        7
siesta:      5.38035   0.00000   4.18048  1        8
siesta:      2.68614   0.00000  12.54144  1        9
siesta:     -2.69017   4.65952   4.18048  1       10
siesta:     -1.34307   2.32627  12.54144  1       11
siesta:      1.34307   2.32627   4.18048  1       12
siesta:      2.69017   4.65952  12.54144  1       13

siesta: System type = bulk      

initatomlists: Number of atoms, orbitals, and projectors:     13    16   117

siesta: ******************** Simulation parameters ****************************
siesta:
siesta: The following are some of the parameters of the simulation.
siesta: A complete list of the parameters used, including default values,
siesta: can be found in file out.fdf
siesta:
redata: Spin configuration                          = none
redata: Number of spin components                   = 1
redata: Time-Reversal Symmetry                      = T
redata: Spin spiral                                 = F
redata: Long output                                 =   F
redata: Number of Atomic Species                    =        2
redata: Charge density info will appear in .RHO file
redata: Write Mulliken Pop.                         = NO
redata: Matel table size (NRTAB)                    =     1024
redata: Mesh Cutoff                                 =   300.0000 Ry
redata: Net charge of the system                    =     0.0000 |e|
redata: Min. number of SCF Iter                     =        0
redata: Max. number of SCF Iter                     =     1000
redata: SCF convergence failure will abort job
redata: SCF mix quantity                            = Hamiltonian
redata: Mix DM or H after convergence               =   F
redata: Recompute H after scf cycle                 =   F
redata: Mix DM in first SCF step                    =   T
redata: Write Pulay info on disk                    =   F
redata: New DM Occupancy tolerance                  = 0.000000000001
redata: No kicks to SCF
redata: DM Mixing Weight for Kicks                  =     0.5000
redata: Require Harris convergence for SCF          =   F
redata: Harris energy tolerance for SCF             =     0.000100 eV
redata: Require DM convergence for SCF              =   T
redata: DM tolerance for SCF                        =     0.001000
redata: Require EDM convergence for SCF             =   F
redata: EDM tolerance for SCF                       =     0.005000 eV
redata: Require H convergence for SCF               =   T
redata: Hamiltonian tolerance for SCF               =     0.001000 eV
redata: Require (free) Energy convergence for SCF   =   T
redata: (free) Energy tolerance for SCF             =     0.001000 eV
redata: Using Saved Data (generic)                  =   F
redata: Use continuation files for DM               =   F
redata: Neglect nonoverlap interactions             =   F
redata: Method of Calculation                       = Diagonalization
redata: Electronic Temperature                      =   299.9869 K
redata: Fix the spin of the system                  =   F
redata: Dynamics option                             = Single-point calculation
mix.SCF: Pulay mixing                            = Pulay
mix.SCF:    Variant                              = stable
mix.SCF:    History steps                        = 4
mix.SCF:    Linear mixing weight                 =     0.250000
mix.SCF:    Mixing weight                        =     0.250000
mix.SCF:    SVD condition                        = 0.1000E-07
redata: ***********************************************************************

%block SCF.Mixers
  Pulay
%endblock SCF.Mixers

%block SCF.Mixer.Pulay
  # Mixing method
  method pulay
  variant stable

  # Mixing options
  weight 0.2500
  weight.linear 0.2500
  history 4
%endblock SCF.Mixer.Pulay

DM_history_depth set to one: no extrapolation allowed by default for geometry relaxation
Size of DM history Fstack: 1
Total number of electrons:    16.000000
Total ionic charge:    16.000000

* ProcessorY, Blocksize:    3   1


* Orbital distribution balance (max,min):     2     1

k-point displ. along   1 input, could be:     0.00    0.50
k-point displ. along   2 input, could be:     0.00    0.50
k-point displ. along   3 input, could be:     0.00    0.50
 Kpoints in:           48 . Kpoints trimmed:           44

siesta: k-grid: Number of k-points =    44
siesta: k-grid: Cutoff (effective) =     8.537 Ang
siesta: k-grid: Supercell and displacements
siesta: k-grid:    4   0   0      0.000
siesta: k-grid:    0   4   0      0.000
siesta: k-grid:    0   0   4      0.000

diag: Algorithm                                     = Expert
diag: Parallel over k                               =   T
diag: Use parallel 2D distribution                  =   T
diag: Parallel block-size                           = 1
diag: Parallel distribution                         =     3 x     4
diag: Used triangular part                          = Lower
diag: Absolute tolerance                            =  0.100E-15
diag: Orthogonalization factor                      =  0.100E-05
diag: Memory factor                                 =  1.0000

superc: Internal auxiliary supercell:     9 x     9 x     3  =     243
superc: Number of atoms, orbitals, and projectors:   3159   3888  28431


ts: **************************************************************
ts: Save H and S matrices                           =    F
ts: Save DM and EDM matrices                        =    F
ts: Only save the overlap matrix S                  =    F
ts: **************************************************************

************************ Begin: TS CHECKS AND WARNINGS ************************
************************ End: TS CHECKS AND WARNINGS **************************


                     ====================================
                        Single-point calculation
                     ====================================

outcoor: Atomic coordinates (Ang):                          
    0.00000000    0.00000000    0.00000000   2       1  C-gga
    1.42144380    0.00000000    2.21221350   1       2  Li-gga
    2.84715620    0.00000000    6.63664050   1       3  Li-gga
   -0.71072190    1.23100644    2.21221350   1       4  Li-gga
   -1.42357810    2.46570960    6.63664050   1       5  Li-gga
    1.42357810    2.46570960    2.21221350   1       6  Li-gga
    0.71072190    1.23100644    6.63664050   1       7  Li-gga
    2.84715620    0.00000000    2.21221350   1       8  Li-gga
    1.42144380    0.00000000    6.63664050   1       9  Li-gga
   -1.42357810    2.46570960    2.21221350   1      10  Li-gga
   -0.71072190    1.23100644    6.63664050   1      11  Li-gga
    0.71072190    1.23100644    2.21221350   1      12  Li-gga
    1.42357810    2.46570960    6.63664050   1      13  Li-gga

superc: Internal auxiliary supercell:     9 x     9 x     3  =     243
superc: Number of atoms, orbitals, and projectors:   3159   3888  28431

outcell: Unit cell vectors (Ang):
        4.268600    0.000000    0.000000
       -2.134300    3.696716    0.000000
        0.000000    0.000000    8.848854

outcell: Cell vector modules (Ang)   :    4.268600    4.268600    8.848854
outcell: Cell angles (23,13,12) (deg):     90.0000     90.0000    120.0000
outcell: Cell volume (Ang**3)        :    139.6332
<dSpData1D:S at geom step 0
  <sparsity:sparsity for geom step 0
    nrows_g=16 nrows=2 sparsity=7.1133 nnzs=1821, refcount: 7>
  <dData1D:(new from dSpData1D) n=1821, refcount: 1>
refcount: 1>
new_DM -- step:     1
Initializing Density Matrix...
DM filled with atomic data:
<dSpData2D:DM initialized from atoms
  <sparsity:sparsity for geom step 0
    nrows_g=16 nrows=2 sparsity=7.1133 nnzs=1821, refcount: 8>
  <dData2D:DM n=1821 m=1, refcount: 1>
refcount: 1>
No. of atoms with KB's overlaping orbs in proc 0. Max # of overlaps:     177     181
New grid distribution:   1
           1       1:   20    1:    7    1:   12
           2       1:   20    1:    7   13:   24
           3       1:   20    1:    7   25:   36
           4       1:   20    1:    7   37:   48
           5       1:   20    8:   14    1:   12
           6       1:   20    8:   14   13:   24
           7       1:   20    8:   14   25:   36
           8       1:   20    8:   14   37:   48
           9       1:   20   15:   20    1:   12
          10       1:   20   15:   20   13:   24
          11       1:   20   15:   20   25:   36
          12       1:   20   15:   20   37:   48

InitMesh: MESH =    40 x    40 x    96 =      153600
InitMesh: (bp) =    20 x    20 x    48 =       19200
InitMesh: Mesh cutoff (required, used) =   300.000   323.586 Ry
ExtMesh (bp) on 0 =   160 x   147 x   152 =     3575040
New grid distribution:   2
           1       1:   10    8:   20   25:   37
           2       1:   20    1:    7   12:   24
           3       1:   10    8:   20    1:   11
           4       1:   20    1:    7   38:   48
           5       1:   20    1:    7   25:   37
           6      11:   20    8:   20   12:   24
           7       1:   20    1:    7    1:   11
           8      11:   20    8:   20   38:   48
           9      11:   20    8:   20    1:   11
          10       1:   10    8:   20   12:   24
          11      11:   20    8:   20   25:   37
          12       1:   10    8:   20   38:   48
New grid distribution:   3
           1       1:   20    1:    7    1:   12
           2       1:   10    8:   20   13:   24
           3       1:   20    1:    7   25:   36
           4      11:   20    8:   20    1:   12
           5       1:   20    1:    7   13:   24
           6       1:   10    8:   20    1:   12
           7      11:   20    8:   20   25:   36
           8      11:   20    8:   20   37:   48
           9       1:   20    1:    7   37:   48
          10      11:   20    8:   20   13:   24
          11       1:   10    8:   20   25:   36
          12       1:   10    8:   20   37:   48
Setting up quadratic distribution...
ExtMesh (bp) on 0 =   150 x   153 x   153 =     3511350
PhiOnMesh: Number of (b)points on node 0 =                 1690
PhiOnMesh: nlist on node 0 =               164699

stepf: Fermi-Dirac step function

siesta: Program's energy decomposition (eV):
siesta: Ebs     =         0.180616
siesta: Eions   =       380.620085
siesta: Ena     =       121.357540
siesta: Ekin    =       245.665694
siesta: Enl     =        26.805595
siesta: Eso     =         0.000000
siesta: Edftu   =         0.000000
siesta: DEna    =       -34.704333
siesta: DUscf   =        45.993823
siesta: DUext   =         0.000000
siesta: Exc     =      -170.575889
siesta: eta*DQ  =         0.000000
siesta: Emadel  =         0.000000
siesta: Emeta   =         0.000000
siesta: Emolmec =        -5.251745
siesta: Ekinion =         0.000000
siesta: Eharris =       -38.920830
siesta: Etot    =      -151.329399
siesta: FreeEng =      -151.335697

        iscf     Eharris(eV)        E_KS(eV)     FreeEng(eV)     dDmax    Ef(eV) dHmax(eV)
   scf:    1      -38.920830     -151.329399     -151.335697  1.345710 -8.077185 28.568294
timer: Routine,Calls,Time,% = IterSCF        1       0.549  16.43
   scf:    2     -184.963702     -180.996651     -181.005520  5.451819 -2.651525  1.192824
   scf:    3     -181.067640     -181.046386     -181.059171  0.241704 -2.883548  0.308422
   scf:    4     -181.003418     -181.067301     -181.078751  0.472145 -2.870356  0.540398
   scf:    5     -181.083354     -181.075879     -181.086838  0.053130 -2.865627  0.388688
   scf:    6     -178.772515     -180.253044     -180.263875  1.360598 -3.182297  4.322367
   scf:    7     -180.932145     -180.631857     -180.644498  0.278845 -2.984894  3.096538
   scf:    8     -180.843326     -181.070856     -181.080864  1.425056 -2.724474  0.846922
   scf:    9     -181.086457     -181.079566     -181.091749  0.070502 -2.783983  0.669295
   scf:   10     -181.095633     -181.088387     -181.101648  0.065537 -2.830895  0.439439
   scf:   11     -181.084123     -181.086318     -181.099259  0.018683 -2.821211  0.500619
   scf:   12     -180.854027     -181.028550     -181.047293  0.588603 -2.911752  1.139778
   scf:   13     -181.036808     -181.088052     -181.101169  0.574355 -2.828926  0.452301
   scf:   14     -181.096858     -181.093334     -181.107676  0.071104 -2.853883  0.236022
   scf:   15     -181.063025     -181.080956     -181.093133  0.125340 -2.790676  0.640568
   scf:   16     -181.061922     -181.088936     -181.105773  0.319439 -2.885466  0.306001
   scf:   17     -181.067244     -181.089081     -181.102392  0.254626 -2.833998  0.419000
   scf:   18     -181.096222     -181.093262     -181.107592  0.059403 -2.853844  0.239817
   scf:   19     -181.089795     -181.093859     -181.109840  0.117388 -2.875877  0.092092
   scf:   20     -181.094542     -181.094782     -181.109998  0.058780 -2.866475  0.072024
   scf:   21     -181.094721     -181.094782     -181.110187  0.013576 -2.868857  0.033860
   scf:   22     -181.094546     -181.094686     -181.110241  0.011288 -2.870732  0.002242
   scf:   23     -181.094654     -181.094670     -181.110241  0.001200 -2.870923  0.001108
   scf:   24     -181.094682     -181.094676     -181.110241  0.000444 -2.870851  0.000132

SCF Convergence by FreeE+DM+H criterion
|FreeE_i-FreeE_(i-1)| (eV) <     0.00100000
max |DM_out - DM_in|         :     0.0004443446
max |H_out - H_in|      (eV) :     0.0001321422
SCF cycle converged after 24 iterations

Using DM_out to compute the final energy and forces
No. of atoms with KB's overlaping orbs in proc 0. Max # of overlaps:     177     181

MM-Stress (kbar):       10.26       10.26       33.15       -0.00       -0.00       -0.00

siesta: E_KS(eV) =             -181.0947

siesta: E_KS - E_eggbox =      -181.0947

siesta: Atomic forces (eV/Ang):
     1    0.000000   -0.000000    0.000000
     2   -0.160109   -0.000011   -0.664174
     3    0.160109    0.000011    0.664174
     4    0.080045   -0.138664   -0.664174
     5   -0.080045    0.138664    0.664174
     6    0.080036    0.138627   -0.664066
     7   -0.080036   -0.138627    0.664066
     8    0.160109    0.000011   -0.664174
     9   -0.160109   -0.000011    0.664174
    10   -0.080045    0.138664   -0.664174
    11    0.080045   -0.138664    0.664174
    12   -0.080036   -0.138627   -0.664066
    13    0.080036    0.138627    0.664066
----------------------------------------
   Tot   -0.000000    0.000000    0.000000
----------------------------------------
   Max    0.664174
   Res    0.378950    sqrt( Sum f_i^2 / 3N )
----------------------------------------
   Max    0.664174    constrained

Stress tensor Voigt[x,y,z,yz,xz,xy] (kbar):    -1707.97    -1707.97      331.34       -0.00       -0.00       -0.00
(Free)E + p*V (eV/cell)      -91.5011
Target enthalpy (eV/cell)     -181.1102

siesta: Eigenvalues (eV):
  ik is       eps
   1  1  -13.8794  -12.6271  -12.1130  -11.4434  -11.1776  -10.9947   -8.7112   -3.2401   -2.7774   -2.3033
          17.3155   17.5503   19.3478   19.3978   19.8041   19.8821
   2  1  -14.5312  -13.1692  -11.0354   -9.9172   -9.0377   -5.0560   -3.7276   -2.9051   -2.3095    0.3051
           1.4176    3.0400   19.4596   20.2458   22.2769   22.4159
   3  1  -14.5312  -13.1692  -11.0354   -9.9172   -9.0377   -5.0560   -3.7276   -2.9050   -2.3095    0.3050
           1.4176    3.0400   19.4596   20.2458   22.2769   22.4159
   4  1  -13.8794  -12.6271  -12.1130  -11.4434  -11.1776  -10.9947   -8.7112   -3.2400   -2.7775   -2.3033
          17.3156   17.5503   19.3478   19.3977   19.8041   19.8821
   5  1  -14.5312  -13.1692  -11.0354   -9.9172   -9.0377   -5.0560   -3.7276   -2.9051   -2.3095    0.3051
           1.4176    3.0400   19.4596   20.2458   22.2769   22.4159
   6  1  -14.9308  -13.4579  -10.0372   -3.7982   -3.2359   -3.2358    5.1574    5.1575    9.4604    9.4605
          11.7704   11.7704   11.9771   11.9771   23.4727   24.3526
   7  1  -13.7965  -12.7016  -12.4418  -12.2923   -9.4710   -6.1412   -4.3703   -4.0862   -3.5857   -2.2334
          -0.4589    1.0089   17.6230   17.6340   18.4207   18.4270
   8  1  -13.8794  -12.6271  -12.1130  -11.4434  -11.1776  -10.9947   -8.7112   -3.2400   -2.7775   -2.3033
          17.3156   17.5503   19.3478   19.3977   19.8041   19.8821
   9  1  -13.8794  -12.6271  -12.1130  -11.4434  -11.1776  -10.9947   -8.7112   -3.2400   -2.7775   -2.3033
          17.3156   17.5503   19.3478   19.3977   19.8041   19.8821
  10  1  -13.7965  -12.7016  -12.4418  -12.2923   -9.4710   -6.1412   -4.3703   -4.0862   -3.5857   -2.2334
          -0.4589    1.0089   17.6230   17.6340   18.4207   18.4270
  11  1  -13.8794  -12.6271  -12.1130  -11.4434  -11.1776  -10.9947   -8.7112   -3.2400   -2.7775   -2.3033
          17.3156   17.5503   19.3478   19.3977   19.8041   19.8821
  12  1  -13.7964  -12.7016  -12.4418  -12.2923   -9.4710   -6.1412   -4.3703   -4.0862   -3.5856   -2.2334
          -0.4590    1.0089   17.6230   17.6339   18.4207   18.4270
  13  1  -13.8394  -12.9843  -11.8838  -11.4475  -11.3432  -10.9992   -8.1208   -2.9250   -2.8387   -2.5966
          17.6219   17.7774   19.3582   19.3923   19.4726   19.5135
  14  1  -14.4589  -13.6102  -10.7626  -10.0646   -8.5292   -4.9729   -4.1612   -2.9231   -2.6608    1.0829
           1.5839    2.7620   19.4625   20.1113   22.2919   22.3920
  15  1  -14.4589  -13.6102  -10.7626  -10.0646   -8.5292   -4.9729   -4.1612   -2.9231   -2.6607    1.0828
           1.5840    2.7620   19.4625   20.1113   22.2919   22.3920
  16  1  -13.8394  -12.9843  -11.8838  -11.4475  -11.3432  -10.9992   -8.1208   -2.9249   -2.8386   -2.5967
          17.6219   17.7774   19.3582   19.3923   19.4726   19.5135
  17  1  -14.4589  -13.6102  -10.7626  -10.0646   -8.5292   -4.9729   -4.1612   -2.9231   -2.6608    1.0829
           1.5839    2.7620   19.4625   20.1113   22.2919   22.3920
  18  1  -14.8498  -13.9484   -9.3836   -4.3465   -3.2562   -3.2561    5.6117    5.6117    7.6214    7.6214
          10.0952   10.0953   13.9717   13.9718   23.6061   24.2283
  19  1  -14.4589  -13.6102  -10.7626  -10.0646   -8.5292   -4.9729   -4.1612   -2.9231   -2.6608    1.0829
           1.5839    2.7620   19.4625   20.1113   22.2919   22.3920
  20  1  -13.7733  -12.7789  -12.7057  -12.2383   -8.9390   -6.0150   -4.7000   -4.5590   -3.1667   -1.8494
           0.1330    0.4133   17.7294   17.7398   18.2935   18.3007
  21  1  -14.4589  -13.6102  -10.7626  -10.0646   -8.5292   -4.9729   -4.1612   -2.9231   -2.6607    1.0828
           1.5840    2.7620   19.4625   20.1113   22.2919   22.3920
  22  1  -14.4589  -13.6102  -10.7626  -10.0646   -8.5292   -4.9729   -4.1612   -2.9231   -2.6608    1.0829
           1.5839    2.7620   19.4625   20.1113   22.2919   22.3920
  23  1  -13.8394  -12.9843  -11.8838  -11.4475  -11.3432  -10.9992   -8.1208   -2.9250   -2.8387   -2.5966
          17.6219   17.7774   19.3582   19.3923   19.4726   19.5135
  24  1  -13.8394  -12.9843  -11.8838  -11.4475  -11.3432  -10.9992   -8.1208   -2.9249   -2.8386   -2.5967
          17.6219   17.7774   19.3582   19.3923   19.4726   19.5135
  25  1  -13.8394  -12.9843  -11.8838  -11.4475  -11.3432  -10.9992   -8.1208   -2.9249   -2.8386   -2.5967
          17.6219   17.7774   19.3582   19.3923   19.4726   19.5135
  26  1  -13.7733  -12.7789  -12.7057  -12.2383   -8.9390   -6.0150   -4.7000   -4.5590   -3.1667   -1.8494
           0.1330    0.4133   17.7294   17.7398   18.2935   18.3007
  27  1  -13.8394  -12.9843  -11.8838  -11.4475  -11.3432  -10.9992   -8.1208   -2.9249   -2.8386   -2.5967
          17.6219   17.7774   19.3582   19.3923   19.4726   19.5135
  28  1  -13.7733  -12.7789  -12.7057  -12.2383   -8.9390   -6.0150   -4.7000   -4.5590   -3.1666   -1.8494
           0.1328    0.4133   17.7294   17.7398   18.2935   18.3007
  29  1  -13.7816  -13.2274  -11.6649  -11.5694  -11.4460  -11.0093   -7.5423   -3.4389   -2.5971   -2.4284
          18.1012   18.1811   18.8018   19.1257   19.3770   19.3866
  30  1  -14.3136  -13.9991  -10.5316  -10.2418   -8.0449   -4.8633   -4.5832   -3.3894   -2.4499    1.6822
           1.8049    2.4517   19.4539   19.9917   22.3236   22.3514
  31  1  -14.3136  -13.9991  -10.5316  -10.2418   -8.0449   -4.8633   -4.5832   -3.3894   -2.4498    1.6820
           1.8049    2.4517   19.4539   19.9917   22.3236   22.3514
  32  1  -13.7816  -13.2274  -11.6649  -11.5694  -11.4460  -11.0092   -7.5423   -3.4389   -2.5970   -2.4285
          18.1013   18.1811   18.8018   19.1257   19.3770   19.3866
  33  1  -14.3136  -13.9991  -10.5316  -10.2418   -8.0449   -4.8633   -4.5832   -3.3894   -2.4499    1.6822
           1.8049    2.4517   19.4539   19.9917   22.3236   22.3514
  34  1  -14.6693  -14.4039   -8.8373   -4.8591   -3.2764   -3.2763    6.6663    6.6663    6.8240    6.8240
           7.6579    7.6579   15.2758   15.2759   23.9148   23.9286
  35  1  -14.3136  -13.9991  -10.5316  -10.2418   -8.0449   -4.8633   -4.5832   -3.3894   -2.4499    1.6822
           1.8049    2.4517   19.4539   19.9917   22.3236   22.3514
  36  1  -13.7443  -12.9044  -12.8291  -12.2086   -8.4680   -5.8084   -5.0344   -5.0299   -2.7923   -1.0098
          -0.6205    0.6410   17.9893   17.9936   18.0127   18.0265
  37  1  -14.3136  -13.9991  -10.5316  -10.2418   -8.0449   -4.8633   -4.5832   -3.3894   -2.4498    1.6820
           1.8049    2.4517   19.4539   19.9917   22.3236   22.3514
  38  1  -14.3136  -13.9991  -10.5316  -10.2418   -8.0449   -4.8633   -4.5832   -3.3894   -2.4499    1.6822
           1.8049    2.4517   19.4539   19.9917   22.3236   22.3514
  39  1  -13.7816  -13.2274  -11.6649  -11.5694  -11.4460  -11.0093   -7.5423   -3.4389   -2.5971   -2.4284
          18.1012   18.1811   18.8018   19.1257   19.3770   19.3866
  40  1  -13.7816  -13.2274  -11.6649  -11.5694  -11.4460  -11.0092   -7.5423   -3.4389   -2.5970   -2.4285
          18.1013   18.1811   18.8018   19.1257   19.3770   19.3866
  41  1  -13.7816  -13.2274  -11.6649  -11.5694  -11.4460  -11.0092   -7.5423   -3.4389   -2.5970   -2.4285
          18.1013   18.1811   18.8018   19.1257   19.3770   19.3866
  42  1  -13.7443  -12.9044  -12.8291  -12.2086   -8.4680   -5.8084   -5.0344   -5.0299   -2.7923   -1.0098
          -0.6205    0.6410   17.9893   17.9936   18.0127   18.0265
  43  1  -13.7816  -13.2274  -11.6649  -11.5694  -11.4460  -11.0092   -7.5423   -3.4389   -2.5970   -2.4285
          18.1013   18.1811   18.8018   19.1257   19.3770   19.3866
  44  1  -13.7443  -12.9044  -12.8291  -12.2086   -8.4680   -5.8084   -5.0344   -5.0299   -2.7922   -1.0097
          -0.6205    0.6409   17.9893   17.9936   18.0127   18.0264
siesta: Fermi energy =      -2.870851 eV

siesta: Program's energy decomposition (eV):
siesta: Ebs     =      -150.329034
siesta: Eions   =       380.620085
siesta: Ena     =       121.357540
siesta: Ekin    =       193.208934
siesta: Enl     =        48.798285
siesta: Eso     =         0.000000
siesta: Edftu   =         0.000000
siesta: DEna    =        -6.995346
siesta: DUscf   =         3.475204
siesta: DUext   =         0.000000
siesta: Exc     =      -155.067463
siesta: eta*DQ  =         0.000000
siesta: Emadel  =         0.000000
siesta: Emeta   =         0.000000
siesta: Emolmec =        -5.251745
siesta: Ekinion =         0.000000
siesta: Eharris =      -181.094682
siesta: Etot    =      -181.094676
siesta: FreeEng =      -181.110241

siesta: Final energy (eV):
siesta:  Band Struct. =    -150.329034
siesta:       Kinetic =     193.208934
siesta:       Hartree =     102.048964
siesta:       Edftu   =       0.000000
siesta:       Eso     =       0.000000
siesta:    Ext. field =       0.000000
siesta:   Exch.-corr. =    -155.067463
siesta:  Ion-electron =    -386.608689
siesta:       Ion-ion =      70.575324
siesta:       Ekinion =       0.000000
siesta:         Total =    -181.094676
siesta:         Fermi =      -2.870851

siesta: Atomic forces (eV/Ang):
siesta:      1    0.000000   -0.000000    0.000000
siesta:      2   -0.160109   -0.000011   -0.664174
siesta:      3    0.160109    0.000011    0.664174
siesta:      4    0.080045   -0.138664   -0.664174
siesta:      5   -0.080045    0.138664    0.664174
siesta:      6    0.080036    0.138627   -0.664066
siesta:      7   -0.080036   -0.138627    0.664066
siesta:      8    0.160109    0.000011   -0.664174
siesta:      9   -0.160109   -0.000011    0.664174
siesta:     10   -0.080045    0.138664   -0.664174
siesta:     11    0.080045   -0.138664    0.664174
siesta:     12   -0.080036   -0.138627   -0.664066
siesta:     13    0.080036    0.138627    0.664066
siesta: ----------------------------------------
siesta:    Tot   -0.000000    0.000000    0.000000

siesta: Stress tensor (static) (eV/Ang**3):
siesta:    -1.066020   -0.000002    0.000000
siesta:    -0.000002   -1.066023   -0.000000
siesta:    -0.000000   -0.000000    0.206802

siesta: Cell volume =        139.633165 Ang**3

siesta: Pressure (static):
siesta:                Solid            Molecule  Units
siesta:           0.00698944          0.00649545  Ry/Bohr**3
siesta:           0.64174693          0.59638974  eV/Ang**3
siesta:        1028.20305016        955.53203233  kBar
(Free)E+ p_basis*V_orbitals  =        -164.943627
(Free)Eharris+ p_basis*V_orbitals  =        -164.943633

cite: Please see "LiC12_scf.bib" for an exhaustive BiBTeX file.
cite: Please clearly indicate Siesta version in published work: 4.1.5
cite: This calculation has made use of the following articles
cite: which are encouraged to be cited in a published work.
        Primary SIESTA paper
          DOI: www.doi.org/10.1088/0953-8984/14/11/302

>> End of run:   9-NOV-2022  14:56:02
Job completed
