Siesta Version  : 4.1.5
Architecture    : x86_64-unknown-linux-gnu--unknown
Compiler version: GNU Fortran (GCC) 11.3.0
Compiler flags  : mpif90 -g -O2 -fallow-argument-mismatch
PP flags        : -DMPI -DFC_HAVE_FLUSH -DFC_HAVE_ABORT
Libraries       :  -I/global/software/sl-7.x86_64/modules/intel/2020.4.304/mkl/include  /globall/software/sl-7.x86_64/modules/intel/2020.4.304/mkl/lib/intel64/libmkl_scalapack_lp64.a -Wl,--start-group /global/software/sl-7.x86_64/modules/intel/2020.4.304/mkl/lib/intel64/libmkl_intel_lp64.a /global/software/sl-7.x86_64/modules/intel/2020.4.304/mkl/lib/intel64/libmkl_sequential.a /global/software/sl-7.x86_64/modules/intel/2020.4.304/mkl/lib/intel64/libmkl_core.a /global/software/sl-7.x86_64/modules/intel/2020.4.304/mkl/lib/intel64/libmkl_blacs_openmpi_lp64.a -Wl,--end-group -lpthread -lm -ldl
PARALLEL version

* Running on 12 nodes in parallel
>> Start of run:   9-NOV-2022  14:51:32

                           ***********************       
                           *  WELCOME TO SIESTA  *       
                           ***********************       

reinit: Reading from standard input
reinit: Dumped input in INPUT_TMP.59775
************************** Dump of input data file ****************************
SystemName LiC12_scf
SystemLabel LiC12_scf
NumberOfAtoms   13
NumberOfSpecies 2
%block ChemicalSpeciesLabel
1  3   Li-gga
2  6   C-gga
%endblock ChemicalSpeciesLabel
PAO.BasisSize  SZ
PAO.EnergyShift  10 meV
%block PS.Lmax
C-gga   2
Li-gga  2
%endblock PS.Lmax
LatticeConstant 1.000000 Ang
%block LatticeVectors
	4.2686000000	0.0000000000	0.0000000000
	-2.1343000000	3.6967160386	0.0000000000
	0.0000000000	0.0000000000	3.7923660000
%endblock LatticeVectors
AtomicCoordinatesFormat Ang
%block AtomicCoordinatesAndAtomicSpecies
	0.00000000	0.00000000	0.00000000	2
	1.42144380	0.00000000	0.94809150	1
	2.84715620	0.00000000	2.84427450	1
	-0.71072190	1.23100644	0.94809150	1
	-1.42357810	2.46570960	2.84427450	1
	1.42357810	2.46570960	0.94809150	1
	0.71072190	1.23100644	2.84427450	1
	2.84715620	0.00000000	0.94809150	1
	1.42144380	0.00000000	2.84427450	1
	-1.42357810	2.46570960	0.94809150	1
	-0.71072190	1.23100644	2.84427450	1
	0.71072190	1.23100644	0.94809150	1
	1.42357810	2.46570960	2.84427450	1
%endblock AtomicCoordinatesAndAtomicSpecies
Kgrid_NoTRS  T
%block kgrid_MonkhorstPack
4       0       0       0.0
0       4       0       0.0
0       0       4       0.0
%endblock kgrid_MonkhorstPack
AtomCoorFormatOut Ang
BlockSize 1
#ProcessorY 12
Diag.ParallelOverK   T
Diag.DivideAndConquer F
MeshCutoff   300 Ry
SCF.FreeE.Tolerance 1E-3 eV
SCF.EDM.Tolerance   5E-3 eV
DM.Tolerance  1E-3
DM.Require.Energy.Convergence T
DM.NumberPulay 4
XC.Functional GGA
XC.Authors    PBE
UseSaveData        F
MD.TypeOfRun       CG
MD.VariableCell    F
MD.NumCGsteps      00
MD.MaxCGDispl      0.200000 Bohr
MD.MaxStressTol    1.000000 GPa
MD.MaxForceTol     0.010000 eV/Ang
WriteMDHistory T
WriteCoorStep T
WriteForces T
WriteCoorStep    T
WriteEigenValues T
WriteDM    F
MM.UnitsDistance Ang  # what this program prints out DO NOT CHANGE
MM.UnitsEnergy    eV  # what this program prints out DO NOT CHANGE
MM.Grimme.S6     0.75 # Grimme-paper for PBE (correct for your functional)
MM.Grimme.D     20.   # Grimme-paper (correct for your functional)
%block MM.Potentials
  1   1 Grimme     16.69      1.650 # Li, 10.1002/jcc.20495
  1   2 Grimme     17.40      2.277 # Li / C
  2   2 Grimme     18.14      2.904 # C, 10.1002/jcc.20495
%endblock MM.Potentials
#%block ProjectedDensityOfStates
# -200.0  120.0  0.4  12800  eV
#%endblock ProjectedDensityOfStates
************************** End of input data file *****************************

reinit: -----------------------------------------------------------------------
reinit: System Name: LiC12_scf
reinit: -----------------------------------------------------------------------
reinit: System Label: LiC12_scf
reinit: -----------------------------------------------------------------------
Reading two-body potentials
Grimme - two-body potential between 1 and 1
Grimme - two-body potential between 1 and 2
Grimme - two-body potential between 2 and 2

initatom: Reading input for the pseudopotentials and atomic orbitals ----------
Species number:   1 Atomic number:    3 Label: Li-gga
Species number:   2 Atomic number:    6 Label: C-gga

Ground state valence configuration:   2s01
Reading pseudopotential information in formatted form from Li-gga.psf

Valence configuration for pseudopotential generation:
2s( 1.00) rc: 2.28
2p( 0.00) rc: 2.28
3d( 0.00) rc: 2.59
4f( 0.00) rc: 2.59
Ground state valence configuration:   2s02  2p02
Reading pseudopotential information in formatted form from C-gga.psf

Valence configuration for pseudopotential generation:
2s( 2.00) rc: 1.56
2p( 2.00) rc: 1.56
3d( 0.00) rc: 1.56
4f( 0.00) rc: 1.56
relmxkb: Read Max KB Ang. Momentum=    2 for species C-gga
relmxkb: Read Max KB Ang. Momentum=    2 for species Li-gga

<basis_specs>
===============================================================================
Li-gga               Z=   3    Mass=  6.9400        Charge= 0.17977+309
Lmxo=0 Lmxkb= 2    BasisType=split      Semic=F
L=0  Nsemic=0  Cnfigmx=2
          i=1  nzeta=1  polorb=0  (2s)
            splnorm:   0.15000    
               vcte:    0.0000    
               rinn:    0.0000    
               qcoe:    0.0000    
               qyuk:    0.0000    
               qwid:   0.10000E-01
                rcs:    0.0000    
            lambdas:    1.0000    
-------------------------------------------------------------------------------
L=0  Nkbl=1  erefs: 0.17977+309
L=1  Nkbl=1  erefs: 0.17977+309
L=2  Nkbl=1  erefs: 0.17977+309
===============================================================================
</basis_specs>

atom: Called for Li-gga                (Z =   3)

read_vps: Pseudopotential generation method:
read_vps: ATM 3.2.2 Troullier-Martins                       
Valence charge for ps generation:    1.00000

read_vps: Pseudopotential includes a core correction:
read_vps: Pseudo-core for xc-correction

xc_check: Exchange-correlation functional:
xc_check: GGA Perdew, Burke & Ernzerhof 1996
V l=0 = -2*Zval/r beyond r=  2.2278
V l=1 = -2*Zval/r beyond r=  2.2278
V l=2 = -2*Zval/r beyond r=  2.5245
All V_l potentials equal beyond r=  2.4622
This should be close to max(r_c) in ps generation
All pots = -2*Zval/r beyond r=  2.5245

VLOCAL1: 99.0% of the norm of Vloc inside      7.160 Ry
VLOCAL1: 99.9% of the norm of Vloc inside     16.318 Ry
atom: Maximum radius for 4*pi*r*r*local-pseudopot. charge    2.86079
atom: Maximum radius for r*vlocal+2*Zval:    2.43160
GHOST: No ghost state for L =  0
GHOST: No ghost state for L =  1
GHOST: No ghost state for L =  2

KBgen: Kleinman-Bylander projectors: 
   l= 0   rc=  2.654023   el= -0.211234   Ekb=  1.742119   kbcos=  0.228463
   l= 1   rc=  2.721230   el= -0.080095   Ekb= -1.122375   kbcos= -0.147941
   l= 2   rc=  2.825246   el=  0.002001   Ekb= -0.207076   kbcos= -0.031965

KBgen: Total number of Kleinman-Bylander projectors:    9
atom: -------------------------------------------------------------------------

atom: SANKEY-TYPE ORBITALS:

SPLIT: Orbitals with angular momentum L= 0

SPLIT: Basis orbitals for state 2s

SPLIT: PAO cut-off radius determined from an
SPLIT: energy shift=  0.000735 Ry

   izeta = 1
                 lambda =    1.000000
                     rc =   11.897381
                 energy =   -0.210580
                kinetic =    0.143382
    potential(screened) =   -0.353962
       potential(ionic) =   -0.533453
atom: Total number of Sankey-type orbitals:  1

atm_pop: Valence configuration (for local Pseudopot. screening):
 2s( 1.00)                                                            
Vna: chval, zval:    1.00000   1.00000

Vna:  Cut-off radius for the neutral-atom potential:  11.897381
comcore: Pseudo-core radius Rcore=  3.450946

atom: _________________________________________________________________________

<basis_specs>
===============================================================================
C-gga                Z=   6    Mass=  12.010        Charge= 0.17977+309
Lmxo=1 Lmxkb= 2    BasisType=split      Semic=F
L=0  Nsemic=0  Cnfigmx=2
          i=1  nzeta=1  polorb=0  (2s)
            splnorm:   0.15000    
               vcte:    0.0000    
               rinn:    0.0000    
               qcoe:    0.0000    
               qyuk:    0.0000    
               qwid:   0.10000E-01
                rcs:    0.0000    
            lambdas:    1.0000    
L=1  Nsemic=0  Cnfigmx=2
          i=1  nzeta=1  polorb=0  (2p)
            splnorm:   0.15000    
               vcte:    0.0000    
               rinn:    0.0000    
               qcoe:    0.0000    
               qyuk:    0.0000    
               qwid:   0.10000E-01
                rcs:    0.0000    
            lambdas:    1.0000    
-------------------------------------------------------------------------------
L=0  Nkbl=1  erefs: 0.17977+309
L=1  Nkbl=1  erefs: 0.17977+309
L=2  Nkbl=1  erefs: 0.17977+309
===============================================================================
</basis_specs>

atom: Called for C-gga                 (Z =   6)

read_vps: Pseudopotential generation method:
read_vps: ATM 3.2.2 Troullier-Martins                       
Valence charge for ps generation:    4.00000

xc_check: Exchange-correlation functional:
xc_check: GGA Perdew, Burke & Ernzerhof 1996
V l=0 = -2*Zval/r beyond r=  1.5227
V l=1 = -2*Zval/r beyond r=  1.5227
V l=2 = -2*Zval/r beyond r=  1.5227
All V_l potentials equal beyond r=  1.4851
This should be close to max(r_c) in ps generation
All pots = -2*Zval/r beyond r=  1.5227

VLOCAL1: 99.0% of the norm of Vloc inside     19.682 Ry
VLOCAL1: 99.9% of the norm of Vloc inside     44.856 Ry
atom: Maximum radius for 4*pi*r*r*local-pseudopot. charge    1.79142
atom: Maximum radius for r*vlocal+2*Zval:    1.54183
GHOST: No ghost state for L =  0
GHOST: No ghost state for L =  1
GHOST: No ghost state for L =  2

KBgen: Kleinman-Bylander projectors: 
   l= 0   rc=  1.661951   el= -1.010689   Ekb=  5.289847   kbcos=  0.316429
   l= 1   rc=  1.661951   el= -0.388490   Ekb= -4.102504   kbcos= -0.351025
   l= 2   rc=  1.747182   el=  0.001971   Ekb= -1.006005   kbcos= -0.008530

KBgen: Total number of Kleinman-Bylander projectors:    9
atom: -------------------------------------------------------------------------

atom: SANKEY-TYPE ORBITALS:

SPLIT: Orbitals with angular momentum L= 0

SPLIT: Basis orbitals for state 2s

SPLIT: PAO cut-off radius determined from an
SPLIT: energy shift=  0.000735 Ry

   izeta = 1
                 lambda =    1.000000
                     rc =    5.948690
                 energy =   -1.010099
                kinetic =    0.827121
    potential(screened) =   -1.837220
       potential(ionic) =   -5.392783

SPLIT: Orbitals with angular momentum L= 1

SPLIT: Basis orbitals for state 2p

SPLIT: PAO cut-off radius determined from an
SPLIT: energy shift=  0.000735 Ry

   izeta = 1
                 lambda =    1.000000
                     rc =    7.638387
                 energy =   -0.387843
                kinetic =    2.314739
    potential(screened) =   -2.702582
       potential(ionic) =   -6.092371
atom: Total number of Sankey-type orbitals:  4

atm_pop: Valence configuration (for local Pseudopot. screening):
 2s( 2.00)                                                            
 2p( 2.00)                                                            
Vna: chval, zval:    4.00000   4.00000

Vna:  Cut-off radius for the neutral-atom potential:   7.638387

atom: _________________________________________________________________________

prinput: Basis input ----------------------------------------------------------

PAO.BasisType split     

%block ChemicalSpeciesLabel
    1    3 Li-gga                  # Species index, atomic number, species label
    2    6 C-gga                   # Species index, atomic number, species label
%endblock ChemicalSpeciesLabel

%block PAO.Basis                 # Define Basis set
Li-gga                1                    # Species label, number of l-shells
 n=2   0   1                         # n, l, Nzeta 
  11.897   
   1.000   
C-gga                 2                    # Species label, number of l-shells
 n=2   0   1                         # n, l, Nzeta 
   5.949   
   1.000   
 n=2   1   1                         # n, l, Nzeta 
   7.638   
   1.000   
%endblock PAO.Basis

prinput: ----------------------------------------------------------------------

coor:   Atomic-coordinates input format  =     Cartesian coordinates
coor:                                          (in Angstroms)

siesta: Atomic coordinates (Bohr) and species
siesta:      0.00000   0.00000   0.00000  2        1
siesta:      2.68614   0.00000   1.79163  1        2
siesta:      5.38035   0.00000   5.37490  1        3
siesta:     -1.34307   2.32627   1.79163  1        4
siesta:     -2.69017   4.65952   5.37490  1        5
siesta:      2.69017   4.65952   1.79163  1        6
siesta:      1.34307   2.32627   5.37490  1        7
siesta:      5.38035   0.00000   1.79163  1        8
siesta:      2.68614   0.00000   5.37490  1        9
siesta:     -2.69017   4.65952   1.79163  1       10
siesta:     -1.34307   2.32627   5.37490  1       11
siesta:      1.34307   2.32627   1.79163  1       12
siesta:      2.69017   4.65952   5.37490  1       13

siesta: System type = bulk      

initatomlists: Number of atoms, orbitals, and projectors:     13    16   117

siesta: ******************** Simulation parameters ****************************
siesta:
siesta: The following are some of the parameters of the simulation.
siesta: A complete list of the parameters used, including default values,
siesta: can be found in file out.fdf
siesta:
redata: Spin configuration                          = none
redata: Number of spin components                   = 1
redata: Time-Reversal Symmetry                      = T
redata: Spin spiral                                 = F
redata: Long output                                 =   F
redata: Number of Atomic Species                    =        2
redata: Charge density info will appear in .RHO file
redata: Write Mulliken Pop.                         = NO
redata: Matel table size (NRTAB)                    =     1024
redata: Mesh Cutoff                                 =   300.0000 Ry
redata: Net charge of the system                    =     0.0000 |e|
redata: Min. number of SCF Iter                     =        0
redata: Max. number of SCF Iter                     =     1000
redata: SCF convergence failure will abort job
redata: SCF mix quantity                            = Hamiltonian
redata: Mix DM or H after convergence               =   F
redata: Recompute H after scf cycle                 =   F
redata: Mix DM in first SCF step                    =   T
redata: Write Pulay info on disk                    =   F
redata: New DM Occupancy tolerance                  = 0.000000000001
redata: No kicks to SCF
redata: DM Mixing Weight for Kicks                  =     0.5000
redata: Require Harris convergence for SCF          =   F
redata: Harris energy tolerance for SCF             =     0.000100 eV
redata: Require DM convergence for SCF              =   T
redata: DM tolerance for SCF                        =     0.001000
redata: Require EDM convergence for SCF             =   F
redata: EDM tolerance for SCF                       =     0.005000 eV
redata: Require H convergence for SCF               =   T
redata: Hamiltonian tolerance for SCF               =     0.001000 eV
redata: Require (free) Energy convergence for SCF   =   T
redata: (free) Energy tolerance for SCF             =     0.001000 eV
redata: Using Saved Data (generic)                  =   F
redata: Use continuation files for DM               =   F
redata: Neglect nonoverlap interactions             =   F
redata: Method of Calculation                       = Diagonalization
redata: Electronic Temperature                      =   299.9869 K
redata: Fix the spin of the system                  =   F
redata: Dynamics option                             = Single-point calculation
mix.SCF: Pulay mixing                            = Pulay
mix.SCF:    Variant                              = stable
mix.SCF:    History steps                        = 4
mix.SCF:    Linear mixing weight                 =     0.250000
mix.SCF:    Mixing weight                        =     0.250000
mix.SCF:    SVD condition                        = 0.1000E-07
redata: ***********************************************************************

%block SCF.Mixers
  Pulay
%endblock SCF.Mixers

%block SCF.Mixer.Pulay
  # Mixing method
  method pulay
  variant stable

  # Mixing options
  weight 0.2500
  weight.linear 0.2500
  history 4
%endblock SCF.Mixer.Pulay

DM_history_depth set to one: no extrapolation allowed by default for geometry relaxation
Size of DM history Fstack: 1
Total number of electrons:    16.000000
Total ionic charge:    16.000000

* ProcessorY, Blocksize:    3   1


* Orbital distribution balance (max,min):     2     1

k-point displ. along   1 input, could be:     0.00    0.50
k-point displ. along   2 input, could be:     0.00    0.50
k-point displ. along   3 input, could be:     0.00    0.50
 Kpoints in:           48 . Kpoints trimmed:           44

siesta: k-grid: Number of k-points =    44
siesta: k-grid: Cutoff (effective) =     7.585 Ang
siesta: k-grid: Supercell and displacements
siesta: k-grid:    4   0   0      0.000
siesta: k-grid:    0   4   0      0.000
siesta: k-grid:    0   0   4      0.000

diag: Algorithm                                     = Expert
diag: Parallel over k                               =   T
diag: Use parallel 2D distribution                  =   T
diag: Parallel block-size                           = 1
diag: Parallel distribution                         =     3 x     4
diag: Used triangular part                          = Lower
diag: Absolute tolerance                            =  0.100E-15
diag: Orthogonalization factor                      =  0.100E-05
diag: Memory factor                                 =  1.0000

superc: Internal auxiliary supercell:     9 x     9 x     9  =     729
superc: Number of atoms, orbitals, and projectors:   9477  11664  85293


ts: **************************************************************
ts: Save H and S matrices                           =    F
ts: Save DM and EDM matrices                        =    F
ts: Only save the overlap matrix S                  =    F
ts: **************************************************************

************************ Begin: TS CHECKS AND WARNINGS ************************
************************ End: TS CHECKS AND WARNINGS **************************


                     ====================================
                        Single-point calculation
                     ====================================

outcoor: Atomic coordinates (Ang):                          
    0.00000000    0.00000000    0.00000000   2       1  C-gga
    1.42144380    0.00000000    0.94809150   1       2  Li-gga
    2.84715620    0.00000000    2.84427450   1       3  Li-gga
   -0.71072190    1.23100644    0.94809150   1       4  Li-gga
   -1.42357810    2.46570960    2.84427450   1       5  Li-gga
    1.42357810    2.46570960    0.94809150   1       6  Li-gga
    0.71072190    1.23100644    2.84427450   1       7  Li-gga
    2.84715620    0.00000000    0.94809150   1       8  Li-gga
    1.42144380    0.00000000    2.84427450   1       9  Li-gga
   -1.42357810    2.46570960    0.94809150   1      10  Li-gga
   -0.71072190    1.23100644    2.84427450   1      11  Li-gga
    0.71072190    1.23100644    0.94809150   1      12  Li-gga
    1.42357810    2.46570960    2.84427450   1      13  Li-gga

superc: Internal auxiliary supercell:     9 x     9 x     9  =     729
superc: Number of atoms, orbitals, and projectors:   9477  11664  85293

outcell: Unit cell vectors (Ang):
        4.268600    0.000000    0.000000
       -2.134300    3.696716    0.000000
        0.000000    0.000000    3.792366

outcell: Cell vector modules (Ang)   :    4.268600    4.268600    3.792366
outcell: Cell angles (23,13,12) (deg):     90.0000     90.0000    120.0000
outcell: Cell volume (Ang**3)        :     59.8428
<dSpData1D:S at geom step 0
  <sparsity:sparsity for geom step 0
    nrows_g=16 nrows=2 sparsity=19.4336 nnzs=4975, refcount: 7>
  <dData1D:(new from dSpData1D) n=4975, refcount: 1>
refcount: 1>
new_DM -- step:     1
Initializing Density Matrix...
DM filled with atomic data:
<dSpData2D:DM initialized from atoms
  <sparsity:sparsity for geom step 0
    nrows_g=16 nrows=2 sparsity=19.4336 nnzs=4975, refcount: 8>
  <dData2D:DM n=4975 m=1, refcount: 1>
refcount: 1>
No. of atoms with KB's overlaping orbs in proc 0. Max # of overlaps:     443     459
New grid distribution:   1
           1       1:   20    1:    7    1:    5
           2       1:   20    1:    7    6:   10
           3       1:   20    1:    7   11:   15
           4       1:   20    1:    7   16:   20
           5       1:   20    8:   14    1:    5
           6       1:   20    8:   14    6:   10
           7       1:   20    8:   14   11:   15
           8       1:   20    8:   14   16:   20
           9       1:   20   15:   20    1:    5
          10       1:   20   15:   20    6:   10
          11       1:   20   15:   20   11:   15
          12       1:   20   15:   20   16:   20

InitMesh: MESH =    40 x    40 x    40 =       64000
InitMesh: (bp) =    20 x    20 x    20 =        8000
InitMesh: Mesh cutoff (required, used) =   300.000   307.469 Ry
ExtMesh (bp) on 0 =   160 x   147 x   141 =     3316320
New grid distribution:   2
           1       1:    7    1:   10    1:   10
           2       8:   20   11:   20   11:   15
           3       1:    7    1:   10   11:   20
           4       8:   20    1:   10    1:    5
           5       8:   20   11:   20    1:    5
           6       8:   20    1:   10    6:   10
           7       1:    7   11:   20   11:   20
           8       8:   20    1:   10   16:   20
           9       1:    7   11:   20    1:   10
          10       8:   20    1:   10   11:   15
          11       8:   20   11:   20    6:   10
          12       8:   20   11:   20   16:   20
New grid distribution:   3
           1       1:    7    1:   10    1:   10
           2       8:   20   11:   20   11:   15
           3       1:    7    1:   10   11:   20
           4       8:   20    1:   10    1:    5
           5       8:   20   11:   20    1:    5
           6       8:   20    1:   10    6:   10
           7       1:    7   11:   20   11:   20
           8       8:   20    1:   10   16:   20
           9       1:    7   11:   20    1:   10
          10       8:   20    1:   10   11:   15
          11       8:   20   11:   20    6:   10
          12       8:   20   11:   20   16:   20
Setting up quadratic distribution...
ExtMesh (bp) on 0 =   147 x   150 x   146 =     3219300
PhiOnMesh: Number of (b)points on node 0 =                  700
PhiOnMesh: nlist on node 0 =               162871

stepf: Fermi-Dirac step function

siesta: Program's energy decomposition (eV):
siesta: Ebs     =      -261.618227
siesta: Eions   =       380.620085
siesta: Ena     =        74.737979
siesta: Ekin    =       342.914328
siesta: Enl     =        22.979257
siesta: Eso     =         0.000000
siesta: Edftu   =         0.000000
siesta: DEna    =       -64.412406
siesta: DUscf   =        43.261057
siesta: DUext   =         0.000000
siesta: Exc     =      -202.395279
siesta: eta*DQ  =         0.000000
siesta: Emadel  =         0.000000
siesta: Emeta   =         0.000000
siesta: Emolmec =       -12.913146
siesta: Ekinion =         0.000000
siesta: Eharris =       -86.499294
siesta: Etot    =      -176.448295
siesta: FreeEng =      -176.452865

        iscf     Eharris(eV)        E_KS(eV)     FreeEng(eV)     dDmax    Ef(eV) dHmax(eV)
   scf:    1      -86.499294     -176.448295     -176.452865 10.729893-16.007874 19.836684
timer: Routine,Calls,Time,% = IterSCF        1       1.245  14.99
   scf:    2     -187.341166     -182.064647     -182.071341  1.120161-15.685609 12.960677
   scf:    3     -184.935092     -187.455435     -187.462833  7.134742-10.443389  5.737558
   scf:    4     -188.334858     -188.765057     -188.770510  3.859556-13.920568  2.567247
   scf:    5     -188.931858     -188.850159     -188.855610  0.124993-13.768884  2.212980
   scf:    6     -189.184995     -189.068378     -189.075670  0.808691-13.092466  0.126875
   scf:    7     -189.066253     -189.067404     -189.074279  0.036563-13.110568  0.207082
   scf:    8     -189.069322     -189.068877     -189.076573  0.086440-13.069603  0.022854
   scf:    9     -189.068818     -189.068858     -189.076603  0.012509-13.063322  0.002528
   scf:   10     -189.068877     -189.068869     -189.076601  0.004145-13.065407  0.006367
   scf:   11     -189.068852     -189.068861     -189.076603  0.003026-13.064018  0.000215
   scf:   12     -189.068861     -189.068861     -189.076603  0.000161-13.064280  0.000032

SCF Convergence by FreeE+DM+H criterion
|FreeE_i-FreeE_(i-1)| (eV) <     0.00100000
max |DM_out - DM_in|         :     0.0001607334
max |H_out - H_in|      (eV) :     0.0000322941
SCF cycle converged after 12 iterations

Using DM_out to compute the final energy and forces
No. of atoms with KB's overlaping orbs in proc 0. Max # of overlaps:     443     459

MM-Stress (kbar):      210.25      210.25      838.88        0.00       -0.00        0.00

siesta: E_KS(eV) =             -189.0689

siesta: E_KS - E_eggbox =      -189.0689

siesta: Atomic forces (eV/Ang):
     1    0.000000    0.000000    0.000000
     2   -1.275650    0.000064   -1.466948
     3    1.275650   -0.000064    1.466948
     4    0.637880   -1.104713   -1.466948
     5   -0.637880    1.104713    1.466948
     6    0.637862    1.104809   -1.467126
     7   -0.637862   -1.104809    1.467126
     8    1.275650   -0.000064   -1.466948
     9   -1.275650    0.000064    1.466948
    10   -0.637880    1.104713   -1.466948
    11    0.637880   -1.104713    1.466948
    12   -0.637862   -1.104809   -1.467126
    13    0.637862    1.104809    1.467126
----------------------------------------
   Tot    0.000000    0.000000   -0.000000
----------------------------------------
   Max    1.467126
   Res    1.078383    sqrt( Sum f_i^2 / 3N )
----------------------------------------
   Max    1.467126    constrained

Stress tensor Voigt[x,y,z,yz,xz,xy] (kbar):    -3540.73    -3540.84    -1576.25       -0.00       -0.00       -0.10
(Free)E + p*V (eV/cell)      -81.2853
Target enthalpy (eV/cell)     -189.0766

siesta: Eigenvalues (eV):
  ik is       eps
   1  1  -26.6129  -24.5556  -24.1899  -17.4635  -16.7196  -16.3580  -14.7560   -7.5114    4.5856    5.2120
           6.4072    6.4577    9.2280   12.4547   12.5625   13.7723
   2  1  -26.6981  -24.6280  -23.5170  -19.5907  -17.1303  -17.0106  -12.6818  -12.5335   -9.9892    2.6593
           5.5540    7.5612    8.1018   11.0114   16.9101   17.7681
   3  1  -26.6981  -24.6280  -23.5170  -19.5907  -17.1303  -17.0104  -12.6821  -12.5333   -9.9892    2.6592
           5.5540    7.5612    8.1018   11.0114   16.9101   17.7680
   4  1  -26.6129  -24.5557  -24.1899  -17.4634  -16.7195  -16.3583  -14.7558   -7.5114    4.5856    5.2120
           6.4072    6.4577    9.2280   12.4547   12.5626   13.7723
   5  1  -26.6981  -24.6280  -23.5170  -19.5907  -17.1303  -17.0106  -12.6818  -12.5335   -9.9892    2.6593
           5.5540    7.5612    8.1018   11.0114   16.9101   17.7681
   6  1  -26.6114  -21.9631  -19.6519  -19.6519  -17.4489  -17.4489  -16.8270   -9.9685   -5.7793   -5.7787
           3.1124    3.1125    3.3698    3.3699   12.5103   20.2561
   7  1  -26.7814  -24.8694  -24.5852  -19.5830  -17.5132  -15.7369  -14.3220  -12.2781   -6.8215    3.0763
           5.7086    7.3367    8.0073   12.0365   13.0408   13.1291
   8  1  -26.6129  -24.5557  -24.1899  -17.4634  -16.7195  -16.3583  -14.7558   -7.5114    4.5856    5.2120
           6.4072    6.4577    9.2280   12.4547   12.5626   13.7723
   9  1  -26.6129  -24.5557  -24.1899  -17.4634  -16.7195  -16.3583  -14.7558   -7.5114    4.5856    5.2120
           6.4072    6.4577    9.2280   12.4547   12.5626   13.7723
  10  1  -26.7814  -24.8694  -24.5852  -19.5830  -17.5132  -15.7369  -14.3220  -12.2781   -6.8215    3.0763
           5.7086    7.3367    8.0073   12.0365   13.0408   13.1291
  11  1  -26.6129  -24.5557  -24.1899  -17.4634  -16.7195  -16.3583  -14.7558   -7.5114    4.5856    5.2120
           6.4072    6.4577    9.2280   12.4547   12.5626   13.7723
  12  1  -26.7814  -24.8694  -24.5852  -19.5830  -17.5132  -15.7366  -14.3219  -12.2784   -6.8215    3.0763
           5.7086    7.3367    8.0073   12.0366   13.0408   13.1291
  13  1  -26.4793  -24.9004  -24.1493  -24.0353  -22.8702  -22.1269  -14.1375  -14.0671  -13.1231   -3.7009
           7.8191    9.5020    9.8011   10.3157   11.9081   13.0469
  14  1  -26.5230  -24.8701  -23.7131  -22.0496  -19.8046  -19.2376  -14.9013  -13.1128  -11.0399   -3.0975
           5.8144    7.5539    8.9899   11.8690   16.2501   17.8690
  15  1  -26.5230  -24.8701  -23.7131  -22.0496  -19.8046  -19.2376  -14.9011  -13.1131  -11.0399   -3.0974
           5.8144    7.5539    8.9900   11.8690   16.2501   17.8690
  16  1  -26.4793  -24.9004  -24.1493  -24.0353  -22.8702  -22.1269  -14.1372  -14.0674  -13.1231   -3.7008
           7.8191    9.5020    9.8011   10.3157   11.9081   13.0469
  17  1  -26.5230  -24.8701  -23.7131  -22.0496  -19.8046  -19.2376  -14.9013  -13.1128  -11.0399   -3.0975
           5.8144    7.5539    8.9899   11.8690   16.2501   17.8690
  18  1  -26.5081  -24.7279  -19.4097  -19.1885  -19.1884  -15.9291  -15.0505  -15.0505   -3.7857   -3.7852
           6.5191    6.5191    6.9176    6.9176   13.3660   17.7433
  19  1  -26.5230  -24.8701  -23.7131  -22.0496  -19.8046  -19.2376  -14.9013  -13.1128  -11.0399   -3.0975
           5.8144    7.5539    8.9899   11.8690   16.2501   17.8690
  20  1  -26.5397  -24.8788  -24.7058  -24.2904  -23.3391  -19.8778  -14.4567  -13.7442  -13.1409   -7.3613
           3.4168    7.6783    8.8542   11.6165   11.8898   11.9265
  21  1  -26.5230  -24.8701  -23.7131  -22.0496  -19.8046  -19.2376  -14.9011  -13.1131  -11.0399   -3.0974
           5.8144    7.5539    8.9900   11.8690   16.2501   17.8690
  22  1  -26.5230  -24.8701  -23.7131  -22.0496  -19.8046  -19.2376  -14.9013  -13.1128  -11.0399   -3.0975
           5.8144    7.5539    8.9899   11.8690   16.2501   17.8690
  23  1  -26.4793  -24.9004  -24.1493  -24.0353  -22.8702  -22.1269  -14.1375  -14.0671  -13.1231   -3.7009
           7.8191    9.5020    9.8011   10.3157   11.9081   13.0469
  24  1  -26.4793  -24.9004  -24.1493  -24.0353  -22.8702  -22.1269  -14.1372  -14.0674  -13.1231   -3.7008
           7.8191    9.5020    9.8011   10.3157   11.9081   13.0469
  25  1  -26.4793  -24.9004  -24.1493  -24.0353  -22.8702  -22.1269  -14.1372  -14.0674  -13.1231   -3.7008
           7.8191    9.5020    9.8011   10.3157   11.9081   13.0469
  26  1  -26.5397  -24.8788  -24.7058  -24.2904  -23.3391  -19.8778  -14.4567  -13.7442  -13.1409   -7.3613
           3.4168    7.6783    8.8542   11.6165   11.8898   11.9265
  27  1  -26.4793  -24.9004  -24.1493  -24.0353  -22.8702  -22.1269  -14.1372  -14.0674  -13.1231   -3.7008
           7.8191    9.5020    9.8011   10.3157   11.9081   13.0469
  28  1  -26.5397  -24.8788  -24.7058  -24.2904  -23.3391  -19.8778  -14.4566  -13.7444  -13.1405   -7.3613
           3.4167    7.6783    8.8541   11.6165   11.8898   11.9265
  29  1  -26.3144  -24.6205  -24.3194  -24.2381  -24.0726  -23.8162  -14.4243  -14.0441  -11.9080   -6.2496
          10.8255   10.9560   11.0800   11.1181   11.3026   11.5634
  30  1  -26.2618  -24.7308  -23.8989  -23.7715  -20.0925  -17.8048  -17.5917  -16.5452  -14.0074   -5.3109
          -1.6582    8.3561   11.0702   11.6775   14.0385   14.1923
  31  1  -26.2618  -24.7308  -23.8989  -23.7715  -20.0926  -17.8048  -17.5917  -16.5451  -14.0071   -5.3112
          -1.6582    8.3562   11.0702   11.6775   14.0385   14.1923
  32  1  -26.3144  -24.6205  -24.3193  -24.2381  -24.0727  -23.8162  -14.4247  -14.0438  -11.9080   -6.2495
          10.8255   10.9560   11.0801   11.1181   11.3025   11.5634
  33  1  -26.2618  -24.7308  -23.8989  -23.7715  -20.0925  -17.8048  -17.5917  -16.5452  -14.0074   -5.3109
          -1.6582    8.3561   11.0702   11.6775   14.0385   14.1923
  34  1  -26.2987  -24.8562  -19.1267  -18.0701  -18.0699  -16.5342    3.1481    3.1481    3.2613    3.2613
           3.5526    3.5526   14.6326   14.8565   15.0714   15.0716
  35  1  -26.2618  -24.7308  -23.8989  -23.7715  -20.0925  -17.8048  -17.5917  -16.5452  -14.0074   -5.3109
          -1.6582    8.3561   11.0702   11.6775   14.0385   14.1923
  36  1  -26.2422  -24.6817  -24.4681  -24.1902  -20.6069  -19.3916  -18.7466  -18.1055  -13.3320   -6.1305
          -4.5833    7.9274    9.3441    9.4743    9.5266   10.9557
  37  1  -26.2618  -24.7308  -23.8989  -23.7715  -20.0926  -17.8048  -17.5917  -16.5451  -14.0071   -5.3112
          -1.6582    8.3562   11.0702   11.6775   14.0385   14.1923
  38  1  -26.2618  -24.7308  -23.8989  -23.7715  -20.0925  -17.8048  -17.5917  -16.5452  -14.0074   -5.3109
          -1.6582    8.3561   11.0702   11.6775   14.0385   14.1923
  39  1  -26.3144  -24.6205  -24.3194  -24.2381  -24.0726  -23.8162  -14.4243  -14.0441  -11.9080   -6.2496
          10.8255   10.9560   11.0800   11.1181   11.3026   11.5634
  40  1  -26.3144  -24.6205  -24.3193  -24.2381  -24.0727  -23.8162  -14.4247  -14.0438  -11.9080   -6.2495
          10.8255   10.9560   11.0801   11.1181   11.3025   11.5634
  41  1  -26.3144  -24.6205  -24.3193  -24.2381  -24.0727  -23.8162  -14.4247  -14.0438  -11.9080   -6.2495
          10.8255   10.9560   11.0801   11.1181   11.3025   11.5634
  42  1  -26.2422  -24.6817  -24.4681  -24.1902  -20.6069  -19.3916  -18.7466  -18.1055  -13.3320   -6.1305
          -4.5833    7.9274    9.3441    9.4743    9.5266   10.9557
  43  1  -26.3144  -24.6205  -24.3193  -24.2381  -24.0727  -23.8162  -14.4247  -14.0438  -11.9080   -6.2495
          10.8255   10.9560   11.0801   11.1181   11.3025   11.5634
  44  1  -26.2422  -24.6817  -24.4681  -24.1902  -20.6069  -19.3915  -18.7465  -18.1055  -13.3316   -6.1309
          -4.5833    7.9274    9.3441    9.4743    9.5266   10.9556
siesta: Fermi energy =     -13.064280 eV

siesta: Program's energy decomposition (eV):
siesta: Ebs     =      -331.954806
siesta: Eions   =       380.620085
siesta: Ena     =        74.737979
siesta: Ekin    =       303.942444
siesta: Enl     =        38.615763
siesta: Eso     =         0.000000
siesta: Edftu   =         0.000000
siesta: DEna    =       -36.499423
siesta: DUscf   =        16.343886
siesta: DUext   =         0.000000
siesta: Exc     =      -192.676278
siesta: eta*DQ  =         0.000000
siesta: Emadel  =         0.000000
siesta: Emeta   =         0.000000
siesta: Emolmec =       -12.913146
siesta: Ekinion =         0.000000
siesta: Eharris =      -189.068861
siesta: Etot    =      -189.068861
siesta: FreeEng =      -189.076603

siesta: Final energy (eV):
siesta:  Band Struct. =    -331.954806
siesta:       Kinetic =     303.942444
siesta:       Hartree =     109.814566
siesta:       Edftu   =       0.000000
siesta:       Eso     =       0.000000
siesta:    Ext. field =       0.000000
siesta:   Exch.-corr. =    -192.676278
siesta:  Ion-electron =    -647.555070
siesta:       Ion-ion =     250.318624
siesta:       Ekinion =       0.000000
siesta:         Total =    -189.068861
siesta:         Fermi =     -13.064280

siesta: Atomic forces (eV/Ang):
siesta:      1    0.000000    0.000000    0.000000
siesta:      2   -1.275650    0.000064   -1.466948
siesta:      3    1.275650   -0.000064    1.466948
siesta:      4    0.637880   -1.104713   -1.466948
siesta:      5   -0.637880    1.104713    1.466948
siesta:      6    0.637862    1.104809   -1.467126
siesta:      7   -0.637862   -1.104809    1.467126
siesta:      8    1.275650   -0.000064   -1.466948
siesta:      9   -1.275650    0.000064    1.466948
siesta:     10   -0.637880    1.104713   -1.466948
siesta:     11    0.637880   -1.104713    1.466948
siesta:     12   -0.637862   -1.104809   -1.467126
siesta:     13    0.637862    1.104809    1.467126
siesta: ----------------------------------------
siesta:    Tot    0.000000    0.000000   -0.000000

siesta: Stress tensor (static) (eV/Ang**3):
siesta:    -2.209924   -0.000061   -0.000000
siesta:    -0.000061   -2.209994   -0.000000
siesta:    -0.000000   -0.000000   -0.983807

siesta: Cell volume =         59.842785 Ang**3

siesta: Pressure (static):
siesta:                Solid            Molecule  Units
siesta:           0.01961782          0.01794327  Ry/Bohr**3
siesta:           1.80124161          1.64749010  eV/Ang**3
siesta:        2885.93841445       2639.59867691  kBar
(Free)E+ p_basis*V_orbitals  =        -172.909990
(Free)Eharris+ p_basis*V_orbitals  =        -172.909989

cite: Please see "LiC12_scf.bib" for an exhaustive BiBTeX file.
cite: Please clearly indicate Siesta version in published work: 4.1.5
cite: This calculation has made use of the following articles
cite: which are encouraged to be cited in a published work.
        Primary SIESTA paper
          DOI: www.doi.org/10.1088/0953-8984/14/11/302

>> End of run:   9-NOV-2022  14:51:53
Job completed
