Siesta Version  : 4.1.5
Architecture    : x86_64-unknown-linux-gnu--unknown
Compiler version: GNU Fortran (GCC) 11.3.0
Compiler flags  : mpif90 -g -O2 -fallow-argument-mismatch
PP flags        : -DMPI -DFC_HAVE_FLUSH -DFC_HAVE_ABORT
Libraries       :  -I/global/software/sl-7.x86_64/modules/intel/2020.4.304/mkl/include  /globall/software/sl-7.x86_64/modules/intel/2020.4.304/mkl/lib/intel64/libmkl_scalapack_lp64.a -Wl,--start-group /global/software/sl-7.x86_64/modules/intel/2020.4.304/mkl/lib/intel64/libmkl_intel_lp64.a /global/software/sl-7.x86_64/modules/intel/2020.4.304/mkl/lib/intel64/libmkl_sequential.a /global/software/sl-7.x86_64/modules/intel/2020.4.304/mkl/lib/intel64/libmkl_core.a /global/software/sl-7.x86_64/modules/intel/2020.4.304/mkl/lib/intel64/libmkl_blacs_openmpi_lp64.a -Wl,--end-group -lpthread -lm -ldl
PARALLEL version

* Running on 12 nodes in parallel
>> Start of run:   9-NOV-2022  14:57:49

                           ***********************       
                           *  WELCOME TO SIESTA  *       
                           ***********************       

reinit: Reading from standard input
reinit: Dumped input in INPUT_TMP.36765
************************** Dump of input data file ****************************
SystemName LiC12_scf
SystemLabel LiC12_scf
NumberOfAtoms   13
NumberOfSpecies 2
%block ChemicalSpeciesLabel
1  3   Li-gga
2  6   C-gga
%endblock ChemicalSpeciesLabel
PAO.BasisSize  SZ
PAO.EnergyShift  10 meV
%block PS.Lmax
C-gga   2
Li-gga  2
%endblock PS.Lmax
LatticeConstant 1.000000 Ang
%block LatticeVectors
	4.2686000000	0.0000000000	0.0000000000
	-2.1343000000	3.6967160386	0.0000000000
	0.0000000000	0.0000000000	10.1129760000
%endblock LatticeVectors
AtomicCoordinatesFormat Ang
%block AtomicCoordinatesAndAtomicSpecies
	0.00000000	0.00000000	0.00000000	2
	1.42144380	0.00000000	2.52824400	1
	2.84715620	0.00000000	7.58473200	1
	-0.71072190	1.23100644	2.52824400	1
	-1.42357810	2.46570960	7.58473200	1
	1.42357810	2.46570960	2.52824400	1
	0.71072190	1.23100644	7.58473200	1
	2.84715620	0.00000000	2.52824400	1
	1.42144380	0.00000000	7.58473200	1
	-1.42357810	2.46570960	2.52824400	1
	-0.71072190	1.23100644	7.58473200	1
	0.71072190	1.23100644	2.52824400	1
	1.42357810	2.46570960	7.58473200	1
%endblock AtomicCoordinatesAndAtomicSpecies
Kgrid_NoTRS  T
%block kgrid_MonkhorstPack
4       0       0       0.0
0       4       0       0.0
0       0       4       0.0
%endblock kgrid_MonkhorstPack
AtomCoorFormatOut Ang
BlockSize 1
#ProcessorY 12
Diag.ParallelOverK   T
Diag.DivideAndConquer F
MeshCutoff   300 Ry
SCF.FreeE.Tolerance 1E-3 eV
SCF.EDM.Tolerance   5E-3 eV
DM.Tolerance  1E-3
DM.Require.Energy.Convergence T
DM.NumberPulay 4
XC.Functional GGA
XC.Authors    PBE
UseSaveData        F
MD.TypeOfRun       CG
MD.VariableCell    F
MD.NumCGsteps      00
MD.MaxCGDispl      0.200000 Bohr
MD.MaxStressTol    1.000000 GPa
MD.MaxForceTol     0.010000 eV/Ang
WriteMDHistory T
WriteCoorStep T
WriteForces T
WriteCoorStep    T
WriteEigenValues T
WriteDM    F
MM.UnitsDistance Ang  # what this program prints out DO NOT CHANGE
MM.UnitsEnergy    eV  # what this program prints out DO NOT CHANGE
MM.Grimme.S6     0.75 # Grimme-paper for PBE (correct for your functional)
MM.Grimme.D     20.   # Grimme-paper (correct for your functional)
%block MM.Potentials
  1   1 Grimme     16.69      1.650 # Li, 10.1002/jcc.20495
  1   2 Grimme     17.40      2.277 # Li / C
  2   2 Grimme     18.14      2.904 # C, 10.1002/jcc.20495
%endblock MM.Potentials
#%block ProjectedDensityOfStates
# -200.0  120.0  0.4  12800  eV
#%endblock ProjectedDensityOfStates
************************** End of input data file *****************************

reinit: -----------------------------------------------------------------------
reinit: System Name: LiC12_scf
reinit: -----------------------------------------------------------------------
reinit: System Label: LiC12_scf
reinit: -----------------------------------------------------------------------
Reading two-body potentials
Grimme - two-body potential between 1 and 1
Grimme - two-body potential between 1 and 2
Grimme - two-body potential between 2 and 2

initatom: Reading input for the pseudopotentials and atomic orbitals ----------
Species number:   1 Atomic number:    3 Label: Li-gga
Species number:   2 Atomic number:    6 Label: C-gga

Ground state valence configuration:   2s01
Reading pseudopotential information in formatted form from Li-gga.psf

Valence configuration for pseudopotential generation:
2s( 1.00) rc: 2.28
2p( 0.00) rc: 2.28
3d( 0.00) rc: 2.59
4f( 0.00) rc: 2.59
Ground state valence configuration:   2s02  2p02
Reading pseudopotential information in formatted form from C-gga.psf

Valence configuration for pseudopotential generation:
2s( 2.00) rc: 1.56
2p( 2.00) rc: 1.56
3d( 0.00) rc: 1.56
4f( 0.00) rc: 1.56
relmxkb: Read Max KB Ang. Momentum=    2 for species C-gga
relmxkb: Read Max KB Ang. Momentum=    2 for species Li-gga

<basis_specs>
===============================================================================
Li-gga               Z=   3    Mass=  6.9400        Charge= 0.17977+309
Lmxo=0 Lmxkb= 2    BasisType=split      Semic=F
L=0  Nsemic=0  Cnfigmx=2
          i=1  nzeta=1  polorb=0  (2s)
            splnorm:   0.15000    
               vcte:    0.0000    
               rinn:    0.0000    
               qcoe:    0.0000    
               qyuk:    0.0000    
               qwid:   0.10000E-01
                rcs:    0.0000    
            lambdas:    1.0000    
-------------------------------------------------------------------------------
L=0  Nkbl=1  erefs: 0.17977+309
L=1  Nkbl=1  erefs: 0.17977+309
L=2  Nkbl=1  erefs: 0.17977+309
===============================================================================
</basis_specs>

atom: Called for Li-gga                (Z =   3)

read_vps: Pseudopotential generation method:
read_vps: ATM 3.2.2 Troullier-Martins                       
Valence charge for ps generation:    1.00000

read_vps: Pseudopotential includes a core correction:
read_vps: Pseudo-core for xc-correction

xc_check: Exchange-correlation functional:
xc_check: GGA Perdew, Burke & Ernzerhof 1996
V l=0 = -2*Zval/r beyond r=  2.2278
V l=1 = -2*Zval/r beyond r=  2.2278
V l=2 = -2*Zval/r beyond r=  2.5245
All V_l potentials equal beyond r=  2.4622
This should be close to max(r_c) in ps generation
All pots = -2*Zval/r beyond r=  2.5245

VLOCAL1: 99.0% of the norm of Vloc inside      7.160 Ry
VLOCAL1: 99.9% of the norm of Vloc inside     16.318 Ry
atom: Maximum radius for 4*pi*r*r*local-pseudopot. charge    2.86079
atom: Maximum radius for r*vlocal+2*Zval:    2.43160
GHOST: No ghost state for L =  0
GHOST: No ghost state for L =  1
GHOST: No ghost state for L =  2

KBgen: Kleinman-Bylander projectors: 
   l= 0   rc=  2.654023   el= -0.211234   Ekb=  1.742119   kbcos=  0.228463
   l= 1   rc=  2.721230   el= -0.080095   Ekb= -1.122375   kbcos= -0.147941
   l= 2   rc=  2.825246   el=  0.002001   Ekb= -0.207076   kbcos= -0.031965

KBgen: Total number of Kleinman-Bylander projectors:    9
atom: -------------------------------------------------------------------------

atom: SANKEY-TYPE ORBITALS:

SPLIT: Orbitals with angular momentum L= 0

SPLIT: Basis orbitals for state 2s

SPLIT: PAO cut-off radius determined from an
SPLIT: energy shift=  0.000735 Ry

   izeta = 1
                 lambda =    1.000000
                     rc =   11.897381
                 energy =   -0.210580
                kinetic =    0.143382
    potential(screened) =   -0.353962
       potential(ionic) =   -0.533453
atom: Total number of Sankey-type orbitals:  1

atm_pop: Valence configuration (for local Pseudopot. screening):
 2s( 1.00)                                                            
Vna: chval, zval:    1.00000   1.00000

Vna:  Cut-off radius for the neutral-atom potential:  11.897381
comcore: Pseudo-core radius Rcore=  3.450946

atom: _________________________________________________________________________

<basis_specs>
===============================================================================
C-gga                Z=   6    Mass=  12.010        Charge= 0.17977+309
Lmxo=1 Lmxkb= 2    BasisType=split      Semic=F
L=0  Nsemic=0  Cnfigmx=2
          i=1  nzeta=1  polorb=0  (2s)
            splnorm:   0.15000    
               vcte:    0.0000    
               rinn:    0.0000    
               qcoe:    0.0000    
               qyuk:    0.0000    
               qwid:   0.10000E-01
                rcs:    0.0000    
            lambdas:    1.0000    
L=1  Nsemic=0  Cnfigmx=2
          i=1  nzeta=1  polorb=0  (2p)
            splnorm:   0.15000    
               vcte:    0.0000    
               rinn:    0.0000    
               qcoe:    0.0000    
               qyuk:    0.0000    
               qwid:   0.10000E-01
                rcs:    0.0000    
            lambdas:    1.0000    
-------------------------------------------------------------------------------
L=0  Nkbl=1  erefs: 0.17977+309
L=1  Nkbl=1  erefs: 0.17977+309
L=2  Nkbl=1  erefs: 0.17977+309
===============================================================================
</basis_specs>

atom: Called for C-gga                 (Z =   6)

read_vps: Pseudopotential generation method:
read_vps: ATM 3.2.2 Troullier-Martins                       
Valence charge for ps generation:    4.00000

xc_check: Exchange-correlation functional:
xc_check: GGA Perdew, Burke & Ernzerhof 1996
V l=0 = -2*Zval/r beyond r=  1.5227
V l=1 = -2*Zval/r beyond r=  1.5227
V l=2 = -2*Zval/r beyond r=  1.5227
All V_l potentials equal beyond r=  1.4851
This should be close to max(r_c) in ps generation
All pots = -2*Zval/r beyond r=  1.5227

VLOCAL1: 99.0% of the norm of Vloc inside     19.682 Ry
VLOCAL1: 99.9% of the norm of Vloc inside     44.856 Ry
atom: Maximum radius for 4*pi*r*r*local-pseudopot. charge    1.79142
atom: Maximum radius for r*vlocal+2*Zval:    1.54183
GHOST: No ghost state for L =  0
GHOST: No ghost state for L =  1
GHOST: No ghost state for L =  2

KBgen: Kleinman-Bylander projectors: 
   l= 0   rc=  1.661951   el= -1.010689   Ekb=  5.289847   kbcos=  0.316429
   l= 1   rc=  1.661951   el= -0.388490   Ekb= -4.102504   kbcos= -0.351025
   l= 2   rc=  1.747182   el=  0.001971   Ekb= -1.006005   kbcos= -0.008530

KBgen: Total number of Kleinman-Bylander projectors:    9
atom: -------------------------------------------------------------------------

atom: SANKEY-TYPE ORBITALS:

SPLIT: Orbitals with angular momentum L= 0

SPLIT: Basis orbitals for state 2s

SPLIT: PAO cut-off radius determined from an
SPLIT: energy shift=  0.000735 Ry

   izeta = 1
                 lambda =    1.000000
                     rc =    5.948690
                 energy =   -1.010099
                kinetic =    0.827121
    potential(screened) =   -1.837220
       potential(ionic) =   -5.392783

SPLIT: Orbitals with angular momentum L= 1

SPLIT: Basis orbitals for state 2p

SPLIT: PAO cut-off radius determined from an
SPLIT: energy shift=  0.000735 Ry

   izeta = 1
                 lambda =    1.000000
                     rc =    7.638387
                 energy =   -0.387843
                kinetic =    2.314739
    potential(screened) =   -2.702582
       potential(ionic) =   -6.092371
atom: Total number of Sankey-type orbitals:  4

atm_pop: Valence configuration (for local Pseudopot. screening):
 2s( 2.00)                                                            
 2p( 2.00)                                                            
Vna: chval, zval:    4.00000   4.00000

Vna:  Cut-off radius for the neutral-atom potential:   7.638387

atom: _________________________________________________________________________

prinput: Basis input ----------------------------------------------------------

PAO.BasisType split     

%block ChemicalSpeciesLabel
    1    3 Li-gga                  # Species index, atomic number, species label
    2    6 C-gga                   # Species index, atomic number, species label
%endblock ChemicalSpeciesLabel

%block PAO.Basis                 # Define Basis set
Li-gga                1                    # Species label, number of l-shells
 n=2   0   1                         # n, l, Nzeta 
  11.897   
   1.000   
C-gga                 2                    # Species label, number of l-shells
 n=2   0   1                         # n, l, Nzeta 
   5.949   
   1.000   
 n=2   1   1                         # n, l, Nzeta 
   7.638   
   1.000   
%endblock PAO.Basis

prinput: ----------------------------------------------------------------------

coor:   Atomic-coordinates input format  =     Cartesian coordinates
coor:                                          (in Angstroms)

siesta: Atomic coordinates (Bohr) and species
siesta:      0.00000   0.00000   0.00000  2        1
siesta:      2.68614   0.00000   4.77769  1        2
siesta:      5.38035   0.00000  14.33307  1        3
siesta:     -1.34307   2.32627   4.77769  1        4
siesta:     -2.69017   4.65952  14.33307  1        5
siesta:      2.69017   4.65952   4.77769  1        6
siesta:      1.34307   2.32627  14.33307  1        7
siesta:      5.38035   0.00000   4.77769  1        8
siesta:      2.68614   0.00000  14.33307  1        9
siesta:     -2.69017   4.65952   4.77769  1       10
siesta:     -1.34307   2.32627  14.33307  1       11
siesta:      1.34307   2.32627   4.77769  1       12
siesta:      2.69017   4.65952  14.33307  1       13

siesta: System type = bulk      

initatomlists: Number of atoms, orbitals, and projectors:     13    16   117

siesta: ******************** Simulation parameters ****************************
siesta:
siesta: The following are some of the parameters of the simulation.
siesta: A complete list of the parameters used, including default values,
siesta: can be found in file out.fdf
siesta:
redata: Spin configuration                          = none
redata: Number of spin components                   = 1
redata: Time-Reversal Symmetry                      = T
redata: Spin spiral                                 = F
redata: Long output                                 =   F
redata: Number of Atomic Species                    =        2
redata: Charge density info will appear in .RHO file
redata: Write Mulliken Pop.                         = NO
redata: Matel table size (NRTAB)                    =     1024
redata: Mesh Cutoff                                 =   300.0000 Ry
redata: Net charge of the system                    =     0.0000 |e|
redata: Min. number of SCF Iter                     =        0
redata: Max. number of SCF Iter                     =     1000
redata: SCF convergence failure will abort job
redata: SCF mix quantity                            = Hamiltonian
redata: Mix DM or H after convergence               =   F
redata: Recompute H after scf cycle                 =   F
redata: Mix DM in first SCF step                    =   T
redata: Write Pulay info on disk                    =   F
redata: New DM Occupancy tolerance                  = 0.000000000001
redata: No kicks to SCF
redata: DM Mixing Weight for Kicks                  =     0.5000
redata: Require Harris convergence for SCF          =   F
redata: Harris energy tolerance for SCF             =     0.000100 eV
redata: Require DM convergence for SCF              =   T
redata: DM tolerance for SCF                        =     0.001000
redata: Require EDM convergence for SCF             =   F
redata: EDM tolerance for SCF                       =     0.005000 eV
redata: Require H convergence for SCF               =   T
redata: Hamiltonian tolerance for SCF               =     0.001000 eV
redata: Require (free) Energy convergence for SCF   =   T
redata: (free) Energy tolerance for SCF             =     0.001000 eV
redata: Using Saved Data (generic)                  =   F
redata: Use continuation files for DM               =   F
redata: Neglect nonoverlap interactions             =   F
redata: Method of Calculation                       = Diagonalization
redata: Electronic Temperature                      =   299.9869 K
redata: Fix the spin of the system                  =   F
redata: Dynamics option                             = Single-point calculation
mix.SCF: Pulay mixing                            = Pulay
mix.SCF:    Variant                              = stable
mix.SCF:    History steps                        = 4
mix.SCF:    Linear mixing weight                 =     0.250000
mix.SCF:    Mixing weight                        =     0.250000
mix.SCF:    SVD condition                        = 0.1000E-07
redata: ***********************************************************************

%block SCF.Mixers
  Pulay
%endblock SCF.Mixers

%block SCF.Mixer.Pulay
  # Mixing method
  method pulay
  variant stable

  # Mixing options
  weight 0.2500
  weight.linear 0.2500
  history 4
%endblock SCF.Mixer.Pulay

DM_history_depth set to one: no extrapolation allowed by default for geometry relaxation
Size of DM history Fstack: 1
Total number of electrons:    16.000000
Total ionic charge:    16.000000

* ProcessorY, Blocksize:    3   1


* Orbital distribution balance (max,min):     2     1

k-point displ. along   1 input, could be:     0.00    0.50
k-point displ. along   2 input, could be:     0.00    0.50
k-point displ. along   3 input, could be:     0.00    0.50
 Kpoints in:           48 . Kpoints trimmed:           44

siesta: k-grid: Number of k-points =    44
siesta: k-grid: Cutoff (effective) =     8.537 Ang
siesta: k-grid: Supercell and displacements
siesta: k-grid:    4   0   0      0.000
siesta: k-grid:    0   4   0      0.000
siesta: k-grid:    0   0   4      0.000

diag: Algorithm                                     = Expert
diag: Parallel over k                               =   T
diag: Use parallel 2D distribution                  =   T
diag: Parallel block-size                           = 1
diag: Parallel distribution                         =     3 x     4
diag: Used triangular part                          = Lower
diag: Absolute tolerance                            =  0.100E-15
diag: Orthogonalization factor                      =  0.100E-05
diag: Memory factor                                 =  1.0000

superc: Internal auxiliary supercell:     9 x     9 x     3  =     243
superc: Number of atoms, orbitals, and projectors:   3159   3888  28431


ts: **************************************************************
ts: Save H and S matrices                           =    F
ts: Save DM and EDM matrices                        =    F
ts: Only save the overlap matrix S                  =    F
ts: **************************************************************

************************ Begin: TS CHECKS AND WARNINGS ************************
************************ End: TS CHECKS AND WARNINGS **************************


                     ====================================
                        Single-point calculation
                     ====================================

outcoor: Atomic coordinates (Ang):                          
    0.00000000    0.00000000    0.00000000   2       1  C-gga
    1.42144380    0.00000000    2.52824400   1       2  Li-gga
    2.84715620    0.00000000    7.58473200   1       3  Li-gga
   -0.71072190    1.23100644    2.52824400   1       4  Li-gga
   -1.42357810    2.46570960    7.58473200   1       5  Li-gga
    1.42357810    2.46570960    2.52824400   1       6  Li-gga
    0.71072190    1.23100644    7.58473200   1       7  Li-gga
    2.84715620    0.00000000    2.52824400   1       8  Li-gga
    1.42144380    0.00000000    7.58473200   1       9  Li-gga
   -1.42357810    2.46570960    2.52824400   1      10  Li-gga
   -0.71072190    1.23100644    7.58473200   1      11  Li-gga
    0.71072190    1.23100644    2.52824400   1      12  Li-gga
    1.42357810    2.46570960    7.58473200   1      13  Li-gga

superc: Internal auxiliary supercell:     9 x     9 x     3  =     243
superc: Number of atoms, orbitals, and projectors:   3159   3888  28431

outcell: Unit cell vectors (Ang):
        4.268600    0.000000    0.000000
       -2.134300    3.696716    0.000000
        0.000000    0.000000   10.112976

outcell: Cell vector modules (Ang)   :    4.268600    4.268600   10.112976
outcell: Cell angles (23,13,12) (deg):     90.0000     90.0000    120.0000
outcell: Cell volume (Ang**3)        :    159.5808
<dSpData1D:S at geom step 0
  <sparsity:sparsity for geom step 0
    nrows_g=16 nrows=2 sparsity=6.6367 nnzs=1699, refcount: 7>
  <dData1D:(new from dSpData1D) n=1699, refcount: 1>
refcount: 1>
new_DM -- step:     1
Initializing Density Matrix...
DM filled with atomic data:
<dSpData2D:DM initialized from atoms
  <sparsity:sparsity for geom step 0
    nrows_g=16 nrows=2 sparsity=6.6367 nnzs=1699, refcount: 8>
  <dData2D:DM n=1699 m=1, refcount: 1>
refcount: 1>
No. of atoms with KB's overlaping orbs in proc 0. Max # of overlaps:     166     169
New grid distribution:   1
           1       1:   20    1:    7    1:   14
           2       1:   20    1:    7   15:   28
           3       1:   20    1:    7   29:   41
           4       1:   20    1:    7   42:   54
           5       1:   20    8:   14    1:   14
           6       1:   20    8:   14   15:   28
           7       1:   20    8:   14   29:   41
           8       1:   20    8:   14   42:   54
           9       1:   20   15:   20    1:   14
          10       1:   20   15:   20   15:   28
          11       1:   20   15:   20   29:   41
          12       1:   20   15:   20   42:   54

InitMesh: MESH =    40 x    40 x   108 =      172800
InitMesh: (bp) =    20 x    20 x    54 =       21600
InitMesh: Mesh cutoff (required, used) =   300.000   315.204 Ry
ExtMesh (bp) on 0 =   160 x   147 x   150 =     3528000
New grid distribution:   2
           1       1:   10    8:   20   28:   42
           2       1:   20    1:    7   13:   27
           3       1:   10    8:   20    1:   12
           4       1:   20    1:    7   43:   54
           5       1:   20    1:    7   28:   42
           6      11:   20    8:   20   13:   27
           7       1:   20    1:    7    1:   12
           8      11:   20    8:   20   43:   54
           9      11:   20    8:   20    1:   12
          10       1:   10    8:   20   13:   27
          11      11:   20    8:   20   28:   42
          12       1:   10    8:   20   43:   54
New grid distribution:   3
           1       1:   10    8:   20   15:   27
           2       1:   20    1:    7   15:   27
           3       1:   20    1:    7   28:   41
           4       1:   20    1:    7   42:   54
           5       1:   20    1:    7    1:   14
           6       1:   10    8:   20    1:   14
           7      11:   20    8:   20   28:   41
           8       1:   10    8:   20   42:   54
           9      11:   20    8:   20    1:   14
          10      11:   20    8:   20   15:   27
          11       1:   10    8:   20   28:   41
          12      11:   20    8:   20   42:   54
Setting up quadratic distribution...
ExtMesh (bp) on 0 =   150 x   153 x   151 =     3465450
PhiOnMesh: Number of (b)points on node 0 =                 1950
PhiOnMesh: nlist on node 0 =               165008

stepf: Fermi-Dirac step function

siesta: Program's energy decomposition (eV):
siesta: Ebs     =         0.321632
siesta: Eions   =       380.620085
siesta: Ena     =       125.280812
siesta: Ekin    =       229.443786
siesta: Enl     =        30.205125
siesta: Eso     =         0.000000
siesta: Edftu   =         0.000000
siesta: DEna    =       -25.777984
siesta: DUscf   =        40.409088
siesta: DUext   =         0.000000
siesta: Exc     =      -164.856398
siesta: eta*DQ  =         0.000000
siesta: Emadel  =         0.000000
siesta: Emeta   =         0.000000
siesta: Emolmec =        -4.920883
siesta: Ekinion =         0.000000
siesta: Eharris =       -48.475376
siesta: Etot    =      -150.836539
siesta: FreeEng =      -150.852043

        iscf     Eharris(eV)        E_KS(eV)     FreeEng(eV)     dDmax    Ef(eV) dHmax(eV)
   scf:    1      -48.475376     -150.836539     -150.852043  1.526775 -7.463755 28.386358
timer: Routine,Calls,Time,% = IterSCF        1       0.508  15.65
   scf:    2     -162.686570     -175.478822     -175.485747  7.766249 -1.518123  7.178338
   scf:    3     -170.946721     -176.305724     -176.312127  4.117237 -2.575881  5.744865
   scf:    4     -149.768430     -169.870398     -169.883363  6.622249  0.292267 14.869825
   scf:    5     -178.549728     -174.639397     -174.649852  1.842406 -1.344990  8.802426
   scf:    6     -178.622870     -177.660355     -177.669217  2.586249 -2.041750  1.224643
   scf:    7     -164.571072     -173.497107     -173.510274  3.293830 -3.338831 10.541332
   scf:    8     -178.909824     -176.683974     -176.694592  1.372119 -2.379558  4.857480
   scf:    9     -177.358200     -177.684160     -177.692746  1.838324 -2.119468  0.895790
   scf:   10     -176.672615     -177.279262     -177.290779  0.770222 -1.954362  3.216110
   scf:   11     -174.676721     -176.142091     -176.151330  1.034016 -1.829719  6.105094
   scf:   12     -178.197697     -177.677511     -177.685690  1.777579 -2.097297  0.988909
   scf:   13     -177.704211     -177.692397     -177.699714  0.080722 -2.186321  0.704602
   scf:   14     -177.669233     -177.700681     -177.715370  0.319852 -2.272391  0.398911
   scf:   15     -177.663736     -177.699655     -177.711013  0.286549 -2.211971  0.572305
   scf:   16     -177.713509     -177.709092     -177.722717  0.113262 -2.247123  0.202450
   scf:   17     -177.692917     -177.705516     -177.721238  0.150714 -2.267353  0.271620
   scf:   18     -177.709941     -177.709945     -177.724307  0.105984 -2.254075  0.059602
   scf:   19     -177.707167     -177.709003     -177.724096  0.047564 -2.261143  0.089064
   scf:   20     -177.710246     -177.709799     -177.724451  0.029896 -2.257148  0.004379
   scf:   21     -177.709847     -177.709823     -177.724454  0.001518 -2.257264  0.001826
   scf:   22     -177.709825     -177.709824     -177.724455  0.000535 -2.257392  0.000607

SCF Convergence by FreeE+DM+H criterion
|FreeE_i-FreeE_(i-1)| (eV) <     0.00100000
max |DM_out - DM_in|         :     0.0005354131
max |H_out - H_in|      (eV) :     0.0006070667
SCF cycle converged after 22 iterations

Using DM_out to compute the final energy and forces
No. of atoms with KB's overlaping orbs in proc 0. Max # of overlaps:     166     169

MM-Stress (kbar):        5.62        5.62       20.06       -0.00        0.00        0.00

siesta: E_KS(eV) =             -177.7098

siesta: E_KS - E_eggbox =      -177.7098

siesta: Atomic forces (eV/Ang):
     1    0.000000   -0.000000    0.000000
     2   -0.079077   -0.000016   -0.492578
     3    0.079077    0.000016    0.492578
     4    0.039524   -0.068490   -0.492578
     5   -0.039524    0.068490    0.492578
     6    0.039520    0.068451   -0.492536
     7   -0.039520   -0.068451    0.492536
     8    0.079077    0.000016   -0.492578
     9   -0.079077   -0.000016    0.492578
    10   -0.039524    0.068490   -0.492578
    11    0.039524   -0.068490    0.492578
    12   -0.039520   -0.068451   -0.492536
    13    0.039520    0.068451    0.492536
----------------------------------------
   Tot   -0.000000   -0.000000    0.000000
----------------------------------------
   Max    0.492578
   Res    0.276723    sqrt( Sum f_i^2 / 3N )
----------------------------------------
   Max    0.492578    constrained

Stress tensor Voigt[x,y,z,yz,xz,xy] (kbar):    -1558.39    -1558.40      212.03       -0.00       -0.00       -0.00
(Free)E + p*V (eV/cell)      -81.2852
Target enthalpy (eV/cell)     -177.7245

siesta: Eigenvalues (eV):
  ik is       eps
   1  1  -12.8143  -12.5236  -11.3601  -10.8805  -10.8251  -10.7439   -8.7153   -2.5253   -2.0097   -2.0016
          17.8041   17.9869   19.2577   19.3361   19.4196   19.4901
   2  1  -13.4854  -13.1515  -10.3669   -9.3172   -8.8874   -4.0029   -2.9350   -2.1653   -1.9614    0.1381
           1.6185    2.4108   19.2537   20.6943   22.2960   22.3653
   3  1  -13.4854  -13.1515  -10.3669   -9.3172   -8.8874   -4.0029   -2.9350   -2.1652   -1.9614    0.1380
           1.6185    2.4108   19.2537   20.6943   22.2960   22.3653
   4  1  -12.8143  -12.5236  -11.3601  -10.8804  -10.8251  -10.7439   -8.7153   -2.5253   -2.0098   -2.0016
          17.8041   17.9869   19.2577   19.3361   19.4196   19.4901
   5  1  -13.4854  -13.1515  -10.3669   -9.3172   -8.8874   -4.0029   -2.9350   -2.1653   -1.9614    0.1381
           1.6185    2.4108   19.2537   20.6943   22.2960   22.3653
   6  1  -13.8858  -13.4790   -9.5447   -2.9878   -2.0318   -2.0317    6.8889    6.8889    9.2042    9.2042
           9.3580    9.3580    9.9621    9.9622   23.7779   24.0755
   7  1  -12.7136  -12.2482  -12.1895  -11.9760   -9.1592   -5.2688   -3.7120   -3.3968   -2.8282   -2.3174
          -0.5430    0.5081   17.5914   17.5953   18.4157   18.4160
   8  1  -12.8143  -12.5236  -11.3601  -10.8804  -10.8251  -10.7439   -8.7153   -2.5253   -2.0098   -2.0016
          17.8041   17.9869   19.2577   19.3361   19.4196   19.4901
   9  1  -12.8143  -12.5236  -11.3601  -10.8804  -10.8251  -10.7439   -8.7153   -2.5253   -2.0098   -2.0016
          17.8041   17.9869   19.2577   19.3361   19.4196   19.4901
  10  1  -12.7136  -12.2482  -12.1895  -11.9760   -9.1592   -5.2688   -3.7120   -3.3968   -2.8282   -2.3174
          -0.5430    0.5081   17.5914   17.5953   18.4157   18.4160
  11  1  -12.8143  -12.5236  -11.3601  -10.8804  -10.8251  -10.7439   -8.7153   -2.5253   -2.0098   -2.0016
          17.8041   17.9869   19.2577   19.3361   19.4196   19.4901
  12  1  -12.7136  -12.2482  -12.1895  -11.9760   -9.1592   -5.2688   -3.7120   -3.3968   -2.8281   -2.3174
          -0.5431    0.5081   17.5914   17.5953   18.4157   18.4160
  13  1  -12.8068  -12.5753  -11.2789  -10.9303  -10.9161  -10.6953   -8.4776   -2.4020   -2.2448   -1.9414
          18.0161   18.1328   19.1756   19.1844   19.2875   19.4518
  14  1  -13.4598  -13.2377  -10.2325   -9.5083   -8.6317   -3.8809   -3.1467   -2.3113   -2.0756    0.4034
           1.7117    2.2520   19.4172   20.4740   22.3111   22.3600
  15  1  -13.4598  -13.2377  -10.2325   -9.5083   -8.6317   -3.8809   -3.1467   -2.3113   -2.0756    0.4033
           1.7117    2.2520   19.4172   20.4740   22.3111   22.3600
  16  1  -12.8068  -12.5753  -11.2789  -10.9303  -10.9162  -10.6952   -8.4776   -2.4019   -2.2448   -1.9415
          18.0161   18.1328   19.1756   19.1845   19.2875   19.4517
  17  1  -13.4598  -13.2377  -10.2325   -9.5083   -8.6317   -3.8809   -3.1467   -2.3113   -2.0756    0.4034
           1.7117    2.2520   19.4172   20.4740   22.3111   22.3600
  18  1  -13.8548  -13.5877   -9.3049   -3.2419   -2.0334   -2.0333    7.1376    7.1376    8.0944    8.0944
           8.8736    8.8736   11.2975   11.2976   23.8084   24.0204
  19  1  -13.4598  -13.2377  -10.2325   -9.5083   -8.6317   -3.8809   -3.1467   -2.3113   -2.0756    0.4034
           1.7117    2.2520   19.4172   20.4740   22.3111   22.3600
  20  1  -12.7253  -12.2827  -12.2410  -11.8771   -8.9490   -5.1241   -4.0007   -3.6414   -2.6706   -1.9519
          -0.3624    0.1334   17.7026   17.7060   18.2856   18.2866
  21  1  -13.4598  -13.2377  -10.2325   -9.5083   -8.6317   -3.8809   -3.1467   -2.3113   -2.0756    0.4033
           1.7117    2.2520   19.4172   20.4740   22.3111   22.3600
  22  1  -13.4598  -13.2377  -10.2325   -9.5083   -8.6317   -3.8809   -3.1467   -2.3113   -2.0756    0.4034
           1.7117    2.2520   19.4172   20.4740   22.3111   22.3600
  23  1  -12.8068  -12.5753  -11.2789  -10.9303  -10.9161  -10.6953   -8.4776   -2.4020   -2.2448   -1.9414
          18.0161   18.1328   19.1756   19.1844   19.2875   19.4518
  24  1  -12.8068  -12.5753  -11.2789  -10.9303  -10.9162  -10.6952   -8.4776   -2.4019   -2.2448   -1.9415
          18.0161   18.1328   19.1756   19.1845   19.2875   19.4517
  25  1  -12.8068  -12.5753  -11.2789  -10.9303  -10.9162  -10.6952   -8.4776   -2.4019   -2.2448   -1.9415
          18.0161   18.1328   19.1756   19.1845   19.2875   19.4517
  26  1  -12.7253  -12.2827  -12.2410  -11.8771   -8.9490   -5.1241   -4.0007   -3.6414   -2.6706   -1.9519
          -0.3624    0.1334   17.7026   17.7060   18.2856   18.2866
  27  1  -12.8068  -12.5753  -11.2789  -10.9303  -10.9162  -10.6952   -8.4776   -2.4019   -2.2448   -1.9415
          18.0161   18.1328   19.1756   19.1845   19.2875   19.4517
  28  1  -12.7253  -12.2827  -12.2410  -11.8771   -8.9490   -5.1241   -4.0007   -3.6414   -2.6705   -1.9519
          -0.3625    0.1334   17.7026   17.7060   18.2856   18.2866
  29  1  -12.7965  -12.6231  -11.1780  -11.0239  -10.9634  -10.6633   -8.2486   -2.4952   -2.2733   -1.8749
          18.3378   18.4216   18.7402   18.9737   19.3522   19.3765
  30  1  -13.3970  -13.3520  -10.0648   -9.7000   -8.4176   -3.7092   -3.3521   -2.6643   -1.9929    0.6222
           1.9146    1.9882   19.7030   20.1324   22.3402   22.3407
  31  1  -13.3970  -13.3520  -10.0648   -9.7000   -8.4176   -3.7093   -3.3521   -2.6643   -1.9928    0.6221
           1.9147    1.9882   19.7030   20.1324   22.3402   22.3407
  32  1  -12.7965  -12.6231  -11.1780  -11.0239  -10.9634  -10.6633   -8.2486   -2.4952   -2.2732   -1.8750
          18.3378   18.4217   18.7402   18.9737   19.3522   19.3765
  33  1  -13.3970  -13.3520  -10.0648   -9.7000   -8.4176   -3.7092   -3.3521   -2.6643   -1.9929    0.6222
           1.9146    1.9882   19.7030   20.1324   22.3402   22.3407
  34  1  -13.7658  -13.7426   -9.0772   -3.4870   -2.0349   -2.0348    7.5705    7.5705    7.6982    7.6982
           8.0860    8.0861   12.0468   12.0469   23.8836   23.9208
  35  1  -13.3970  -13.3520  -10.0648   -9.7000   -8.4176   -3.7092   -3.3521   -2.6643   -1.9929    0.6222
           1.9146    1.9882   19.7030   20.1324   22.3402   22.3407
  36  1  -12.7366  -12.3109  -12.2698  -11.8045   -8.7465   -4.8669   -4.3851   -3.8532   -2.5181   -1.4486
          -0.4066   -0.1986   17.9693   17.9701   17.9993   18.0045
  37  1  -13.3970  -13.3520  -10.0648   -9.7000   -8.4176   -3.7093   -3.3521   -2.6643   -1.9928    0.6221
           1.9147    1.9882   19.7030   20.1324   22.3402   22.3407
  38  1  -13.3970  -13.3520  -10.0648   -9.7000   -8.4176   -3.7092   -3.3521   -2.6643   -1.9929    0.6222
           1.9146    1.9882   19.7030   20.1324   22.3402   22.3407
  39  1  -12.7965  -12.6231  -11.1780  -11.0239  -10.9634  -10.6633   -8.2486   -2.4952   -2.2733   -1.8749
          18.3378   18.4216   18.7402   18.9737   19.3522   19.3765
  40  1  -12.7965  -12.6231  -11.1780  -11.0239  -10.9634  -10.6633   -8.2486   -2.4952   -2.2732   -1.8750
          18.3378   18.4217   18.7402   18.9737   19.3522   19.3765
  41  1  -12.7965  -12.6231  -11.1780  -11.0239  -10.9634  -10.6633   -8.2486   -2.4952   -2.2732   -1.8750
          18.3378   18.4217   18.7402   18.9737   19.3522   19.3765
  42  1  -12.7366  -12.3109  -12.2698  -11.8045   -8.7465   -4.8669   -4.3851   -3.8532   -2.5181   -1.4486
          -0.4066   -0.1986   17.9693   17.9701   17.9993   18.0045
  43  1  -12.7965  -12.6231  -11.1780  -11.0239  -10.9634  -10.6633   -8.2486   -2.4952   -2.2732   -1.8750
          18.3378   18.4217   18.7402   18.9737   19.3522   19.3765
  44  1  -12.7366  -12.3109  -12.2698  -11.8045   -8.7465   -4.8669   -4.3851   -3.8532   -2.5180   -1.4486
          -0.4066   -0.1988   17.9693   17.9701   17.9993   18.0045
siesta: Fermi energy =      -2.257392 eV

siesta: Program's energy decomposition (eV):
siesta: Ebs     =      -141.301596
siesta: Eions   =       380.620085
siesta: Ena     =       125.280812
siesta: Ekin    =       185.183641
siesta: Enl     =        49.164960
siesta: Eso     =         0.000000
siesta: Edftu   =         0.000000
siesta: DEna    =        -3.202358
siesta: DUscf   =         2.648505
siesta: DUext   =         0.000000
siesta: Exc     =      -151.244416
siesta: eta*DQ  =         0.000000
siesta: Emadel  =         0.000000
siesta: Emeta   =         0.000000
siesta: Emolmec =        -4.920883
siesta: Ekinion =         0.000000
siesta: Eharris =      -177.709825
siesta: Etot    =      -177.709824
siesta: FreeEng =      -177.724455

siesta: Final energy (eV):
siesta:  Band Struct. =    -141.301596
siesta:       Kinetic =     185.183641
siesta:       Hartree =     104.064821
siesta:       Edftu   =       0.000000
siesta:       Eso     =       0.000000
siesta:    Ext. field =       0.000000
siesta:   Exch.-corr. =    -151.244416
siesta:  Ion-electron =    -378.600482
siesta:       Ion-ion =      67.807496
siesta:       Ekinion =       0.000000
siesta:         Total =    -177.709824
siesta:         Fermi =      -2.257392

siesta: Atomic forces (eV/Ang):
siesta:      1    0.000000   -0.000000    0.000000
siesta:      2   -0.079077   -0.000016   -0.492578
siesta:      3    0.079077    0.000016    0.492578
siesta:      4    0.039524   -0.068490   -0.492578
siesta:      5   -0.039524    0.068490    0.492578
siesta:      6    0.039520    0.068451   -0.492536
siesta:      7   -0.039520   -0.068451    0.492536
siesta:      8    0.079077    0.000016   -0.492578
siesta:      9   -0.079077   -0.000016    0.492578
siesta:     10   -0.039524    0.068490   -0.492578
siesta:     11    0.039524   -0.068490    0.492578
siesta:     12   -0.039520   -0.068451   -0.492536
siesta:     13    0.039520    0.068451    0.492536
siesta: ----------------------------------------
siesta:    Tot   -0.000000   -0.000000    0.000000

siesta: Stress tensor (static) (eV/Ang**3):
siesta:    -0.972662   -0.000002   -0.000000
siesta:    -0.000002   -0.972664    0.000000
siesta:    -0.000000   -0.000000    0.132340

siesta: Cell volume =        159.580760 Ang**3

siesta: Pressure (static):
siesta:                Solid            Molecule  Units
siesta:           0.00658191          0.00622656  Ry/Bohr**3
siesta:           0.60432890          0.57170134  eV/Ang**3
siesta:         968.25210892        915.97642861  kBar
(Free)E+ p_basis*V_orbitals  =        -161.557841
(Free)Eharris+ p_basis*V_orbitals  =        -161.557842

cite: Please see "LiC12_scf.bib" for an exhaustive BiBTeX file.
cite: Please clearly indicate Siesta version in published work: 4.1.5
cite: This calculation has made use of the following articles
cite: which are encouraged to be cited in a published work.
        Primary SIESTA paper
          DOI: www.doi.org/10.1088/0953-8984/14/11/302

>> End of run:   9-NOV-2022  14:58:01
Job completed
