Siesta Version  : 4.1.5
Architecture    : x86_64-unknown-linux-gnu--unknown
Compiler version: GNU Fortran (GCC) 11.3.0
Compiler flags  : mpif90 -g -O2 -fallow-argument-mismatch
PP flags        : -DMPI -DFC_HAVE_FLUSH -DFC_HAVE_ABORT
Libraries       :  -I/global/software/sl-7.x86_64/modules/intel/2020.4.304/mkl/include  /globall/software/sl-7.x86_64/modules/intel/2020.4.304/mkl/lib/intel64/libmkl_scalapack_lp64.a -Wl,--start-group /global/software/sl-7.x86_64/modules/intel/2020.4.304/mkl/lib/intel64/libmkl_intel_lp64.a /global/software/sl-7.x86_64/modules/intel/2020.4.304/mkl/lib/intel64/libmkl_sequential.a /global/software/sl-7.x86_64/modules/intel/2020.4.304/mkl/lib/intel64/libmkl_core.a /global/software/sl-7.x86_64/modules/intel/2020.4.304/mkl/lib/intel64/libmkl_blacs_openmpi_lp64.a -Wl,--end-group -lpthread -lm -ldl
PARALLEL version

* Running on 12 nodes in parallel
>> Start of run:   9-NOV-2022  14:53:07

                           ***********************       
                           *  WELCOME TO SIESTA  *       
                           ***********************       

reinit: Reading from standard input
reinit: Dumped input in INPUT_TMP.54109
************************** Dump of input data file ****************************
SystemName LiC12_scf
SystemLabel LiC12_scf
NumberOfAtoms   13
NumberOfSpecies 2
%block ChemicalSpeciesLabel
1  3   Li-gga
2  6   C-gga
%endblock ChemicalSpeciesLabel
PAO.BasisSize  SZ
PAO.EnergyShift  10 meV
%block PS.Lmax
C-gga   2
Li-gga  2
%endblock PS.Lmax
LatticeConstant 1.000000 Ang
%block LatticeVectors
	4.2686000000	0.0000000000	0.0000000000
	-2.1343000000	3.6967160386	0.0000000000
	0.0000000000	0.0000000000	7.1633580000
%endblock LatticeVectors
AtomicCoordinatesFormat Ang
%block AtomicCoordinatesAndAtomicSpecies
	0.00000000	0.00000000	0.00000000	2
	1.42144380	0.00000000	1.79083950	1
	2.84715620	0.00000000	5.37251850	1
	-0.71072190	1.23100644	1.79083950	1
	-1.42357810	2.46570960	5.37251850	1
	1.42357810	2.46570960	1.79083950	1
	0.71072190	1.23100644	5.37251850	1
	2.84715620	0.00000000	1.79083950	1
	1.42144380	0.00000000	5.37251850	1
	-1.42357810	2.46570960	1.79083950	1
	-0.71072190	1.23100644	5.37251850	1
	0.71072190	1.23100644	1.79083950	1
	1.42357810	2.46570960	5.37251850	1
%endblock AtomicCoordinatesAndAtomicSpecies
Kgrid_NoTRS  T
%block kgrid_MonkhorstPack
4       0       0       0.0
0       4       0       0.0
0       0       4       0.0
%endblock kgrid_MonkhorstPack
AtomCoorFormatOut Ang
BlockSize 1
#ProcessorY 12
Diag.ParallelOverK   T
Diag.DivideAndConquer F
MeshCutoff   300 Ry
SCF.FreeE.Tolerance 1E-3 eV
SCF.EDM.Tolerance   5E-3 eV
DM.Tolerance  1E-3
DM.Require.Energy.Convergence T
DM.NumberPulay 4
XC.Functional GGA
XC.Authors    PBE
UseSaveData        F
MD.TypeOfRun       CG
MD.VariableCell    F
MD.NumCGsteps      00
MD.MaxCGDispl      0.200000 Bohr
MD.MaxStressTol    1.000000 GPa
MD.MaxForceTol     0.010000 eV/Ang
WriteMDHistory T
WriteCoorStep T
WriteForces T
WriteCoorStep    T
WriteEigenValues T
WriteDM    F
MM.UnitsDistance Ang  # what this program prints out DO NOT CHANGE
MM.UnitsEnergy    eV  # what this program prints out DO NOT CHANGE
MM.Grimme.S6     0.75 # Grimme-paper for PBE (correct for your functional)
MM.Grimme.D     20.   # Grimme-paper (correct for your functional)
%block MM.Potentials
  1   1 Grimme     16.69      1.650 # Li, 10.1002/jcc.20495
  1   2 Grimme     17.40      2.277 # Li / C
  2   2 Grimme     18.14      2.904 # C, 10.1002/jcc.20495
%endblock MM.Potentials
#%block ProjectedDensityOfStates
# -200.0  120.0  0.4  12800  eV
#%endblock ProjectedDensityOfStates
************************** End of input data file *****************************

reinit: -----------------------------------------------------------------------
reinit: System Name: LiC12_scf
reinit: -----------------------------------------------------------------------
reinit: System Label: LiC12_scf
reinit: -----------------------------------------------------------------------
Reading two-body potentials
Grimme - two-body potential between 1 and 1
Grimme - two-body potential between 1 and 2
Grimme - two-body potential between 2 and 2

initatom: Reading input for the pseudopotentials and atomic orbitals ----------
Species number:   1 Atomic number:    3 Label: Li-gga
Species number:   2 Atomic number:    6 Label: C-gga

Ground state valence configuration:   2s01
Reading pseudopotential information in formatted form from Li-gga.psf

Valence configuration for pseudopotential generation:
2s( 1.00) rc: 2.28
2p( 0.00) rc: 2.28
3d( 0.00) rc: 2.59
4f( 0.00) rc: 2.59
Ground state valence configuration:   2s02  2p02
Reading pseudopotential information in formatted form from C-gga.psf

Valence configuration for pseudopotential generation:
2s( 2.00) rc: 1.56
2p( 2.00) rc: 1.56
3d( 0.00) rc: 1.56
4f( 0.00) rc: 1.56
relmxkb: Read Max KB Ang. Momentum=    2 for species C-gga
relmxkb: Read Max KB Ang. Momentum=    2 for species Li-gga

<basis_specs>
===============================================================================
Li-gga               Z=   3    Mass=  6.9400        Charge= 0.17977+309
Lmxo=0 Lmxkb= 2    BasisType=split      Semic=F
L=0  Nsemic=0  Cnfigmx=2
          i=1  nzeta=1  polorb=0  (2s)
            splnorm:   0.15000    
               vcte:    0.0000    
               rinn:    0.0000    
               qcoe:    0.0000    
               qyuk:    0.0000    
               qwid:   0.10000E-01
                rcs:    0.0000    
            lambdas:    1.0000    
-------------------------------------------------------------------------------
L=0  Nkbl=1  erefs: 0.17977+309
L=1  Nkbl=1  erefs: 0.17977+309
L=2  Nkbl=1  erefs: 0.17977+309
===============================================================================
</basis_specs>

atom: Called for Li-gga                (Z =   3)

read_vps: Pseudopotential generation method:
read_vps: ATM 3.2.2 Troullier-Martins                       
Valence charge for ps generation:    1.00000

read_vps: Pseudopotential includes a core correction:
read_vps: Pseudo-core for xc-correction

xc_check: Exchange-correlation functional:
xc_check: GGA Perdew, Burke & Ernzerhof 1996
V l=0 = -2*Zval/r beyond r=  2.2278
V l=1 = -2*Zval/r beyond r=  2.2278
V l=2 = -2*Zval/r beyond r=  2.5245
All V_l potentials equal beyond r=  2.4622
This should be close to max(r_c) in ps generation
All pots = -2*Zval/r beyond r=  2.5245

VLOCAL1: 99.0% of the norm of Vloc inside      7.160 Ry
VLOCAL1: 99.9% of the norm of Vloc inside     16.318 Ry
atom: Maximum radius for 4*pi*r*r*local-pseudopot. charge    2.86079
atom: Maximum radius for r*vlocal+2*Zval:    2.43160
GHOST: No ghost state for L =  0
GHOST: No ghost state for L =  1
GHOST: No ghost state for L =  2

KBgen: Kleinman-Bylander projectors: 
   l= 0   rc=  2.654023   el= -0.211234   Ekb=  1.742119   kbcos=  0.228463
   l= 1   rc=  2.721230   el= -0.080095   Ekb= -1.122375   kbcos= -0.147941
   l= 2   rc=  2.825246   el=  0.002001   Ekb= -0.207076   kbcos= -0.031965

KBgen: Total number of Kleinman-Bylander projectors:    9
atom: -------------------------------------------------------------------------

atom: SANKEY-TYPE ORBITALS:

SPLIT: Orbitals with angular momentum L= 0

SPLIT: Basis orbitals for state 2s

SPLIT: PAO cut-off radius determined from an
SPLIT: energy shift=  0.000735 Ry

   izeta = 1
                 lambda =    1.000000
                     rc =   11.897381
                 energy =   -0.210580
                kinetic =    0.143382
    potential(screened) =   -0.353962
       potential(ionic) =   -0.533453
atom: Total number of Sankey-type orbitals:  1

atm_pop: Valence configuration (for local Pseudopot. screening):
 2s( 1.00)                                                            
Vna: chval, zval:    1.00000   1.00000

Vna:  Cut-off radius for the neutral-atom potential:  11.897381
comcore: Pseudo-core radius Rcore=  3.450946

atom: _________________________________________________________________________

<basis_specs>
===============================================================================
C-gga                Z=   6    Mass=  12.010        Charge= 0.17977+309
Lmxo=1 Lmxkb= 2    BasisType=split      Semic=F
L=0  Nsemic=0  Cnfigmx=2
          i=1  nzeta=1  polorb=0  (2s)
            splnorm:   0.15000    
               vcte:    0.0000    
               rinn:    0.0000    
               qcoe:    0.0000    
               qyuk:    0.0000    
               qwid:   0.10000E-01
                rcs:    0.0000    
            lambdas:    1.0000    
L=1  Nsemic=0  Cnfigmx=2
          i=1  nzeta=1  polorb=0  (2p)
            splnorm:   0.15000    
               vcte:    0.0000    
               rinn:    0.0000    
               qcoe:    0.0000    
               qyuk:    0.0000    
               qwid:   0.10000E-01
                rcs:    0.0000    
            lambdas:    1.0000    
-------------------------------------------------------------------------------
L=0  Nkbl=1  erefs: 0.17977+309
L=1  Nkbl=1  erefs: 0.17977+309
L=2  Nkbl=1  erefs: 0.17977+309
===============================================================================
</basis_specs>

atom: Called for C-gga                 (Z =   6)

read_vps: Pseudopotential generation method:
read_vps: ATM 3.2.2 Troullier-Martins                       
Valence charge for ps generation:    4.00000

xc_check: Exchange-correlation functional:
xc_check: GGA Perdew, Burke & Ernzerhof 1996
V l=0 = -2*Zval/r beyond r=  1.5227
V l=1 = -2*Zval/r beyond r=  1.5227
V l=2 = -2*Zval/r beyond r=  1.5227
All V_l potentials equal beyond r=  1.4851
This should be close to max(r_c) in ps generation
All pots = -2*Zval/r beyond r=  1.5227

VLOCAL1: 99.0% of the norm of Vloc inside     19.682 Ry
VLOCAL1: 99.9% of the norm of Vloc inside     44.856 Ry
atom: Maximum radius for 4*pi*r*r*local-pseudopot. charge    1.79142
atom: Maximum radius for r*vlocal+2*Zval:    1.54183
GHOST: No ghost state for L =  0
GHOST: No ghost state for L =  1
GHOST: No ghost state for L =  2

KBgen: Kleinman-Bylander projectors: 
   l= 0   rc=  1.661951   el= -1.010689   Ekb=  5.289847   kbcos=  0.316429
   l= 1   rc=  1.661951   el= -0.388490   Ekb= -4.102504   kbcos= -0.351025
   l= 2   rc=  1.747182   el=  0.001971   Ekb= -1.006005   kbcos= -0.008530

KBgen: Total number of Kleinman-Bylander projectors:    9
atom: -------------------------------------------------------------------------

atom: SANKEY-TYPE ORBITALS:

SPLIT: Orbitals with angular momentum L= 0

SPLIT: Basis orbitals for state 2s

SPLIT: PAO cut-off radius determined from an
SPLIT: energy shift=  0.000735 Ry

   izeta = 1
                 lambda =    1.000000
                     rc =    5.948690
                 energy =   -1.010099
                kinetic =    0.827121
    potential(screened) =   -1.837220
       potential(ionic) =   -5.392783

SPLIT: Orbitals with angular momentum L= 1

SPLIT: Basis orbitals for state 2p

SPLIT: PAO cut-off radius determined from an
SPLIT: energy shift=  0.000735 Ry

   izeta = 1
                 lambda =    1.000000
                     rc =    7.638387
                 energy =   -0.387843
                kinetic =    2.314739
    potential(screened) =   -2.702582
       potential(ionic) =   -6.092371
atom: Total number of Sankey-type orbitals:  4

atm_pop: Valence configuration (for local Pseudopot. screening):
 2s( 2.00)                                                            
 2p( 2.00)                                                            
Vna: chval, zval:    4.00000   4.00000

Vna:  Cut-off radius for the neutral-atom potential:   7.638387

atom: _________________________________________________________________________

prinput: Basis input ----------------------------------------------------------

PAO.BasisType split     

%block ChemicalSpeciesLabel
    1    3 Li-gga                  # Species index, atomic number, species label
    2    6 C-gga                   # Species index, atomic number, species label
%endblock ChemicalSpeciesLabel

%block PAO.Basis                 # Define Basis set
Li-gga                1                    # Species label, number of l-shells
 n=2   0   1                         # n, l, Nzeta 
  11.897   
   1.000   
C-gga                 2                    # Species label, number of l-shells
 n=2   0   1                         # n, l, Nzeta 
   5.949   
   1.000   
 n=2   1   1                         # n, l, Nzeta 
   7.638   
   1.000   
%endblock PAO.Basis

prinput: ----------------------------------------------------------------------

coor:   Atomic-coordinates input format  =     Cartesian coordinates
coor:                                          (in Angstroms)

siesta: Atomic coordinates (Bohr) and species
siesta:      0.00000   0.00000   0.00000  2        1
siesta:      2.68614   0.00000   3.38420  1        2
siesta:      5.38035   0.00000  10.15259  1        3
siesta:     -1.34307   2.32627   3.38420  1        4
siesta:     -2.69017   4.65952  10.15259  1        5
siesta:      2.69017   4.65952   3.38420  1        6
siesta:      1.34307   2.32627  10.15259  1        7
siesta:      5.38035   0.00000   3.38420  1        8
siesta:      2.68614   0.00000  10.15259  1        9
siesta:     -2.69017   4.65952   3.38420  1       10
siesta:     -1.34307   2.32627  10.15259  1       11
siesta:      1.34307   2.32627   3.38420  1       12
siesta:      2.69017   4.65952  10.15259  1       13

siesta: System type = bulk      

initatomlists: Number of atoms, orbitals, and projectors:     13    16   117

siesta: ******************** Simulation parameters ****************************
siesta:
siesta: The following are some of the parameters of the simulation.
siesta: A complete list of the parameters used, including default values,
siesta: can be found in file out.fdf
siesta:
redata: Spin configuration                          = none
redata: Number of spin components                   = 1
redata: Time-Reversal Symmetry                      = T
redata: Spin spiral                                 = F
redata: Long output                                 =   F
redata: Number of Atomic Species                    =        2
redata: Charge density info will appear in .RHO file
redata: Write Mulliken Pop.                         = NO
redata: Matel table size (NRTAB)                    =     1024
redata: Mesh Cutoff                                 =   300.0000 Ry
redata: Net charge of the system                    =     0.0000 |e|
redata: Min. number of SCF Iter                     =        0
redata: Max. number of SCF Iter                     =     1000
redata: SCF convergence failure will abort job
redata: SCF mix quantity                            = Hamiltonian
redata: Mix DM or H after convergence               =   F
redata: Recompute H after scf cycle                 =   F
redata: Mix DM in first SCF step                    =   T
redata: Write Pulay info on disk                    =   F
redata: New DM Occupancy tolerance                  = 0.000000000001
redata: No kicks to SCF
redata: DM Mixing Weight for Kicks                  =     0.5000
redata: Require Harris convergence for SCF          =   F
redata: Harris energy tolerance for SCF             =     0.000100 eV
redata: Require DM convergence for SCF              =   T
redata: DM tolerance for SCF                        =     0.001000
redata: Require EDM convergence for SCF             =   F
redata: EDM tolerance for SCF                       =     0.005000 eV
redata: Require H convergence for SCF               =   T
redata: Hamiltonian tolerance for SCF               =     0.001000 eV
redata: Require (free) Energy convergence for SCF   =   T
redata: (free) Energy tolerance for SCF             =     0.001000 eV
redata: Using Saved Data (generic)                  =   F
redata: Use continuation files for DM               =   F
redata: Neglect nonoverlap interactions             =   F
redata: Method of Calculation                       = Diagonalization
redata: Electronic Temperature                      =   299.9869 K
redata: Fix the spin of the system                  =   F
redata: Dynamics option                             = Single-point calculation
mix.SCF: Pulay mixing                            = Pulay
mix.SCF:    Variant                              = stable
mix.SCF:    History steps                        = 4
mix.SCF:    Linear mixing weight                 =     0.250000
mix.SCF:    Mixing weight                        =     0.250000
mix.SCF:    SVD condition                        = 0.1000E-07
redata: ***********************************************************************

%block SCF.Mixers
  Pulay
%endblock SCF.Mixers

%block SCF.Mixer.Pulay
  # Mixing method
  method pulay
  variant stable

  # Mixing options
  weight 0.2500
  weight.linear 0.2500
  history 4
%endblock SCF.Mixer.Pulay

DM_history_depth set to one: no extrapolation allowed by default for geometry relaxation
Size of DM history Fstack: 1
Total number of electrons:    16.000000
Total ionic charge:    16.000000

* ProcessorY, Blocksize:    3   1


* Orbital distribution balance (max,min):     2     1

k-point displ. along   1 input, could be:     0.00    0.50
k-point displ. along   2 input, could be:     0.00    0.50
k-point displ. along   3 input, could be:     0.00    0.50
 Kpoints in:           48 . Kpoints trimmed:           44

siesta: k-grid: Number of k-points =    44
siesta: k-grid: Cutoff (effective) =     8.537 Ang
siesta: k-grid: Supercell and displacements
siesta: k-grid:    4   0   0      0.000
siesta: k-grid:    0   4   0      0.000
siesta: k-grid:    0   0   4      0.000

diag: Algorithm                                     = Expert
diag: Parallel over k                               =   T
diag: Use parallel 2D distribution                  =   T
diag: Parallel block-size                           = 1
diag: Parallel distribution                         =     3 x     4
diag: Used triangular part                          = Lower
diag: Absolute tolerance                            =  0.100E-15
diag: Orthogonalization factor                      =  0.100E-05
diag: Memory factor                                 =  1.0000

superc: Internal auxiliary supercell:     9 x     9 x     5  =     405
superc: Number of atoms, orbitals, and projectors:   5265   6480  47385


ts: **************************************************************
ts: Save H and S matrices                           =    F
ts: Save DM and EDM matrices                        =    F
ts: Only save the overlap matrix S                  =    F
ts: **************************************************************

************************ Begin: TS CHECKS AND WARNINGS ************************
************************ End: TS CHECKS AND WARNINGS **************************


                     ====================================
                        Single-point calculation
                     ====================================

outcoor: Atomic coordinates (Ang):                          
    0.00000000    0.00000000    0.00000000   2       1  C-gga
    1.42144380    0.00000000    1.79083950   1       2  Li-gga
    2.84715620    0.00000000    5.37251850   1       3  Li-gga
   -0.71072190    1.23100644    1.79083950   1       4  Li-gga
   -1.42357810    2.46570960    5.37251850   1       5  Li-gga
    1.42357810    2.46570960    1.79083950   1       6  Li-gga
    0.71072190    1.23100644    5.37251850   1       7  Li-gga
    2.84715620    0.00000000    1.79083950   1       8  Li-gga
    1.42144380    0.00000000    5.37251850   1       9  Li-gga
   -1.42357810    2.46570960    1.79083950   1      10  Li-gga
   -0.71072190    1.23100644    5.37251850   1      11  Li-gga
    0.71072190    1.23100644    1.79083950   1      12  Li-gga
    1.42357810    2.46570960    5.37251850   1      13  Li-gga

superc: Internal auxiliary supercell:     9 x     9 x     5  =     405
superc: Number of atoms, orbitals, and projectors:   5265   6480  47385

outcell: Unit cell vectors (Ang):
        4.268600    0.000000    0.000000
       -2.134300    3.696716    0.000000
        0.000000    0.000000    7.163358

outcell: Cell vector modules (Ang)   :    4.268600    4.268600    7.163358
outcell: Cell angles (23,13,12) (deg):     90.0000     90.0000    120.0000
outcell: Cell volume (Ang**3)        :    113.0364
<dSpData1D:S at geom step 0
  <sparsity:sparsity for geom step 0
    nrows_g=16 nrows=2 sparsity=9.7422 nnzs=2494, refcount: 7>
  <dData1D:(new from dSpData1D) n=2494, refcount: 1>
refcount: 1>
new_DM -- step:     1
Initializing Density Matrix...
DM filled with atomic data:
<dSpData2D:DM initialized from atoms
  <sparsity:sparsity for geom step 0
    nrows_g=16 nrows=2 sparsity=9.7422 nnzs=2494, refcount: 8>
  <dData2D:DM n=2494 m=1, refcount: 1>
refcount: 1>
No. of atoms with KB's overlaping orbs in proc 0. Max # of overlaps:     228     237
New grid distribution:   1
           1       1:   20    1:    7    1:   10
           2       1:   20    1:    7   11:   20
           3       1:   20    1:    7   21:   30
           4       1:   20    1:    7   31:   40
           5       1:   20    8:   14    1:   10
           6       1:   20    8:   14   11:   20
           7       1:   20    8:   14   21:   30
           8       1:   20    8:   14   31:   40
           9       1:   20   15:   20    1:   10
          10       1:   20   15:   20   11:   20
          11       1:   20   15:   20   21:   30
          12       1:   20   15:   20   31:   40

InitMesh: MESH =    40 x    40 x    80 =      128000
InitMesh: (bp) =    20 x    20 x    40 =       16000
InitMesh: Mesh cutoff (required, used) =   300.000   323.586 Ry
ExtMesh (bp) on 0 =   160 x   147 x   154 =     3622080
New grid distribution:   2
           1       1:   20    1:    7    1:   10
           2       1:   10    8:   20   11:   20
           3       1:   20    1:    7   21:   30
           4      11:   20    8:   20    1:   10
           5       1:   20    1:    7   11:   20
           6       1:   10    8:   20    1:   10
           7      11:   20    8:   20   21:   30
           8      11:   20    8:   20   31:   40
           9       1:   20    1:    7   31:   40
          10      11:   20    8:   20   11:   20
          11       1:   10    8:   20   21:   30
          12       1:   10    8:   20   31:   40
New grid distribution:   3
           1       1:   20    1:    7    1:   10
           2       1:   10    8:   20   11:   20
           3       1:   20    1:    7   21:   30
           4      11:   20    8:   20    1:   10
           5       1:   20    1:    7   11:   20
           6       1:   10    8:   20    1:   10
           7      11:   20    8:   20   21:   30
           8      11:   20    8:   20   31:   40
           9       1:   20    1:    7   31:   40
          10      11:   20    8:   20   11:   20
          11       1:   10    8:   20   21:   30
          12       1:   10    8:   20   31:   40
Setting up quadratic distribution...
ExtMesh (bp) on 0 =   160 x   147 x   154 =     3622080
PhiOnMesh: Number of (b)points on node 0 =                 1400
PhiOnMesh: nlist on node 0 =               176555

stepf: Fermi-Dirac step function

siesta: Program's energy decomposition (eV):
siesta: Ebs     =       -42.317816
siesta: Eions   =       380.620085
siesta: Ena     =       111.434160
siesta: Ekin    =       271.104121
siesta: Enl     =        22.350927
siesta: Eso     =         0.000000
siesta: Edftu   =         0.000000
siesta: DEna    =       -48.011476
siesta: DUscf   =        46.480603
siesta: DUext   =         0.000000
siesta: Exc     =      -178.720329
siesta: eta*DQ  =         0.000000
siesta: Emadel  =         0.000000
siesta: Emeta   =         0.000000
siesta: Emolmec =        -5.772125
siesta: Ekinion =         0.000000
siesta: Eharris =       -49.310637
siesta: Etot    =      -161.754204
siesta: FreeEng =      -161.764148

        iscf     Eharris(eV)        E_KS(eV)     FreeEng(eV)     dDmax    Ef(eV) dHmax(eV)
   scf:    1      -49.310637     -161.754204     -161.764148  1.600963 -8.710597 26.064590
timer: Routine,Calls,Time,% = IterSCF        1       0.699  15.67
   scf:    2     -199.838259     -185.909995     -185.919323  2.927228 -5.781436  6.522294
   scf:    3     -186.203017     -187.427971     -187.443178  2.661429 -3.960077  2.353961
   scf:    4     -182.627681     -185.398291     -185.406845  1.587420 -2.957585  7.087148
   scf:    5     -184.513542     -187.075811     -187.090391  3.486375 -4.776330  3.482545
   scf:    6     -186.358798     -187.439382     -187.456485  1.982566 -3.930835  2.386435
   scf:    7     -187.737711     -187.701385     -187.721730  0.756321 -4.455645  0.153104
   scf:    8     -187.701432     -187.701409     -187.721774  0.003371 -4.455818  0.153838
   scf:    9     -187.670820     -187.695379     -187.711674  0.237437 -4.390019  0.472764
   scf:   10     -187.678196     -187.698917     -187.719832  0.273785 -4.457579  0.238277
   scf:   11     -187.698471     -187.703180     -187.721472  0.169493 -4.432258  0.174191
   scf:   12     -187.704048     -187.703878     -187.722893  0.040901 -4.440611  0.071481
   scf:   13     -187.703465     -187.703763     -187.723179  0.024166 -4.444647  0.012120
   scf:   14     -187.703695     -187.703730     -187.723185  0.002370 -4.444935  0.006447
   scf:   15     -187.703480     -187.703612     -187.723181  0.006975 -4.445897  0.010411
   scf:   16     -187.703765     -187.703692     -187.723187  0.004752 -4.445117  0.001206
   scf:   17     -187.703674     -187.703683     -187.723187  0.000491 -4.445155  0.000052

SCF Convergence by FreeE+DM+H criterion
|FreeE_i-FreeE_(i-1)| (eV) <     0.00100000
max |DM_out - DM_in|         :     0.0004908549
max |H_out - H_in|      (eV) :     0.0000521872
SCF cycle converged after 17 iterations

Using DM_out to compute the final energy and forces
No. of atoms with KB's overlaping orbs in proc 0. Max # of overlaps:     228     237

MM-Stress (kbar):        9.40        9.40       20.31        0.00       -0.00        0.00

siesta: E_KS(eV) =             -187.7037

siesta: E_KS - E_eggbox =      -187.7037

siesta: Atomic forces (eV/Ang):
     1   -0.000000    0.000000    0.000000
     2   -0.235172    0.000018   -0.743979
     3    0.235172   -0.000018    0.743979
     4    0.117601   -0.203656   -0.743979
     5   -0.117601    0.203656    0.743979
     6    0.117592    0.203676   -0.743878
     7   -0.117592   -0.203676    0.743878
     8    0.235172   -0.000018   -0.743979
     9   -0.235172    0.000018    0.743979
    10   -0.117601    0.203656   -0.743979
    11    0.117601   -0.203656    0.743979
    12   -0.117592   -0.203676   -0.743878
    13    0.117592    0.203676    0.743878
----------------------------------------
   Tot    0.000000    0.000000   -0.000000
----------------------------------------
   Max    0.743979
   Res    0.432795    sqrt( Sum f_i^2 / 3N )
----------------------------------------
   Max    0.743979    constrained

Stress tensor Voigt[x,y,z,yz,xz,xy] (kbar):    -1964.41    -1964.43      440.03        0.00        0.00       -0.01
(Free)E + p*V (eV/cell)     -105.6767
Target enthalpy (eV/cell)     -187.7232

siesta: Eigenvalues (eV):
  ik is       eps
   1  1  -16.3986  -14.1387  -13.2787  -12.9804  -11.9482  -11.5274   -9.7301   -5.3726   -5.1087   -2.4899
          16.9349   17.1858   18.5341   19.0847   19.0948   19.6628
   2  1  -16.9356  -13.2168  -13.1066  -10.8856  -10.5477   -8.0850   -5.2780   -4.7249   -1.5328   -1.1255
           0.0678    7.1206   18.5638   20.0926   21.8495   22.2176
   3  1  -16.9356  -13.2168  -13.1067  -10.8856  -10.5477   -8.0850   -5.2779   -4.7249   -1.5329   -1.1255
           0.0678    7.1206   18.5638   20.0926   21.8495   22.2176
   4  1  -16.3985  -14.1388  -13.2786  -12.9804  -11.9482  -11.5274   -9.7301   -5.3725   -5.1088   -2.4899
          16.9349   17.1858   18.5341   19.0847   19.0948   19.6628
   5  1  -16.9356  -13.2168  -13.1066  -10.8856  -10.5477   -8.0850   -5.2780   -4.7249   -1.5328   -1.1255
           0.0678    7.1206   18.5638   20.0926   21.8495   22.2176
   6  1  -17.2926  -13.4032  -11.8458   -6.3899   -6.3898   -5.5085    0.8853    0.8854    6.6894    6.6895
          22.1549   22.1549   22.4676   22.4677   23.2883   23.9789
   7  1  -16.3452  -14.6626  -12.9932  -12.4356  -11.0075   -8.9082   -5.7818   -5.6221   -3.8961   -2.9960
          -2.0413    3.8623   17.3170   17.3435   18.1838   18.1902
   8  1  -16.3985  -14.1388  -13.2786  -12.9804  -11.9482  -11.5274   -9.7301   -5.3725   -5.1088   -2.4899
          16.9349   17.1858   18.5341   19.0847   19.0948   19.6628
   9  1  -16.3985  -14.1388  -13.2786  -12.9804  -11.9482  -11.5274   -9.7301   -5.3725   -5.1088   -2.4899
          16.9349   17.1858   18.5341   19.0847   19.0948   19.6628
  10  1  -16.3452  -14.6626  -12.9932  -12.4356  -11.0075   -8.9082   -5.7818   -5.6221   -3.8961   -2.9960
          -2.0413    3.8623   17.3170   17.3435   18.1838   18.1902
  11  1  -16.3985  -14.1388  -13.2786  -12.9804  -11.9482  -11.5274   -9.7301   -5.3725   -5.1088   -2.4899
          16.9349   17.1858   18.5341   19.0847   19.0948   19.6628
  12  1  -16.3452  -14.6627  -12.9932  -12.4356  -11.0075   -8.9082   -5.7817   -5.6221   -3.8961   -2.9959
          -2.0414    3.8623   17.3170   17.3434   18.1838   18.1902
  13  1  -16.3814  -14.4111  -13.5557  -13.2014  -12.6427  -12.1006   -8.2471   -4.4480   -4.4032   -3.6550
          17.1449   17.2519   18.6923   18.7730   18.8702   19.4944
  14  1  -16.8703  -14.8585  -12.6138  -11.5518   -9.3333   -8.0542   -5.9226   -4.4971   -4.3956   -0.4577
           2.3251    5.6842   18.6072   19.8673   21.9146   22.1737
  15  1  -16.8703  -14.8585  -12.6138  -11.5519   -9.3333   -8.0541   -5.9226   -4.4971   -4.3955   -0.4577
           2.3250    5.6842   18.6072   19.8673   21.9146   22.1737
  16  1  -16.3814  -14.4111  -13.5557  -13.2014  -12.6427  -12.1006   -8.2471   -4.4480   -4.4031   -3.6549
          17.1449   17.2519   18.6923   18.7730   18.8703   19.4944
  17  1  -16.8703  -14.8585  -12.6138  -11.5518   -9.3333   -8.0542   -5.9226   -4.4971   -4.3956   -0.4577
           2.3251    5.6842   18.6072   19.8673   21.9146   22.1737
  18  1  -17.2118  -15.1696  -10.1918   -6.6844   -6.4072   -6.4072    1.5260    1.5260    5.1395    5.1395
          13.0157   13.0158   21.2542   21.2543   23.3688   23.8683
  19  1  -16.8703  -14.8585  -12.6138  -11.5518   -9.3333   -8.0542   -5.9226   -4.4971   -4.3956   -0.4577
           2.3251    5.6842   18.6072   19.8673   21.9146   22.1737
  20  1  -16.3323  -14.5602  -13.9951  -13.2671   -9.8107   -8.8519   -6.6112   -6.0155   -4.5119   -3.2218
           1.0350    2.3560   17.4352   17.4580   18.0269   18.0356
  21  1  -16.8703  -14.8585  -12.6138  -11.5519   -9.3333   -8.0541   -5.9226   -4.4971   -4.3955   -0.4577
           2.3250    5.6842   18.6072   19.8673   21.9146   22.1737
  22  1  -16.8703  -14.8585  -12.6138  -11.5518   -9.3333   -8.0542   -5.9226   -4.4971   -4.3956   -0.4577
           2.3251    5.6842   18.6072   19.8673   21.9146   22.1737
  23  1  -16.3814  -14.4111  -13.5557  -13.2014  -12.6427  -12.1006   -8.2471   -4.4480   -4.4032   -3.6550
          17.1449   17.2519   18.6923   18.7730   18.8702   19.4944
  24  1  -16.3814  -14.4111  -13.5557  -13.2014  -12.6427  -12.1006   -8.2471   -4.4480   -4.4031   -3.6549
          17.1449   17.2519   18.6923   18.7730   18.8703   19.4944
  25  1  -16.3814  -14.4111  -13.5557  -13.2014  -12.6427  -12.1006   -8.2471   -4.4480   -4.4031   -3.6549
          17.1449   17.2519   18.6923   18.7730   18.8703   19.4944
  26  1  -16.3323  -14.5602  -13.9951  -13.2671   -9.8107   -8.8519   -6.6112   -6.0155   -4.5119   -3.2218
           1.0350    2.3560   17.4352   17.4580   18.0269   18.0356
  27  1  -16.3814  -14.4111  -13.5557  -13.2014  -12.6427  -12.1006   -8.2471   -4.4480   -4.4031   -3.6549
          17.1449   17.2519   18.6923   18.7730   18.8703   19.4944
  28  1  -16.3323  -14.5602  -13.9951  -13.2672   -9.8107   -8.8519   -6.6112   -6.0155   -4.5118   -3.2218
           1.0348    2.3560   17.4352   17.4580   18.0269   18.0356
  29  1  -16.3588  -14.7717  -13.4385  -13.2841  -13.0418  -12.6089   -6.2215   -5.9206   -3.9646   -3.4283
          17.2455   17.3028   18.4704   18.7203   19.0742   19.1055
  30  1  -16.7796  -15.5429  -12.4249  -12.1296   -8.1010   -7.9836   -7.2940   -5.9614   -3.7326    0.3057
           3.1680    4.1155   18.7492   19.5144   22.0467   22.0630
  31  1  -16.7796  -15.5429  -12.4249  -12.1296   -8.1010   -7.9835   -7.2940   -5.9614   -3.7325    0.3057
           3.1678    4.1156   18.7492   19.5144   22.0467   22.0630
  32  1  -16.3588  -14.7717  -13.4386  -13.2842  -13.0417  -12.6088   -6.2215   -5.9206   -3.9647   -3.4282
          17.2455   17.3028   18.4704   18.7203   19.0742   19.1055
  33  1  -16.7796  -15.5429  -12.4249  -12.1296   -8.1010   -7.9836   -7.2940   -5.9614   -3.7326    0.3057
           3.1680    4.1155   18.7492   19.5144   22.0467   22.0630
  34  1  -17.0921  -15.9528   -9.1625   -7.7106   -6.4274   -6.4274    3.7292    3.7292    3.8885    3.8885
           5.0914    5.0915   20.5680   20.5682   23.5548   23.6518
  35  1  -16.7796  -15.5429  -12.4249  -12.1296   -8.1010   -7.9836   -7.2940   -5.9614   -3.7326    0.3057
           3.1680    4.1155   18.7492   19.5144   22.0467   22.0630
  36  1  -16.3141  -14.4856  -14.3422  -13.9044   -8.8513   -8.7134   -7.6837   -7.3778   -3.6989   -2.1460
           0.5077    2.3505   17.6873   17.7087   17.7353   17.7502
  37  1  -16.7796  -15.5429  -12.4249  -12.1296   -8.1010   -7.9835   -7.2940   -5.9614   -3.7325    0.3057
           3.1678    4.1156   18.7492   19.5144   22.0467   22.0630
  38  1  -16.7796  -15.5429  -12.4249  -12.1296   -8.1010   -7.9836   -7.2940   -5.9614   -3.7326    0.3057
           3.1680    4.1155   18.7492   19.5144   22.0467   22.0630
  39  1  -16.3588  -14.7717  -13.4385  -13.2841  -13.0418  -12.6089   -6.2215   -5.9206   -3.9646   -3.4283
          17.2455   17.3028   18.4704   18.7203   19.0742   19.1055
  40  1  -16.3588  -14.7717  -13.4386  -13.2842  -13.0417  -12.6088   -6.2215   -5.9206   -3.9647   -3.4282
          17.2455   17.3028   18.4704   18.7203   19.0742   19.1055
  41  1  -16.3588  -14.7717  -13.4386  -13.2842  -13.0417  -12.6088   -6.2215   -5.9206   -3.9647   -3.4282
          17.2455   17.3028   18.4704   18.7203   19.0742   19.1055
  42  1  -16.3141  -14.4856  -14.3422  -13.9044   -8.8513   -8.7134   -7.6837   -7.3778   -3.6989   -2.1460
           0.5077    2.3505   17.6873   17.7087   17.7353   17.7502
  43  1  -16.3588  -14.7717  -13.4386  -13.2842  -13.0417  -12.6088   -6.2215   -5.9206   -3.9647   -3.4282
          17.2455   17.3028   18.4704   18.7203   19.0742   19.1055
  44  1  -16.3140  -14.4855  -14.3422  -13.9045   -8.8513   -8.7133   -7.6837   -7.3778   -3.6988   -2.1460
           0.5078    2.3503   17.6873   17.7087   17.7353   17.7502
siesta: Fermi energy =      -4.445155 eV

siesta: Program's energy decomposition (eV):
siesta: Ebs     =      -177.085973
siesta: Eions   =       380.620085
siesta: Ena     =       111.434160
siesta: Ekin    =       211.947680
siesta: Enl     =        46.582180
siesta: Eso     =         0.000000
siesta: Edftu   =         0.000000
siesta: DEna    =       -13.898857
siesta: DUscf   =         5.379609
siesta: DUext   =         0.000000
siesta: Exc     =      -162.756245
siesta: eta*DQ  =         0.000000
siesta: Emadel  =         0.000000
siesta: Emeta   =         0.000000
siesta: Emolmec =        -5.772125
siesta: Ekinion =         0.000000
siesta: Eharris =      -187.703674
siesta: Etot    =      -187.703683
siesta: FreeEng =      -187.723187

siesta: Final energy (eV):
siesta:  Band Struct. =    -177.085973
siesta:       Kinetic =     211.947680
siesta:       Hartree =     101.591043
siesta:       Edftu   =       0.000000
siesta:       Eso     =       0.000000
siesta:    Ext. field =       0.000000
siesta:   Exch.-corr. =    -162.756245
siesta:  Ion-electron =    -421.248801
siesta:       Ion-ion =      88.534765
siesta:       Ekinion =       0.000000
siesta:         Total =    -187.703683
siesta:         Fermi =      -4.445155

siesta: Atomic forces (eV/Ang):
siesta:      1   -0.000000    0.000000    0.000000
siesta:      2   -0.235172    0.000018   -0.743979
siesta:      3    0.235172   -0.000018    0.743979
siesta:      4    0.117601   -0.203656   -0.743979
siesta:      5   -0.117601    0.203656    0.743979
siesta:      6    0.117592    0.203676   -0.743878
siesta:      7   -0.117592   -0.203676    0.743878
siesta:      8    0.235172   -0.000018   -0.743979
siesta:      9   -0.235172    0.000018    0.743979
siesta:     10   -0.117601    0.203656   -0.743979
siesta:     11    0.117601   -0.203656    0.743979
siesta:     12   -0.117592   -0.203676   -0.743878
siesta:     13    0.117592    0.203676    0.743878
siesta: ----------------------------------------
siesta:    Tot    0.000000    0.000000   -0.000000

siesta: Stress tensor (static) (eV/Ang**3):
siesta:    -1.226078   -0.000007    0.000000
siesta:    -0.000007   -1.226087    0.000000
siesta:     0.000000    0.000000    0.274641

siesta: Cell volume =        113.036371 Ang**3

siesta: Pressure (static):
siesta:                Solid            Molecule  Units
siesta:           0.00790534          0.00732725  Ry/Bohr**3
siesta:           0.72584119          0.67276327  eV/Ang**3
siesta:        1162.93836931       1077.89724327  kBar
(Free)E+ p_basis*V_orbitals  =        -171.556574
(Free)Eharris+ p_basis*V_orbitals  =        -171.556565

cite: Please see "LiC12_scf.bib" for an exhaustive BiBTeX file.
cite: Please clearly indicate Siesta version in published work: 4.1.5
cite: This calculation has made use of the following articles
cite: which are encouraged to be cited in a published work.
        Primary SIESTA paper
          DOI: www.doi.org/10.1088/0953-8984/14/11/302

>> End of run:   9-NOV-2022  14:53:22
Job completed
