Siesta Version  : 4.1.5
Architecture    : x86_64-unknown-linux-gnu--unknown
Compiler version: GNU Fortran (GCC) 11.3.0
Compiler flags  : mpif90 -g -O2 -fallow-argument-mismatch
PP flags        : -DMPI -DFC_HAVE_FLUSH -DFC_HAVE_ABORT
Libraries       :  -I/global/software/sl-7.x86_64/modules/intel/2020.4.304/mkl/include  /globall/software/sl-7.x86_64/modules/intel/2020.4.304/mkl/lib/intel64/libmkl_scalapack_lp64.a -Wl,--start-group /global/software/sl-7.x86_64/modules/intel/2020.4.304/mkl/lib/intel64/libmkl_intel_lp64.a /global/software/sl-7.x86_64/modules/intel/2020.4.304/mkl/lib/intel64/libmkl_sequential.a /global/software/sl-7.x86_64/modules/intel/2020.4.304/mkl/lib/intel64/libmkl_core.a /global/software/sl-7.x86_64/modules/intel/2020.4.304/mkl/lib/intel64/libmkl_blacs_openmpi_lp64.a -Wl,--end-group -lpthread -lm -ldl
PARALLEL version

* Running on 12 nodes in parallel
>> Start of run:   9-NOV-2022  14:55:12

                           ***********************       
                           *  WELCOME TO SIESTA  *       
                           ***********************       

reinit: Reading from standard input
reinit: Dumped input in INPUT_TMP.79143
************************** Dump of input data file ****************************
SystemName LiC12_scf
SystemLabel LiC12_scf
NumberOfAtoms   13
NumberOfSpecies 2
%block ChemicalSpeciesLabel
1  3   Li-gga
2  6   C-gga
%endblock ChemicalSpeciesLabel
PAO.BasisSize  SZ
PAO.EnergyShift  10 meV
%block PS.Lmax
C-gga   2
Li-gga  2
%endblock PS.Lmax
LatticeConstant 1.000000 Ang
%block LatticeVectors
	4.2686000000	0.0000000000	0.0000000000
	-2.1343000000	3.6967160386	0.0000000000
	0.0000000000	0.0000000000	7.7251900000
%endblock LatticeVectors
AtomicCoordinatesFormat Ang
%block AtomicCoordinatesAndAtomicSpecies
	0.00000000	0.00000000	0.00000000	2
	1.42144380	0.00000000	1.93129750	1
	2.84715620	0.00000000	5.79389250	1
	-0.71072190	1.23100644	1.93129750	1
	-1.42357810	2.46570960	5.79389250	1
	1.42357810	2.46570960	1.93129750	1
	0.71072190	1.23100644	5.79389250	1
	2.84715620	0.00000000	1.93129750	1
	1.42144380	0.00000000	5.79389250	1
	-1.42357810	2.46570960	1.93129750	1
	-0.71072190	1.23100644	5.79389250	1
	0.71072190	1.23100644	1.93129750	1
	1.42357810	2.46570960	5.79389250	1
%endblock AtomicCoordinatesAndAtomicSpecies
Kgrid_NoTRS  T
%block kgrid_MonkhorstPack
4       0       0       0.0
0       4       0       0.0
0       0       4       0.0
%endblock kgrid_MonkhorstPack
AtomCoorFormatOut Ang
BlockSize 1
#ProcessorY 12
Diag.ParallelOverK   T
Diag.DivideAndConquer F
MeshCutoff   300 Ry
SCF.FreeE.Tolerance 1E-3 eV
SCF.EDM.Tolerance   5E-3 eV
DM.Tolerance  1E-3
DM.Require.Energy.Convergence T
DM.NumberPulay 4
XC.Functional GGA
XC.Authors    PBE
UseSaveData        F
MD.TypeOfRun       CG
MD.VariableCell    F
MD.NumCGsteps      00
MD.MaxCGDispl      0.200000 Bohr
MD.MaxStressTol    1.000000 GPa
MD.MaxForceTol     0.010000 eV/Ang
WriteMDHistory T
WriteCoorStep T
WriteForces T
WriteCoorStep    T
WriteEigenValues T
WriteDM    F
MM.UnitsDistance Ang  # what this program prints out DO NOT CHANGE
MM.UnitsEnergy    eV  # what this program prints out DO NOT CHANGE
MM.Grimme.S6     0.75 # Grimme-paper for PBE (correct for your functional)
MM.Grimme.D     20.   # Grimme-paper (correct for your functional)
%block MM.Potentials
  1   1 Grimme     16.69      1.650 # Li, 10.1002/jcc.20495
  1   2 Grimme     17.40      2.277 # Li / C
  2   2 Grimme     18.14      2.904 # C, 10.1002/jcc.20495
%endblock MM.Potentials
#%block ProjectedDensityOfStates
# -200.0  120.0  0.4  12800  eV
#%endblock ProjectedDensityOfStates
************************** End of input data file *****************************

reinit: -----------------------------------------------------------------------
reinit: System Name: LiC12_scf
reinit: -----------------------------------------------------------------------
reinit: System Label: LiC12_scf
reinit: -----------------------------------------------------------------------
Reading two-body potentials
Grimme - two-body potential between 1 and 1
Grimme - two-body potential between 1 and 2
Grimme - two-body potential between 2 and 2

initatom: Reading input for the pseudopotentials and atomic orbitals ----------
Species number:   1 Atomic number:    3 Label: Li-gga
Species number:   2 Atomic number:    6 Label: C-gga

Ground state valence configuration:   2s01
Reading pseudopotential information in formatted form from Li-gga.psf

Valence configuration for pseudopotential generation:
2s( 1.00) rc: 2.28
2p( 0.00) rc: 2.28
3d( 0.00) rc: 2.59
4f( 0.00) rc: 2.59
Ground state valence configuration:   2s02  2p02
Reading pseudopotential information in formatted form from C-gga.psf

Valence configuration for pseudopotential generation:
2s( 2.00) rc: 1.56
2p( 2.00) rc: 1.56
3d( 0.00) rc: 1.56
4f( 0.00) rc: 1.56
relmxkb: Read Max KB Ang. Momentum=    2 for species C-gga
relmxkb: Read Max KB Ang. Momentum=    2 for species Li-gga

<basis_specs>
===============================================================================
Li-gga               Z=   3    Mass=  6.9400        Charge= 0.17977+309
Lmxo=0 Lmxkb= 2    BasisType=split      Semic=F
L=0  Nsemic=0  Cnfigmx=2
          i=1  nzeta=1  polorb=0  (2s)
            splnorm:   0.15000    
               vcte:    0.0000    
               rinn:    0.0000    
               qcoe:    0.0000    
               qyuk:    0.0000    
               qwid:   0.10000E-01
                rcs:    0.0000    
            lambdas:    1.0000    
-------------------------------------------------------------------------------
L=0  Nkbl=1  erefs: 0.17977+309
L=1  Nkbl=1  erefs: 0.17977+309
L=2  Nkbl=1  erefs: 0.17977+309
===============================================================================
</basis_specs>

atom: Called for Li-gga                (Z =   3)

read_vps: Pseudopotential generation method:
read_vps: ATM 3.2.2 Troullier-Martins                       
Valence charge for ps generation:    1.00000

read_vps: Pseudopotential includes a core correction:
read_vps: Pseudo-core for xc-correction

xc_check: Exchange-correlation functional:
xc_check: GGA Perdew, Burke & Ernzerhof 1996
V l=0 = -2*Zval/r beyond r=  2.2278
V l=1 = -2*Zval/r beyond r=  2.2278
V l=2 = -2*Zval/r beyond r=  2.5245
All V_l potentials equal beyond r=  2.4622
This should be close to max(r_c) in ps generation
All pots = -2*Zval/r beyond r=  2.5245

VLOCAL1: 99.0% of the norm of Vloc inside      7.160 Ry
VLOCAL1: 99.9% of the norm of Vloc inside     16.318 Ry
atom: Maximum radius for 4*pi*r*r*local-pseudopot. charge    2.86079
atom: Maximum radius for r*vlocal+2*Zval:    2.43160
GHOST: No ghost state for L =  0
GHOST: No ghost state for L =  1
GHOST: No ghost state for L =  2

KBgen: Kleinman-Bylander projectors: 
   l= 0   rc=  2.654023   el= -0.211234   Ekb=  1.742119   kbcos=  0.228463
   l= 1   rc=  2.721230   el= -0.080095   Ekb= -1.122375   kbcos= -0.147941
   l= 2   rc=  2.825246   el=  0.002001   Ekb= -0.207076   kbcos= -0.031965

KBgen: Total number of Kleinman-Bylander projectors:    9
atom: -------------------------------------------------------------------------

atom: SANKEY-TYPE ORBITALS:

SPLIT: Orbitals with angular momentum L= 0

SPLIT: Basis orbitals for state 2s

SPLIT: PAO cut-off radius determined from an
SPLIT: energy shift=  0.000735 Ry

   izeta = 1
                 lambda =    1.000000
                     rc =   11.897381
                 energy =   -0.210580
                kinetic =    0.143382
    potential(screened) =   -0.353962
       potential(ionic) =   -0.533453
atom: Total number of Sankey-type orbitals:  1

atm_pop: Valence configuration (for local Pseudopot. screening):
 2s( 1.00)                                                            
Vna: chval, zval:    1.00000   1.00000

Vna:  Cut-off radius for the neutral-atom potential:  11.897381
comcore: Pseudo-core radius Rcore=  3.450946

atom: _________________________________________________________________________

<basis_specs>
===============================================================================
C-gga                Z=   6    Mass=  12.010        Charge= 0.17977+309
Lmxo=1 Lmxkb= 2    BasisType=split      Semic=F
L=0  Nsemic=0  Cnfigmx=2
          i=1  nzeta=1  polorb=0  (2s)
            splnorm:   0.15000    
               vcte:    0.0000    
               rinn:    0.0000    
               qcoe:    0.0000    
               qyuk:    0.0000    
               qwid:   0.10000E-01
                rcs:    0.0000    
            lambdas:    1.0000    
L=1  Nsemic=0  Cnfigmx=2
          i=1  nzeta=1  polorb=0  (2p)
            splnorm:   0.15000    
               vcte:    0.0000    
               rinn:    0.0000    
               qcoe:    0.0000    
               qyuk:    0.0000    
               qwid:   0.10000E-01
                rcs:    0.0000    
            lambdas:    1.0000    
-------------------------------------------------------------------------------
L=0  Nkbl=1  erefs: 0.17977+309
L=1  Nkbl=1  erefs: 0.17977+309
L=2  Nkbl=1  erefs: 0.17977+309
===============================================================================
</basis_specs>

atom: Called for C-gga                 (Z =   6)

read_vps: Pseudopotential generation method:
read_vps: ATM 3.2.2 Troullier-Martins                       
Valence charge for ps generation:    4.00000

xc_check: Exchange-correlation functional:
xc_check: GGA Perdew, Burke & Ernzerhof 1996
V l=0 = -2*Zval/r beyond r=  1.5227
V l=1 = -2*Zval/r beyond r=  1.5227
V l=2 = -2*Zval/r beyond r=  1.5227
All V_l potentials equal beyond r=  1.4851
This should be close to max(r_c) in ps generation
All pots = -2*Zval/r beyond r=  1.5227

VLOCAL1: 99.0% of the norm of Vloc inside     19.682 Ry
VLOCAL1: 99.9% of the norm of Vloc inside     44.856 Ry
atom: Maximum radius for 4*pi*r*r*local-pseudopot. charge    1.79142
atom: Maximum radius for r*vlocal+2*Zval:    1.54183
GHOST: No ghost state for L =  0
GHOST: No ghost state for L =  1
GHOST: No ghost state for L =  2

KBgen: Kleinman-Bylander projectors: 
   l= 0   rc=  1.661951   el= -1.010689   Ekb=  5.289847   kbcos=  0.316429
   l= 1   rc=  1.661951   el= -0.388490   Ekb= -4.102504   kbcos= -0.351025
   l= 2   rc=  1.747182   el=  0.001971   Ekb= -1.006005   kbcos= -0.008530

KBgen: Total number of Kleinman-Bylander projectors:    9
atom: -------------------------------------------------------------------------

atom: SANKEY-TYPE ORBITALS:

SPLIT: Orbitals with angular momentum L= 0

SPLIT: Basis orbitals for state 2s

SPLIT: PAO cut-off radius determined from an
SPLIT: energy shift=  0.000735 Ry

   izeta = 1
                 lambda =    1.000000
                     rc =    5.948690
                 energy =   -1.010099
                kinetic =    0.827121
    potential(screened) =   -1.837220
       potential(ionic) =   -5.392783

SPLIT: Orbitals with angular momentum L= 1

SPLIT: Basis orbitals for state 2p

SPLIT: PAO cut-off radius determined from an
SPLIT: energy shift=  0.000735 Ry

   izeta = 1
                 lambda =    1.000000
                     rc =    7.638387
                 energy =   -0.387843
                kinetic =    2.314739
    potential(screened) =   -2.702582
       potential(ionic) =   -6.092371
atom: Total number of Sankey-type orbitals:  4

atm_pop: Valence configuration (for local Pseudopot. screening):
 2s( 2.00)                                                            
 2p( 2.00)                                                            
Vna: chval, zval:    4.00000   4.00000

Vna:  Cut-off radius for the neutral-atom potential:   7.638387

atom: _________________________________________________________________________

prinput: Basis input ----------------------------------------------------------

PAO.BasisType split     

%block ChemicalSpeciesLabel
    1    3 Li-gga                  # Species index, atomic number, species label
    2    6 C-gga                   # Species index, atomic number, species label
%endblock ChemicalSpeciesLabel

%block PAO.Basis                 # Define Basis set
Li-gga                1                    # Species label, number of l-shells
 n=2   0   1                         # n, l, Nzeta 
  11.897   
   1.000   
C-gga                 2                    # Species label, number of l-shells
 n=2   0   1                         # n, l, Nzeta 
   5.949   
   1.000   
 n=2   1   1                         # n, l, Nzeta 
   7.638   
   1.000   
%endblock PAO.Basis

prinput: ----------------------------------------------------------------------

coor:   Atomic-coordinates input format  =     Cartesian coordinates
coor:                                          (in Angstroms)

siesta: Atomic coordinates (Bohr) and species
siesta:      0.00000   0.00000   0.00000  2        1
siesta:      2.68614   0.00000   3.64962  1        2
siesta:      5.38035   0.00000  10.94887  1        3
siesta:     -1.34307   2.32627   3.64962  1        4
siesta:     -2.69017   4.65952  10.94887  1        5
siesta:      2.69017   4.65952   3.64962  1        6
siesta:      1.34307   2.32627  10.94887  1        7
siesta:      5.38035   0.00000   3.64962  1        8
siesta:      2.68614   0.00000  10.94887  1        9
siesta:     -2.69017   4.65952   3.64962  1       10
siesta:     -1.34307   2.32627  10.94887  1       11
siesta:      1.34307   2.32627   3.64962  1       12
siesta:      2.69017   4.65952  10.94887  1       13

siesta: System type = bulk      

initatomlists: Number of atoms, orbitals, and projectors:     13    16   117

siesta: ******************** Simulation parameters ****************************
siesta:
siesta: The following are some of the parameters of the simulation.
siesta: A complete list of the parameters used, including default values,
siesta: can be found in file out.fdf
siesta:
redata: Spin configuration                          = none
redata: Number of spin components                   = 1
redata: Time-Reversal Symmetry                      = T
redata: Spin spiral                                 = F
redata: Long output                                 =   F
redata: Number of Atomic Species                    =        2
redata: Charge density info will appear in .RHO file
redata: Write Mulliken Pop.                         = NO
redata: Matel table size (NRTAB)                    =     1024
redata: Mesh Cutoff                                 =   300.0000 Ry
redata: Net charge of the system                    =     0.0000 |e|
redata: Min. number of SCF Iter                     =        0
redata: Max. number of SCF Iter                     =     1000
redata: SCF convergence failure will abort job
redata: SCF mix quantity                            = Hamiltonian
redata: Mix DM or H after convergence               =   F
redata: Recompute H after scf cycle                 =   F
redata: Mix DM in first SCF step                    =   T
redata: Write Pulay info on disk                    =   F
redata: New DM Occupancy tolerance                  = 0.000000000001
redata: No kicks to SCF
redata: DM Mixing Weight for Kicks                  =     0.5000
redata: Require Harris convergence for SCF          =   F
redata: Harris energy tolerance for SCF             =     0.000100 eV
redata: Require DM convergence for SCF              =   T
redata: DM tolerance for SCF                        =     0.001000
redata: Require EDM convergence for SCF             =   F
redata: EDM tolerance for SCF                       =     0.005000 eV
redata: Require H convergence for SCF               =   T
redata: Hamiltonian tolerance for SCF               =     0.001000 eV
redata: Require (free) Energy convergence for SCF   =   T
redata: (free) Energy tolerance for SCF             =     0.001000 eV
redata: Using Saved Data (generic)                  =   F
redata: Use continuation files for DM               =   F
redata: Neglect nonoverlap interactions             =   F
redata: Method of Calculation                       = Diagonalization
redata: Electronic Temperature                      =   299.9869 K
redata: Fix the spin of the system                  =   F
redata: Dynamics option                             = Single-point calculation
mix.SCF: Pulay mixing                            = Pulay
mix.SCF:    Variant                              = stable
mix.SCF:    History steps                        = 4
mix.SCF:    Linear mixing weight                 =     0.250000
mix.SCF:    Mixing weight                        =     0.250000
mix.SCF:    SVD condition                        = 0.1000E-07
redata: ***********************************************************************

%block SCF.Mixers
  Pulay
%endblock SCF.Mixers

%block SCF.Mixer.Pulay
  # Mixing method
  method pulay
  variant stable

  # Mixing options
  weight 0.2500
  weight.linear 0.2500
  history 4
%endblock SCF.Mixer.Pulay

DM_history_depth set to one: no extrapolation allowed by default for geometry relaxation
Size of DM history Fstack: 1
Total number of electrons:    16.000000
Total ionic charge:    16.000000

* ProcessorY, Blocksize:    3   1


* Orbital distribution balance (max,min):     2     1

k-point displ. along   1 input, could be:     0.00    0.50
k-point displ. along   2 input, could be:     0.00    0.50
k-point displ. along   3 input, could be:     0.00    0.50
 Kpoints in:           48 . Kpoints trimmed:           44

siesta: k-grid: Number of k-points =    44
siesta: k-grid: Cutoff (effective) =     8.537 Ang
siesta: k-grid: Supercell and displacements
siesta: k-grid:    4   0   0      0.000
siesta: k-grid:    0   4   0      0.000
siesta: k-grid:    0   0   4      0.000

diag: Algorithm                                     = Expert
diag: Parallel over k                               =   T
diag: Use parallel 2D distribution                  =   T
diag: Parallel block-size                           = 1
diag: Parallel distribution                         =     3 x     4
diag: Used triangular part                          = Lower
diag: Absolute tolerance                            =  0.100E-15
diag: Orthogonalization factor                      =  0.100E-05
diag: Memory factor                                 =  1.0000

superc: Internal auxiliary supercell:     9 x     9 x     5  =     405
superc: Number of atoms, orbitals, and projectors:   5265   6480  47385


ts: **************************************************************
ts: Save H and S matrices                           =    F
ts: Save DM and EDM matrices                        =    F
ts: Only save the overlap matrix S                  =    F
ts: **************************************************************

************************ Begin: TS CHECKS AND WARNINGS ************************
************************ End: TS CHECKS AND WARNINGS **************************


                     ====================================
                        Single-point calculation
                     ====================================

outcoor: Atomic coordinates (Ang):                          
    0.00000000    0.00000000    0.00000000   2       1  C-gga
    1.42144380    0.00000000    1.93129750   1       2  Li-gga
    2.84715620    0.00000000    5.79389250   1       3  Li-gga
   -0.71072190    1.23100644    1.93129750   1       4  Li-gga
   -1.42357810    2.46570960    5.79389250   1       5  Li-gga
    1.42357810    2.46570960    1.93129750   1       6  Li-gga
    0.71072190    1.23100644    5.79389250   1       7  Li-gga
    2.84715620    0.00000000    1.93129750   1       8  Li-gga
    1.42144380    0.00000000    5.79389250   1       9  Li-gga
   -1.42357810    2.46570960    1.93129750   1      10  Li-gga
   -0.71072190    1.23100644    5.79389250   1      11  Li-gga
    0.71072190    1.23100644    1.93129750   1      12  Li-gga
    1.42357810    2.46570960    5.79389250   1      13  Li-gga

superc: Internal auxiliary supercell:     9 x     9 x     5  =     405
superc: Number of atoms, orbitals, and projectors:   5265   6480  47385

outcell: Unit cell vectors (Ang):
        4.268600    0.000000    0.000000
       -2.134300    3.696716    0.000000
        0.000000    0.000000    7.725190

outcell: Cell vector modules (Ang)   :    4.268600    4.268600    7.725190
outcell: Cell angles (23,13,12) (deg):     90.0000     90.0000    120.0000
outcell: Cell volume (Ang**3)        :    121.9020
<dSpData1D:S at geom step 0
  <sparsity:sparsity for geom step 0
    nrows_g=16 nrows=2 sparsity=8.7148 nnzs=2231, refcount: 7>
  <dData1D:(new from dSpData1D) n=2231, refcount: 1>
refcount: 1>
new_DM -- step:     1
Initializing Density Matrix...
DM filled with atomic data:
<dSpData2D:DM initialized from atoms
  <sparsity:sparsity for geom step 0
    nrows_g=16 nrows=2 sparsity=8.7148 nnzs=2231, refcount: 8>
  <dData2D:DM n=2231 m=1, refcount: 1>
refcount: 1>
No. of atoms with KB's overlaping orbs in proc 0. Max # of overlaps:     204     213
New grid distribution:   1
           1       1:   20    1:    7    1:   12
           2       1:   20    1:    7   13:   23
           3       1:   20    1:    7   24:   34
           4       1:   20    1:    7   35:   45
           5       1:   20    8:   14    1:   12
           6       1:   20    8:   14   13:   23
           7       1:   20    8:   14   24:   34
           8       1:   20    8:   14   35:   45
           9       1:   20   15:   20    1:   12
          10       1:   20   15:   20   13:   23
          11       1:   20   15:   20   24:   34
          12       1:   20   15:   20   35:   45

InitMesh: MESH =    40 x    40 x    90 =      144000
InitMesh: (bp) =    20 x    20 x    45 =       18000
InitMesh: Mesh cutoff (required, used) =   300.000   323.586 Ry
ExtMesh (bp) on 0 =   160 x   147 x   160 =     3763200
New grid distribution:   2
           1       1:   10    8:   20    1:   11
           2      11:   20    8:   20    1:   11
           3       1:   20    1:    7   23:   34
           4       1:   20    1:    7   35:   45
           5       1:   20    1:    7    1:   11
           6      11:   20    8:   20   12:   22
           7       1:   10    8:   20   23:   34
           8      11:   20    8:   20   35:   45
           9       1:   20    1:    7   12:   22
          10       1:   10    8:   20   12:   22
          11      11:   20    8:   20   23:   34
          12       1:   10    8:   20   35:   45
New grid distribution:   3
           1       1:   20    1:    7    1:   12
           2       1:   10    8:   20   35:   45
           3       1:   20    1:    7   24:   34
           4       1:   10    8:   20   13:   23
           5      11:   20    8:   20    1:   12
           6       1:   20    1:    7   35:   45
           7      11:   20    8:   20   24:   34
           8      11:   20    8:   20   13:   23
           9       1:   10    8:   20    1:   12
          10       1:   20    1:    7   13:   23
          11       1:   10    8:   20   24:   34
          12      11:   20    8:   20   35:   45
Setting up quadratic distribution...
ExtMesh (bp) on 0 =   150 x   153 x   159 =     3649050
PhiOnMesh: Number of (b)points on node 0 =                 1430
PhiOnMesh: nlist on node 0 =               168927

stepf: Fermi-Dirac step function

siesta: Program's energy decomposition (eV):
siesta: Ebs     =       -24.317296
siesta: Eions   =       380.620085
siesta: Ena     =       115.495910
siesta: Ekin    =       262.186249
siesta: Enl     =        23.521512
siesta: Eso     =         0.000000
siesta: Edftu   =         0.000000
siesta: DEna    =       -43.419314
siesta: DUscf   =        46.554938
siesta: DUext   =         0.000000
siesta: Exc     =      -175.848814
siesta: eta*DQ  =         0.000000
siesta: Emadel  =         0.000000
siesta: Emeta   =         0.000000
siesta: Emolmec =        -5.634176
siesta: Ekinion =         0.000000
siesta: Eharris =       -44.849390
siesta: Etot    =      -157.763780
siesta: FreeEng =      -157.772034

        iscf     Eharris(eV)        E_KS(eV)     FreeEng(eV)     dDmax    Ef(eV) dHmax(eV)
   scf:    1      -44.849390     -157.763780     -157.772034  1.467728 -8.405114 26.988174
timer: Routine,Calls,Time,% = IterSCF        1       0.670  14.89
   scf:    2     -197.462361     -184.158662     -184.170292  3.218143 -4.498481  5.096291
   scf:    3     -183.904399     -185.042022     -185.050349  2.485418 -3.355214  2.416199
   scf:    4     -173.764771     -181.779098     -181.784122  3.309532 -5.067479  8.917022
   scf:    5     -184.209654     -185.158904     -185.166836  3.254327 -3.453149  1.805039
   scf:    6     -183.445966     -184.816633     -184.833548  1.804725 -3.818767  2.931201
   scf:    7     -183.953978     -185.029026     -185.037641  2.015026 -3.172899  2.623588
   scf:    8     -185.369710     -185.221609     -185.230342  0.342907 -3.634542  1.218901
   scf:    9     -185.299166     -185.288264     -185.303484  0.435517 -3.725827  0.101286
   scf:   10     -185.146172     -185.237970     -185.248071  0.387076 -3.662722  1.045352
   scf:   11     -184.678396     -185.137592     -185.157342  1.107879 -3.771413  1.639567
   scf:   12     -185.251704     -185.285965     -185.300848  0.783952 -3.717961  0.245796
   scf:   13     -185.285936     -185.287852     -185.304120  0.113798 -3.727096  0.028618
   scf:   14     -185.287940     -185.287903     -185.304155  0.007759 -3.725897  0.010650
   scf:   15     -185.288022     -185.287965     -185.304161  0.003296 -3.725714  0.002422
   scf:   16     -185.287960     -185.287962     -185.304161  0.000493 -3.725409  0.002202
   scf:   17     -185.287984     -185.287974     -185.304161  0.000881 -3.725335  0.000064

SCF Convergence by FreeE+DM+H criterion
|FreeE_i-FreeE_(i-1)| (eV) <     0.00100000
max |DM_out - DM_in|         :     0.0008807507
max |H_out - H_in|      (eV) :     0.0000640596
SCF cycle converged after 17 iterations

Using DM_out to compute the final energy and forces
No. of atoms with KB's overlaping orbs in proc 0. Max # of overlaps:     204     213

MM-Stress (kbar):       11.97       11.97       30.14        0.00        0.00       -0.00

siesta: E_KS(eV) =             -185.2880

siesta: E_KS - E_eggbox =      -185.2880

siesta: Atomic forces (eV/Ang):
     1   -0.000000    0.000000    0.000000
     2   -0.215279   -0.000000   -0.723409
     3    0.215279    0.000000    0.723409
     4    0.107639   -0.186438   -0.723409
     5   -0.107639    0.186438    0.723409
     6    0.107630    0.186420   -0.723334
     7   -0.107630   -0.186420    0.723334
     8    0.215279    0.000000   -0.723409
     9   -0.215279   -0.000000    0.723409
    10   -0.107639    0.186438   -0.723409
    11    0.107639   -0.186438    0.723409
    12   -0.107630   -0.186420   -0.723334
    13    0.107630    0.186420    0.723334
----------------------------------------
   Tot    0.000000    0.000000   -0.000000
----------------------------------------
   Max    0.723409
   Res    0.418652    sqrt( Sum f_i^2 / 3N )
----------------------------------------
   Max    0.723409    constrained

Stress tensor Voigt[x,y,z,yz,xz,xy] (kbar):    -1868.45    -1868.46      422.49       -0.00       -0.00       -0.01
(Free)E + p*V (eV/cell)     -101.2455
Target enthalpy (eV/cell)     -185.3042

siesta: Eigenvalues (eV):
  ik is       eps
   1  1  -15.3877  -13.2911  -12.8030  -12.4720  -11.7087  -11.3688   -9.1942   -4.4478   -4.0960   -2.5127
          17.0233   17.2861   18.9862   19.5356   19.6015   19.6644
   2  1  -15.9795  -13.1820  -12.2154  -10.6121   -9.8102   -6.8373   -4.4702   -4.2325   -1.3909   -0.6346
          -0.0047    5.2458   19.3535   19.7187   22.1086   22.3089
   3  1  -15.9795  -13.1820  -12.2155  -10.6121   -9.8102   -6.8373   -4.4702   -4.2324   -1.3909   -0.6347
          -0.0047    5.2459   19.3535   19.7186   22.1086   22.3089
   4  1  -15.3877  -13.2911  -12.8029  -12.4720  -11.7088  -11.3688   -9.1942   -4.4477   -4.0961   -2.5127
          17.0233   17.2861   18.9862   19.5356   19.6015   19.6644
   5  1  -15.9795  -13.1820  -12.2154  -10.6121   -9.8102   -6.8373   -4.4702   -4.2325   -1.3909   -0.6346
          -0.0047    5.2458   19.3535   19.7187   22.1086   22.3089
   6  1  -16.3584  -13.4151  -11.0518   -5.0737   -5.0737   -4.8625    2.4994    2.4995    7.7717    7.7719
          17.6460   17.6460   17.9240   17.9241   23.0912   24.5213
   7  1  -15.3221  -13.8476  -12.7625  -12.4007  -10.2815   -7.7592   -5.3237   -4.8385   -3.7166   -3.0007
          -1.2438    2.3462   17.5486   17.5718   18.2669   18.2694
   8  1  -15.3877  -13.2911  -12.8029  -12.4720  -11.7088  -11.3688   -9.1942   -4.4477   -4.0961   -2.5127
          17.0233   17.2861   18.9862   19.5356   19.6015   19.6644
   9  1  -15.3877  -13.2911  -12.8029  -12.4720  -11.7088  -11.3688   -9.1942   -4.4477   -4.0961   -2.5127
          17.0233   17.2861   18.9862   19.5356   19.6015   19.6644
  10  1  -15.3221  -13.8476  -12.7625  -12.4007  -10.2815   -7.7592   -5.3237   -4.8385   -3.7166   -3.0007
          -1.2438    2.3462   17.5486   17.5718   18.2669   18.2694
  11  1  -15.3877  -13.2911  -12.8029  -12.4720  -11.7088  -11.3688   -9.1942   -4.4477   -4.0961   -2.5127
          17.0233   17.2861   18.9862   19.5356   19.6015   19.6644
  12  1  -15.3221  -13.8477  -12.7625  -12.4008  -10.2815   -7.7592   -5.3237   -4.8384   -3.7166   -3.0007
          -1.2439    2.3462   17.5486   17.5718   18.2669   18.2693
  13  1  -15.3496  -13.7616  -12.8517  -12.4162  -12.0866  -11.6095   -8.0275   -3.7395   -3.6568   -3.5145
          17.2909   17.4431   19.0604   19.2354   19.3177   19.4636
  14  1  -15.8970  -14.2995  -11.7816  -10.9425   -8.8474   -6.7852   -5.3194   -3.7665   -3.6371    0.4160
           1.7975    4.3795   19.2152   19.7582   22.1439   22.2877
  15  1  -15.8970  -14.2995  -11.7817  -10.9425   -8.8473   -6.7852   -5.3194   -3.7665   -3.6370    0.4160
           1.7973    4.3796   19.2152   19.7581   22.1439   22.2877
  16  1  -15.3496  -13.7616  -12.8518  -12.4161  -12.0866  -11.6095   -8.0275   -3.7394   -3.6570   -3.5144
          17.2909   17.4431   19.0604   19.2354   19.3177   19.4636
  17  1  -15.8970  -14.2995  -11.7816  -10.9425   -8.8474   -6.7852   -5.3194   -3.7665   -3.6371    0.4160
           1.7975    4.3795   19.2152   19.7582   22.1439   22.2877
  18  1  -16.2626  -14.6234   -9.7791   -5.7972   -5.1127   -5.1127    3.0853    3.0854    6.1883    6.1883
          12.1260   12.1261   18.4887   18.4888   23.2895   24.2807
  19  1  -15.8970  -14.2995  -11.7816  -10.9425   -8.8474   -6.7852   -5.3194   -3.7665   -3.6371    0.4160
           1.7975    4.3795   19.2152   19.7582   22.1439   22.2877
  20  1  -15.2951  -13.7931  -13.4345  -12.8005   -9.3130   -7.6642   -5.9524   -5.3388   -3.9365   -2.4817
           0.6775    1.3271   17.6377   17.6567   18.1578   18.1603
  21  1  -15.8970  -14.2995  -11.7817  -10.9425   -8.8473   -6.7852   -5.3194   -3.7665   -3.6370    0.4160
           1.7973    4.3796   19.2152   19.7581   22.1439   22.2877
  22  1  -15.8970  -14.2995  -11.7816  -10.9425   -8.8474   -6.7852   -5.3194   -3.7665   -3.6371    0.4160
           1.7975    4.3795   19.2152   19.7582   22.1439   22.2877
  23  1  -15.3496  -13.7616  -12.8517  -12.4162  -12.0866  -11.6095   -8.0275   -3.7395   -3.6568   -3.5145
          17.2909   17.4431   19.0604   19.2354   19.3177   19.4636
  24  1  -15.3496  -13.7616  -12.8518  -12.4161  -12.0866  -11.6095   -8.0275   -3.7394   -3.6570   -3.5144
          17.2909   17.4431   19.0604   19.2354   19.3177   19.4636
  25  1  -15.3496  -13.7616  -12.8518  -12.4161  -12.0866  -11.6095   -8.0275   -3.7394   -3.6570   -3.5144
          17.2909   17.4431   19.0604   19.2354   19.3177   19.4636
  26  1  -15.2951  -13.7931  -13.4345  -12.8005   -9.3130   -7.6642   -5.9524   -5.3388   -3.9365   -2.4817
           0.6775    1.3271   17.6377   17.6567   18.1578   18.1603
  27  1  -15.3496  -13.7616  -12.8518  -12.4161  -12.0866  -11.6095   -8.0275   -3.7394   -3.6570   -3.5144
          17.2909   17.4431   19.0604   19.2354   19.3177   19.4636
  28  1  -15.2951  -13.7931  -13.4345  -12.8005   -9.3130   -7.6641   -5.9524   -5.3388   -3.9364   -2.4817
           0.6773    1.3271   17.6377   17.6567   18.1578   18.1603
  29  1  -15.2999  -14.1309  -12.6283  -12.5396  -12.3288  -11.8404   -6.6780   -4.9323   -3.2943   -3.0829
          17.6209   17.6734   18.6780   19.0093   19.2447   19.2816
  30  1  -15.7657  -14.9159  -11.5443  -11.2917   -7.9073   -6.6938   -6.2364   -4.8370   -3.1482    0.9700
           2.8659    3.3975   19.0727   19.8044   22.2223   22.2234
  31  1  -15.7657  -14.9159  -11.5443  -11.2917   -7.9073   -6.6938   -6.2364   -4.8370   -3.1481    0.9700
           2.8657    3.3975   19.0727   19.8043   22.2223   22.2234
  32  1  -15.2999  -14.1309  -12.6284  -12.5396  -12.3288  -11.8403   -6.6780   -4.9323   -3.2944   -3.0828
          17.6209   17.6734   18.6780   19.0093   19.2447   19.2815
  33  1  -15.7657  -14.9159  -11.5443  -11.2917   -7.9073   -6.6938   -6.2364   -4.8370   -3.1482    0.9700
           2.8659    3.3975   19.0727   19.8044   22.2223   22.2234
  34  1  -16.0974  -15.3277   -8.8907   -6.6432   -5.1514   -5.1514    4.9570    4.9570    5.1183    5.1184
           6.3181    6.3182   19.0407   19.0408   23.7219   23.8058
  35  1  -15.7657  -14.9159  -11.5443  -11.2917   -7.9073   -6.6938   -6.2364   -4.8370   -3.1482    0.9700
           2.8659    3.3975   19.0727   19.8044   22.2223   22.2234
  36  1  -15.2610  -13.8259  -13.6988  -13.1281   -8.5397   -7.4787   -6.6130   -6.3334   -3.2633   -1.4790
          -0.1307    1.8599   17.8720   17.8886   17.9025   17.9036
  37  1  -15.7657  -14.9159  -11.5443  -11.2917   -7.9073   -6.6938   -6.2364   -4.8370   -3.1481    0.9700
           2.8657    3.3975   19.0727   19.8043   22.2223   22.2234
  38  1  -15.7657  -14.9159  -11.5443  -11.2917   -7.9073   -6.6938   -6.2364   -4.8370   -3.1482    0.9700
           2.8659    3.3975   19.0727   19.8044   22.2223   22.2234
  39  1  -15.2999  -14.1309  -12.6283  -12.5396  -12.3288  -11.8404   -6.6780   -4.9323   -3.2943   -3.0829
          17.6209   17.6734   18.6780   19.0093   19.2447   19.2816
  40  1  -15.2999  -14.1309  -12.6284  -12.5396  -12.3288  -11.8403   -6.6780   -4.9323   -3.2944   -3.0828
          17.6209   17.6734   18.6780   19.0093   19.2447   19.2815
  41  1  -15.2999  -14.1309  -12.6284  -12.5396  -12.3288  -11.8403   -6.6780   -4.9323   -3.2944   -3.0828
          17.6209   17.6734   18.6780   19.0093   19.2447   19.2815
  42  1  -15.2610  -13.8259  -13.6988  -13.1281   -8.5397   -7.4787   -6.6130   -6.3334   -3.2633   -1.4790
          -0.1307    1.8599   17.8720   17.8886   17.9025   17.9036
  43  1  -15.2999  -14.1309  -12.6284  -12.5396  -12.3288  -11.8403   -6.6780   -4.9323   -3.2944   -3.0828
          17.6209   17.6734   18.6780   19.0093   19.2447   19.2815
  44  1  -15.2609  -13.8259  -13.6988  -13.1281   -8.5397   -7.4787   -6.6130   -6.3334   -3.2632   -1.4790
          -0.1306    1.8597   17.8720   17.8886   17.9025   17.9035
siesta: Fermi energy =      -3.725335 eV

siesta: Program's energy decomposition (eV):
siesta: Ebs     =      -165.580495
siesta: Eions   =       380.620085
siesta: Ena     =       115.495910
siesta: Ekin    =       204.462323
siesta: Enl     =        47.695981
siesta: Eso     =         0.000000
siesta: Edftu   =         0.000000
siesta: DEna    =       -11.469225
siesta: DUscf   =         4.607733
siesta: DUext   =         0.000000
siesta: Exc     =      -159.826435
siesta: eta*DQ  =         0.000000
siesta: Emadel  =         0.000000
siesta: Emeta   =         0.000000
siesta: Emolmec =        -5.634176
siesta: Ekinion =         0.000000
siesta: Eharris =      -185.287984
siesta: Etot    =      -185.287974
siesta: FreeEng =      -185.304161

siesta: Final energy (eV):
siesta:  Band Struct. =    -165.580495
siesta:       Kinetic =     204.462323
siesta:       Hartree =     101.644258
siesta:       Edftu   =       0.000000
siesta:       Eso     =       0.000000
siesta:    Ext. field =       0.000000
siesta:   Exch.-corr. =    -159.826435
siesta:  Ion-electron =    -406.138864
siesta:       Ion-ion =      80.204921
siesta:       Ekinion =       0.000000
siesta:         Total =    -185.287974
siesta:         Fermi =      -3.725335

siesta: Atomic forces (eV/Ang):
siesta:      1   -0.000000    0.000000    0.000000
siesta:      2   -0.215279   -0.000000   -0.723409
siesta:      3    0.215279    0.000000    0.723409
siesta:      4    0.107639   -0.186438   -0.723409
siesta:      5   -0.107639    0.186438    0.723409
siesta:      6    0.107630    0.186420   -0.723334
siesta:      7   -0.107630   -0.186420    0.723334
siesta:      8    0.215279    0.000000   -0.723409
siesta:      9   -0.215279   -0.000000    0.723409
siesta:     10   -0.107639    0.186438   -0.723409
siesta:     11    0.107639   -0.186438    0.723409
siesta:     12   -0.107630   -0.186420   -0.723334
siesta:     13    0.107630    0.186420    0.723334
siesta: ----------------------------------------
siesta:    Tot    0.000000    0.000000   -0.000000

siesta: Stress tensor (static) (eV/Ang**3):
siesta:    -1.166185   -0.000005   -0.000000
siesta:    -0.000005   -1.166190    0.000000
siesta:    -0.000000   -0.000000    0.263696

siesta: Cell volume =        121.901969 Ang**3

siesta: Pressure (static):
siesta:                Solid            Molecule  Units
siesta:           0.00751018          0.00695606  Ry/Bohr**3
siesta:           0.68955959          0.63868173  eV/Ang**3
siesta:        1104.80821012       1023.29200538  kBar
(Free)E+ p_basis*V_orbitals  =        -169.137548
(Free)Eharris+ p_basis*V_orbitals  =        -169.137559

cite: Please see "LiC12_scf.bib" for an exhaustive BiBTeX file.
cite: Please clearly indicate Siesta version in published work: 4.1.5
cite: This calculation has made use of the following articles
cite: which are encouraged to be cited in a published work.
        Primary SIESTA paper
          DOI: www.doi.org/10.1088/0953-8984/14/11/302

>> End of run:   9-NOV-2022  14:55:25
Job completed
