Siesta Version  : 4.1.5
Architecture    : x86_64-unknown-linux-gnu--unknown
Compiler version: GNU Fortran (GCC) 11.3.0
Compiler flags  : mpif90 -g -O2 -fallow-argument-mismatch
PP flags        : -DMPI -DFC_HAVE_FLUSH -DFC_HAVE_ABORT
Libraries       :  -I/global/software/sl-7.x86_64/modules/intel/2020.4.304/mkl/include  /globall/software/sl-7.x86_64/modules/intel/2020.4.304/mkl/lib/intel64/libmkl_scalapack_lp64.a -Wl,--start-group /global/software/sl-7.x86_64/modules/intel/2020.4.304/mkl/lib/intel64/libmkl_intel_lp64.a /global/software/sl-7.x86_64/modules/intel/2020.4.304/mkl/lib/intel64/libmkl_sequential.a /global/software/sl-7.x86_64/modules/intel/2020.4.304/mkl/lib/intel64/libmkl_core.a /global/software/sl-7.x86_64/modules/intel/2020.4.304/mkl/lib/intel64/libmkl_blacs_openmpi_lp64.a -Wl,--end-group -lpthread -lm -ldl
PARALLEL version

* Running on 12 nodes in parallel
>> Start of run:   9-NOV-2022  14:52:19

                           ***********************       
                           *  WELCOME TO SIESTA  *       
                           ***********************       

reinit: Reading from standard input
reinit: Dumped input in INPUT_TMP.06460
************************** Dump of input data file ****************************
SystemName LiC12_scf
SystemLabel LiC12_scf
NumberOfAtoms   13
NumberOfSpecies 2
%block ChemicalSpeciesLabel
1  3   Li-gga
2  6   C-gga
%endblock ChemicalSpeciesLabel
PAO.BasisSize  SZ
PAO.EnergyShift  10 meV
%block PS.Lmax
C-gga   2
Li-gga  2
%endblock PS.Lmax
LatticeConstant 1.000000 Ang
%block LatticeVectors
	4.2686000000	0.0000000000	0.0000000000
	-2.1343000000	3.6967160386	0.0000000000
	0.0000000000	0.0000000000	4.2137400000
%endblock LatticeVectors
AtomicCoordinatesFormat Ang
%block AtomicCoordinatesAndAtomicSpecies
	0.00000000	0.00000000	0.00000000	2
	1.42144380	0.00000000	1.05343500	1
	2.84715620	0.00000000	3.16030500	1
	-0.71072190	1.23100644	1.05343500	1
	-1.42357810	2.46570960	3.16030500	1
	1.42357810	2.46570960	1.05343500	1
	0.71072190	1.23100644	3.16030500	1
	2.84715620	0.00000000	1.05343500	1
	1.42144380	0.00000000	3.16030500	1
	-1.42357810	2.46570960	1.05343500	1
	-0.71072190	1.23100644	3.16030500	1
	0.71072190	1.23100644	1.05343500	1
	1.42357810	2.46570960	3.16030500	1
%endblock AtomicCoordinatesAndAtomicSpecies
Kgrid_NoTRS  T
%block kgrid_MonkhorstPack
4       0       0       0.0
0       4       0       0.0
0       0       4       0.0
%endblock kgrid_MonkhorstPack
AtomCoorFormatOut Ang
BlockSize 1
#ProcessorY 12
Diag.ParallelOverK   T
Diag.DivideAndConquer F
MeshCutoff   300 Ry
SCF.FreeE.Tolerance 1E-3 eV
SCF.EDM.Tolerance   5E-3 eV
DM.Tolerance  1E-3
DM.Require.Energy.Convergence T
DM.NumberPulay 4
XC.Functional GGA
XC.Authors    PBE
UseSaveData        F
MD.TypeOfRun       CG
MD.VariableCell    F
MD.NumCGsteps      00
MD.MaxCGDispl      0.200000 Bohr
MD.MaxStressTol    1.000000 GPa
MD.MaxForceTol     0.010000 eV/Ang
WriteMDHistory T
WriteCoorStep T
WriteForces T
WriteCoorStep    T
WriteEigenValues T
WriteDM    F
MM.UnitsDistance Ang  # what this program prints out DO NOT CHANGE
MM.UnitsEnergy    eV  # what this program prints out DO NOT CHANGE
MM.Grimme.S6     0.75 # Grimme-paper for PBE (correct for your functional)
MM.Grimme.D     20.   # Grimme-paper (correct for your functional)
%block MM.Potentials
  1   1 Grimme     16.69      1.650 # Li, 10.1002/jcc.20495
  1   2 Grimme     17.40      2.277 # Li / C
  2   2 Grimme     18.14      2.904 # C, 10.1002/jcc.20495
%endblock MM.Potentials
#%block ProjectedDensityOfStates
# -200.0  120.0  0.4  12800  eV
#%endblock ProjectedDensityOfStates
************************** End of input data file *****************************

reinit: -----------------------------------------------------------------------
reinit: System Name: LiC12_scf
reinit: -----------------------------------------------------------------------
reinit: System Label: LiC12_scf
reinit: -----------------------------------------------------------------------
Reading two-body potentials
Grimme - two-body potential between 1 and 1
Grimme - two-body potential between 1 and 2
Grimme - two-body potential between 2 and 2

initatom: Reading input for the pseudopotentials and atomic orbitals ----------
Species number:   1 Atomic number:    3 Label: Li-gga
Species number:   2 Atomic number:    6 Label: C-gga

Ground state valence configuration:   2s01
Reading pseudopotential information in formatted form from Li-gga.psf

Valence configuration for pseudopotential generation:
2s( 1.00) rc: 2.28
2p( 0.00) rc: 2.28
3d( 0.00) rc: 2.59
4f( 0.00) rc: 2.59
Ground state valence configuration:   2s02  2p02
Reading pseudopotential information in formatted form from C-gga.psf

Valence configuration for pseudopotential generation:
2s( 2.00) rc: 1.56
2p( 2.00) rc: 1.56
3d( 0.00) rc: 1.56
4f( 0.00) rc: 1.56
relmxkb: Read Max KB Ang. Momentum=    2 for species C-gga
relmxkb: Read Max KB Ang. Momentum=    2 for species Li-gga

<basis_specs>
===============================================================================
Li-gga               Z=   3    Mass=  6.9400        Charge= 0.17977+309
Lmxo=0 Lmxkb= 2    BasisType=split      Semic=F
L=0  Nsemic=0  Cnfigmx=2
          i=1  nzeta=1  polorb=0  (2s)
            splnorm:   0.15000    
               vcte:    0.0000    
               rinn:    0.0000    
               qcoe:    0.0000    
               qyuk:    0.0000    
               qwid:   0.10000E-01
                rcs:    0.0000    
            lambdas:    1.0000    
-------------------------------------------------------------------------------
L=0  Nkbl=1  erefs: 0.17977+309
L=1  Nkbl=1  erefs: 0.17977+309
L=2  Nkbl=1  erefs: 0.17977+309
===============================================================================
</basis_specs>

atom: Called for Li-gga                (Z =   3)

read_vps: Pseudopotential generation method:
read_vps: ATM 3.2.2 Troullier-Martins                       
Valence charge for ps generation:    1.00000

read_vps: Pseudopotential includes a core correction:
read_vps: Pseudo-core for xc-correction

xc_check: Exchange-correlation functional:
xc_check: GGA Perdew, Burke & Ernzerhof 1996
V l=0 = -2*Zval/r beyond r=  2.2278
V l=1 = -2*Zval/r beyond r=  2.2278
V l=2 = -2*Zval/r beyond r=  2.5245
All V_l potentials equal beyond r=  2.4622
This should be close to max(r_c) in ps generation
All pots = -2*Zval/r beyond r=  2.5245

VLOCAL1: 99.0% of the norm of Vloc inside      7.160 Ry
VLOCAL1: 99.9% of the norm of Vloc inside     16.318 Ry
atom: Maximum radius for 4*pi*r*r*local-pseudopot. charge    2.86079
atom: Maximum radius for r*vlocal+2*Zval:    2.43160
GHOST: No ghost state for L =  0
GHOST: No ghost state for L =  1
GHOST: No ghost state for L =  2

KBgen: Kleinman-Bylander projectors: 
   l= 0   rc=  2.654023   el= -0.211234   Ekb=  1.742119   kbcos=  0.228463
   l= 1   rc=  2.721230   el= -0.080095   Ekb= -1.122375   kbcos= -0.147941
   l= 2   rc=  2.825246   el=  0.002001   Ekb= -0.207076   kbcos= -0.031965

KBgen: Total number of Kleinman-Bylander projectors:    9
atom: -------------------------------------------------------------------------

atom: SANKEY-TYPE ORBITALS:

SPLIT: Orbitals with angular momentum L= 0

SPLIT: Basis orbitals for state 2s

SPLIT: PAO cut-off radius determined from an
SPLIT: energy shift=  0.000735 Ry

   izeta = 1
                 lambda =    1.000000
                     rc =   11.897381
                 energy =   -0.210580
                kinetic =    0.143382
    potential(screened) =   -0.353962
       potential(ionic) =   -0.533453
atom: Total number of Sankey-type orbitals:  1

atm_pop: Valence configuration (for local Pseudopot. screening):
 2s( 1.00)                                                            
Vna: chval, zval:    1.00000   1.00000

Vna:  Cut-off radius for the neutral-atom potential:  11.897381
comcore: Pseudo-core radius Rcore=  3.450946

atom: _________________________________________________________________________

<basis_specs>
===============================================================================
C-gga                Z=   6    Mass=  12.010        Charge= 0.17977+309
Lmxo=1 Lmxkb= 2    BasisType=split      Semic=F
L=0  Nsemic=0  Cnfigmx=2
          i=1  nzeta=1  polorb=0  (2s)
            splnorm:   0.15000    
               vcte:    0.0000    
               rinn:    0.0000    
               qcoe:    0.0000    
               qyuk:    0.0000    
               qwid:   0.10000E-01
                rcs:    0.0000    
            lambdas:    1.0000    
L=1  Nsemic=0  Cnfigmx=2
          i=1  nzeta=1  polorb=0  (2p)
            splnorm:   0.15000    
               vcte:    0.0000    
               rinn:    0.0000    
               qcoe:    0.0000    
               qyuk:    0.0000    
               qwid:   0.10000E-01
                rcs:    0.0000    
            lambdas:    1.0000    
-------------------------------------------------------------------------------
L=0  Nkbl=1  erefs: 0.17977+309
L=1  Nkbl=1  erefs: 0.17977+309
L=2  Nkbl=1  erefs: 0.17977+309
===============================================================================
</basis_specs>

atom: Called for C-gga                 (Z =   6)

read_vps: Pseudopotential generation method:
read_vps: ATM 3.2.2 Troullier-Martins                       
Valence charge for ps generation:    4.00000

xc_check: Exchange-correlation functional:
xc_check: GGA Perdew, Burke & Ernzerhof 1996
V l=0 = -2*Zval/r beyond r=  1.5227
V l=1 = -2*Zval/r beyond r=  1.5227
V l=2 = -2*Zval/r beyond r=  1.5227
All V_l potentials equal beyond r=  1.4851
This should be close to max(r_c) in ps generation
All pots = -2*Zval/r beyond r=  1.5227

VLOCAL1: 99.0% of the norm of Vloc inside     19.682 Ry
VLOCAL1: 99.9% of the norm of Vloc inside     44.856 Ry
atom: Maximum radius for 4*pi*r*r*local-pseudopot. charge    1.79142
atom: Maximum radius for r*vlocal+2*Zval:    1.54183
GHOST: No ghost state for L =  0
GHOST: No ghost state for L =  1
GHOST: No ghost state for L =  2

KBgen: Kleinman-Bylander projectors: 
   l= 0   rc=  1.661951   el= -1.010689   Ekb=  5.289847   kbcos=  0.316429
   l= 1   rc=  1.661951   el= -0.388490   Ekb= -4.102504   kbcos= -0.351025
   l= 2   rc=  1.747182   el=  0.001971   Ekb= -1.006005   kbcos= -0.008530

KBgen: Total number of Kleinman-Bylander projectors:    9
atom: -------------------------------------------------------------------------

atom: SANKEY-TYPE ORBITALS:

SPLIT: Orbitals with angular momentum L= 0

SPLIT: Basis orbitals for state 2s

SPLIT: PAO cut-off radius determined from an
SPLIT: energy shift=  0.000735 Ry

   izeta = 1
                 lambda =    1.000000
                     rc =    5.948690
                 energy =   -1.010099
                kinetic =    0.827121
    potential(screened) =   -1.837220
       potential(ionic) =   -5.392783

SPLIT: Orbitals with angular momentum L= 1

SPLIT: Basis orbitals for state 2p

SPLIT: PAO cut-off radius determined from an
SPLIT: energy shift=  0.000735 Ry

   izeta = 1
                 lambda =    1.000000
                     rc =    7.638387
                 energy =   -0.387843
                kinetic =    2.314739
    potential(screened) =   -2.702582
       potential(ionic) =   -6.092371
atom: Total number of Sankey-type orbitals:  4

atm_pop: Valence configuration (for local Pseudopot. screening):
 2s( 2.00)                                                            
 2p( 2.00)                                                            
Vna: chval, zval:    4.00000   4.00000

Vna:  Cut-off radius for the neutral-atom potential:   7.638387

atom: _________________________________________________________________________

prinput: Basis input ----------------------------------------------------------

PAO.BasisType split     

%block ChemicalSpeciesLabel
    1    3 Li-gga                  # Species index, atomic number, species label
    2    6 C-gga                   # Species index, atomic number, species label
%endblock ChemicalSpeciesLabel

%block PAO.Basis                 # Define Basis set
Li-gga                1                    # Species label, number of l-shells
 n=2   0   1                         # n, l, Nzeta 
  11.897   
   1.000   
C-gga                 2                    # Species label, number of l-shells
 n=2   0   1                         # n, l, Nzeta 
   5.949   
   1.000   
 n=2   1   1                         # n, l, Nzeta 
   7.638   
   1.000   
%endblock PAO.Basis

prinput: ----------------------------------------------------------------------

coor:   Atomic-coordinates input format  =     Cartesian coordinates
coor:                                          (in Angstroms)

siesta: Atomic coordinates (Bohr) and species
siesta:      0.00000   0.00000   0.00000  2        1
siesta:      2.68614   0.00000   1.99070  1        2
siesta:      5.38035   0.00000   5.97211  1        3
siesta:     -1.34307   2.32627   1.99070  1        4
siesta:     -2.69017   4.65952   5.97211  1        5
siesta:      2.69017   4.65952   1.99070  1        6
siesta:      1.34307   2.32627   5.97211  1        7
siesta:      5.38035   0.00000   1.99070  1        8
siesta:      2.68614   0.00000   5.97211  1        9
siesta:     -2.69017   4.65952   1.99070  1       10
siesta:     -1.34307   2.32627   5.97211  1       11
siesta:      1.34307   2.32627   1.99070  1       12
siesta:      2.69017   4.65952   5.97211  1       13

siesta: System type = bulk      

initatomlists: Number of atoms, orbitals, and projectors:     13    16   117

siesta: ******************** Simulation parameters ****************************
siesta:
siesta: The following are some of the parameters of the simulation.
siesta: A complete list of the parameters used, including default values,
siesta: can be found in file out.fdf
siesta:
redata: Spin configuration                          = none
redata: Number of spin components                   = 1
redata: Time-Reversal Symmetry                      = T
redata: Spin spiral                                 = F
redata: Long output                                 =   F
redata: Number of Atomic Species                    =        2
redata: Charge density info will appear in .RHO file
redata: Write Mulliken Pop.                         = NO
redata: Matel table size (NRTAB)                    =     1024
redata: Mesh Cutoff                                 =   300.0000 Ry
redata: Net charge of the system                    =     0.0000 |e|
redata: Min. number of SCF Iter                     =        0
redata: Max. number of SCF Iter                     =     1000
redata: SCF convergence failure will abort job
redata: SCF mix quantity                            = Hamiltonian
redata: Mix DM or H after convergence               =   F
redata: Recompute H after scf cycle                 =   F
redata: Mix DM in first SCF step                    =   T
redata: Write Pulay info on disk                    =   F
redata: New DM Occupancy tolerance                  = 0.000000000001
redata: No kicks to SCF
redata: DM Mixing Weight for Kicks                  =     0.5000
redata: Require Harris convergence for SCF          =   F
redata: Harris energy tolerance for SCF             =     0.000100 eV
redata: Require DM convergence for SCF              =   T
redata: DM tolerance for SCF                        =     0.001000
redata: Require EDM convergence for SCF             =   F
redata: EDM tolerance for SCF                       =     0.005000 eV
redata: Require H convergence for SCF               =   T
redata: Hamiltonian tolerance for SCF               =     0.001000 eV
redata: Require (free) Energy convergence for SCF   =   T
redata: (free) Energy tolerance for SCF             =     0.001000 eV
redata: Using Saved Data (generic)                  =   F
redata: Use continuation files for DM               =   F
redata: Neglect nonoverlap interactions             =   F
redata: Method of Calculation                       = Diagonalization
redata: Electronic Temperature                      =   299.9869 K
redata: Fix the spin of the system                  =   F
redata: Dynamics option                             = Single-point calculation
mix.SCF: Pulay mixing                            = Pulay
mix.SCF:    Variant                              = stable
mix.SCF:    History steps                        = 4
mix.SCF:    Linear mixing weight                 =     0.250000
mix.SCF:    Mixing weight                        =     0.250000
mix.SCF:    SVD condition                        = 0.1000E-07
redata: ***********************************************************************

%block SCF.Mixers
  Pulay
%endblock SCF.Mixers

%block SCF.Mixer.Pulay
  # Mixing method
  method pulay
  variant stable

  # Mixing options
  weight 0.2500
  weight.linear 0.2500
  history 4
%endblock SCF.Mixer.Pulay

DM_history_depth set to one: no extrapolation allowed by default for geometry relaxation
Size of DM history Fstack: 1
Total number of electrons:    16.000000
Total ionic charge:    16.000000

* ProcessorY, Blocksize:    3   1


* Orbital distribution balance (max,min):     2     1

k-point displ. along   1 input, could be:     0.00    0.50
k-point displ. along   2 input, could be:     0.00    0.50
k-point displ. along   3 input, could be:     0.00    0.50
 Kpoints in:           48 . Kpoints trimmed:           44

siesta: k-grid: Number of k-points =    44
siesta: k-grid: Cutoff (effective) =     8.427 Ang
siesta: k-grid: Supercell and displacements
siesta: k-grid:    4   0   0      0.000
siesta: k-grid:    0   4   0      0.000
siesta: k-grid:    0   0   4      0.000

diag: Algorithm                                     = Expert
diag: Parallel over k                               =   T
diag: Use parallel 2D distribution                  =   T
diag: Parallel block-size                           = 1
diag: Parallel distribution                         =     3 x     4
diag: Used triangular part                          = Lower
diag: Absolute tolerance                            =  0.100E-15
diag: Orthogonalization factor                      =  0.100E-05
diag: Memory factor                                 =  1.0000

superc: Internal auxiliary supercell:     9 x     9 x     7  =     567
superc: Number of atoms, orbitals, and projectors:   7371   9072  66339


ts: **************************************************************
ts: Save H and S matrices                           =    F
ts: Save DM and EDM matrices                        =    F
ts: Only save the overlap matrix S                  =    F
ts: **************************************************************

************************ Begin: TS CHECKS AND WARNINGS ************************
************************ End: TS CHECKS AND WARNINGS **************************


                     ====================================
                        Single-point calculation
                     ====================================

outcoor: Atomic coordinates (Ang):                          
    0.00000000    0.00000000    0.00000000   2       1  C-gga
    1.42144380    0.00000000    1.05343500   1       2  Li-gga
    2.84715620    0.00000000    3.16030500   1       3  Li-gga
   -0.71072190    1.23100644    1.05343500   1       4  Li-gga
   -1.42357810    2.46570960    3.16030500   1       5  Li-gga
    1.42357810    2.46570960    1.05343500   1       6  Li-gga
    0.71072190    1.23100644    3.16030500   1       7  Li-gga
    2.84715620    0.00000000    1.05343500   1       8  Li-gga
    1.42144380    0.00000000    3.16030500   1       9  Li-gga
   -1.42357810    2.46570960    1.05343500   1      10  Li-gga
   -0.71072190    1.23100644    3.16030500   1      11  Li-gga
    0.71072190    1.23100644    1.05343500   1      12  Li-gga
    1.42357810    2.46570960    3.16030500   1      13  Li-gga

superc: Internal auxiliary supercell:     9 x     9 x     7  =     567
superc: Number of atoms, orbitals, and projectors:   7371   9072  66339

outcell: Unit cell vectors (Ang):
        4.268600    0.000000    0.000000
       -2.134300    3.696716    0.000000
        0.000000    0.000000    4.213740

outcell: Cell vector modules (Ang)   :    4.268600    4.268600    4.213740
outcell: Cell angles (23,13,12) (deg):     90.0000     90.0000    120.0000
outcell: Cell volume (Ang**3)        :     66.4920
<dSpData1D:S at geom step 0
  <sparsity:sparsity for geom step 0
    nrows_g=16 nrows=2 sparsity=17.7031 nnzs=4532, refcount: 7>
  <dData1D:(new from dSpData1D) n=4532, refcount: 1>
refcount: 1>
new_DM -- step:     1
Initializing Density Matrix...
DM filled with atomic data:
<dSpData2D:DM initialized from atoms
  <sparsity:sparsity for geom step 0
    nrows_g=16 nrows=2 sparsity=17.7031 nnzs=4532, refcount: 8>
  <dData2D:DM n=4532 m=1, refcount: 1>
refcount: 1>
No. of atoms with KB's overlaping orbs in proc 0. Max # of overlaps:     396     412
New grid distribution:   1
           1       1:   20    1:    7    1:    6
           2       1:   20    1:    7    7:   12
           3       1:   20    1:    7   13:   18
           4       1:   20    1:    7   19:   24
           5       1:   20    8:   14    1:    6
           6       1:   20    8:   14    7:   12
           7       1:   20    8:   14   13:   18
           8       1:   20    8:   14   19:   24
           9       1:   20   15:   20    1:    6
          10       1:   20   15:   20    7:   12
          11       1:   20   15:   20   13:   18
          12       1:   20   15:   20   19:   24

InitMesh: MESH =    40 x    40 x    48 =       76800
InitMesh: (bp) =    20 x    20 x    24 =        9600
InitMesh: Mesh cutoff (required, used) =   300.000   323.586 Ry
ExtMesh (bp) on 0 =   160 x   147 x   150 =     3528000
New grid distribution:   2
           1       1:    7    1:   10    1:   12
           2       8:   20   11:   20   13:   18
           3       1:    7    1:   10   13:   24
           4       8:   20    1:   10    1:    6
           5       8:   20   11:   20    1:    6
           6       8:   20    1:   10    7:   12
           7       1:    7   11:   20   13:   24
           8       8:   20    1:   10   19:   24
           9       1:    7   11:   20    1:   12
          10       8:   20    1:   10   13:   18
          11       8:   20   11:   20    7:   12
          12       8:   20   11:   20   19:   24
New grid distribution:   3
           1       1:    7    1:   10    1:   12
           2       8:   20   11:   20   13:   18
           3       1:    7    1:   10   13:   24
           4       8:   20    1:   10    1:    6
           5       8:   20   11:   20    1:    6
           6       8:   20    1:   10    7:   12
           7       1:    7   11:   20   13:   24
           8       8:   20    1:   10   19:   24
           9       1:    7   11:   20    1:   12
          10       8:   20    1:   10   13:   18
          11       8:   20   11:   20    7:   12
          12       8:   20   11:   20   19:   24
Setting up quadratic distribution...
ExtMesh (bp) on 0 =   147 x   150 x   156 =     3439800
PhiOnMesh: Number of (b)points on node 0 =                  840
PhiOnMesh: nlist on node 0 =               175736

stepf: Fermi-Dirac step function

siesta: Program's energy decomposition (eV):
siesta: Ebs     =      -222.194799
siesta: Eions   =       380.620085
siesta: Ena     =        78.993863
siesta: Ekin    =       330.856512
siesta: Enl     =        19.538530
siesta: Eso     =         0.000000
siesta: Edftu   =         0.000000
siesta: DEna    =       -62.964174
siesta: DUscf   =        43.300050
siesta: DUext   =         0.000000
siesta: Exc     =      -198.095013
siesta: eta*DQ  =         0.000000
siesta: Emadel  =         0.000000
siesta: Emeta   =         0.000000
siesta: Emolmec =       -10.068603
siesta: Ekinion =         0.000000
siesta: Eharris =       -84.637744
siesta: Etot    =      -179.058919
siesta: FreeEng =      -179.064456

        iscf     Eharris(eV)        E_KS(eV)     FreeEng(eV)     dDmax    Ef(eV) dHmax(eV)
   scf:    1      -84.637744     -179.058919     -179.064456  7.852277-14.238763 20.435335
timer: Routine,Calls,Time,% = IterSCF        1       1.165  15.66
   scf:    2     -192.121131     -185.842913     -185.849257  1.308851-13.844286 12.909867
   scf:    3     -181.125904     -190.156781     -190.167414  8.750114 -9.089932  8.348684
   scf:    4     -184.957616     -191.212133     -191.218304  6.948642-13.158717  6.244741
   scf:    5     -194.458293     -193.451519     -193.455337  2.499015-12.441389  0.837865
   scf:    6     -193.174668     -193.328912     -193.337382  0.406324-12.521220  1.608071
   scf:    7     -193.557634     -193.462429     -193.467035  0.445038-12.355104  0.737885
   scf:    8     -193.506545     -193.488159     -193.490804  0.198189-12.159935  0.222625
   scf:    9     -193.473446     -193.484968     -193.488637  0.254854-12.037258  0.252257
   scf:   10     -193.492222     -193.489411     -193.492681  0.120533-12.064616  0.086054
   scf:   11     -193.487838     -193.489273     -193.492412  0.094178-12.135551  0.114726
   scf:   12     -193.489774     -193.489537     -193.492731  0.012182-12.122374  0.085754
   scf:   13     -193.490080     -193.489864     -193.493072  0.025945-12.096202  0.025143
   scf:   14     -193.489729     -193.489815     -193.493101  0.016221-12.085073  0.008775
   scf:   15     -193.489817     -193.489819     -193.493104  0.006450-12.090177  0.004510
   scf:   16     -193.489758     -193.489792     -193.493102  0.006599-12.085771  0.008357
   scf:   17     -193.489829     -193.489811     -193.493106  0.004376-12.088760  0.000347
   scf:   18     -193.489814     -193.489813     -193.493106  0.000107-12.088657  0.000049

SCF Convergence by FreeE+DM+H criterion
|FreeE_i-FreeE_(i-1)| (eV) <     0.00100000
max |DM_out - DM_in|         :     0.0001065876
max |H_out - H_in|      (eV) :     0.0000492142
SCF cycle converged after 18 iterations

Using DM_out to compute the final energy and forces
No. of atoms with KB's overlaping orbs in proc 0. Max # of overlaps:     396     412

MM-Stress (kbar):      131.73      131.73      530.65       -0.00       -0.00       -0.00

siesta: E_KS(eV) =             -193.4898

siesta: E_KS - E_eggbox =      -193.4898

siesta: Atomic forces (eV/Ang):
     1   -0.000000    0.000000    0.000000
     2   -1.184428    0.000000   -1.128389
     3    1.184428   -0.000000    1.128389
     4    0.592214   -1.025745   -1.128389
     5   -0.592214    1.025745    1.128389
     6    0.592232    1.025776   -1.128457
     7   -0.592232   -1.025776    1.128457
     8    1.184428   -0.000000   -1.128389
     9   -1.184428    0.000000    1.128389
    10   -0.592214    1.025745   -1.128389
    11    0.592214   -1.025745    1.128389
    12   -0.592232   -1.025776   -1.128457
    13    0.592232    1.025776    1.128457
----------------------------------------
   Tot    0.000000    0.000000   -0.000000
----------------------------------------
   Max    1.184428
   Res    0.907441    sqrt( Sum f_i^2 / 3N )
----------------------------------------
   Max    1.184428    constrained

Stress tensor Voigt[x,y,z,yz,xz,xy] (kbar):    -3061.03    -3061.07     -760.00        0.00       -0.00       -0.03
(Free)E + p*V (eV/cell)      -98.2894
Target enthalpy (eV/cell)     -193.4931

siesta: Eigenvalues (eV):
  ik is       eps
   1  1  -25.1151  -22.4375  -21.9092  -17.3111  -15.7291  -14.8327  -13.8557  -12.6847   -6.1017    8.6859
           9.6140    9.8073   11.4485   12.7297   14.5116   15.7181
   2  1  -25.1949  -22.1533  -20.2859  -17.9693  -16.3253  -15.6456  -11.2541  -10.9662  -10.3770    5.9189
           8.5215    8.8243   10.1872   14.9423   17.9246   21.3547
   3  1  -25.1949  -22.1533  -20.2859  -17.9694  -16.3253  -15.6455  -11.2540  -10.9666  -10.3770    5.9189
           8.5215    8.8243   10.1872   14.9423   17.9246   21.3546
   4  1  -25.1151  -22.4375  -21.9092  -17.3111  -15.7290  -14.8330  -13.8554  -12.6847   -6.1017    8.6859
           9.6140    9.8073   11.4485   12.7297   14.5116   15.7181
   5  1  -25.1949  -22.1533  -20.2859  -17.9693  -16.3253  -15.6456  -11.2541  -10.9662  -10.3770    5.9189
           8.5215    8.8243   10.1872   14.9423   17.9246   21.3547
   6  1  -25.2140  -20.1374  -17.5766  -17.5764  -16.0220  -13.5833  -13.5833   -9.6452   -3.1270   -3.1265
           4.4801    4.4802    4.6383    4.6383   16.9246   20.5651
   7  1  -25.1493  -22.5621  -21.5589  -18.1000  -17.2911  -14.5161  -14.0664  -13.7249  -10.8145   -3.8398
           8.3912   11.0610   11.5730   12.6180   14.0716   14.1439
   8  1  -25.1151  -22.4375  -21.9092  -17.3111  -15.7290  -14.8330  -13.8554  -12.6847   -6.1017    8.6859
           9.6140    9.8073   11.4485   12.7297   14.5116   15.7181
   9  1  -25.1151  -22.4375  -21.9092  -17.3111  -15.7290  -14.8330  -13.8554  -12.6847   -6.1017    8.6859
           9.6140    9.8073   11.4485   12.7297   14.5116   15.7181
  10  1  -25.1493  -22.5621  -21.5589  -18.1000  -17.2911  -14.5161  -14.0664  -13.7249  -10.8145   -3.8398
           8.3912   11.0610   11.5730   12.6180   14.0716   14.1439
  11  1  -25.1151  -22.4375  -21.9092  -17.3111  -15.7290  -14.8330  -13.8554  -12.6847   -6.1017    8.6859
           9.6140    9.8073   11.4485   12.7297   14.5116   15.7181
  12  1  -25.1493  -22.5621  -21.5589  -18.1001  -17.2911  -14.5158  -14.0664  -13.7249  -10.8148   -3.8397
           8.3912   11.0610   11.5730   12.6180   14.0716   14.1439
  13  1  -25.1139  -22.3862  -21.7729  -21.6440  -21.4226  -20.9211  -13.0830  -12.7099  -12.2020   -2.8817
          11.0437   11.6499   12.0528   13.2415   14.0090   14.2009
  14  1  -25.1526  -22.3875  -21.2944  -19.3869  -18.4637  -18.1476  -13.0988  -12.3089  -11.6090   -3.7897
           3.4922    9.5122   10.3427   15.2548   17.6795   19.4721
  15  1  -25.1526  -22.3876  -21.2944  -19.3868  -18.4637  -18.1477  -13.0986  -12.3091  -11.6090   -3.7896
           3.4921    9.5122   10.3427   15.2548   17.6795   19.4720
  16  1  -25.1139  -22.3862  -21.7729  -21.6440  -21.4226  -20.9211  -13.0829  -12.7103  -12.2017   -2.8816
          11.0437   11.6499   12.0528   13.2415   14.0090   14.2009
  17  1  -25.1526  -22.3875  -21.2944  -19.3869  -18.4637  -18.1476  -13.0988  -12.3089  -11.6090   -3.7897
           3.4922    9.5122   10.3427   15.2548   17.6795   19.4721
  18  1  -25.1919  -22.2749  -17.3963  -17.3962  -16.7891  -14.7108  -11.9883  -11.9883   -2.3065   -2.3061
           8.6271    8.6272    9.0250    9.0251   16.3127   19.6177
  19  1  -25.1526  -22.3875  -21.2944  -19.3869  -18.4637  -18.1476  -13.0988  -12.3089  -11.6090   -3.7897
           3.4922    9.5122   10.3427   15.2548   17.6795   19.4721
  20  1  -25.1221  -22.4514  -22.0133  -21.7643  -20.2112  -18.3436  -13.8416  -13.3700  -11.6193   -7.2950
           0.7144   11.4627   11.8141   12.1987   13.0334   13.2159
  21  1  -25.1526  -22.3876  -21.2944  -19.3868  -18.4637  -18.1477  -13.0986  -12.3091  -11.6090   -3.7896
           3.4921    9.5122   10.3427   15.2548   17.6795   19.4720
  22  1  -25.1526  -22.3875  -21.2944  -19.3869  -18.4637  -18.1476  -13.0988  -12.3089  -11.6090   -3.7897
           3.4922    9.5122   10.3427   15.2548   17.6795   19.4721
  23  1  -25.1139  -22.3862  -21.7729  -21.6440  -21.4226  -20.9211  -13.0830  -12.7099  -12.2020   -2.8817
          11.0437   11.6499   12.0528   13.2415   14.0090   14.2009
  24  1  -25.1139  -22.3862  -21.7729  -21.6440  -21.4226  -20.9211  -13.0829  -12.7103  -12.2017   -2.8816
          11.0437   11.6499   12.0528   13.2415   14.0090   14.2009
  25  1  -25.1139  -22.3862  -21.7729  -21.6440  -21.4226  -20.9211  -13.0829  -12.7103  -12.2017   -2.8816
          11.0437   11.6499   12.0528   13.2415   14.0090   14.2009
  26  1  -25.1221  -22.4514  -22.0133  -21.7643  -20.2112  -18.3436  -13.8416  -13.3700  -11.6193   -7.2950
           0.7144   11.4627   11.8141   12.1987   13.0334   13.2159
  27  1  -25.1139  -22.3862  -21.7729  -21.6440  -21.4226  -20.9211  -13.0829  -12.7103  -12.2017   -2.8816
          11.0437   11.6499   12.0528   13.2415   14.0090   14.2009
  28  1  -25.1221  -22.4514  -22.0133  -21.7643  -20.2112  -18.3436  -13.8417  -13.3700  -11.6189   -7.2950
           0.7142   11.4627   11.8141   12.1987   13.0334   13.2159
  29  1  -25.0767  -22.4555  -22.0971  -22.0099  -21.8654  -21.6837  -12.7134  -12.2883  -12.0493   -4.8515
          13.5470   13.5482   13.5821   13.6951   13.8912   14.4818
  30  1  -25.0661  -22.7035  -21.7139  -21.4750  -18.4861  -15.9240  -15.6240  -15.3326  -12.3061   -3.9396
          -2.8517    8.8269   13.9850   13.9939   16.5060   16.5381
  31  1  -25.0661  -22.7035  -21.7139  -21.4750  -18.4862  -15.9240  -15.6239  -15.3326  -12.3058   -3.9400
          -2.8517    8.8270   13.9850   13.9938   16.5060   16.5381
  32  1  -25.0767  -22.4555  -22.0971  -22.0099  -21.8654  -21.6837  -12.7138  -12.2880  -12.0493   -4.8515
          13.5470   13.5482   13.5821   13.6950   13.8912   14.4818
  33  1  -25.0661  -22.7035  -21.7139  -21.4750  -18.4861  -15.9240  -15.6240  -15.3326  -12.3061   -3.9396
          -2.8517    8.8269   13.9850   13.9939   16.5060   16.5381
  34  1  -25.1240  -22.8905  -16.8373  -16.8371  -16.8233  -15.3141    0.0195    0.0195    0.0403    0.0403
           0.4865    0.4865   17.1372   17.2298   17.2649   17.2652
  35  1  -25.0661  -22.7035  -21.7139  -21.4750  -18.4861  -15.9240  -15.6240  -15.3326  -12.3061   -3.9396
          -2.8517    8.8269   13.9850   13.9939   16.5060   16.5381
  36  1  -25.0195  -22.4187  -22.3805  -22.2691  -18.9134  -17.1890  -16.7387  -16.4230  -11.5587   -5.4890
          -4.3165    7.9563   11.8310   11.9054   11.9056   12.8280
  37  1  -25.0661  -22.7035  -21.7139  -21.4750  -18.4862  -15.9240  -15.6239  -15.3326  -12.3058   -3.9400
          -2.8517    8.8270   13.9850   13.9938   16.5060   16.5381
  38  1  -25.0661  -22.7035  -21.7139  -21.4750  -18.4861  -15.9240  -15.6240  -15.3326  -12.3061   -3.9396
          -2.8517    8.8269   13.9850   13.9939   16.5060   16.5381
  39  1  -25.0767  -22.4555  -22.0971  -22.0099  -21.8654  -21.6837  -12.7134  -12.2883  -12.0493   -4.8515
          13.5470   13.5482   13.5821   13.6951   13.8912   14.4818
  40  1  -25.0767  -22.4555  -22.0971  -22.0099  -21.8654  -21.6837  -12.7138  -12.2880  -12.0493   -4.8515
          13.5470   13.5482   13.5821   13.6950   13.8912   14.4818
  41  1  -25.0767  -22.4555  -22.0971  -22.0099  -21.8654  -21.6837  -12.7138  -12.2880  -12.0493   -4.8515
          13.5470   13.5482   13.5821   13.6950   13.8912   14.4818
  42  1  -25.0195  -22.4187  -22.3805  -22.2691  -18.9134  -17.1890  -16.7387  -16.4230  -11.5587   -5.4890
          -4.3165    7.9563   11.8310   11.9054   11.9056   12.8280
  43  1  -25.0767  -22.4555  -22.0971  -22.0099  -21.8654  -21.6837  -12.7138  -12.2880  -12.0493   -4.8515
          13.5470   13.5482   13.5821   13.6950   13.8912   14.4818
  44  1  -25.0195  -22.4187  -22.3805  -22.2691  -18.9134  -17.1890  -16.7386  -16.4230  -11.5583   -5.4890
          -4.3169    7.9564   11.8310   11.9054   11.9056   12.8280
siesta: Fermi energy =     -12.088657 eV

siesta: Program's energy decomposition (eV):
siesta: Ebs     =      -304.509924
siesta: Eions   =       380.620085
siesta: Ena     =        78.993863
siesta: Ekin    =       283.869793
siesta: Enl     =        39.035494
siesta: Eso     =         0.000000
siesta: Edftu   =         0.000000
siesta: DEna    =       -30.926227
siesta: DUscf   =        12.874088
siesta: DUext   =         0.000000
siesta: Exc     =      -186.648137
siesta: eta*DQ  =         0.000000
siesta: Emadel  =         0.000000
siesta: Emeta   =         0.000000
siesta: Emolmec =       -10.068603
siesta: Ekinion =         0.000000
siesta: Eharris =      -193.489814
siesta: Etot    =      -193.489813
siesta: FreeEng =      -193.493106

siesta: Final energy (eV):
siesta:  Band Struct. =    -304.509924
siesta:       Kinetic =     283.869793
siesta:       Hartree =     103.803986
siesta:       Edftu   =       0.000000
siesta:       Eso     =       0.000000
siesta:    Ext. field =       0.000000
siesta:   Exch.-corr. =    -186.648137
siesta:  Ion-electron =    -595.273163
siesta:       Ion-ion =     210.826310
siesta:       Ekinion =       0.000000
siesta:         Total =    -193.489813
siesta:         Fermi =     -12.088657

siesta: Atomic forces (eV/Ang):
siesta:      1   -0.000000    0.000000    0.000000
siesta:      2   -1.184428    0.000000   -1.128389
siesta:      3    1.184428   -0.000000    1.128389
siesta:      4    0.592214   -1.025745   -1.128389
siesta:      5   -0.592214    1.025745    1.128389
siesta:      6    0.592232    1.025776   -1.128457
siesta:      7   -0.592232   -1.025776    1.128457
siesta:      8    1.184428   -0.000000   -1.128389
siesta:      9   -1.184428    0.000000    1.128389
siesta:     10   -0.592214    1.025745   -1.128389
siesta:     11    0.592214   -1.025745    1.128389
siesta:     12   -0.592232   -1.025776   -1.128457
siesta:     13    0.592232    1.025776    1.128457
siesta: ----------------------------------------
siesta:    Tot    0.000000    0.000000   -0.000000

siesta: Stress tensor (static) (eV/Ang**3):
siesta:    -1.910525   -0.000022   -0.000000
siesta:    -0.000022   -1.910550    0.000000
siesta:    -0.000000    0.000000   -0.474348

siesta: Cell volume =         66.491983 Ang**3

siesta: Pressure (static):
siesta:                Solid            Molecule  Units
siesta:           0.01559421          0.01426218  Ry/Bohr**3
siesta:           1.43180770          1.30950461  eV/Ang**3
siesta:        2294.03364358       2098.08037356  kBar
(Free)E+ p_basis*V_orbitals  =        -177.326492
(Free)Eharris+ p_basis*V_orbitals  =        -177.326493

cite: Please see "LiC12_scf.bib" for an exhaustive BiBTeX file.
cite: Please clearly indicate Siesta version in published work: 4.1.5
cite: This calculation has made use of the following articles
cite: which are encouraged to be cited in a published work.
        Primary SIESTA paper
          DOI: www.doi.org/10.1088/0953-8984/14/11/302

>> End of run:   9-NOV-2022  14:52:42
Job completed
