Siesta Version  : 4.1.5
Architecture    : x86_64-unknown-linux-gnu--unknown
Compiler version: GNU Fortran (GCC) 11.3.0
Compiler flags  : mpif90 -g -O2 -fallow-argument-mismatch
PP flags        : -DMPI -DFC_HAVE_FLUSH -DFC_HAVE_ABORT
Libraries       :  -I/global/software/sl-7.x86_64/modules/intel/2020.4.304/mkl/include  /globall/software/sl-7.x86_64/modules/intel/2020.4.304/mkl/lib/intel64/libmkl_scalapack_lp64.a -Wl,--start-group /global/software/sl-7.x86_64/modules/intel/2020.4.304/mkl/lib/intel64/libmkl_intel_lp64.a /global/software/sl-7.x86_64/modules/intel/2020.4.304/mkl/lib/intel64/libmkl_sequential.a /global/software/sl-7.x86_64/modules/intel/2020.4.304/mkl/lib/intel64/libmkl_core.a /global/software/sl-7.x86_64/modules/intel/2020.4.304/mkl/lib/intel64/libmkl_blacs_openmpi_lp64.a -Wl,--end-group -lpthread -lm -ldl
PARALLEL version

* Running on 12 nodes in parallel
>> Start of run:   9-NOV-2022  14:47:27

                           ***********************       
                           *  WELCOME TO SIESTA  *       
                           ***********************       

reinit: Reading from standard input
reinit: Dumped input in INPUT_TMP.14164
************************** Dump of input data file ****************************
SystemName LiC12_scf
SystemLabel LiC12_scf
NumberOfAtoms   13
NumberOfSpecies 2
%block ChemicalSpeciesLabel
1  3   Li-gga
2  6   C-gga
%endblock ChemicalSpeciesLabel
PAO.BasisSize  SZ
PAO.EnergyShift  10 meV
%block PS.Lmax
C-gga   2
Li-gga  2
%endblock PS.Lmax
LatticeConstant 1.000000 Ang
%block LatticeVectors
	4.2686000000	0.0000000000	0.0000000000
	-2.1343000000	3.6967160386	0.0000000000
	0.0000000000	0.0000000000	5.0564880000
%endblock LatticeVectors
AtomicCoordinatesFormat Ang
%block AtomicCoordinatesAndAtomicSpecies
	0.00000000	0.00000000	0.00000000	2
	1.42144380	0.00000000	1.26412200	1
	2.84715620	0.00000000	3.79236600	1
	-0.71072190	1.23100644	1.26412200	1
	-1.42357810	2.46570960	3.79236600	1
	1.42357810	2.46570960	1.26412200	1
	0.71072190	1.23100644	3.79236600	1
	2.84715620	0.00000000	1.26412200	1
	1.42144380	0.00000000	3.79236600	1
	-1.42357810	2.46570960	1.26412200	1
	-0.71072190	1.23100644	3.79236600	1
	0.71072190	1.23100644	1.26412200	1
	1.42357810	2.46570960	3.79236600	1
%endblock AtomicCoordinatesAndAtomicSpecies
Kgrid_NoTRS  T
%block kgrid_MonkhorstPack
4       0       0       0.0
0       4       0       0.0
0       0       4       0.0
%endblock kgrid_MonkhorstPack
AtomCoorFormatOut Ang
BlockSize 1
#ProcessorY 12
Diag.ParallelOverK   T
Diag.DivideAndConquer F
MeshCutoff   300 Ry
SCF.FreeE.Tolerance 1E-3 eV
SCF.EDM.Tolerance   5E-3 eV
DM.Tolerance  1E-3
DM.Require.Energy.Convergence T
DM.NumberPulay 4
XC.Functional GGA
XC.Authors    PBE
UseSaveData        F
MD.TypeOfRun       CG
MD.VariableCell    F
MD.NumCGsteps      00
MD.MaxCGDispl      0.200000 Bohr
MD.MaxStressTol    1.000000 GPa
MD.MaxForceTol     0.010000 eV/Ang
WriteMDHistory T
WriteCoorStep T
WriteForces T
WriteCoorStep    T
WriteEigenValues T
WriteDM    F
MM.UnitsDistance Ang  # what this program prints out DO NOT CHANGE
MM.UnitsEnergy    eV  # what this program prints out DO NOT CHANGE
MM.Grimme.S6     0.75 # Grimme-paper for PBE (correct for your functional)
MM.Grimme.D     20.   # Grimme-paper (correct for your functional)
%block MM.Potentials
  1   1 Grimme     16.69      1.650 # Li, 10.1002/jcc.20495
  1   2 Grimme     17.40      2.277 # Li / C
  2   2 Grimme     18.14      2.904 # C, 10.1002/jcc.20495
%endblock MM.Potentials
#%block ProjectedDensityOfStates
# -200.0  120.0  0.4  12800  eV
#%endblock ProjectedDensityOfStates
************************** End of input data file *****************************

reinit: -----------------------------------------------------------------------
reinit: System Name: LiC12_scf
reinit: -----------------------------------------------------------------------
reinit: System Label: LiC12_scf
reinit: -----------------------------------------------------------------------
Reading two-body potentials
Grimme - two-body potential between 1 and 1
Grimme - two-body potential between 1 and 2
Grimme - two-body potential between 2 and 2

initatom: Reading input for the pseudopotentials and atomic orbitals ----------
Species number:   1 Atomic number:    3 Label: Li-gga
Species number:   2 Atomic number:    6 Label: C-gga

Ground state valence configuration:   2s01
Reading pseudopotential information in formatted form from Li-gga.psf

Valence configuration for pseudopotential generation:
2s( 1.00) rc: 2.28
2p( 0.00) rc: 2.28
3d( 0.00) rc: 2.59
4f( 0.00) rc: 2.59
Ground state valence configuration:   2s02  2p02
Reading pseudopotential information in formatted form from C-gga.psf

Valence configuration for pseudopotential generation:
2s( 2.00) rc: 1.56
2p( 2.00) rc: 1.56
3d( 0.00) rc: 1.56
4f( 0.00) rc: 1.56
relmxkb: Read Max KB Ang. Momentum=    2 for species C-gga
relmxkb: Read Max KB Ang. Momentum=    2 for species Li-gga

<basis_specs>
===============================================================================
Li-gga               Z=   3    Mass=  6.9400        Charge= 0.17977+309
Lmxo=0 Lmxkb= 2    BasisType=split      Semic=F
L=0  Nsemic=0  Cnfigmx=2
          i=1  nzeta=1  polorb=0  (2s)
            splnorm:   0.15000    
               vcte:    0.0000    
               rinn:    0.0000    
               qcoe:    0.0000    
               qyuk:    0.0000    
               qwid:   0.10000E-01
                rcs:    0.0000    
            lambdas:    1.0000    
-------------------------------------------------------------------------------
L=0  Nkbl=1  erefs: 0.17977+309
L=1  Nkbl=1  erefs: 0.17977+309
L=2  Nkbl=1  erefs: 0.17977+309
===============================================================================
</basis_specs>

atom: Called for Li-gga                (Z =   3)

read_vps: Pseudopotential generation method:
read_vps: ATM 3.2.2 Troullier-Martins                       
Valence charge for ps generation:    1.00000

read_vps: Pseudopotential includes a core correction:
read_vps: Pseudo-core for xc-correction

xc_check: Exchange-correlation functional:
xc_check: GGA Perdew, Burke & Ernzerhof 1996
V l=0 = -2*Zval/r beyond r=  2.2278
V l=1 = -2*Zval/r beyond r=  2.2278
V l=2 = -2*Zval/r beyond r=  2.5245
All V_l potentials equal beyond r=  2.4622
This should be close to max(r_c) in ps generation
All pots = -2*Zval/r beyond r=  2.5245

VLOCAL1: 99.0% of the norm of Vloc inside      7.160 Ry
VLOCAL1: 99.9% of the norm of Vloc inside     16.318 Ry
atom: Maximum radius for 4*pi*r*r*local-pseudopot. charge    2.86079
atom: Maximum radius for r*vlocal+2*Zval:    2.43160
GHOST: No ghost state for L =  0
GHOST: No ghost state for L =  1
GHOST: No ghost state for L =  2

KBgen: Kleinman-Bylander projectors: 
   l= 0   rc=  2.654023   el= -0.211234   Ekb=  1.742119   kbcos=  0.228463
   l= 1   rc=  2.721230   el= -0.080095   Ekb= -1.122375   kbcos= -0.147941
   l= 2   rc=  2.825246   el=  0.002001   Ekb= -0.207076   kbcos= -0.031965

KBgen: Total number of Kleinman-Bylander projectors:    9
atom: -------------------------------------------------------------------------

atom: SANKEY-TYPE ORBITALS:

SPLIT: Orbitals with angular momentum L= 0

SPLIT: Basis orbitals for state 2s

SPLIT: PAO cut-off radius determined from an
SPLIT: energy shift=  0.000735 Ry

   izeta = 1
                 lambda =    1.000000
                     rc =   11.897381
                 energy =   -0.210580
                kinetic =    0.143382
    potential(screened) =   -0.353962
       potential(ionic) =   -0.533453
atom: Total number of Sankey-type orbitals:  1

atm_pop: Valence configuration (for local Pseudopot. screening):
 2s( 1.00)                                                            
Vna: chval, zval:    1.00000   1.00000

Vna:  Cut-off radius for the neutral-atom potential:  11.897381
comcore: Pseudo-core radius Rcore=  3.450946

atom: _________________________________________________________________________

<basis_specs>
===============================================================================
C-gga                Z=   6    Mass=  12.010        Charge= 0.17977+309
Lmxo=1 Lmxkb= 2    BasisType=split      Semic=F
L=0  Nsemic=0  Cnfigmx=2
          i=1  nzeta=1  polorb=0  (2s)
            splnorm:   0.15000    
               vcte:    0.0000    
               rinn:    0.0000    
               qcoe:    0.0000    
               qyuk:    0.0000    
               qwid:   0.10000E-01
                rcs:    0.0000    
            lambdas:    1.0000    
L=1  Nsemic=0  Cnfigmx=2
          i=1  nzeta=1  polorb=0  (2p)
            splnorm:   0.15000    
               vcte:    0.0000    
               rinn:    0.0000    
               qcoe:    0.0000    
               qyuk:    0.0000    
               qwid:   0.10000E-01
                rcs:    0.0000    
            lambdas:    1.0000    
-------------------------------------------------------------------------------
L=0  Nkbl=1  erefs: 0.17977+309
L=1  Nkbl=1  erefs: 0.17977+309
L=2  Nkbl=1  erefs: 0.17977+309
===============================================================================
</basis_specs>

atom: Called for C-gga                 (Z =   6)

read_vps: Pseudopotential generation method:
read_vps: ATM 3.2.2 Troullier-Martins                       
Valence charge for ps generation:    4.00000

xc_check: Exchange-correlation functional:
xc_check: GGA Perdew, Burke & Ernzerhof 1996
V l=0 = -2*Zval/r beyond r=  1.5227
V l=1 = -2*Zval/r beyond r=  1.5227
V l=2 = -2*Zval/r beyond r=  1.5227
All V_l potentials equal beyond r=  1.4851
This should be close to max(r_c) in ps generation
All pots = -2*Zval/r beyond r=  1.5227

VLOCAL1: 99.0% of the norm of Vloc inside     19.682 Ry
VLOCAL1: 99.9% of the norm of Vloc inside     44.856 Ry
atom: Maximum radius for 4*pi*r*r*local-pseudopot. charge    1.79142
atom: Maximum radius for r*vlocal+2*Zval:    1.54183
GHOST: No ghost state for L =  0
GHOST: No ghost state for L =  1
GHOST: No ghost state for L =  2

KBgen: Kleinman-Bylander projectors: 
   l= 0   rc=  1.661951   el= -1.010689   Ekb=  5.289847   kbcos=  0.316429
   l= 1   rc=  1.661951   el= -0.388490   Ekb= -4.102504   kbcos= -0.351025
   l= 2   rc=  1.747182   el=  0.001971   Ekb= -1.006005   kbcos= -0.008530

KBgen: Total number of Kleinman-Bylander projectors:    9
atom: -------------------------------------------------------------------------

atom: SANKEY-TYPE ORBITALS:

SPLIT: Orbitals with angular momentum L= 0

SPLIT: Basis orbitals for state 2s

SPLIT: PAO cut-off radius determined from an
SPLIT: energy shift=  0.000735 Ry

   izeta = 1
                 lambda =    1.000000
                     rc =    5.948690
                 energy =   -1.010099
                kinetic =    0.827121
    potential(screened) =   -1.837220
       potential(ionic) =   -5.392783

SPLIT: Orbitals with angular momentum L= 1

SPLIT: Basis orbitals for state 2p

SPLIT: PAO cut-off radius determined from an
SPLIT: energy shift=  0.000735 Ry

   izeta = 1
                 lambda =    1.000000
                     rc =    7.638387
                 energy =   -0.387843
                kinetic =    2.314739
    potential(screened) =   -2.702582
       potential(ionic) =   -6.092371
atom: Total number of Sankey-type orbitals:  4

atm_pop: Valence configuration (for local Pseudopot. screening):
 2s( 2.00)                                                            
 2p( 2.00)                                                            
Vna: chval, zval:    4.00000   4.00000

Vna:  Cut-off radius for the neutral-atom potential:   7.638387

atom: _________________________________________________________________________

prinput: Basis input ----------------------------------------------------------

PAO.BasisType split     

%block ChemicalSpeciesLabel
    1    3 Li-gga                  # Species index, atomic number, species label
    2    6 C-gga                   # Species index, atomic number, species label
%endblock ChemicalSpeciesLabel

%block PAO.Basis                 # Define Basis set
Li-gga                1                    # Species label, number of l-shells
 n=2   0   1                         # n, l, Nzeta 
  11.897   
   1.000   
C-gga                 2                    # Species label, number of l-shells
 n=2   0   1                         # n, l, Nzeta 
   5.949   
   1.000   
 n=2   1   1                         # n, l, Nzeta 
   7.638   
   1.000   
%endblock PAO.Basis

prinput: ----------------------------------------------------------------------

coor:   Atomic-coordinates input format  =     Cartesian coordinates
coor:                                          (in Angstroms)

siesta: Atomic coordinates (Bohr) and species
siesta:      0.00000   0.00000   0.00000  2        1
siesta:      2.68614   0.00000   2.38885  1        2
siesta:      5.38035   0.00000   7.16654  1        3
siesta:     -1.34307   2.32627   2.38885  1        4
siesta:     -2.69017   4.65952   7.16654  1        5
siesta:      2.69017   4.65952   2.38885  1        6
siesta:      1.34307   2.32627   7.16654  1        7
siesta:      5.38035   0.00000   2.38885  1        8
siesta:      2.68614   0.00000   7.16654  1        9
siesta:     -2.69017   4.65952   2.38885  1       10
siesta:     -1.34307   2.32627   7.16654  1       11
siesta:      1.34307   2.32627   2.38885  1       12
siesta:      2.69017   4.65952   7.16654  1       13

siesta: System type = bulk      

initatomlists: Number of atoms, orbitals, and projectors:     13    16   117

siesta: ******************** Simulation parameters ****************************
siesta:
siesta: The following are some of the parameters of the simulation.
siesta: A complete list of the parameters used, including default values,
siesta: can be found in file out.fdf
siesta:
redata: Spin configuration                          = none
redata: Number of spin components                   = 1
redata: Time-Reversal Symmetry                      = T
redata: Spin spiral                                 = F
redata: Long output                                 =   F
redata: Number of Atomic Species                    =        2
redata: Charge density info will appear in .RHO file
redata: Write Mulliken Pop.                         = NO
redata: Matel table size (NRTAB)                    =     1024
redata: Mesh Cutoff                                 =   300.0000 Ry
redata: Net charge of the system                    =     0.0000 |e|
redata: Min. number of SCF Iter                     =        0
redata: Max. number of SCF Iter                     =     1000
redata: SCF convergence failure will abort job
redata: SCF mix quantity                            = Hamiltonian
redata: Mix DM or H after convergence               =   F
redata: Recompute H after scf cycle                 =   F
redata: Mix DM in first SCF step                    =   T
redata: Write Pulay info on disk                    =   F
redata: New DM Occupancy tolerance                  = 0.000000000001
redata: No kicks to SCF
redata: DM Mixing Weight for Kicks                  =     0.5000
redata: Require Harris convergence for SCF          =   F
redata: Harris energy tolerance for SCF             =     0.000100 eV
redata: Require DM convergence for SCF              =   T
redata: DM tolerance for SCF                        =     0.001000
redata: Require EDM convergence for SCF             =   F
redata: EDM tolerance for SCF                       =     0.005000 eV
redata: Require H convergence for SCF               =   T
redata: Hamiltonian tolerance for SCF               =     0.001000 eV
redata: Require (free) Energy convergence for SCF   =   T
redata: (free) Energy tolerance for SCF             =     0.001000 eV
redata: Using Saved Data (generic)                  =   F
redata: Use continuation files for DM               =   F
redata: Neglect nonoverlap interactions             =   F
redata: Method of Calculation                       = Diagonalization
redata: Electronic Temperature                      =   299.9869 K
redata: Fix the spin of the system                  =   F
redata: Dynamics option                             = Single-point calculation
mix.SCF: Pulay mixing                            = Pulay
mix.SCF:    Variant                              = stable
mix.SCF:    History steps                        = 4
mix.SCF:    Linear mixing weight                 =     0.250000
mix.SCF:    Mixing weight                        =     0.250000
mix.SCF:    SVD condition                        = 0.1000E-07
redata: ***********************************************************************

%block SCF.Mixers
  Pulay
%endblock SCF.Mixers

%block SCF.Mixer.Pulay
  # Mixing method
  method pulay
  variant stable

  # Mixing options
  weight 0.2500
  weight.linear 0.2500
  history 4
%endblock SCF.Mixer.Pulay

DM_history_depth set to one: no extrapolation allowed by default for geometry relaxation
Size of DM history Fstack: 1
Total number of electrons:    16.000000
Total ionic charge:    16.000000

* ProcessorY, Blocksize:    3   1


* Orbital distribution balance (max,min):     2     1

k-point displ. along   1 input, could be:     0.00    0.50
k-point displ. along   2 input, could be:     0.00    0.50
k-point displ. along   3 input, could be:     0.00    0.50
 Kpoints in:           48 . Kpoints trimmed:           44

siesta: k-grid: Number of k-points =    44
siesta: k-grid: Cutoff (effective) =     8.537 Ang
siesta: k-grid: Supercell and displacements
siesta: k-grid:    4   0   0      0.000
siesta: k-grid:    0   4   0      0.000
siesta: k-grid:    0   0   4      0.000

diag: Algorithm                                     = Expert
diag: Parallel over k                               =   T
diag: Use parallel 2D distribution                  =   T
diag: Parallel block-size                           = 1
diag: Parallel distribution                         =     3 x     4
diag: Used triangular part                          = Lower
diag: Absolute tolerance                            =  0.100E-15
diag: Orthogonalization factor                      =  0.100E-05
diag: Memory factor                                 =  1.0000

superc: Internal auxiliary supercell:     9 x     9 x     7  =     567
superc: Number of atoms, orbitals, and projectors:   7371   9072  66339


ts: **************************************************************
ts: Save H and S matrices                           =    F
ts: Save DM and EDM matrices                        =    F
ts: Only save the overlap matrix S                  =    F
ts: **************************************************************

************************ Begin: TS CHECKS AND WARNINGS ************************
************************ End: TS CHECKS AND WARNINGS **************************


                     ====================================
                        Single-point calculation
                     ====================================

outcoor: Atomic coordinates (Ang):                          
    0.00000000    0.00000000    0.00000000   2       1  C-gga
    1.42144380    0.00000000    1.26412200   1       2  Li-gga
    2.84715620    0.00000000    3.79236600   1       3  Li-gga
   -0.71072190    1.23100644    1.26412200   1       4  Li-gga
   -1.42357810    2.46570960    3.79236600   1       5  Li-gga
    1.42357810    2.46570960    1.26412200   1       6  Li-gga
    0.71072190    1.23100644    3.79236600   1       7  Li-gga
    2.84715620    0.00000000    1.26412200   1       8  Li-gga
    1.42144380    0.00000000    3.79236600   1       9  Li-gga
   -1.42357810    2.46570960    1.26412200   1      10  Li-gga
   -0.71072190    1.23100644    3.79236600   1      11  Li-gga
    0.71072190    1.23100644    1.26412200   1      12  Li-gga
    1.42357810    2.46570960    3.79236600   1      13  Li-gga

superc: Internal auxiliary supercell:     9 x     9 x     7  =     567
superc: Number of atoms, orbitals, and projectors:   7371   9072  66339

outcell: Unit cell vectors (Ang):
        4.268600    0.000000    0.000000
       -2.134300    3.696716    0.000000
        0.000000    0.000000    5.056488

outcell: Cell vector modules (Ang)   :    4.268600    4.268600    5.056488
outcell: Cell angles (23,13,12) (deg):     90.0000     90.0000    120.0000
outcell: Cell volume (Ang**3)        :     79.7904
<dSpData1D:S at geom step 0
  <sparsity:sparsity for geom step 0
    nrows_g=16 nrows=2 sparsity=13.5156 nnzs=3460, refcount: 7>
  <dData1D:(new from dSpData1D) n=3460, refcount: 1>
refcount: 1>
new_DM -- step:     1
Initializing Density Matrix...
DM filled with atomic data:
<dSpData2D:DM initialized from atoms
  <sparsity:sparsity for geom step 0
    nrows_g=16 nrows=2 sparsity=13.5156 nnzs=3460, refcount: 8>
  <dData2D:DM n=3460 m=1, refcount: 1>
refcount: 1>
No. of atoms with KB's overlaping orbs in proc 0. Max # of overlaps:     301     318
New grid distribution:   1
           1       1:   20    1:    7    1:    7
           2       1:   20    1:    7    8:   14
           3       1:   20    1:    7   15:   21
           4       1:   20    1:    7   22:   27
           5       1:   20    8:   14    1:    7
           6       1:   20    8:   14    8:   14
           7       1:   20    8:   14   15:   21
           8       1:   20    8:   14   22:   27
           9       1:   20   15:   20    1:    7
          10       1:   20   15:   20    8:   14
          11       1:   20   15:   20   15:   21
          12       1:   20   15:   20   22:   27

InitMesh: MESH =    40 x    40 x    54 =       86400
InitMesh: (bp) =    20 x    20 x    27 =       10800
InitMesh: Mesh cutoff (required, used) =   300.000   315.204 Ry
ExtMesh (bp) on 0 =   160 x   147 x   143 =     3363360
New grid distribution:   2
           1       1:    7    1:   10    1:   14
           2       8:   20    1:   10    8:   14
           3       1:    7    1:   10   15:   27
           4       8:   20    1:   10   15:   20
           5       8:   20   11:   20    1:    7
           6       8:   20   11:   20    8:   14
           7       1:    7   11:   20   15:   27
           8       8:   20    1:   10   21:   27
           9       1:    7   11:   20    1:   14
          10       8:   20    1:   10    1:    7
          11       8:   20   11:   20   15:   20
          12       8:   20   11:   20   21:   27
New grid distribution:   3
           1       1:    7    1:   10    1:   14
           2       8:   20    1:   10    8:   14
           3       1:    7    1:   10   15:   27
           4       8:   20    1:   10   22:   27
           5       8:   20    1:   10    1:    7
           6       8:   20   11:   20    8:   14
           7       8:   20    1:   10   15:   21
           8       1:    7   11:   20   15:   27
           9       1:    7   11:   20    1:   14
          10       8:   20   11:   20    1:    7
          11       8:   20   11:   20   15:   21
          12       8:   20   11:   20   22:   27
Setting up quadratic distribution...
ExtMesh (bp) on 0 =   147 x   150 x   150 =     3307500
PhiOnMesh: Number of (b)points on node 0 =                  980
PhiOnMesh: nlist on node 0 =               170866

stepf: Fermi-Dirac step function

siesta: Program's energy decomposition (eV):
siesta: Ebs     =      -151.676663
siesta: Eions   =       380.620085
siesta: Ena     =        89.073383
siesta: Ekin    =       310.246104
siesta: Enl     =        19.166860
siesta: Eso     =         0.000000
siesta: Edftu   =         0.000000
siesta: DEna    =       -60.390936
siesta: DUscf   =        44.831920
siesta: DUext   =         0.000000
siesta: Exc     =      -191.254652
siesta: eta*DQ  =         0.000000
siesta: Emadel  =         0.000000
siesta: Emeta   =         0.000000
siesta: Emolmec =        -7.289887
siesta: Ekinion =         0.000000
siesta: Eharris =       -71.366801
siesta: Etot    =      -176.237294
siesta: FreeEng =      -176.242269

        iscf     Eharris(eV)        E_KS(eV)     FreeEng(eV)     dDmax    Ef(eV) dHmax(eV)
   scf:    1      -71.366801     -176.237294     -176.242269  4.883985-12.050545 22.231596
timer: Routine,Calls,Time,% = IterSCF        1       0.903  14.90
   scf:    2     -200.090593     -189.323441     -189.327981  1.783615-11.588034 11.333284
   scf:    3     -190.364150     -194.919964     -194.921539  6.288897 -7.504498  5.756603
   scf:    4     -191.287202     -194.984058     -194.994812  4.126048-10.740379  5.135034
   scf:    5     -197.157497     -196.299732     -196.311212  1.559140-10.241088  1.862213
   scf:    6     -196.525457     -196.478186     -196.483013  0.727923 -9.664916  0.234606
   scf:    7     -196.475418     -196.478546     -196.484724  0.118452 -9.803935  0.129026
   scf:    8     -196.480428     -196.479727     -196.485477  0.043934 -9.758781  0.003439
   scf:    9     -196.479728     -196.479728     -196.485477  0.001073 -9.758554  0.003017
   scf:   10     -196.479707     -196.479717     -196.485478  0.000952 -9.759689  0.000172

SCF Convergence by FreeE+DM+H criterion
|FreeE_i-FreeE_(i-1)| (eV) <     0.00100000
max |DM_out - DM_in|         :     0.0009516844
max |H_out - H_in|      (eV) :     0.0001718250
SCF cycle converged after 10 iterations

Using DM_out to compute the final energy and forces
No. of atoms with KB's overlaping orbs in proc 0. Max # of overlaps:     301     318

MM-Stress (kbar):       55.95       55.95      198.28        0.00       -0.00       -0.00

siesta: E_KS(eV) =             -196.4797

siesta: E_KS - E_eggbox =      -196.4797

siesta: Atomic forces (eV/Ang):
     1    0.000000   -0.000000    0.000000
     2   -0.877773    0.000053   -0.593278
     3    0.877773   -0.000053    0.593278
     4    0.438933   -0.760147   -0.593278
     5   -0.438933    0.760147    0.593278
     6    0.438938    0.760263   -0.593409
     7   -0.438938   -0.760263    0.593409
     8    0.877773   -0.000053   -0.593278
     9   -0.877773    0.000053    0.593278
    10   -0.438933    0.760147   -0.593278
    11    0.438933   -0.760147    0.593278
    12   -0.438938   -0.760263   -0.593409
    13    0.438938    0.760263    0.593409
----------------------------------------
   Tot    0.000000    0.000000    0.000000
----------------------------------------
   Max    0.877773
   Res    0.587714    sqrt( Sum f_i^2 / 3N )
----------------------------------------
   Max    0.877773    constrained

Stress tensor Voigt[x,y,z,yz,xz,xy] (kbar):    -2491.43    -2491.47      106.01        0.00        0.00       -0.03
(Free)E + p*V (eV/cell)     -115.5279
Target enthalpy (eV/cell)     -196.4855

siesta: Eigenvalues (eV):
  ik is       eps
   1  1  -22.5376  -19.3203  -18.5849  -16.0409  -13.7613  -12.9560  -12.9488  -12.0602  -11.6342    0.8373
          13.2191   13.2462   13.8154   14.0815   15.9488   17.6652
   2  1  -22.7044  -18.8872  -16.0562  -15.3237  -15.0969  -12.4654  -11.8307   -7.9841   -7.8699   -2.9878
          11.2394   13.4304   19.2586   19.7135   21.3064   32.6131
   3  1  -22.7044  -18.8873  -16.0562  -15.3237  -15.0969  -12.4653  -11.8308   -7.9843   -7.8698   -2.9878
          11.2394   13.4304   19.2586   19.7135   21.3064   32.6130
   4  1  -22.5376  -19.3204  -18.5848  -16.0409  -13.7613  -12.9560  -12.9488  -12.0604  -11.6340    0.8373
          13.2191   13.2463   13.8154   14.0815   15.9488   17.6652
   5  1  -22.7044  -18.8872  -16.0562  -15.3237  -15.0969  -12.4654  -11.8307   -7.9841   -7.8699   -2.9878
          11.2394   13.4304   19.2586   19.7135   21.3064   32.6131
   6  1  -22.8265  -17.2269  -14.7218  -14.2307  -14.2307   -8.7914   -7.5938   -7.5937    0.9981    0.9984
          12.3131   12.3132   12.3300   12.3300   20.0805   21.6114
   7  1  -22.5332  -19.5656  -16.9463  -15.5241  -15.4024  -13.0792  -12.1473  -11.1094   -8.1605   -5.9996
          15.3167   15.4112   15.4570   16.0364   16.1888   33.7574
   8  1  -22.5376  -19.3204  -18.5848  -16.0409  -13.7613  -12.9560  -12.9488  -12.0604  -11.6340    0.8373
          13.2191   13.2463   13.8154   14.0815   15.9488   17.6652
   9  1  -22.5376  -19.3204  -18.5848  -16.0409  -13.7613  -12.9560  -12.9488  -12.0604  -11.6340    0.8373
          13.2191   13.2463   13.8154   14.0815   15.9488   17.6652
  10  1  -22.5332  -19.5656  -16.9463  -15.5241  -15.4024  -13.0792  -12.1473  -11.1094   -8.1605   -5.9996
          15.3167   15.4112   15.4570   16.0364   16.1888   33.7574
  11  1  -22.5376  -19.3204  -18.5848  -16.0409  -13.7613  -12.9560  -12.9488  -12.0604  -11.6340    0.8373
          13.2191   13.2463   13.8154   14.0815   15.9488   17.6652
  12  1  -22.5331  -19.5657  -16.9463  -15.5241  -15.4024  -13.0792  -12.1471  -11.1094   -8.1607   -5.9995
          15.3168   15.4112   15.4569   16.0363   16.1888   33.7574
  13  1  -22.6263  -19.2761  -18.5012  -17.9862  -17.3737  -16.9526  -11.8153  -10.1290   -9.5840   -2.6234
          14.3896   14.4340   15.0197   15.9217   16.1197   17.2801
  14  1  -22.7573  -19.1076  -17.9284  -16.6435  -15.2320  -14.3895  -10.4663  -10.3621   -9.8257   -3.6595
           2.2507   10.9280   12.7703   19.3987   19.7088   21.1521
  15  1  -22.7572  -19.1076  -17.9285  -16.6435  -15.2320  -14.3895  -10.4662  -10.3621   -9.8256   -3.6595
           2.2505   10.9280   12.7703   19.3987   19.7088   21.1521
  16  1  -22.6263  -19.2761  -18.5011  -17.9862  -17.3737  -16.9526  -11.8153  -10.1292   -9.5838   -2.6234
          14.3895   14.4341   15.0197   15.9217   16.1197   17.2801
  17  1  -22.7573  -19.1076  -17.9284  -16.6435  -15.2320  -14.3895  -10.4663  -10.3621   -9.8257   -3.6595
           2.2507   10.9280   12.7703   19.3987   19.7088   21.1521
  18  1  -22.8969  -19.0909  -14.1684  -14.1684  -14.1156  -12.0811   -6.2892   -6.2892    0.0993    0.0994
           9.0227    9.0227   14.9604   14.9605   20.5395   21.6097
  19  1  -22.7573  -19.1076  -17.9284  -16.6435  -15.2320  -14.3895  -10.4663  -10.3621   -9.8257   -3.6595
           2.2507   10.9280   12.7703   19.3987   19.7088   21.1521
  20  1  -22.5877  -19.4759  -18.1593  -17.4478  -15.6741  -15.4484  -12.0001  -11.0860   -9.2512   -6.7466
           0.8470   10.0164   15.0977   15.1048   15.4594   15.8730
  21  1  -22.7572  -19.1076  -17.9285  -16.6435  -15.2320  -14.3895  -10.4662  -10.3621   -9.8256   -3.6595
           2.2505   10.9280   12.7703   19.3987   19.7088   21.1521
  22  1  -22.7573  -19.1076  -17.9284  -16.6435  -15.2320  -14.3895  -10.4663  -10.3621   -9.8257   -3.6595
           2.2507   10.9280   12.7703   19.3987   19.7088   21.1521
  23  1  -22.6263  -19.2761  -18.5012  -17.9862  -17.3737  -16.9526  -11.8153  -10.1290   -9.5840   -2.6234
          14.3896   14.4340   15.0197   15.9217   16.1197   17.2801
  24  1  -22.6263  -19.2761  -18.5011  -17.9862  -17.3737  -16.9526  -11.8153  -10.1292   -9.5838   -2.6234
          14.3895   14.4341   15.0197   15.9217   16.1197   17.2801
  25  1  -22.6263  -19.2761  -18.5011  -17.9862  -17.3737  -16.9526  -11.8153  -10.1292   -9.5838   -2.6234
          14.3895   14.4341   15.0197   15.9217   16.1197   17.2801
  26  1  -22.5877  -19.4759  -18.1593  -17.4478  -15.6741  -15.4484  -12.0001  -11.0860   -9.2512   -6.7466
           0.8470   10.0164   15.0977   15.1048   15.4594   15.8730
  27  1  -22.6263  -19.2761  -18.5011  -17.9862  -17.3737  -16.9526  -11.8153  -10.1292   -9.5838   -2.6234
          14.3895   14.4341   15.0197   15.9217   16.1197   17.2801
  28  1  -22.5876  -19.4760  -18.1592  -17.4478  -15.6741  -15.4483  -12.0002  -11.0860   -9.2510   -6.7466
           0.8467   10.0164   15.0977   15.1048   15.4593   15.8730
  29  1  -22.6665  -19.0244  -19.0020  -18.3626  -18.2546  -17.9615  -11.1339   -9.7747   -9.4305   -3.7356
          15.6447   15.7422   16.2677   16.5263   16.6523   17.1748
  30  1  -22.7682  -19.4821  -18.4113  -17.3998  -15.4166  -12.9140  -12.3688  -11.8529   -9.3144   -3.0209
          -0.9405    8.3397   17.1664   17.2911   19.5998   19.6033
  31  1  -22.7682  -19.4821  -18.4113  -17.3998  -15.4166  -12.9140  -12.3688  -11.8529   -9.3142   -3.0209
          -0.9408    8.3398   17.1664   17.2911   19.5998   19.6033
  32  1  -22.6665  -19.0244  -19.0021  -18.3625  -18.2547  -17.9615  -11.1339   -9.7749   -9.4303   -3.7356
          15.6447   15.7422   16.2678   16.5263   16.6523   17.1748
  33  1  -22.7682  -19.4821  -18.4113  -17.3998  -15.4166  -12.9140  -12.3688  -11.8529   -9.3144   -3.0209
          -0.9405    8.3397   17.1664   17.2911   19.5998   19.6033
  34  1  -22.9192  -19.7767  -14.1235  -14.1234  -13.4249  -13.2262   -0.9456   -0.9456   -0.8270   -0.8270
          -0.7216   -0.7216   18.3185   18.3187   21.3487   21.3536
  35  1  -22.7682  -19.4821  -18.4113  -17.3998  -15.4166  -12.9140  -12.3688  -11.8529   -9.3144   -3.0209
          -0.9405    8.3397   17.1664   17.2911   19.5998   19.6033
  36  1  -22.6160  -19.2502  -18.9057  -18.7884  -15.9017  -13.4603  -13.3081  -13.1220   -8.6998   -5.1809
          -0.9538    5.9714   14.8052   14.8431   14.8542   15.3492
  37  1  -22.7682  -19.4821  -18.4113  -17.3998  -15.4166  -12.9140  -12.3688  -11.8529   -9.3142   -3.0209
          -0.9408    8.3398   17.1664   17.2911   19.5998   19.6033
  38  1  -22.7682  -19.4821  -18.4113  -17.3998  -15.4166  -12.9140  -12.3688  -11.8529   -9.3144   -3.0209
          -0.9405    8.3397   17.1664   17.2911   19.5998   19.6033
  39  1  -22.6665  -19.0244  -19.0020  -18.3626  -18.2546  -17.9615  -11.1339   -9.7747   -9.4305   -3.7356
          15.6447   15.7422   16.2677   16.5263   16.6523   17.1748
  40  1  -22.6665  -19.0244  -19.0021  -18.3625  -18.2547  -17.9615  -11.1339   -9.7749   -9.4303   -3.7356
          15.6447   15.7422   16.2678   16.5263   16.6523   17.1748
  41  1  -22.6665  -19.0244  -19.0021  -18.3625  -18.2547  -17.9615  -11.1339   -9.7749   -9.4303   -3.7356
          15.6447   15.7422   16.2678   16.5263   16.6523   17.1748
  42  1  -22.6160  -19.2502  -18.9057  -18.7884  -15.9017  -13.4603  -13.3081  -13.1220   -8.6998   -5.1809
          -0.9538    5.9714   14.8052   14.8431   14.8542   15.3492
  43  1  -22.6665  -19.0244  -19.0021  -18.3625  -18.2547  -17.9615  -11.1339   -9.7749   -9.4303   -3.7356
          15.6447   15.7422   16.2678   16.5263   16.6523   17.1748
  44  1  -22.6160  -19.2503  -18.9057  -18.7885  -15.9017  -13.4603  -13.3081  -13.1220   -8.6995   -5.1809
          -0.9541    5.9714   14.8052   14.8431   14.8541   15.3492
siesta: Fermi energy =      -9.759689 eV

siesta: Program's energy decomposition (eV):
siesta: Ebs     =      -259.102004
siesta: Eions   =       380.620085
siesta: Ena     =        89.073383
siesta: Ekin    =       252.304406
siesta: Enl     =        41.225680
siesta: Eso     =         0.000000
siesta: Edftu   =         0.000000
siesta: DEna    =       -22.620109
siesta: DUscf   =         8.617130
siesta: DUext   =         0.000000
siesta: Exc     =      -177.170235
siesta: eta*DQ  =         0.000000
siesta: Emadel  =         0.000000
siesta: Emeta   =         0.000000
siesta: Emolmec =        -7.289887
siesta: Ekinion =         0.000000
siesta: Eharris =      -196.479707
siesta: Etot    =      -196.479717
siesta: FreeEng =      -196.485478

siesta: Final energy (eV):
siesta:  Band Struct. =    -259.102004
siesta:       Kinetic =     252.304406
siesta:       Hartree =      97.447535
siesta:       Edftu   =       0.000000
siesta:       Eso     =       0.000000
siesta:    Ext. field =       0.000000
siesta:   Exch.-corr. =    -177.170235
siesta:  Ion-electron =    -517.185852
siesta:       Ion-ion =     155.414315
siesta:       Ekinion =       0.000000
siesta:         Total =    -196.479717
siesta:         Fermi =      -9.759689

siesta: Atomic forces (eV/Ang):
siesta:      1    0.000000   -0.000000    0.000000
siesta:      2   -0.877773    0.000053   -0.593278
siesta:      3    0.877773   -0.000053    0.593278
siesta:      4    0.438933   -0.760147   -0.593278
siesta:      5   -0.438933    0.760147    0.593278
siesta:      6    0.438938    0.760263   -0.593409
siesta:      7   -0.438938   -0.760263    0.593409
siesta:      8    0.877773   -0.000053   -0.593278
siesta:      9   -0.877773    0.000053    0.593278
siesta:     10   -0.438933    0.760147   -0.593278
siesta:     11    0.438933   -0.760147    0.593278
siesta:     12   -0.438938   -0.760263   -0.593409
siesta:     13    0.438938    0.760263    0.593409
siesta: ----------------------------------------
siesta:    Tot    0.000000    0.000000    0.000000

siesta: Stress tensor (static) (eV/Ang**3):
siesta:    -1.555014   -0.000021    0.000000
siesta:    -0.000021   -1.555039    0.000000
siesta:     0.000000    0.000000    0.066168

siesta: Cell volume =         79.790380 Ang**3

siesta: Pressure (static):
siesta:                Solid            Molecule  Units
siesta:           0.01105060          0.01029943  Ry/Bohr**3
siesta:           1.01462851          0.94565871  eV/Ang**3
siesta:        1625.63165855       1515.12866580  kBar
(Free)E+ p_basis*V_orbitals  =        -180.318864
(Free)Eharris+ p_basis*V_orbitals  =        -180.318853

cite: Please see "LiC12_scf.bib" for an exhaustive BiBTeX file.
cite: Please clearly indicate Siesta version in published work: 4.1.5
cite: This calculation has made use of the following articles
cite: which are encouraged to be cited in a published work.
        Primary SIESTA paper
          DOI: www.doi.org/10.1088/0953-8984/14/11/302

>> End of run:   9-NOV-2022  14:47:46
Job completed
