Siesta Version  : 4.1.5
Architecture    : x86_64-unknown-linux-gnu--unknown
Compiler version: GNU Fortran (GCC) 11.3.0
Compiler flags  : mpif90 -g -O2 -fallow-argument-mismatch
PP flags        : -DMPI -DFC_HAVE_FLUSH -DFC_HAVE_ABORT
Libraries       :  -I/global/software/sl-7.x86_64/modules/intel/2020.4.304/mkl/include  /globall/software/sl-7.x86_64/modules/intel/2020.4.304/mkl/lib/intel64/libmkl_scalapack_lp64.a -Wl,--start-group /global/software/sl-7.x86_64/modules/intel/2020.4.304/mkl/lib/intel64/libmkl_intel_lp64.a /global/software/sl-7.x86_64/modules/intel/2020.4.304/mkl/lib/intel64/libmkl_sequential.a /global/software/sl-7.x86_64/modules/intel/2020.4.304/mkl/lib/intel64/libmkl_core.a /global/software/sl-7.x86_64/modules/intel/2020.4.304/mkl/lib/intel64/libmkl_blacs_openmpi_lp64.a -Wl,--end-group -lpthread -lm -ldl
PARALLEL version

* Running on 12 nodes in parallel
>> Start of run:   9-NOV-2022  14:56:30

                           ***********************       
                           *  WELCOME TO SIESTA  *       
                           ***********************       

reinit: Reading from standard input
reinit: Dumped input in INPUT_TMP.57087
************************** Dump of input data file ****************************
SystemName LiC12_scf
SystemLabel LiC12_scf
NumberOfAtoms   13
NumberOfSpecies 2
%block ChemicalSpeciesLabel
1  3   Li-gga
2  6   C-gga
%endblock ChemicalSpeciesLabel
PAO.BasisSize  SZ
PAO.EnergyShift  10 meV
%block PS.Lmax
C-gga   2
Li-gga  2
%endblock PS.Lmax
LatticeConstant 1.000000 Ang
%block LatticeVectors
	4.2686000000	0.0000000000	0.0000000000
	-2.1343000000	3.6967160386	0.0000000000
	0.0000000000	0.0000000000	9.2702280000
%endblock LatticeVectors
AtomicCoordinatesFormat Ang
%block AtomicCoordinatesAndAtomicSpecies
	0.00000000	0.00000000	0.00000000	2
	1.42144380	0.00000000	2.31755700	1
	2.84715620	0.00000000	6.95267100	1
	-0.71072190	1.23100644	2.31755700	1
	-1.42357810	2.46570960	6.95267100	1
	1.42357810	2.46570960	2.31755700	1
	0.71072190	1.23100644	6.95267100	1
	2.84715620	0.00000000	2.31755700	1
	1.42144380	0.00000000	6.95267100	1
	-1.42357810	2.46570960	2.31755700	1
	-0.71072190	1.23100644	6.95267100	1
	0.71072190	1.23100644	2.31755700	1
	1.42357810	2.46570960	6.95267100	1
%endblock AtomicCoordinatesAndAtomicSpecies
Kgrid_NoTRS  T
%block kgrid_MonkhorstPack
4       0       0       0.0
0       4       0       0.0
0       0       4       0.0
%endblock kgrid_MonkhorstPack
AtomCoorFormatOut Ang
BlockSize 1
#ProcessorY 12
Diag.ParallelOverK   T
Diag.DivideAndConquer F
MeshCutoff   300 Ry
SCF.FreeE.Tolerance 1E-3 eV
SCF.EDM.Tolerance   5E-3 eV
DM.Tolerance  1E-3
DM.Require.Energy.Convergence T
DM.NumberPulay 4
XC.Functional GGA
XC.Authors    PBE
UseSaveData        F
MD.TypeOfRun       CG
MD.VariableCell    F
MD.NumCGsteps      00
MD.MaxCGDispl      0.200000 Bohr
MD.MaxStressTol    1.000000 GPa
MD.MaxForceTol     0.010000 eV/Ang
WriteMDHistory T
WriteCoorStep T
WriteForces T
WriteCoorStep    T
WriteEigenValues T
WriteDM    F
MM.UnitsDistance Ang  # what this program prints out DO NOT CHANGE
MM.UnitsEnergy    eV  # what this program prints out DO NOT CHANGE
MM.Grimme.S6     0.75 # Grimme-paper for PBE (correct for your functional)
MM.Grimme.D     20.   # Grimme-paper (correct for your functional)
%block MM.Potentials
  1   1 Grimme     16.69      1.650 # Li, 10.1002/jcc.20495
  1   2 Grimme     17.40      2.277 # Li / C
  2   2 Grimme     18.14      2.904 # C, 10.1002/jcc.20495
%endblock MM.Potentials
#%block ProjectedDensityOfStates
# -200.0  120.0  0.4  12800  eV
#%endblock ProjectedDensityOfStates
************************** End of input data file *****************************

reinit: -----------------------------------------------------------------------
reinit: System Name: LiC12_scf
reinit: -----------------------------------------------------------------------
reinit: System Label: LiC12_scf
reinit: -----------------------------------------------------------------------
Reading two-body potentials
Grimme - two-body potential between 1 and 1
Grimme - two-body potential between 1 and 2
Grimme - two-body potential between 2 and 2

initatom: Reading input for the pseudopotentials and atomic orbitals ----------
Species number:   1 Atomic number:    3 Label: Li-gga
Species number:   2 Atomic number:    6 Label: C-gga

Ground state valence configuration:   2s01
Reading pseudopotential information in formatted form from Li-gga.psf

Valence configuration for pseudopotential generation:
2s( 1.00) rc: 2.28
2p( 0.00) rc: 2.28
3d( 0.00) rc: 2.59
4f( 0.00) rc: 2.59
Ground state valence configuration:   2s02  2p02
Reading pseudopotential information in formatted form from C-gga.psf

Valence configuration for pseudopotential generation:
2s( 2.00) rc: 1.56
2p( 2.00) rc: 1.56
3d( 0.00) rc: 1.56
4f( 0.00) rc: 1.56
relmxkb: Read Max KB Ang. Momentum=    2 for species C-gga
relmxkb: Read Max KB Ang. Momentum=    2 for species Li-gga

<basis_specs>
===============================================================================
Li-gga               Z=   3    Mass=  6.9400        Charge= 0.17977+309
Lmxo=0 Lmxkb= 2    BasisType=split      Semic=F
L=0  Nsemic=0  Cnfigmx=2
          i=1  nzeta=1  polorb=0  (2s)
            splnorm:   0.15000    
               vcte:    0.0000    
               rinn:    0.0000    
               qcoe:    0.0000    
               qyuk:    0.0000    
               qwid:   0.10000E-01
                rcs:    0.0000    
            lambdas:    1.0000    
-------------------------------------------------------------------------------
L=0  Nkbl=1  erefs: 0.17977+309
L=1  Nkbl=1  erefs: 0.17977+309
L=2  Nkbl=1  erefs: 0.17977+309
===============================================================================
</basis_specs>

atom: Called for Li-gga                (Z =   3)

read_vps: Pseudopotential generation method:
read_vps: ATM 3.2.2 Troullier-Martins                       
Valence charge for ps generation:    1.00000

read_vps: Pseudopotential includes a core correction:
read_vps: Pseudo-core for xc-correction

xc_check: Exchange-correlation functional:
xc_check: GGA Perdew, Burke & Ernzerhof 1996
V l=0 = -2*Zval/r beyond r=  2.2278
V l=1 = -2*Zval/r beyond r=  2.2278
V l=2 = -2*Zval/r beyond r=  2.5245
All V_l potentials equal beyond r=  2.4622
This should be close to max(r_c) in ps generation
All pots = -2*Zval/r beyond r=  2.5245

VLOCAL1: 99.0% of the norm of Vloc inside      7.160 Ry
VLOCAL1: 99.9% of the norm of Vloc inside     16.318 Ry
atom: Maximum radius for 4*pi*r*r*local-pseudopot. charge    2.86079
atom: Maximum radius for r*vlocal+2*Zval:    2.43160
GHOST: No ghost state for L =  0
GHOST: No ghost state for L =  1
GHOST: No ghost state for L =  2

KBgen: Kleinman-Bylander projectors: 
   l= 0   rc=  2.654023   el= -0.211234   Ekb=  1.742119   kbcos=  0.228463
   l= 1   rc=  2.721230   el= -0.080095   Ekb= -1.122375   kbcos= -0.147941
   l= 2   rc=  2.825246   el=  0.002001   Ekb= -0.207076   kbcos= -0.031965

KBgen: Total number of Kleinman-Bylander projectors:    9
atom: -------------------------------------------------------------------------

atom: SANKEY-TYPE ORBITALS:

SPLIT: Orbitals with angular momentum L= 0

SPLIT: Basis orbitals for state 2s

SPLIT: PAO cut-off radius determined from an
SPLIT: energy shift=  0.000735 Ry

   izeta = 1
                 lambda =    1.000000
                     rc =   11.897381
                 energy =   -0.210580
                kinetic =    0.143382
    potential(screened) =   -0.353962
       potential(ionic) =   -0.533453
atom: Total number of Sankey-type orbitals:  1

atm_pop: Valence configuration (for local Pseudopot. screening):
 2s( 1.00)                                                            
Vna: chval, zval:    1.00000   1.00000

Vna:  Cut-off radius for the neutral-atom potential:  11.897381
comcore: Pseudo-core radius Rcore=  3.450946

atom: _________________________________________________________________________

<basis_specs>
===============================================================================
C-gga                Z=   6    Mass=  12.010        Charge= 0.17977+309
Lmxo=1 Lmxkb= 2    BasisType=split      Semic=F
L=0  Nsemic=0  Cnfigmx=2
          i=1  nzeta=1  polorb=0  (2s)
            splnorm:   0.15000    
               vcte:    0.0000    
               rinn:    0.0000    
               qcoe:    0.0000    
               qyuk:    0.0000    
               qwid:   0.10000E-01
                rcs:    0.0000    
            lambdas:    1.0000    
L=1  Nsemic=0  Cnfigmx=2
          i=1  nzeta=1  polorb=0  (2p)
            splnorm:   0.15000    
               vcte:    0.0000    
               rinn:    0.0000    
               qcoe:    0.0000    
               qyuk:    0.0000    
               qwid:   0.10000E-01
                rcs:    0.0000    
            lambdas:    1.0000    
-------------------------------------------------------------------------------
L=0  Nkbl=1  erefs: 0.17977+309
L=1  Nkbl=1  erefs: 0.17977+309
L=2  Nkbl=1  erefs: 0.17977+309
===============================================================================
</basis_specs>

atom: Called for C-gga                 (Z =   6)

read_vps: Pseudopotential generation method:
read_vps: ATM 3.2.2 Troullier-Martins                       
Valence charge for ps generation:    4.00000

xc_check: Exchange-correlation functional:
xc_check: GGA Perdew, Burke & Ernzerhof 1996
V l=0 = -2*Zval/r beyond r=  1.5227
V l=1 = -2*Zval/r beyond r=  1.5227
V l=2 = -2*Zval/r beyond r=  1.5227
All V_l potentials equal beyond r=  1.4851
This should be close to max(r_c) in ps generation
All pots = -2*Zval/r beyond r=  1.5227

VLOCAL1: 99.0% of the norm of Vloc inside     19.682 Ry
VLOCAL1: 99.9% of the norm of Vloc inside     44.856 Ry
atom: Maximum radius for 4*pi*r*r*local-pseudopot. charge    1.79142
atom: Maximum radius for r*vlocal+2*Zval:    1.54183
GHOST: No ghost state for L =  0
GHOST: No ghost state for L =  1
GHOST: No ghost state for L =  2

KBgen: Kleinman-Bylander projectors: 
   l= 0   rc=  1.661951   el= -1.010689   Ekb=  5.289847   kbcos=  0.316429
   l= 1   rc=  1.661951   el= -0.388490   Ekb= -4.102504   kbcos= -0.351025
   l= 2   rc=  1.747182   el=  0.001971   Ekb= -1.006005   kbcos= -0.008530

KBgen: Total number of Kleinman-Bylander projectors:    9
atom: -------------------------------------------------------------------------

atom: SANKEY-TYPE ORBITALS:

SPLIT: Orbitals with angular momentum L= 0

SPLIT: Basis orbitals for state 2s

SPLIT: PAO cut-off radius determined from an
SPLIT: energy shift=  0.000735 Ry

   izeta = 1
                 lambda =    1.000000
                     rc =    5.948690
                 energy =   -1.010099
                kinetic =    0.827121
    potential(screened) =   -1.837220
       potential(ionic) =   -5.392783

SPLIT: Orbitals with angular momentum L= 1

SPLIT: Basis orbitals for state 2p

SPLIT: PAO cut-off radius determined from an
SPLIT: energy shift=  0.000735 Ry

   izeta = 1
                 lambda =    1.000000
                     rc =    7.638387
                 energy =   -0.387843
                kinetic =    2.314739
    potential(screened) =   -2.702582
       potential(ionic) =   -6.092371
atom: Total number of Sankey-type orbitals:  4

atm_pop: Valence configuration (for local Pseudopot. screening):
 2s( 2.00)                                                            
 2p( 2.00)                                                            
Vna: chval, zval:    4.00000   4.00000

Vna:  Cut-off radius for the neutral-atom potential:   7.638387

atom: _________________________________________________________________________

prinput: Basis input ----------------------------------------------------------

PAO.BasisType split     

%block ChemicalSpeciesLabel
    1    3 Li-gga                  # Species index, atomic number, species label
    2    6 C-gga                   # Species index, atomic number, species label
%endblock ChemicalSpeciesLabel

%block PAO.Basis                 # Define Basis set
Li-gga                1                    # Species label, number of l-shells
 n=2   0   1                         # n, l, Nzeta 
  11.897   
   1.000   
C-gga                 2                    # Species label, number of l-shells
 n=2   0   1                         # n, l, Nzeta 
   5.949   
   1.000   
 n=2   1   1                         # n, l, Nzeta 
   7.638   
   1.000   
%endblock PAO.Basis

prinput: ----------------------------------------------------------------------

coor:   Atomic-coordinates input format  =     Cartesian coordinates
coor:                                          (in Angstroms)

siesta: Atomic coordinates (Bohr) and species
siesta:      0.00000   0.00000   0.00000  2        1
siesta:      2.68614   0.00000   4.37955  1        2
siesta:      5.38035   0.00000  13.13865  1        3
siesta:     -1.34307   2.32627   4.37955  1        4
siesta:     -2.69017   4.65952  13.13865  1        5
siesta:      2.69017   4.65952   4.37955  1        6
siesta:      1.34307   2.32627  13.13865  1        7
siesta:      5.38035   0.00000   4.37955  1        8
siesta:      2.68614   0.00000  13.13865  1        9
siesta:     -2.69017   4.65952   4.37955  1       10
siesta:     -1.34307   2.32627  13.13865  1       11
siesta:      1.34307   2.32627   4.37955  1       12
siesta:      2.69017   4.65952  13.13865  1       13

siesta: System type = bulk      

initatomlists: Number of atoms, orbitals, and projectors:     13    16   117

siesta: ******************** Simulation parameters ****************************
siesta:
siesta: The following are some of the parameters of the simulation.
siesta: A complete list of the parameters used, including default values,
siesta: can be found in file out.fdf
siesta:
redata: Spin configuration                          = none
redata: Number of spin components                   = 1
redata: Time-Reversal Symmetry                      = T
redata: Spin spiral                                 = F
redata: Long output                                 =   F
redata: Number of Atomic Species                    =        2
redata: Charge density info will appear in .RHO file
redata: Write Mulliken Pop.                         = NO
redata: Matel table size (NRTAB)                    =     1024
redata: Mesh Cutoff                                 =   300.0000 Ry
redata: Net charge of the system                    =     0.0000 |e|
redata: Min. number of SCF Iter                     =        0
redata: Max. number of SCF Iter                     =     1000
redata: SCF convergence failure will abort job
redata: SCF mix quantity                            = Hamiltonian
redata: Mix DM or H after convergence               =   F
redata: Recompute H after scf cycle                 =   F
redata: Mix DM in first SCF step                    =   T
redata: Write Pulay info on disk                    =   F
redata: New DM Occupancy tolerance                  = 0.000000000001
redata: No kicks to SCF
redata: DM Mixing Weight for Kicks                  =     0.5000
redata: Require Harris convergence for SCF          =   F
redata: Harris energy tolerance for SCF             =     0.000100 eV
redata: Require DM convergence for SCF              =   T
redata: DM tolerance for SCF                        =     0.001000
redata: Require EDM convergence for SCF             =   F
redata: EDM tolerance for SCF                       =     0.005000 eV
redata: Require H convergence for SCF               =   T
redata: Hamiltonian tolerance for SCF               =     0.001000 eV
redata: Require (free) Energy convergence for SCF   =   T
redata: (free) Energy tolerance for SCF             =     0.001000 eV
redata: Using Saved Data (generic)                  =   F
redata: Use continuation files for DM               =   F
redata: Neglect nonoverlap interactions             =   F
redata: Method of Calculation                       = Diagonalization
redata: Electronic Temperature                      =   299.9869 K
redata: Fix the spin of the system                  =   F
redata: Dynamics option                             = Single-point calculation
mix.SCF: Pulay mixing                            = Pulay
mix.SCF:    Variant                              = stable
mix.SCF:    History steps                        = 4
mix.SCF:    Linear mixing weight                 =     0.250000
mix.SCF:    Mixing weight                        =     0.250000
mix.SCF:    SVD condition                        = 0.1000E-07
redata: ***********************************************************************

%block SCF.Mixers
  Pulay
%endblock SCF.Mixers

%block SCF.Mixer.Pulay
  # Mixing method
  method pulay
  variant stable

  # Mixing options
  weight 0.2500
  weight.linear 0.2500
  history 4
%endblock SCF.Mixer.Pulay

DM_history_depth set to one: no extrapolation allowed by default for geometry relaxation
Size of DM history Fstack: 1
Total number of electrons:    16.000000
Total ionic charge:    16.000000

* ProcessorY, Blocksize:    3   1


* Orbital distribution balance (max,min):     2     1

k-point displ. along   1 input, could be:     0.00    0.50
k-point displ. along   2 input, could be:     0.00    0.50
k-point displ. along   3 input, could be:     0.00    0.50
 Kpoints in:           48 . Kpoints trimmed:           44

siesta: k-grid: Number of k-points =    44
siesta: k-grid: Cutoff (effective) =     8.537 Ang
siesta: k-grid: Supercell and displacements
siesta: k-grid:    4   0   0      0.000
siesta: k-grid:    0   4   0      0.000
siesta: k-grid:    0   0   4      0.000

diag: Algorithm                                     = Expert
diag: Parallel over k                               =   T
diag: Use parallel 2D distribution                  =   T
diag: Parallel block-size                           = 1
diag: Parallel distribution                         =     3 x     4
diag: Used triangular part                          = Lower
diag: Absolute tolerance                            =  0.100E-15
diag: Orthogonalization factor                      =  0.100E-05
diag: Memory factor                                 =  1.0000

superc: Internal auxiliary supercell:     9 x     9 x     3  =     243
superc: Number of atoms, orbitals, and projectors:   3159   3888  28431


ts: **************************************************************
ts: Save H and S matrices                           =    F
ts: Save DM and EDM matrices                        =    F
ts: Only save the overlap matrix S                  =    F
ts: **************************************************************

************************ Begin: TS CHECKS AND WARNINGS ************************
************************ End: TS CHECKS AND WARNINGS **************************


                     ====================================
                        Single-point calculation
                     ====================================

outcoor: Atomic coordinates (Ang):                          
    0.00000000    0.00000000    0.00000000   2       1  C-gga
    1.42144380    0.00000000    2.31755700   1       2  Li-gga
    2.84715620    0.00000000    6.95267100   1       3  Li-gga
   -0.71072190    1.23100644    2.31755700   1       4  Li-gga
   -1.42357810    2.46570960    6.95267100   1       5  Li-gga
    1.42357810    2.46570960    2.31755700   1       6  Li-gga
    0.71072190    1.23100644    6.95267100   1       7  Li-gga
    2.84715620    0.00000000    2.31755700   1       8  Li-gga
    1.42144380    0.00000000    6.95267100   1       9  Li-gga
   -1.42357810    2.46570960    2.31755700   1      10  Li-gga
   -0.71072190    1.23100644    6.95267100   1      11  Li-gga
    0.71072190    1.23100644    2.31755700   1      12  Li-gga
    1.42357810    2.46570960    6.95267100   1      13  Li-gga

superc: Internal auxiliary supercell:     9 x     9 x     3  =     243
superc: Number of atoms, orbitals, and projectors:   3159   3888  28431

outcell: Unit cell vectors (Ang):
        4.268600    0.000000    0.000000
       -2.134300    3.696716    0.000000
        0.000000    0.000000    9.270228

outcell: Cell vector modules (Ang)   :    4.268600    4.268600    9.270228
outcell: Cell angles (23,13,12) (deg):     90.0000     90.0000    120.0000
outcell: Cell volume (Ang**3)        :    146.2824
<dSpData1D:S at geom step 0
  <sparsity:sparsity for geom step 0
    nrows_g=16 nrows=2 sparsity=7.1133 nnzs=1821, refcount: 7>
  <dData1D:(new from dSpData1D) n=1821, refcount: 1>
refcount: 1>
new_DM -- step:     1
Initializing Density Matrix...
DM filled with atomic data:
<dSpData2D:DM initialized from atoms
  <sparsity:sparsity for geom step 0
    nrows_g=16 nrows=2 sparsity=7.1133 nnzs=1821, refcount: 8>
  <dData2D:DM n=1821 m=1, refcount: 1>
refcount: 1>
No. of atoms with KB's overlaping orbs in proc 0. Max # of overlaps:     177     181
New grid distribution:   1
           1       1:   20    1:    7    1:   13
           2       1:   20    1:    7   14:   26
           3       1:   20    1:    7   27:   38
           4       1:   20    1:    7   39:   50
           5       1:   20    8:   14    1:   13
           6       1:   20    8:   14   14:   26
           7       1:   20    8:   14   27:   38
           8       1:   20    8:   14   39:   50
           9       1:   20   15:   20    1:   13
          10       1:   20   15:   20   14:   26
          11       1:   20   15:   20   27:   38
          12       1:   20   15:   20   39:   50

InitMesh: MESH =    40 x    40 x   100 =      160000
InitMesh: (bp) =    20 x    20 x    50 =       20000
InitMesh: Mesh cutoff (required, used) =   300.000   321.604 Ry
ExtMesh (bp) on 0 =   160 x   147 x   149 =     3504480
New grid distribution:   2
           1       1:   10    8:   20   26:   38
           2       1:   20    1:    7   13:   25
           3       1:   10    8:   20    1:   12
           4       1:   20    1:    7   39:   50
           5       1:   20    1:    7   26:   38
           6      11:   20    8:   20   13:   25
           7       1:   20    1:    7    1:   12
           8      11:   20    8:   20   39:   50
           9      11:   20    8:   20    1:   12
          10       1:   10    8:   20   13:   25
          11      11:   20    8:   20   26:   38
          12       1:   10    8:   20   39:   50
New grid distribution:   3
           1      11:   20    8:   20    1:   13
           2       1:   20    1:    7   14:   25
           3       1:   20    1:    7   26:   38
           4      11:   20    8:   20   14:   25
           5       1:   20    1:    7    1:   13
           6       1:   20    1:    7   39:   50
           7      11:   20    8:   20   26:   38
           8       1:   10    8:   20   39:   50
           9       1:   10    8:   20    1:   13
          10       1:   10    8:   20   14:   25
          11       1:   10    8:   20   26:   38
          12      11:   20    8:   20   39:   50
Setting up quadratic distribution...
ExtMesh (bp) on 0 =   150 x   153 x   149 =     3419550
PhiOnMesh: Number of (b)points on node 0 =                 1690
PhiOnMesh: nlist on node 0 =               155975

stepf: Fermi-Dirac step function

siesta: Program's energy decomposition (eV):
siesta: Ebs     =         3.708024
siesta: Eions   =       380.620085
siesta: Ena     =       122.921981
siesta: Ekin    =       239.937394
siesta: Enl     =        27.895236
siesta: Eso     =         0.000000
siesta: Edftu   =         0.000000
siesta: DEna    =       -31.465796
siesta: DUscf   =        44.838878
siesta: DUext   =         0.000000
siesta: Exc     =      -168.617322
siesta: eta*DQ  =         0.000000
siesta: Emadel  =         0.000000
siesta: Emeta   =         0.000000
siesta: Emolmec =        -5.122782
siesta: Ekinion =         0.000000
siesta: Eharris =       -39.798218
siesta: Etot    =      -150.232496
siesta: FreeEng =      -150.242196

        iscf     Eharris(eV)        E_KS(eV)     FreeEng(eV)     dDmax    Ef(eV) dHmax(eV)
   scf:    1      -39.798218     -150.232496     -150.242196  1.390933 -7.887759 28.807845
timer: Routine,Calls,Time,% = IterSCF        1       0.544  16.10
   scf:    2     -174.779210     -178.874514     -178.886059  6.651911 -2.131947  4.188369
   scf:    3     -176.117188     -178.945954     -178.952491  2.835485 -2.837820  4.377578
   scf:    4     -160.790416     -174.391113     -174.398605  5.566622 -0.748404 11.728582
   scf:    5     -181.713664     -178.765000     -178.777288  2.354271 -1.994738  4.937501
   scf:    6     -177.331783     -178.084189     -178.099962  0.507611 -1.796429  6.363957
   scf:    7     -180.029770     -179.173413     -179.188780  0.904571 -2.209123  3.726344
   scf:    8     -178.322277     -179.507999     -179.525554  2.153767 -2.726651  2.484893
   scf:    9     -179.814501     -179.801746     -179.813702  0.880585 -2.616863  0.072627
   scf:   10     -179.781057     -179.794576     -179.808866  0.130477 -2.654344  0.340927
   scf:   11     -179.788291     -179.791557     -179.806284  0.024774 -2.657138  0.416331
   scf:   12     -179.804646     -179.801414     -179.813980  0.134942 -2.622804  0.006123
   scf:   13     -179.801370     -179.801392     -179.813980  0.001055 -2.622610  0.005810
   scf:   14     -179.801422     -179.801407     -179.813982  0.001155 -2.622100  0.002013
   scf:   15     -179.801427     -179.801417     -179.813982  0.000603 -2.621837  0.000043

SCF Convergence by FreeE+DM+H criterion
|FreeE_i-FreeE_(i-1)| (eV) <     0.00100000
max |DM_out - DM_in|         :     0.0006032750
max |H_out - H_in|      (eV) :     0.0000430713
SCF cycle converged after 15 iterations

Using DM_out to compute the final energy and forces
No. of atoms with KB's overlaping orbs in proc 0. Max # of overlaps:     177     181

MM-Stress (kbar):        8.50        8.50       28.72       -0.00        0.00       -0.00

siesta: E_KS(eV) =             -179.8014

siesta: E_KS - E_eggbox =      -179.8014

siesta: Atomic forces (eV/Ang):
     1   -0.000000   -0.000000    0.000000
     2   -0.138674   -0.000014   -0.629795
     3    0.138674    0.000014    0.629795
     4    0.069325   -0.120103   -0.629795
     5   -0.069325    0.120103    0.629795
     6    0.069317    0.120061   -0.629719
     7   -0.069317   -0.120061    0.629719
     8    0.138674    0.000014   -0.629795
     9   -0.138674   -0.000014    0.629795
    10   -0.069325    0.120103   -0.629795
    11    0.069325   -0.120103    0.629795
    12   -0.069317   -0.120061   -0.629719
    13    0.069317    0.120061    0.629719
----------------------------------------
   Tot    0.000000   -0.000000   -0.000000
----------------------------------------
   Max    0.629795
   Res    0.357701    sqrt( Sum f_i^2 / 3N )
----------------------------------------
   Max    0.629795    constrained

Stress tensor Voigt[x,y,z,yz,xz,xy] (kbar):    -1656.33    -1656.33      293.33       -0.00       -0.00       -0.00
(Free)E + p*V (eV/cell)      -87.9244
Target enthalpy (eV/cell)     -179.8140

siesta: Eigenvalues (eV):
  ik is       eps
   1  1  -13.4553  -12.5935  -11.8074  -11.2069  -11.0271  -10.8851   -8.6677   -2.9217   -2.4344   -2.1833
          17.4729   17.6889   19.3730   19.3824   19.6714   19.7521
   2  1  -14.1175  -13.1735  -10.7465   -9.6747   -8.9281   -4.5884   -3.4361   -2.5721   -2.2812    0.3657
           1.6370    2.6413   19.4055   20.4354   22.2291   22.4556
   3  1  -14.1175  -13.1735  -10.7465   -9.6747   -8.9281   -4.5885   -3.4361   -2.5720   -2.2812    0.3656
           1.6370    2.6413   19.4055   20.4353   22.2291   22.4556
   4  1  -13.4553  -12.5935  -11.8074  -11.2069  -11.0271  -10.8851   -8.6677   -2.9216   -2.4345   -2.1833
          17.4729   17.6889   19.3730   19.3824   19.6714   19.7521
   5  1  -14.1175  -13.1735  -10.7465   -9.6747   -8.9281   -4.5884   -3.4361   -2.5721   -2.2812    0.3657
           1.6370    2.6413   19.4055   20.4354   22.2291   22.4556
   6  1  -14.5191  -13.4775   -9.7971   -3.4764   -2.7249   -2.7248    5.9240    5.9240    9.8132    9.8132
          10.4728   10.4728   10.6680   10.6680   23.7558   24.0634
   7  1  -13.3666  -12.4053  -12.3677  -12.2589   -9.3059   -5.7393   -4.0070   -4.0057   -3.2507   -2.1959
          -0.4028    0.7881   17.6055   17.6141   18.4030   18.4070
   8  1  -13.4553  -12.5935  -11.8074  -11.2069  -11.0271  -10.8851   -8.6677   -2.9216   -2.4345   -2.1833
          17.4729   17.6889   19.3730   19.3824   19.6714   19.7521
   9  1  -13.4553  -12.5935  -11.8074  -11.2069  -11.0271  -10.8851   -8.6677   -2.9216   -2.4345   -2.1833
          17.4729   17.6889   19.3730   19.3824   19.6714   19.7521
  10  1  -13.3666  -12.4053  -12.3677  -12.2589   -9.3059   -5.7393   -4.0070   -4.0057   -3.2507   -2.1959
          -0.4028    0.7881   17.6055   17.6141   18.4030   18.4070
  11  1  -13.4553  -12.5935  -11.8074  -11.2069  -11.0271  -10.8851   -8.6677   -2.9216   -2.4345   -2.1833
          17.4729   17.6889   19.3730   19.3824   19.6714   19.7521
  12  1  -13.3666  -12.4053  -12.3677  -12.2589   -9.3059   -5.7393   -4.0070   -4.0057   -3.2506   -2.1959
          -0.4029    0.7881   17.6055   17.6140   18.4030   18.4070
  13  1  -13.4227  -12.8170  -11.6388  -11.2311  -11.1654  -10.8641   -8.2235   -2.6949   -2.5934   -2.3038
          17.7563   17.8997   19.3624   19.3760   19.4019   19.4257
  14  1  -14.0589  -13.4582  -10.5329   -9.8337   -8.5293   -4.4977   -3.7747   -2.7067   -2.3982    0.8698
           1.7607    2.4548   19.4606   20.2483   22.2580   22.4191
  15  1  -14.0589  -13.4582  -10.5329   -9.8337   -8.5293   -4.4977   -3.7747   -2.7067   -2.3981    0.8697
           1.7607    2.4548   19.4606   20.2482   22.2580   22.4191
  16  1  -13.4227  -12.8170  -11.6388  -11.2311  -11.1654  -10.8641   -8.2235   -2.6948   -2.5933   -2.3039
          17.7563   17.8997   19.3624   19.3760   19.4019   19.4257
  17  1  -14.0589  -13.4582  -10.5329   -9.8337   -8.5293   -4.4977   -3.7747   -2.7067   -2.3982    0.8698
           1.7607    2.4548   19.4606   20.2483   22.2580   22.4191
  18  1  -14.4534  -13.8001   -9.3157   -3.9099   -2.7382   -2.7381    6.2965    6.2965    7.8686    7.8686
           9.5163    9.5164   12.8397   12.8398   23.8061   24.0251
  19  1  -14.0589  -13.4582  -10.5329   -9.8337   -8.5293   -4.4977   -3.7747   -2.7067   -2.3982    0.8698
           1.7607    2.4548   19.4606   20.2483   22.2580   22.4191
  20  1  -13.3513  -12.5470  -12.5377  -12.0989   -8.9021   -5.6115   -4.3578   -4.2967   -2.9439   -1.8406
          -0.0276    0.2893   17.7214   17.7292   18.2858   18.2907
  21  1  -14.0589  -13.4582  -10.5329   -9.8337   -8.5293   -4.4977   -3.7747   -2.7067   -2.3981    0.8697
           1.7607    2.4548   19.4606   20.2482   22.2580   22.4191
  22  1  -14.0589  -13.4582  -10.5329   -9.8337   -8.5293   -4.4977   -3.7747   -2.7067   -2.3982    0.8698
           1.7607    2.4548   19.4606   20.2483   22.2580   22.4191
  23  1  -13.4227  -12.8170  -11.6388  -11.2311  -11.1654  -10.8641   -8.2235   -2.6949   -2.5934   -2.3038
          17.7563   17.8997   19.3624   19.3760   19.4019   19.4257
  24  1  -13.4227  -12.8170  -11.6388  -11.2311  -11.1654  -10.8641   -8.2235   -2.6948   -2.5933   -2.3039
          17.7563   17.8997   19.3624   19.3760   19.4019   19.4257
  25  1  -13.4227  -12.8170  -11.6388  -11.2311  -11.1654  -10.8641   -8.2235   -2.6948   -2.5933   -2.3039
          17.7563   17.8997   19.3624   19.3760   19.4019   19.4257
  26  1  -13.3513  -12.5470  -12.5377  -12.0989   -8.9021   -5.6115   -4.3578   -4.2967   -2.9439   -1.8406
          -0.0276    0.2893   17.7214   17.7292   18.2858   18.2907
  27  1  -13.4227  -12.8170  -11.6388  -11.2311  -11.1654  -10.8641   -8.2235   -2.6948   -2.5933   -2.3039
          17.7563   17.8997   19.3624   19.3760   19.4019   19.4257
  28  1  -13.3513  -12.5470  -12.5377  -12.0990   -8.9021   -5.6115   -4.3578   -4.2967   -2.9438   -1.8406
          -0.0277    0.2894   17.7214   17.7292   18.2858   18.2906
  29  1  -13.3734  -12.9956  -11.4548  -11.3471  -11.2490  -10.8495   -7.7947   -3.0472   -2.4449   -2.1798
          18.2041   18.2884   18.7886   19.0862   19.3641   19.3720
  30  1  -13.9283  -13.7540  -10.3223  -10.0131   -8.1573   -4.3790   -4.1024   -3.0736   -2.2460    1.2859
           1.9347    2.2344   19.5449   20.0350   22.3222   22.3472
  31  1  -13.9283  -13.7540  -10.3223  -10.0131   -8.1573   -4.3790   -4.1024   -3.0736   -2.2459    1.2858
           1.9347    2.2345   19.5449   20.0350   22.3222   22.3472
  32  1  -13.3734  -12.9956  -11.4548  -11.3471  -11.2490  -10.8495   -7.7947   -3.0472   -2.4448   -2.1799
          18.2042   18.2884   18.7886   19.0862   19.3641   19.3719
  33  1  -13.9283  -13.7540  -10.3223  -10.0131   -8.1573   -4.3790   -4.1024   -3.0736   -2.2460    1.2859
           1.9347    2.2344   19.5449   20.0350   22.3222   22.3472
  34  1  -14.2892  -14.1540   -8.8910   -4.3197   -2.7513   -2.7513    7.0674    7.0674    7.2130    7.2130
           7.8977    7.8978   14.0553   14.0554   23.9014   23.9419
  35  1  -13.9283  -13.7540  -10.3223  -10.0131   -8.1573   -4.3790   -4.1024   -3.0736   -2.2460    1.2859
           1.9347    2.2344   19.5449   20.0350   22.3222   22.3472
  36  1  -13.3324  -12.6740  -12.6123  -12.0186   -8.5322   -5.4009   -4.7521   -4.5821   -2.6595   -1.2078
          -0.4824    0.3078   17.9847   17.9869   18.0213   18.0317
  37  1  -13.9283  -13.7540  -10.3223  -10.0131   -8.1573   -4.3790   -4.1024   -3.0736   -2.2459    1.2858
           1.9347    2.2345   19.5449   20.0350   22.3222   22.3472
  38  1  -13.9283  -13.7540  -10.3223  -10.0131   -8.1573   -4.3790   -4.1024   -3.0736   -2.2460    1.2859
           1.9347    2.2344   19.5449   20.0350   22.3222   22.3472
  39  1  -13.3734  -12.9956  -11.4548  -11.3471  -11.2490  -10.8495   -7.7947   -3.0472   -2.4449   -2.1798
          18.2041   18.2884   18.7886   19.0862   19.3641   19.3720
  40  1  -13.3734  -12.9956  -11.4548  -11.3471  -11.2490  -10.8495   -7.7947   -3.0472   -2.4448   -2.1799
          18.2042   18.2884   18.7886   19.0862   19.3641   19.3719
  41  1  -13.3734  -12.9956  -11.4548  -11.3471  -11.2490  -10.8495   -7.7947   -3.0472   -2.4448   -2.1799
          18.2042   18.2884   18.7886   19.0862   19.3641   19.3719
  42  1  -13.3324  -12.6740  -12.6123  -12.0186   -8.5322   -5.4009   -4.7521   -4.5821   -2.6595   -1.2078
          -0.4824    0.3078   17.9847   17.9869   18.0213   18.0317
  43  1  -13.3734  -12.9956  -11.4548  -11.3471  -11.2490  -10.8495   -7.7947   -3.0472   -2.4448   -2.1799
          18.2042   18.2884   18.7886   19.0862   19.3641   19.3719
  44  1  -13.3324  -12.6740  -12.6123  -12.0186   -8.5322   -5.4009   -4.7521   -4.5821   -2.6593   -1.2078
          -0.4824    0.3077   17.9847   17.9869   18.0213   18.0317
siesta: Fermi energy =      -2.621837 eV

siesta: Program's energy decomposition (eV):
siesta: Ebs     =      -146.509215
siesta: Eions   =       380.620085
siesta: Ena     =       122.921981
siesta: Ekin    =       189.923044
siesta: Enl     =        48.973226
siesta: Eso     =         0.000000
siesta: Edftu   =         0.000000
siesta: DEna    =        -5.430563
siesta: DUscf   =         3.161020
siesta: DUext   =         0.000000
siesta: Exc     =      -153.607259
siesta: eta*DQ  =         0.000000
siesta: Emadel  =         0.000000
siesta: Emeta   =         0.000000
siesta: Emolmec =        -5.122782
siesta: Ekinion =         0.000000
siesta: Eharris =      -179.801427
siesta: Etot    =      -179.801417
siesta: FreeEng =      -179.813982

siesta: Final energy (eV):
siesta:  Band Struct. =    -146.509215
siesta:       Kinetic =     189.923044
siesta:       Hartree =     102.545227
siesta:       Edftu   =       0.000000
siesta:       Eso     =       0.000000
siesta:    Ext. field =       0.000000
siesta:   Exch.-corr. =    -153.607259
siesta:  Ion-electron =    -382.394829
siesta:       Ion-ion =      68.855183
siesta:       Ekinion =       0.000000
siesta:         Total =    -179.801417
siesta:         Fermi =      -2.621837

siesta: Atomic forces (eV/Ang):
siesta:      1   -0.000000   -0.000000    0.000000
siesta:      2   -0.138674   -0.000014   -0.629795
siesta:      3    0.138674    0.000014    0.629795
siesta:      4    0.069325   -0.120103   -0.629795
siesta:      5   -0.069325    0.120103    0.629795
siesta:      6    0.069317    0.120061   -0.629719
siesta:      7   -0.069317   -0.120061    0.629719
siesta:      8    0.138674    0.000014   -0.629795
siesta:      9   -0.138674   -0.000014    0.629795
siesta:     10   -0.069325    0.120103   -0.629795
siesta:     11    0.069325   -0.120103    0.629795
siesta:     12   -0.069317   -0.120061   -0.629719
siesta:     13    0.069317    0.120061    0.629719
siesta: ----------------------------------------
siesta:    Tot    0.000000   -0.000000   -0.000000

siesta: Stress tensor (static) (eV/Ang**3):
siesta:    -1.033788   -0.000002   -0.000000
siesta:    -0.000002   -1.033791   -0.000000
siesta:    -0.000000   -0.000000    0.183082

siesta: Cell volume =        146.282363 Ang**3

siesta: Pressure (static):
siesta:                Solid            Molecule  Units
siesta:           0.00684153          0.00637742  Ry/Bohr**3
siesta:           0.62816561          0.58555290  eV/Ang**3
siesta:        1006.44314654        938.16931743  kBar
(Free)E+ p_basis*V_orbitals  =        -163.647368
(Free)Eharris+ p_basis*V_orbitals  =        -163.647378

cite: Please see "LiC12_scf.bib" for an exhaustive BiBTeX file.
cite: Please clearly indicate Siesta version in published work: 4.1.5
cite: This calculation has made use of the following articles
cite: which are encouraged to be cited in a published work.
        Primary SIESTA paper
          DOI: www.doi.org/10.1088/0953-8984/14/11/302

>> End of run:   9-NOV-2022  14:56:42
Job completed
