Siesta Version  : 4.1.5
Architecture    : x86_64-unknown-linux-gnu--unknown
Compiler version: GNU Fortran (GCC) 11.3.0
Compiler flags  : mpif90 -g -O2 -fallow-argument-mismatch
PP flags        : -DMPI -DFC_HAVE_FLUSH -DFC_HAVE_ABORT
Libraries       :  -I/global/software/sl-7.x86_64/modules/intel/2020.4.304/mkl/include  /globall/software/sl-7.x86_64/modules/intel/2020.4.304/mkl/lib/intel64/libmkl_scalapack_lp64.a -Wl,--start-group /global/software/sl-7.x86_64/modules/intel/2020.4.304/mkl/lib/intel64/libmkl_intel_lp64.a /global/software/sl-7.x86_64/modules/intel/2020.4.304/mkl/lib/intel64/libmkl_sequential.a /global/software/sl-7.x86_64/modules/intel/2020.4.304/mkl/lib/intel64/libmkl_core.a /global/software/sl-7.x86_64/modules/intel/2020.4.304/mkl/lib/intel64/libmkl_blacs_openmpi_lp64.a -Wl,--end-group -lpthread -lm -ldl
PARALLEL version

* Running on 12 nodes in parallel
>> Start of run:   9-NOV-2022  14:49:19

                           ***********************       
                           *  WELCOME TO SIESTA  *       
                           ***********************       

reinit: Reading from standard input
reinit: Dumped input in INPUT_TMP.26254
************************** Dump of input data file ****************************
SystemName LiC12_scf
SystemLabel LiC12_scf
NumberOfAtoms   13
NumberOfSpecies 2
%block ChemicalSpeciesLabel
1  3   Li-gga
2  6   C-gga
%endblock ChemicalSpeciesLabel
PAO.BasisSize  SZ
PAO.EnergyShift  10 meV
%block PS.Lmax
C-gga   2
Li-gga  2
%endblock PS.Lmax
LatticeConstant 1.000000 Ang
%block LatticeVectors
	4.2686000000	0.0000000000	0.0000000000
	-2.1343000000	3.6967160386	0.0000000000
	0.0000000000	0.0000000000	4.4946560000
%endblock LatticeVectors
AtomicCoordinatesFormat Ang
%block AtomicCoordinatesAndAtomicSpecies
	0.00000000	0.00000000	0.00000000	2
	1.42144380	0.00000000	1.12366400	1
	2.84715620	0.00000000	3.37099200	1
	-0.71072190	1.23100644	1.12366400	1
	-1.42357810	2.46570960	3.37099200	1
	1.42357810	2.46570960	1.12366400	1
	0.71072190	1.23100644	3.37099200	1
	2.84715620	0.00000000	1.12366400	1
	1.42144380	0.00000000	3.37099200	1
	-1.42357810	2.46570960	1.12366400	1
	-0.71072190	1.23100644	3.37099200	1
	0.71072190	1.23100644	1.12366400	1
	1.42357810	2.46570960	3.37099200	1
%endblock AtomicCoordinatesAndAtomicSpecies
Kgrid_NoTRS  T
%block kgrid_MonkhorstPack
4       0       0       0.0
0       4       0       0.0
0       0       4       0.0
%endblock kgrid_MonkhorstPack
AtomCoorFormatOut Ang
BlockSize 1
#ProcessorY 12
Diag.ParallelOverK   T
Diag.DivideAndConquer F
MeshCutoff   300 Ry
SCF.FreeE.Tolerance 1E-3 eV
SCF.EDM.Tolerance   5E-3 eV
DM.Tolerance  1E-3
DM.Require.Energy.Convergence T
DM.NumberPulay 4
XC.Functional GGA
XC.Authors    PBE
UseSaveData        F
MD.TypeOfRun       CG
MD.VariableCell    F
MD.NumCGsteps      00
MD.MaxCGDispl      0.200000 Bohr
MD.MaxStressTol    1.000000 GPa
MD.MaxForceTol     0.010000 eV/Ang
WriteMDHistory T
WriteCoorStep T
WriteForces T
WriteCoorStep    T
WriteEigenValues T
WriteDM    F
MM.UnitsDistance Ang  # what this program prints out DO NOT CHANGE
MM.UnitsEnergy    eV  # what this program prints out DO NOT CHANGE
MM.Grimme.S6     0.75 # Grimme-paper for PBE (correct for your functional)
MM.Grimme.D     20.   # Grimme-paper (correct for your functional)
%block MM.Potentials
  1   1 Grimme     16.69      1.650 # Li, 10.1002/jcc.20495
  1   2 Grimme     17.40      2.277 # Li / C
  2   2 Grimme     18.14      2.904 # C, 10.1002/jcc.20495
%endblock MM.Potentials
#%block ProjectedDensityOfStates
# -200.0  120.0  0.4  12800  eV
#%endblock ProjectedDensityOfStates
************************** End of input data file *****************************

reinit: -----------------------------------------------------------------------
reinit: System Name: LiC12_scf
reinit: -----------------------------------------------------------------------
reinit: System Label: LiC12_scf
reinit: -----------------------------------------------------------------------
Reading two-body potentials
Grimme - two-body potential between 1 and 1
Grimme - two-body potential between 1 and 2
Grimme - two-body potential between 2 and 2

initatom: Reading input for the pseudopotentials and atomic orbitals ----------
Species number:   1 Atomic number:    3 Label: Li-gga
Species number:   2 Atomic number:    6 Label: C-gga

Ground state valence configuration:   2s01
Reading pseudopotential information in formatted form from Li-gga.psf

Valence configuration for pseudopotential generation:
2s( 1.00) rc: 2.28
2p( 0.00) rc: 2.28
3d( 0.00) rc: 2.59
4f( 0.00) rc: 2.59
Ground state valence configuration:   2s02  2p02
Reading pseudopotential information in formatted form from C-gga.psf

Valence configuration for pseudopotential generation:
2s( 2.00) rc: 1.56
2p( 2.00) rc: 1.56
3d( 0.00) rc: 1.56
4f( 0.00) rc: 1.56
relmxkb: Read Max KB Ang. Momentum=    2 for species C-gga
relmxkb: Read Max KB Ang. Momentum=    2 for species Li-gga

<basis_specs>
===============================================================================
Li-gga               Z=   3    Mass=  6.9400        Charge= 0.17977+309
Lmxo=0 Lmxkb= 2    BasisType=split      Semic=F
L=0  Nsemic=0  Cnfigmx=2
          i=1  nzeta=1  polorb=0  (2s)
            splnorm:   0.15000    
               vcte:    0.0000    
               rinn:    0.0000    
               qcoe:    0.0000    
               qyuk:    0.0000    
               qwid:   0.10000E-01
                rcs:    0.0000    
            lambdas:    1.0000    
-------------------------------------------------------------------------------
L=0  Nkbl=1  erefs: 0.17977+309
L=1  Nkbl=1  erefs: 0.17977+309
L=2  Nkbl=1  erefs: 0.17977+309
===============================================================================
</basis_specs>

atom: Called for Li-gga                (Z =   3)

read_vps: Pseudopotential generation method:
read_vps: ATM 3.2.2 Troullier-Martins                       
Valence charge for ps generation:    1.00000

read_vps: Pseudopotential includes a core correction:
read_vps: Pseudo-core for xc-correction

xc_check: Exchange-correlation functional:
xc_check: GGA Perdew, Burke & Ernzerhof 1996
V l=0 = -2*Zval/r beyond r=  2.2278
V l=1 = -2*Zval/r beyond r=  2.2278
V l=2 = -2*Zval/r beyond r=  2.5245
All V_l potentials equal beyond r=  2.4622
This should be close to max(r_c) in ps generation
All pots = -2*Zval/r beyond r=  2.5245

VLOCAL1: 99.0% of the norm of Vloc inside      7.160 Ry
VLOCAL1: 99.9% of the norm of Vloc inside     16.318 Ry
atom: Maximum radius for 4*pi*r*r*local-pseudopot. charge    2.86079
atom: Maximum radius for r*vlocal+2*Zval:    2.43160
GHOST: No ghost state for L =  0
GHOST: No ghost state for L =  1
GHOST: No ghost state for L =  2

KBgen: Kleinman-Bylander projectors: 
   l= 0   rc=  2.654023   el= -0.211234   Ekb=  1.742119   kbcos=  0.228463
   l= 1   rc=  2.721230   el= -0.080095   Ekb= -1.122375   kbcos= -0.147941
   l= 2   rc=  2.825246   el=  0.002001   Ekb= -0.207076   kbcos= -0.031965

KBgen: Total number of Kleinman-Bylander projectors:    9
atom: -------------------------------------------------------------------------

atom: SANKEY-TYPE ORBITALS:

SPLIT: Orbitals with angular momentum L= 0

SPLIT: Basis orbitals for state 2s

SPLIT: PAO cut-off radius determined from an
SPLIT: energy shift=  0.000735 Ry

   izeta = 1
                 lambda =    1.000000
                     rc =   11.897381
                 energy =   -0.210580
                kinetic =    0.143382
    potential(screened) =   -0.353962
       potential(ionic) =   -0.533453
atom: Total number of Sankey-type orbitals:  1

atm_pop: Valence configuration (for local Pseudopot. screening):
 2s( 1.00)                                                            
Vna: chval, zval:    1.00000   1.00000

Vna:  Cut-off radius for the neutral-atom potential:  11.897381
comcore: Pseudo-core radius Rcore=  3.450946

atom: _________________________________________________________________________

<basis_specs>
===============================================================================
C-gga                Z=   6    Mass=  12.010        Charge= 0.17977+309
Lmxo=1 Lmxkb= 2    BasisType=split      Semic=F
L=0  Nsemic=0  Cnfigmx=2
          i=1  nzeta=1  polorb=0  (2s)
            splnorm:   0.15000    
               vcte:    0.0000    
               rinn:    0.0000    
               qcoe:    0.0000    
               qyuk:    0.0000    
               qwid:   0.10000E-01
                rcs:    0.0000    
            lambdas:    1.0000    
L=1  Nsemic=0  Cnfigmx=2
          i=1  nzeta=1  polorb=0  (2p)
            splnorm:   0.15000    
               vcte:    0.0000    
               rinn:    0.0000    
               qcoe:    0.0000    
               qyuk:    0.0000    
               qwid:   0.10000E-01
                rcs:    0.0000    
            lambdas:    1.0000    
-------------------------------------------------------------------------------
L=0  Nkbl=1  erefs: 0.17977+309
L=1  Nkbl=1  erefs: 0.17977+309
L=2  Nkbl=1  erefs: 0.17977+309
===============================================================================
</basis_specs>

atom: Called for C-gga                 (Z =   6)

read_vps: Pseudopotential generation method:
read_vps: ATM 3.2.2 Troullier-Martins                       
Valence charge for ps generation:    4.00000

xc_check: Exchange-correlation functional:
xc_check: GGA Perdew, Burke & Ernzerhof 1996
V l=0 = -2*Zval/r beyond r=  1.5227
V l=1 = -2*Zval/r beyond r=  1.5227
V l=2 = -2*Zval/r beyond r=  1.5227
All V_l potentials equal beyond r=  1.4851
This should be close to max(r_c) in ps generation
All pots = -2*Zval/r beyond r=  1.5227

VLOCAL1: 99.0% of the norm of Vloc inside     19.682 Ry
VLOCAL1: 99.9% of the norm of Vloc inside     44.856 Ry
atom: Maximum radius for 4*pi*r*r*local-pseudopot. charge    1.79142
atom: Maximum radius for r*vlocal+2*Zval:    1.54183
GHOST: No ghost state for L =  0
GHOST: No ghost state for L =  1
GHOST: No ghost state for L =  2

KBgen: Kleinman-Bylander projectors: 
   l= 0   rc=  1.661951   el= -1.010689   Ekb=  5.289847   kbcos=  0.316429
   l= 1   rc=  1.661951   el= -0.388490   Ekb= -4.102504   kbcos= -0.351025
   l= 2   rc=  1.747182   el=  0.001971   Ekb= -1.006005   kbcos= -0.008530

KBgen: Total number of Kleinman-Bylander projectors:    9
atom: -------------------------------------------------------------------------

atom: SANKEY-TYPE ORBITALS:

SPLIT: Orbitals with angular momentum L= 0

SPLIT: Basis orbitals for state 2s

SPLIT: PAO cut-off radius determined from an
SPLIT: energy shift=  0.000735 Ry

   izeta = 1
                 lambda =    1.000000
                     rc =    5.948690
                 energy =   -1.010099
                kinetic =    0.827121
    potential(screened) =   -1.837220
       potential(ionic) =   -5.392783

SPLIT: Orbitals with angular momentum L= 1

SPLIT: Basis orbitals for state 2p

SPLIT: PAO cut-off radius determined from an
SPLIT: energy shift=  0.000735 Ry

   izeta = 1
                 lambda =    1.000000
                     rc =    7.638387
                 energy =   -0.387843
                kinetic =    2.314739
    potential(screened) =   -2.702582
       potential(ionic) =   -6.092371
atom: Total number of Sankey-type orbitals:  4

atm_pop: Valence configuration (for local Pseudopot. screening):
 2s( 2.00)                                                            
 2p( 2.00)                                                            
Vna: chval, zval:    4.00000   4.00000

Vna:  Cut-off radius for the neutral-atom potential:   7.638387

atom: _________________________________________________________________________

prinput: Basis input ----------------------------------------------------------

PAO.BasisType split     

%block ChemicalSpeciesLabel
    1    3 Li-gga                  # Species index, atomic number, species label
    2    6 C-gga                   # Species index, atomic number, species label
%endblock ChemicalSpeciesLabel

%block PAO.Basis                 # Define Basis set
Li-gga                1                    # Species label, number of l-shells
 n=2   0   1                         # n, l, Nzeta 
  11.897   
   1.000   
C-gga                 2                    # Species label, number of l-shells
 n=2   0   1                         # n, l, Nzeta 
   5.949   
   1.000   
 n=2   1   1                         # n, l, Nzeta 
   7.638   
   1.000   
%endblock PAO.Basis

prinput: ----------------------------------------------------------------------

coor:   Atomic-coordinates input format  =     Cartesian coordinates
coor:                                          (in Angstroms)

siesta: Atomic coordinates (Bohr) and species
siesta:      0.00000   0.00000   0.00000  2        1
siesta:      2.68614   0.00000   2.12342  1        2
siesta:      5.38035   0.00000   6.37025  1        3
siesta:     -1.34307   2.32627   2.12342  1        4
siesta:     -2.69017   4.65952   6.37025  1        5
siesta:      2.69017   4.65952   2.12342  1        6
siesta:      1.34307   2.32627   6.37025  1        7
siesta:      5.38035   0.00000   2.12342  1        8
siesta:      2.68614   0.00000   6.37025  1        9
siesta:     -2.69017   4.65952   2.12342  1       10
siesta:     -1.34307   2.32627   6.37025  1       11
siesta:      1.34307   2.32627   2.12342  1       12
siesta:      2.69017   4.65952   6.37025  1       13

siesta: System type = bulk      

initatomlists: Number of atoms, orbitals, and projectors:     13    16   117

siesta: ******************** Simulation parameters ****************************
siesta:
siesta: The following are some of the parameters of the simulation.
siesta: A complete list of the parameters used, including default values,
siesta: can be found in file out.fdf
siesta:
redata: Spin configuration                          = none
redata: Number of spin components                   = 1
redata: Time-Reversal Symmetry                      = T
redata: Spin spiral                                 = F
redata: Long output                                 =   F
redata: Number of Atomic Species                    =        2
redata: Charge density info will appear in .RHO file
redata: Write Mulliken Pop.                         = NO
redata: Matel table size (NRTAB)                    =     1024
redata: Mesh Cutoff                                 =   300.0000 Ry
redata: Net charge of the system                    =     0.0000 |e|
redata: Min. number of SCF Iter                     =        0
redata: Max. number of SCF Iter                     =     1000
redata: SCF convergence failure will abort job
redata: SCF mix quantity                            = Hamiltonian
redata: Mix DM or H after convergence               =   F
redata: Recompute H after scf cycle                 =   F
redata: Mix DM in first SCF step                    =   T
redata: Write Pulay info on disk                    =   F
redata: New DM Occupancy tolerance                  = 0.000000000001
redata: No kicks to SCF
redata: DM Mixing Weight for Kicks                  =     0.5000
redata: Require Harris convergence for SCF          =   F
redata: Harris energy tolerance for SCF             =     0.000100 eV
redata: Require DM convergence for SCF              =   T
redata: DM tolerance for SCF                        =     0.001000
redata: Require EDM convergence for SCF             =   F
redata: EDM tolerance for SCF                       =     0.005000 eV
redata: Require H convergence for SCF               =   T
redata: Hamiltonian tolerance for SCF               =     0.001000 eV
redata: Require (free) Energy convergence for SCF   =   T
redata: (free) Energy tolerance for SCF             =     0.001000 eV
redata: Using Saved Data (generic)                  =   F
redata: Use continuation files for DM               =   F
redata: Neglect nonoverlap interactions             =   F
redata: Method of Calculation                       = Diagonalization
redata: Electronic Temperature                      =   299.9869 K
redata: Fix the spin of the system                  =   F
redata: Dynamics option                             = Single-point calculation
mix.SCF: Pulay mixing                            = Pulay
mix.SCF:    Variant                              = stable
mix.SCF:    History steps                        = 4
mix.SCF:    Linear mixing weight                 =     0.250000
mix.SCF:    Mixing weight                        =     0.250000
mix.SCF:    SVD condition                        = 0.1000E-07
redata: ***********************************************************************

%block SCF.Mixers
  Pulay
%endblock SCF.Mixers

%block SCF.Mixer.Pulay
  # Mixing method
  method pulay
  variant stable

  # Mixing options
  weight 0.2500
  weight.linear 0.2500
  history 4
%endblock SCF.Mixer.Pulay

DM_history_depth set to one: no extrapolation allowed by default for geometry relaxation
Size of DM history Fstack: 1
Total number of electrons:    16.000000
Total ionic charge:    16.000000

* ProcessorY, Blocksize:    3   1


* Orbital distribution balance (max,min):     2     1

k-point displ. along   1 input, could be:     0.00    0.50
k-point displ. along   2 input, could be:     0.00    0.50
k-point displ. along   3 input, could be:     0.00    0.50
 Kpoints in:           48 . Kpoints trimmed:           44

siesta: k-grid: Number of k-points =    44
siesta: k-grid: Cutoff (effective) =     8.537 Ang
siesta: k-grid: Supercell and displacements
siesta: k-grid:    4   0   0      0.000
siesta: k-grid:    0   4   0      0.000
siesta: k-grid:    0   0   4      0.000

diag: Algorithm                                     = Expert
diag: Parallel over k                               =   T
diag: Use parallel 2D distribution                  =   T
diag: Parallel block-size                           = 1
diag: Parallel distribution                         =     3 x     4
diag: Used triangular part                          = Lower
diag: Absolute tolerance                            =  0.100E-15
diag: Orthogonalization factor                      =  0.100E-05
diag: Memory factor                                 =  1.0000

superc: Internal auxiliary supercell:     9 x     9 x     7  =     567
superc: Number of atoms, orbitals, and projectors:   7371   9072  66339


ts: **************************************************************
ts: Save H and S matrices                           =    F
ts: Save DM and EDM matrices                        =    F
ts: Only save the overlap matrix S                  =    F
ts: **************************************************************

************************ Begin: TS CHECKS AND WARNINGS ************************
************************ End: TS CHECKS AND WARNINGS **************************


                     ====================================
                        Single-point calculation
                     ====================================

outcoor: Atomic coordinates (Ang):                          
    0.00000000    0.00000000    0.00000000   2       1  C-gga
    1.42144380    0.00000000    1.12366400   1       2  Li-gga
    2.84715620    0.00000000    3.37099200   1       3  Li-gga
   -0.71072190    1.23100644    1.12366400   1       4  Li-gga
   -1.42357810    2.46570960    3.37099200   1       5  Li-gga
    1.42357810    2.46570960    1.12366400   1       6  Li-gga
    0.71072190    1.23100644    3.37099200   1       7  Li-gga
    2.84715620    0.00000000    1.12366400   1       8  Li-gga
    1.42144380    0.00000000    3.37099200   1       9  Li-gga
   -1.42357810    2.46570960    1.12366400   1      10  Li-gga
   -0.71072190    1.23100644    3.37099200   1      11  Li-gga
    0.71072190    1.23100644    1.12366400   1      12  Li-gga
    1.42357810    2.46570960    3.37099200   1      13  Li-gga

superc: Internal auxiliary supercell:     9 x     9 x     7  =     567
superc: Number of atoms, orbitals, and projectors:   7371   9072  66339

outcell: Unit cell vectors (Ang):
        4.268600    0.000000    0.000000
       -2.134300    3.696716    0.000000
        0.000000    0.000000    4.494656

outcell: Cell vector modules (Ang)   :    4.268600    4.268600    4.494656
outcell: Cell angles (23,13,12) (deg):     90.0000     90.0000    120.0000
outcell: Cell volume (Ang**3)        :     70.9248
<dSpData1D:S at geom step 0
  <sparsity:sparsity for geom step 0
    nrows_g=16 nrows=2 sparsity=16.1953 nnzs=4146, refcount: 7>
  <dData1D:(new from dSpData1D) n=4146, refcount: 1>
refcount: 1>
new_DM -- step:     1
Initializing Density Matrix...
DM filled with atomic data:
<dSpData2D:DM initialized from atoms
  <sparsity:sparsity for geom step 0
    nrows_g=16 nrows=2 sparsity=16.1953 nnzs=4146, refcount: 8>
  <dData2D:DM n=4146 m=1, refcount: 1>
refcount: 1>
No. of atoms with KB's overlaping orbs in proc 0. Max # of overlaps:     360     373
New grid distribution:   1
           1       1:   20    1:    7    1:    6
           2       1:   20    1:    7    7:   12
           3       1:   20    1:    7   13:   18
           4       1:   20    1:    7   19:   24
           5       1:   20    8:   14    1:    6
           6       1:   20    8:   14    7:   12
           7       1:   20    8:   14   13:   18
           8       1:   20    8:   14   19:   24
           9       1:   20   15:   20    1:    6
          10       1:   20   15:   20    7:   12
          11       1:   20   15:   20   13:   18
          12       1:   20   15:   20   19:   24

InitMesh: MESH =    40 x    40 x    48 =       76800
InitMesh: (bp) =    20 x    20 x    24 =        9600
InitMesh: Mesh cutoff (required, used) =   300.000   315.204 Ry
ExtMesh (bp) on 0 =   160 x   147 x   142 =     3339840
New grid distribution:   2
           1       1:    7    1:   10    1:   12
           2       8:   20   11:   20   13:   18
           3       1:    7    1:   10   13:   24
           4       8:   20    1:   10    1:    6
           5       8:   20   11:   20    1:    6
           6       8:   20    1:   10    7:   12
           7       1:    7   11:   20   13:   24
           8       8:   20    1:   10   19:   24
           9       1:    7   11:   20    1:   12
          10       8:   20    1:   10   13:   18
          11       8:   20   11:   20    7:   12
          12       8:   20   11:   20   19:   24
New grid distribution:   3
           1       1:    7    1:   10    1:   12
           2       8:   20   11:   20   13:   18
           3       1:    7    1:   10   13:   24
           4       8:   20    1:   10    1:    6
           5       8:   20   11:   20    1:    6
           6       8:   20    1:   10    7:   12
           7       1:    7   11:   20   13:   24
           8       8:   20    1:   10   19:   24
           9       1:    7   11:   20    1:   12
          10       8:   20    1:   10   13:   18
          11       8:   20   11:   20    7:   12
          12       8:   20   11:   20   19:   24
Setting up quadratic distribution...
ExtMesh (bp) on 0 =   147 x   150 x   148 =     3263400
PhiOnMesh: Number of (b)points on node 0 =                  840
PhiOnMesh: nlist on node 0 =               164841

stepf: Fermi-Dirac step function

siesta: Program's energy decomposition (eV):
siesta: Ebs     =      -196.866295
siesta: Eions   =       380.620085
siesta: Ena     =        82.212556
siesta: Ekin    =       323.917380
siesta: Enl     =        18.232135
siesta: Eso     =         0.000000
siesta: Edftu   =         0.000000
siesta: DEna    =       -62.050649
siesta: DUscf   =        43.861841
siesta: DUext   =         0.000000
siesta: Exc     =      -195.630767
siesta: eta*DQ  =         0.000000
siesta: Emadel  =         0.000000
siesta: Emeta   =         0.000000
siesta: Emolmec =        -8.824932
siesta: Ekinion =         0.000000
siesta: Eharris =       -80.653675
siesta: Etot    =      -178.902521
siesta: FreeEng =      -178.907101

        iscf     Eharris(eV)        E_KS(eV)     FreeEng(eV)     dDmax    Ef(eV) dHmax(eV)
   scf:    1      -80.653675     -178.902521     -178.907101  6.783516-13.519241 21.031368
timer: Routine,Calls,Time,% = IterSCF        1       1.026  15.75
   scf:    2     -193.941191     -186.755948     -186.764095  1.075938-13.220700 12.954221
   scf:    3     -174.171729     -189.775739     -189.781616 10.133306 -8.110171 10.501234
   scf:    4     -185.400773     -187.639972     -187.651631  0.985693 -7.131314 12.622132
   scf:    5     -191.773448     -189.757314     -189.763551  0.973521 -8.110179 10.516824
   scf:    6     -191.540159     -194.300937     -194.307222  7.716399-12.037131  3.676246
   scf:    7     -194.550672     -194.428014     -194.435814  0.139611-11.994025  3.353167
   scf:    8     -187.999742     -191.622443     -191.622474  1.798330-12.709560  7.960247
   scf:    9     -194.426812     -194.941221     -194.956013  5.382605-11.000126  1.565549
   scf:   10     -195.062468     -195.088427     -195.103102  1.142539-11.422205  0.373677
   scf:   11     -195.096653     -195.092778     -195.107436  0.062898-11.394132  0.267542
   scf:   12     -195.097519     -195.095647     -195.111188  0.084553-11.343764  0.114541
   scf:   13     -195.090880     -195.094259     -195.111611  0.128045-11.285212  0.108668
   scf:   14     -195.096002     -195.095596     -195.112144  0.080713-11.330299  0.051535
   scf:   15     -195.094972     -195.095335     -195.112300  0.029344-11.316566  0.003708
   scf:   16     -195.095221     -195.095278     -195.112303  0.003549-11.316027  0.003150
   scf:   17     -195.095315     -195.095297     -195.112304  0.000974-11.315513  0.001573
   scf:   18     -195.095350     -195.095323     -195.112305  0.001331-11.315006  0.000835
   scf:   19     -195.095315     -195.095319     -195.112305  0.000275-11.315089  0.000460

SCF Convergence by FreeE+DM+H criterion
|FreeE_i-FreeE_(i-1)| (eV) <     0.00100000
max |DM_out - DM_in|         :     0.0002748736
max |H_out - H_in|      (eV) :     0.0004597757
SCF cycle converged after 19 iterations

Using DM_out to compute the final energy and forces
No. of atoms with KB's overlaping orbs in proc 0. Max # of overlaps:     360     373

MM-Stress (kbar):       98.27       98.27      377.14       -0.00       -0.00        0.00

siesta: E_KS(eV) =             -195.0953

siesta: E_KS - E_eggbox =      -195.0953

siesta: Atomic forces (eV/Ang):
     1   -0.000000    0.000000    0.000000
     2   -0.952957    0.000129   -0.808112
     3    0.952957   -0.000129    0.808112
     4    0.476590   -0.825220   -0.808111
     5   -0.476590    0.825220    0.808111
     6    0.476605    0.825505   -0.808340
     7   -0.476605   -0.825505    0.808340
     8    0.952957   -0.000129   -0.808112
     9   -0.952957    0.000129    0.808112
    10   -0.476590    0.825220   -0.808111
    11    0.476590   -0.825220    0.808111
    12   -0.476605   -0.825505   -0.808340
    13    0.476605    0.825505    0.808340
----------------------------------------
   Tot   -0.000000    0.000000    0.000000
----------------------------------------
   Max    0.952957
   Res    0.693143    sqrt( Sum f_i^2 / 3N )
----------------------------------------
   Max    0.952957    constrained

Stress tensor Voigt[x,y,z,yz,xz,xy] (kbar):    -2796.44    -2796.49     -628.34        0.00       -0.00       -0.04
(Free)E + p*V (eV/cell)     -103.3127
Target enthalpy (eV/cell)     -195.1123

siesta: Eigenvalues (eV):
  ik is       eps
   1  1  -24.2502  -21.2717  -20.6629  -17.0312  -15.0926  -13.9716  -13.2041  -13.1600  -11.5499    8.0808
          11.0111   11.4611   11.5269   11.8039   14.7378   14.9433
   2  1  -24.3559  -20.9331  -18.5102  -17.0159  -15.9080  -14.6385  -10.7094  -10.1067   -9.9086    5.7998
           9.1869   10.8765   11.3310   16.6129   18.6442   22.0089
   3  1  -24.3559  -20.9332  -18.5102  -17.0158  -15.9080  -14.6384  -10.7094  -10.1066   -9.9088    5.7998
           9.1869   10.8765   11.3310   16.6129   18.6442   22.0089
   4  1  -24.2502  -21.2718  -20.6629  -17.0312  -15.0926  -13.9717  -13.2039  -13.1601  -11.5499    8.0808
          11.0111   11.4612   11.5268   11.8039   14.7378   14.9433
   5  1  -24.3559  -20.9331  -18.5102  -17.0159  -15.9080  -14.6385  -10.7094  -10.1067   -9.9086    5.7998
           9.1869   10.8765   11.3310   16.6129   18.6442   22.0089
   6  1  -24.4172  -19.0856  -16.4114  -16.4113  -15.5185  -11.0798  -11.0798   -9.3346   -1.2830   -1.2827
           6.1172    6.1173    6.2241    6.2242   18.1436   21.0507
   7  1  -24.2604  -21.4431  -19.7322  -17.2174  -16.5705  -13.8139  -13.7035  -12.9759   -9.9149   -5.0537
          13.2559   13.6467   14.0654   14.4812   14.5454   17.5746
   8  1  -24.2502  -21.2718  -20.6629  -17.0312  -15.0926  -13.9717  -13.2039  -13.1601  -11.5499    8.0808
          11.0111   11.4612   11.5268   11.8039   14.7378   14.9433
   9  1  -24.2502  -21.2718  -20.6629  -17.0312  -15.0926  -13.9717  -13.2039  -13.1601  -11.5499    8.0808
          11.0111   11.4612   11.5268   11.8039   14.7378   14.9433
  10  1  -24.2604  -21.4431  -19.7322  -17.2174  -16.5705  -13.8139  -13.7035  -12.9759   -9.9149   -5.0537
          13.2559   13.6467   14.0654   14.4812   14.5454   17.5746
  11  1  -24.2502  -21.2718  -20.6629  -17.0312  -15.0926  -13.9717  -13.2039  -13.1601  -11.5499    8.0808
          11.0111   11.4612   11.5268   11.8039   14.7378   14.9433
  12  1  -24.2604  -21.4431  -19.7322  -17.2174  -16.5705  -13.8138  -13.7035  -12.9759   -9.9151   -5.0537
          13.2558   13.6467   14.0655   14.4812   14.5454   17.5745
  13  1  -24.3142  -21.2222  -20.5458  -20.1898  -19.9662  -19.6359  -12.6864  -11.9008  -11.3068   -2.5611
          12.5614   12.7901   13.0717   14.7228   14.8405   15.0481
  14  1  -24.3709  -21.1147  -19.9883  -18.5255  -17.1870  -16.9521  -12.1366  -11.7417  -11.2735   -3.9132
           2.6486   10.8268   10.9424   17.1124   18.3280   20.0271
  15  1  -24.3709  -21.1147  -19.9883  -18.5255  -17.1870  -16.9521  -12.1365  -11.7418  -11.2734   -3.9131
           2.6484   10.8268   10.9424   17.1124   18.3280   20.0271
  16  1  -24.3142  -21.2223  -20.5457  -20.1898  -19.9662  -19.6359  -12.6864  -11.9009  -11.3066   -2.5611
          12.5614   12.7901   13.0718   14.7228   14.8405   15.0481
  17  1  -24.3709  -21.1147  -19.9883  -18.5255  -17.1870  -16.9521  -12.1366  -11.7417  -11.2735   -3.9132
           2.6486   10.8268   10.9424   17.1124   18.3280   20.0271
  18  1  -24.4485  -21.0021  -16.3603  -16.3602  -15.6410  -13.8113  -10.0882  -10.0882   -1.5142   -1.5140
           9.1835    9.1836   10.9382   10.9382   18.2150   20.2631
  19  1  -24.3709  -21.1147  -19.9883  -18.5255  -17.1870  -16.9521  -12.1366  -11.7417  -11.2735   -3.9132
           2.6486   10.8268   10.9424   17.1124   18.3280   20.0271
  20  1  -24.2938  -21.3476  -20.4423  -20.0686  -18.3892  -17.4964  -13.4744  -12.5865  -10.8309   -7.2065
           0.3838   11.4786   13.1573   13.5461   13.8143   14.1580
  21  1  -24.3709  -21.1147  -19.9883  -18.5255  -17.1870  -16.9521  -12.1365  -11.7418  -11.2734   -3.9131
           2.6484   10.8268   10.9424   17.1124   18.3280   20.0271
  22  1  -24.3709  -21.1147  -19.9883  -18.5255  -17.1870  -16.9521  -12.1366  -11.7417  -11.2735   -3.9132
           2.6486   10.8268   10.9424   17.1124   18.3280   20.0271
  23  1  -24.3142  -21.2222  -20.5458  -20.1898  -19.9662  -19.6359  -12.6864  -11.9008  -11.3068   -2.5611
          12.5614   12.7901   13.0717   14.7228   14.8405   15.0481
  24  1  -24.3142  -21.2223  -20.5457  -20.1898  -19.9662  -19.6359  -12.6864  -11.9009  -11.3066   -2.5611
          12.5614   12.7901   13.0718   14.7228   14.8405   15.0481
  25  1  -24.3142  -21.2223  -20.5457  -20.1898  -19.9662  -19.6359  -12.6864  -11.9009  -11.3066   -2.5611
          12.5614   12.7901   13.0718   14.7228   14.8405   15.0481
  26  1  -24.2938  -21.3476  -20.4423  -20.0686  -18.3892  -17.4964  -13.4744  -12.5865  -10.8309   -7.2065
           0.3838   11.4786   13.1573   13.5461   13.8143   14.1580
  27  1  -24.3142  -21.2223  -20.5457  -20.1898  -19.9662  -19.6359  -12.6864  -11.9009  -11.3066   -2.5611
          12.5614   12.7901   13.0718   14.7228   14.8405   15.0481
  28  1  -24.2937  -21.3477  -20.4423  -20.0686  -18.3892  -17.4964  -13.4745  -12.5865  -10.8307   -7.2065
           0.3836   11.4786   13.1572   13.5462   13.8143   14.1580
  29  1  -24.3238  -21.1506  -21.0397  -20.6082  -20.5550  -20.4085  -11.8727  -11.7577  -11.3232   -4.3091
          14.5596   14.6492   14.7307   14.9001   15.1077   15.7473
  30  1  -24.3466  -21.4680  -20.6063  -19.9802  -17.6038  -14.6739  -14.5256  -14.5162  -11.3437   -3.2811
          -3.2153    8.7284   15.2172   15.3586   17.8260   17.8300
  31  1  -24.3466  -21.4680  -20.6064  -19.9802  -17.6038  -14.6739  -14.5255  -14.5161  -11.3435   -3.2811
          -3.2156    8.7285   15.2171   15.3586   17.8260   17.8300
  32  1  -24.3238  -21.1506  -21.0398  -20.6082  -20.5549  -20.4085  -11.8727  -11.7579  -11.3231   -4.3091
          14.5597   14.6492   14.7308   14.9001   15.1077   15.7473
  33  1  -24.3466  -21.4680  -20.6063  -19.9802  -17.6038  -14.6739  -14.5256  -14.5162  -11.3437   -3.2811
          -3.2153    8.7284   15.2172   15.3586   17.8260   17.8300
  34  1  -24.4325  -21.6906  -16.1071  -16.1070  -15.5604  -14.5561   -1.2266   -1.2266   -1.1600   -1.1599
          -0.9218   -0.9218   17.5856   17.5858   18.8260   18.8615
  35  1  -24.3466  -21.4680  -20.6063  -19.9802  -17.6038  -14.6739  -14.5256  -14.5162  -11.3437   -3.2811
          -3.2153    8.7284   15.2172   15.3586   17.8260   17.8300
  36  1  -24.2720  -21.2319  -21.0664  -21.0504  -18.0209  -15.8421  -15.5570  -15.3548  -10.5984   -5.5636
          -3.3510    7.5041   13.0506   13.1001   13.1086   13.8089
  37  1  -24.3466  -21.4680  -20.6064  -19.9802  -17.6038  -14.6739  -14.5255  -14.5161  -11.3435   -3.2811
          -3.2156    8.7285   15.2171   15.3586   17.8260   17.8300
  38  1  -24.3466  -21.4680  -20.6063  -19.9802  -17.6038  -14.6739  -14.5256  -14.5162  -11.3437   -3.2811
          -3.2153    8.7284   15.2172   15.3586   17.8260   17.8300
  39  1  -24.3238  -21.1506  -21.0397  -20.6082  -20.5550  -20.4085  -11.8727  -11.7577  -11.3232   -4.3091
          14.5596   14.6492   14.7307   14.9001   15.1077   15.7473
  40  1  -24.3238  -21.1506  -21.0398  -20.6082  -20.5549  -20.4085  -11.8727  -11.7579  -11.3231   -4.3091
          14.5597   14.6492   14.7308   14.9001   15.1077   15.7473
  41  1  -24.3238  -21.1506  -21.0398  -20.6082  -20.5549  -20.4085  -11.8727  -11.7579  -11.3231   -4.3091
          14.5597   14.6492   14.7308   14.9001   15.1077   15.7473
  42  1  -24.2720  -21.2319  -21.0664  -21.0504  -18.0209  -15.8421  -15.5570  -15.3548  -10.5984   -5.5636
          -3.3510    7.5041   13.0506   13.1001   13.1086   13.8089
  43  1  -24.3238  -21.1506  -21.0398  -20.6082  -20.5549  -20.4085  -11.8727  -11.7579  -11.3231   -4.3091
          14.5597   14.6492   14.7308   14.9001   15.1077   15.7473
  44  1  -24.2720  -21.2319  -21.0663  -21.0504  -18.0208  -15.8421  -15.5570  -15.3548  -10.5982   -5.5636
          -3.3513    7.5041   13.0506   13.1001   13.1086   13.8089
siesta: Fermi energy =     -11.315089 eV

siesta: Program's energy decomposition (eV):
siesta: Ebs     =      -288.310572
siesta: Eions   =       380.620085
siesta: Ena     =        82.212556
siesta: Ekin    =       272.837163
siesta: Enl     =        38.976539
siesta: Eso     =         0.000000
siesta: Edftu   =         0.000000
siesta: DEna    =       -27.627023
siesta: DUscf   =        11.085985
siesta: DUext   =         0.000000
siesta: Exc     =      -183.135523
siesta: eta*DQ  =         0.000000
siesta: Emadel  =         0.000000
siesta: Emeta   =         0.000000
siesta: Emolmec =        -8.824932
siesta: Ekinion =         0.000000
siesta: Eharris =      -195.095315
siesta: Etot    =      -195.095319
siesta: FreeEng =      -195.112305

siesta: Final energy (eV):
siesta:  Band Struct. =    -288.310572
siesta:       Kinetic =     272.837163
siesta:       Hartree =     100.716590
siesta:       Edftu   =       0.000000
siesta:       Eso     =       0.000000
siesta:    Ext. field =       0.000000
siesta:   Exch.-corr. =    -183.135523
siesta:  Ion-electron =    -566.124806
siesta:       Ion-ion =     189.436189
siesta:       Ekinion =       0.000000
siesta:         Total =    -195.095319
siesta:         Fermi =     -11.315089

siesta: Atomic forces (eV/Ang):
siesta:      1   -0.000000    0.000000    0.000000
siesta:      2   -0.952957    0.000129   -0.808112
siesta:      3    0.952957   -0.000129    0.808112
siesta:      4    0.476590   -0.825220   -0.808111
siesta:      5   -0.476590    0.825220    0.808111
siesta:      6    0.476605    0.825505   -0.808340
siesta:      7   -0.476605   -0.825505    0.808340
siesta:      8    0.952957   -0.000129   -0.808112
siesta:      9   -0.952957    0.000129    0.808112
siesta:     10   -0.476590    0.825220   -0.808111
siesta:     11    0.476590   -0.825220    0.808111
siesta:     12   -0.476605   -0.825505   -0.808340
siesta:     13    0.476605    0.825505    0.808340
siesta: ----------------------------------------
siesta:    Tot   -0.000000    0.000000    0.000000

siesta: Stress tensor (static) (eV/Ang**3):
siesta:    -1.745384   -0.000025   -0.000000
siesta:    -0.000025   -1.745414    0.000000
siesta:    -0.000000    0.000000   -0.392173

siesta: Cell volume =         70.924782 Ang**3

siesta: Pressure (static):
siesta:                Solid            Molecule  Units
siesta:           0.01409684          0.01312172  Ry/Bohr**3
siesta:           1.29432379          1.20479160  eV/Ang**3
siesta:        2073.75775599       1930.30981568  kBar
(Free)E+ p_basis*V_orbitals  =        -178.945691
(Free)Eharris+ p_basis*V_orbitals  =        -178.945687

cite: Please see "LiC12_scf.bib" for an exhaustive BiBTeX file.
cite: Please clearly indicate Siesta version in published work: 4.1.5
cite: This calculation has made use of the following articles
cite: which are encouraged to be cited in a published work.
        Primary SIESTA paper
          DOI: www.doi.org/10.1088/0953-8984/14/11/302

>> End of run:   9-NOV-2022  14:49:43
Job completed
