Siesta Version  : 4.1.5
Architecture    : x86_64-unknown-linux-gnu--unknown
Compiler version: GNU Fortran (GCC) 11.3.0
Compiler flags  : mpif90 -g -O2 -fallow-argument-mismatch
PP flags        : -DMPI -DFC_HAVE_FLUSH -DFC_HAVE_ABORT
Libraries       :  -I/global/software/sl-7.x86_64/modules/intel/2020.4.304/mkl/include  /globall/software/sl-7.x86_64/modules/intel/2020.4.304/mkl/lib/intel64/libmkl_scalapack_lp64.a -Wl,--start-group /global/software/sl-7.x86_64/modules/intel/2020.4.304/mkl/lib/intel64/libmkl_intel_lp64.a /global/software/sl-7.x86_64/modules/intel/2020.4.304/mkl/lib/intel64/libmkl_sequential.a /global/software/sl-7.x86_64/modules/intel/2020.4.304/mkl/lib/intel64/libmkl_core.a /global/software/sl-7.x86_64/modules/intel/2020.4.304/mkl/lib/intel64/libmkl_blacs_openmpi_lp64.a -Wl,--end-group -lpthread -lm -ldl
PARALLEL version

* Running on 4 nodes in parallel
>> Start of run:   9-NOV-2022  10:49:22

                           ***********************       
                           *  WELCOME TO SIESTA  *       
                           ***********************       

reinit: Reading from standard input
reinit: Dumped input in INPUT_TMP.30041
************************** Dump of input data file ****************************
SystemName LiC6_scf
SystemLabel LiC6_scf
NumberOfAtoms   7
NumberOfSpecies 2
%block ChemicalSpeciesLabel
1  3   Li-gga
2  6   C-gga
%endblock ChemicalSpeciesLabel
PAO.BasisSize  SZP
PAO.EnergyShift  10 meV
%block PS.Lmax
C-gga   2
Li-gga  2
%endblock PS.Lmax
LatticeConstant 1.000000 Ang
%block LatticeVectors
	4.3161300000	0.0000000000	0.0000000000
	-2.1580650000	3.7378782260	0.0000000000
	0.0000000000	0.0000000000	3.4038712000
%endblock LatticeVectors
AtomicCoordinatesFormat Ang
%block AtomicCoordinatesAndAtomicSpecies
	0.00000000	0.00000000	0.00000000	2
	-0.70288177	1.21742694	1.70193560	1
	-1.45518323	2.52045129	1.70193560	1
	1.45518323	2.52045129	1.70193560	1
	0.70288177	1.21742694	1.70193560	1
	1.40576354	0.00000000	1.70193560	1
	2.91036646	0.00000000	1.70193560	1
%endblock AtomicCoordinatesAndAtomicSpecies
Kgrid_NoTRS  T
%block kgrid_MonkhorstPack
2       0       0       0.0
0       2       0       0.0
0       0       2       0.0
%endblock kgrid_MonkhorstPack
AtomCoorFormatOut Ang
BlockSize 1
#ProcessorY 12
Diag.ParallelOverK   T
Diag.DivideAndConquer F
MeshCutoff   300 Ry
SCF.FreeE.Tolerance 1E-3 eV
SCF.EDM.Tolerance   5E-3 eV
DM.Tolerance  1E-3
DM.Require.Energy.Convergence T
DM.NumberPulay 4
XC.Functional GGA
XC.Authors    PBE
UseSaveData        F
MD.TypeOfRun       CG
MD.VariableCell    F
MD.NumCGsteps      00
MD.MaxCGDispl      0.200000 Bohr
MD.MaxStressTol    1.000000 GPa
MD.MaxForceTol     0.010000 eV/Ang
WriteMDHistory T
WriteCoorStep T
WriteForces T
WriteCoorStep    T
WriteEigenValues T
WriteDM    F
MM.UnitsDistance Ang  # what this program prints out DO NOT CHANGE
MM.UnitsEnergy    eV  # what this program prints out DO NOT CHANGE
MM.Grimme.S6     0.75 # Grimme-paper for PBE (correct for your functional)
MM.Grimme.D     20.   # Grimme-paper (correct for your functional)
%block MM.Potentials
  1   1 Grimme     16.69      1.650 # Li, 10.1002/jcc.20495
  1   2 Grimme     17.40      2.277 # Li / C
  2   2 Grimme     18.14      2.904 # C, 10.1002/jcc.20495
%endblock MM.Potentials
#%block ProjectedDensityOfStates
# -200.0  120.0  0.4  12800  eV
#%endblock ProjectedDensityOfStates
************************** End of input data file *****************************

reinit: -----------------------------------------------------------------------
reinit: System Name: LiC6_scf
reinit: -----------------------------------------------------------------------
reinit: System Label: LiC6_scf
reinit: -----------------------------------------------------------------------
Reading two-body potentials
Grimme - two-body potential between 1 and 1
Grimme - two-body potential between 1 and 2
Grimme - two-body potential between 2 and 2

initatom: Reading input for the pseudopotentials and atomic orbitals ----------
Species number:   1 Atomic number:    3 Label: Li-gga
Species number:   2 Atomic number:    6 Label: C-gga

Ground state valence configuration:   2s01
Reading pseudopotential information in formatted form from Li-gga.psf

Valence configuration for pseudopotential generation:
2s( 1.00) rc: 2.28
2p( 0.00) rc: 2.28
3d( 0.00) rc: 2.59
4f( 0.00) rc: 2.59
Ground state valence configuration:   2s02  2p02
Reading pseudopotential information in formatted form from C-gga.psf

Valence configuration for pseudopotential generation:
2s( 2.00) rc: 1.56
2p( 2.00) rc: 1.56
3d( 0.00) rc: 1.56
4f( 0.00) rc: 1.56
relmxkb: Read Max KB Ang. Momentum=    2 for species C-gga
relmxkb: Read Max KB Ang. Momentum=    2 for species Li-gga

<basis_specs>
===============================================================================
Li-gga               Z=   3    Mass=  6.9400        Charge= 0.17977+309
Lmxo=0 Lmxkb= 2    BasisType=split      Semic=F
L=0  Nsemic=0  Cnfigmx=2
          i=1  nzeta=1  polorb=1  (2s)
            splnorm:   0.15000    
               vcte:    0.0000    
               rinn:    0.0000    
               qcoe:    0.0000    
               qyuk:    0.0000    
               qwid:   0.10000E-01
                rcs:    0.0000    
            lambdas:    1.0000    
-------------------------------------------------------------------------------
L=0  Nkbl=1  erefs: 0.17977+309
L=1  Nkbl=1  erefs: 0.17977+309
L=2  Nkbl=1  erefs: 0.17977+309
===============================================================================
</basis_specs>

atom: Called for Li-gga                (Z =   3)

read_vps: Pseudopotential generation method:
read_vps: ATM 3.2.2 Troullier-Martins                       
Valence charge for ps generation:    1.00000

read_vps: Pseudopotential includes a core correction:
read_vps: Pseudo-core for xc-correction

xc_check: Exchange-correlation functional:
xc_check: GGA Perdew, Burke & Ernzerhof 1996
V l=0 = -2*Zval/r beyond r=  2.2278
V l=1 = -2*Zval/r beyond r=  2.2278
V l=2 = -2*Zval/r beyond r=  2.5245
All V_l potentials equal beyond r=  2.4622
This should be close to max(r_c) in ps generation
All pots = -2*Zval/r beyond r=  2.5245

VLOCAL1: 99.0% of the norm of Vloc inside      7.160 Ry
VLOCAL1: 99.9% of the norm of Vloc inside     16.318 Ry
atom: Maximum radius for 4*pi*r*r*local-pseudopot. charge    2.86079
atom: Maximum radius for r*vlocal+2*Zval:    2.43160
GHOST: No ghost state for L =  0
GHOST: No ghost state for L =  1
GHOST: No ghost state for L =  2

KBgen: Kleinman-Bylander projectors: 
   l= 0   rc=  2.654023   el= -0.211234   Ekb=  1.742119   kbcos=  0.228463
   l= 1   rc=  2.721230   el= -0.080095   Ekb= -1.122375   kbcos= -0.147941
   l= 2   rc=  2.825246   el=  0.002001   Ekb= -0.207076   kbcos= -0.031965

KBgen: Total number of Kleinman-Bylander projectors:    9
atom: -------------------------------------------------------------------------

atom: SANKEY-TYPE ORBITALS:

SPLIT: Orbitals with angular momentum L= 0

SPLIT: Basis orbitals for state 2s

SPLIT: PAO cut-off radius determined from an
SPLIT: energy shift=  0.000735 Ry

   izeta = 1
                 lambda =    1.000000
                     rc =   11.897381
                 energy =   -0.210580
                kinetic =    0.143382
    potential(screened) =   -0.353962
       potential(ionic) =   -0.533453

POLgen: Perturbative polarization orbital with L=  1

POLgen: Polarization orbital for state 2s

   izeta = 1
                     rc =   11.897381
                 energy =   -0.027011
                kinetic =    0.282985
    potential(screened) =   -0.309997
       potential(ionic) =   -0.490997
atom: Total number of Sankey-type orbitals:  4

atm_pop: Valence configuration (for local Pseudopot. screening):
 2s( 1.00)                                                            
Vna: chval, zval:    1.00000   1.00000

Vna:  Cut-off radius for the neutral-atom potential:  11.897381
comcore: Pseudo-core radius Rcore=  3.450946

atom: _________________________________________________________________________

<basis_specs>
===============================================================================
C-gga                Z=   6    Mass=  12.010        Charge= 0.17977+309
Lmxo=1 Lmxkb= 2    BasisType=split      Semic=F
L=0  Nsemic=0  Cnfigmx=2
          i=1  nzeta=1  polorb=0  (2s)
            splnorm:   0.15000    
               vcte:    0.0000    
               rinn:    0.0000    
               qcoe:    0.0000    
               qyuk:    0.0000    
               qwid:   0.10000E-01
                rcs:    0.0000    
            lambdas:    1.0000    
L=1  Nsemic=0  Cnfigmx=2
          i=1  nzeta=1  polorb=1  (2p)
            splnorm:   0.15000    
               vcte:    0.0000    
               rinn:    0.0000    
               qcoe:    0.0000    
               qyuk:    0.0000    
               qwid:   0.10000E-01
                rcs:    0.0000    
            lambdas:    1.0000    
-------------------------------------------------------------------------------
L=0  Nkbl=1  erefs: 0.17977+309
L=1  Nkbl=1  erefs: 0.17977+309
L=2  Nkbl=1  erefs: 0.17977+309
===============================================================================
</basis_specs>

atom: Called for C-gga                 (Z =   6)

read_vps: Pseudopotential generation method:
read_vps: ATM 3.2.2 Troullier-Martins                       
Valence charge for ps generation:    4.00000

xc_check: Exchange-correlation functional:
xc_check: GGA Perdew, Burke & Ernzerhof 1996
V l=0 = -2*Zval/r beyond r=  1.5227
V l=1 = -2*Zval/r beyond r=  1.5227
V l=2 = -2*Zval/r beyond r=  1.5227
All V_l potentials equal beyond r=  1.4851
This should be close to max(r_c) in ps generation
All pots = -2*Zval/r beyond r=  1.5227

VLOCAL1: 99.0% of the norm of Vloc inside     19.682 Ry
VLOCAL1: 99.9% of the norm of Vloc inside     44.856 Ry
atom: Maximum radius for 4*pi*r*r*local-pseudopot. charge    1.79142
atom: Maximum radius for r*vlocal+2*Zval:    1.54183
GHOST: No ghost state for L =  0
GHOST: No ghost state for L =  1
GHOST: No ghost state for L =  2

KBgen: Kleinman-Bylander projectors: 
   l= 0   rc=  1.661951   el= -1.010689   Ekb=  5.289847   kbcos=  0.316429
   l= 1   rc=  1.661951   el= -0.388490   Ekb= -4.102504   kbcos= -0.351025
   l= 2   rc=  1.747182   el=  0.001971   Ekb= -1.006005   kbcos= -0.008530

KBgen: Total number of Kleinman-Bylander projectors:    9
atom: -------------------------------------------------------------------------

atom: SANKEY-TYPE ORBITALS:

SPLIT: Orbitals with angular momentum L= 0

SPLIT: Basis orbitals for state 2s

SPLIT: PAO cut-off radius determined from an
SPLIT: energy shift=  0.000735 Ry

   izeta = 1
                 lambda =    1.000000
                     rc =    5.948690
                 energy =   -1.010099
                kinetic =    0.827121
    potential(screened) =   -1.837220
       potential(ionic) =   -5.392783

SPLIT: Orbitals with angular momentum L= 1

SPLIT: Basis orbitals for state 2p

SPLIT: PAO cut-off radius determined from an
SPLIT: energy shift=  0.000735 Ry

   izeta = 1
                 lambda =    1.000000
                     rc =    7.638387
                 energy =   -0.387843
                kinetic =    2.314739
    potential(screened) =   -2.702582
       potential(ionic) =   -6.092371

POLgen: Perturbative polarization orbital with L=  2

POLgen: Polarization orbital for state 2p

   izeta = 1
                     rc =    7.638387
                 energy =    0.921402
                kinetic =    1.955040
    potential(screened) =   -1.033637
       potential(ionic) =   -3.679558
atom: Total number of Sankey-type orbitals:  9

atm_pop: Valence configuration (for local Pseudopot. screening):
 2s( 2.00)                                                            
 2p( 2.00)                                                            
Vna: chval, zval:    4.00000   4.00000

Vna:  Cut-off radius for the neutral-atom potential:   7.638387

atom: _________________________________________________________________________

prinput: Basis input ----------------------------------------------------------

PAO.BasisType split     

%block ChemicalSpeciesLabel
    1    3 Li-gga                  # Species index, atomic number, species label
    2    6 C-gga                   # Species index, atomic number, species label
%endblock ChemicalSpeciesLabel

%block PAO.Basis                 # Define Basis set
Li-gga                1                    # Species label, number of l-shells
 n=2   0   1 P   1                   # n, l, Nzeta, Polarization, NzetaPol
  11.897   
   1.000   
C-gga                 2                    # Species label, number of l-shells
 n=2   0   1                         # n, l, Nzeta 
   5.949   
   1.000   
 n=2   1   1 P   1                   # n, l, Nzeta, Polarization, NzetaPol
   7.638   
   1.000   
%endblock PAO.Basis

prinput: ----------------------------------------------------------------------

coor:   Atomic-coordinates input format  =     Cartesian coordinates
coor:                                          (in Angstroms)

siesta: Atomic coordinates (Bohr) and species
siesta:      0.00000   0.00000   0.00000  2        1
siesta:     -1.32825   2.30060   3.21619  1        2
siesta:     -2.74990   4.76296   3.21619  1        3
siesta:      2.74990   4.76296   3.21619  1        4
siesta:      1.32825   2.30060   3.21619  1        5
siesta:      2.65651   0.00000   3.21619  1        6
siesta:      5.49980   0.00000   3.21619  1        7

siesta: System type = bulk      

initatomlists: Number of atoms, orbitals, and projectors:      7    33    63

siesta: ******************** Simulation parameters ****************************
siesta:
siesta: The following are some of the parameters of the simulation.
siesta: A complete list of the parameters used, including default values,
siesta: can be found in file out.fdf
siesta:
redata: Spin configuration                          = none
redata: Number of spin components                   = 1
redata: Time-Reversal Symmetry                      = T
redata: Spin spiral                                 = F
redata: Long output                                 =   F
redata: Number of Atomic Species                    =        2
redata: Charge density info will appear in .RHO file
redata: Write Mulliken Pop.                         = NO
redata: Matel table size (NRTAB)                    =     1024
redata: Mesh Cutoff                                 =   300.0000 Ry
redata: Net charge of the system                    =     0.0000 |e|
redata: Min. number of SCF Iter                     =        0
redata: Max. number of SCF Iter                     =     1000
redata: SCF convergence failure will abort job
redata: SCF mix quantity                            = Hamiltonian
redata: Mix DM or H after convergence               =   F
redata: Recompute H after scf cycle                 =   F
redata: Mix DM in first SCF step                    =   T
redata: Write Pulay info on disk                    =   F
redata: New DM Occupancy tolerance                  = 0.000000000001
redata: No kicks to SCF
redata: DM Mixing Weight for Kicks                  =     0.5000
redata: Require Harris convergence for SCF          =   F
redata: Harris energy tolerance for SCF             =     0.000100 eV
redata: Require DM convergence for SCF              =   T
redata: DM tolerance for SCF                        =     0.001000
redata: Require EDM convergence for SCF             =   F
redata: EDM tolerance for SCF                       =     0.005000 eV
redata: Require H convergence for SCF               =   T
redata: Hamiltonian tolerance for SCF               =     0.001000 eV
redata: Require (free) Energy convergence for SCF   =   T
redata: (free) Energy tolerance for SCF             =     0.001000 eV
redata: Using Saved Data (generic)                  =   F
redata: Use continuation files for DM               =   F
redata: Neglect nonoverlap interactions             =   F
redata: Method of Calculation                       = Diagonalization
redata: Electronic Temperature                      =   299.9869 K
redata: Fix the spin of the system                  =   F
redata: Dynamics option                             = Single-point calculation
mix.SCF: Pulay mixing                            = Pulay
mix.SCF:    Variant                              = stable
mix.SCF:    History steps                        = 4
mix.SCF:    Linear mixing weight                 =     0.250000
mix.SCF:    Mixing weight                        =     0.250000
mix.SCF:    SVD condition                        = 0.1000E-07
redata: ***********************************************************************

%block SCF.Mixers
  Pulay
%endblock SCF.Mixers

%block SCF.Mixer.Pulay
  # Mixing method
  method pulay
  variant stable

  # Mixing options
  weight 0.2500
  weight.linear 0.2500
  history 4
%endblock SCF.Mixer.Pulay

DM_history_depth set to one: no extrapolation allowed by default for geometry relaxation
Size of DM history Fstack: 1
Total number of electrons:    10.000000
Total ionic charge:    10.000000

* ProcessorY, Blocksize:    2   1


* Orbital distribution balance (max,min):     9     8

k-point displ. along   1 input, could be:     0.00    0.50
k-point displ. along   2 input, could be:     0.00    0.50
k-point displ. along   3 input, could be:     0.00    0.50
 Kpoints in:            8 . Kpoints trimmed:            8

siesta: k-grid: Number of k-points =     8
siesta: k-grid: Cutoff (effective) =     3.404 Ang
siesta: k-grid: Supercell and displacements
siesta: k-grid:    2   0   0      0.000
siesta: k-grid:    0   2   0      0.000
siesta: k-grid:    0   0   2      0.000

diag: Algorithm                                     = Expert
diag: Parallel over k                               =   T
diag: Use parallel 2D distribution                  =   T
diag: Parallel block-size                           = 1
diag: Parallel distribution                         =     2 x     2
diag: Used triangular part                          = Lower
diag: Absolute tolerance                            =  0.100E-15
diag: Orthogonalization factor                      =  0.100E-05
diag: Memory factor                                 =  1.0000

superc: Internal auxiliary supercell:     9 x     9 x     9  =     729
superc: Number of atoms, orbitals, and projectors:   5103  24057  45927


ts: **************************************************************
ts: Save H and S matrices                           =    F
ts: Save DM and EDM matrices                        =    F
ts: Only save the overlap matrix S                  =    F
ts: **************************************************************

************************ Begin: TS CHECKS AND WARNINGS ************************
************************ End: TS CHECKS AND WARNINGS **************************


                     ====================================
                        Single-point calculation
                     ====================================

outcoor: Atomic coordinates (Ang):                          
    0.00000000    0.00000000    0.00000000   2       1  C-gga
   -0.70288177    1.21742694    1.70193560   1       2  Li-gga
   -1.45518323    2.52045129    1.70193560   1       3  Li-gga
    1.45518323    2.52045129    1.70193560   1       4  Li-gga
    0.70288177    1.21742694    1.70193560   1       5  Li-gga
    1.40576354    0.00000000    1.70193560   1       6  Li-gga
    2.91036646    0.00000000    1.70193560   1       7  Li-gga

superc: Internal auxiliary supercell:     9 x     9 x     9  =     729
superc: Number of atoms, orbitals, and projectors:   5103  24057  45927

outcell: Unit cell vectors (Ang):
        4.316130    0.000000    0.000000
       -2.158065    3.737878    0.000000
        0.000000    0.000000    3.403871

outcell: Cell vector modules (Ang)   :    4.316130    4.316130    3.403871
outcell: Cell angles (23,13,12) (deg):     90.0000     90.0000    120.0000
outcell: Cell volume (Ang**3)        :     54.9152
<dSpData1D:S at geom step 0
  <sparsity:sparsity for geom step 0
    nrows_g=33 nrows=9 sparsity=50.9412 nnzs=55475, refcount: 7>
  <dData1D:(new from dSpData1D) n=55475, refcount: 1>
refcount: 1>
new_DM -- step:     1
Initializing Density Matrix...
DM filled with atomic data:
<dSpData2D:DM initialized from atoms
  <sparsity:sparsity for geom step 0
    nrows_g=33 nrows=9 sparsity=50.9412 nnzs=55475, refcount: 8>
  <dData2D:DM n=55475 m=1, refcount: 1>
refcount: 1>
No. of atoms with KB's overlaping orbs in proc 0. Max # of overlaps:     382     980
New grid distribution:   1
           1       1:   20    1:   10    1:    9
           2       1:   20    1:   10   10:   18
           3       1:   20   11:   20    1:    9
           4       1:   20   11:   20   10:   18

InitMesh: MESH =    40 x    40 x    36 =       57600
InitMesh: (bp) =    20 x    20 x    18 =        7200
InitMesh: Mesh cutoff (required, used) =   300.000   309.144 Ry
ExtMesh (bp) on 0 =   156 x   146 x   145 =     3302520
New grid distribution:   2
           1       1:   10    1:   10    1:   18
           2      11:   20    1:   10    1:   18
           3       1:   10   11:   20    1:   18
           4      11:   20   11:   20    1:   18
New grid distribution:   3
           1       1:   10    1:   10    1:   18
           2      11:   20    1:   10    1:   18
           3       1:   10   11:   20    1:   18
           4      11:   20   11:   20    1:   18
Setting up quadratic distribution...
ExtMesh (bp) on 0 =   146 x   146 x   154 =     3282664
PhiOnMesh: Number of (b)points on node 0 =                 1800
PhiOnMesh: nlist on node 0 =               928325

stepf: Fermi-Dirac step function

siesta: Program's energy decomposition (eV):
siesta: Ebs     =      -130.538614
siesta: Eions   =       321.344870
siesta: Ena     =        83.903996
siesta: Ekin    =       169.672805
siesta: Enl     =        -2.697276
siesta: Eso     =         0.000000
siesta: Edftu   =         0.000000
siesta: DEna    =       -11.346395
siesta: DUscf   =         7.344729
siesta: DUext   =         0.000000
siesta: Exc     =      -108.802401
siesta: eta*DQ  =         0.000000
siesta: Emadel  =         0.000000
siesta: Emeta   =         0.000000
siesta: Emolmec =        -3.317221
siesta: Ekinion =         0.000000
siesta: Eharris =      -169.704885
siesta: Etot    =      -186.586632
siesta: FreeEng =      -186.587926

        iscf     Eharris(eV)        E_KS(eV)     FreeEng(eV)     dDmax    Ef(eV) dHmax(eV)
   scf:    1     -169.704885     -186.586632     -186.587926  1.360015-12.625041  8.035055
timer: Routine,Calls,Time,% = IterSCF        1      11.802  58.26
   scf:    2     -192.312020     -190.242786     -190.244463  0.319385-13.095335  1.867302
   scf:    3     -182.981914     -188.446072     -188.453111  0.658915-13.063647  4.764147
   scf:    4     -187.921065     -190.154290     -190.155639  0.650391-13.101764  2.225063
   scf:    5     -190.555065     -190.377617     -190.387362  0.050709-13.153144  1.275543
   scf:    6     -190.510878     -190.450249     -190.465264  0.039125-13.151046  0.899809
   scf:    7     -189.793393     -190.355597     -190.372911  0.253530-13.153022  1.362317
   scf:    8     -189.794930     -190.383462     -190.392742  0.294617-13.141847  1.213261
   scf:    9     -190.196156     -190.294972     -190.297788  0.033371-13.138340  1.593603
   scf:   10     -189.369341     -190.291042     -190.306739  0.361676-13.180724  1.585709
   scf:   11     -189.212466     -190.250138     -190.251963  0.364439-13.158971  1.801884
   scf:   12     -190.385192     -190.320048     -190.325797  0.017208-13.165856  1.523732
   scf:   13     -189.261249     -190.255775     -190.271750  0.358917-13.183592  1.697260
   scf:   14     -190.517453     -190.525231     -190.546774  0.200913-13.157962  0.050849
   scf:   15     -190.448599     -190.501184     -190.523111  0.065277-13.162222  0.490701
   scf:   16     -190.495722     -190.521737     -190.542669  0.082349-13.159805  0.205082
   scf:   17     -190.526207     -190.524399     -190.545775  0.012709-13.165674  0.117817
   scf:   18     -190.524855     -190.525349     -190.547118  0.015033-13.165704  0.005555
   scf:   19     -190.525405     -190.525380     -190.547124  0.001170-13.165081  0.001231
   scf:   20     -190.525384     -190.525382     -190.547124  0.000177-13.165038  0.000233

SCF Convergence by FreeE+DM+H criterion
|FreeE_i-FreeE_(i-1)| (eV) <     0.00100000
max |DM_out - DM_in|         :     0.0001767685
max |H_out - H_in|      (eV) :     0.0002326237
SCF cycle converged after 20 iterations

Using DM_out to compute the final energy and forces
No. of atoms with KB's overlaping orbs in proc 0. Max # of overlaps:     382     980

MM-Stress (kbar):      -17.23      -17.23       -1.53        0.00       -0.00       -0.00

siesta: E_KS(eV) =             -190.5254

siesta: E_KS - E_eggbox =      -190.5254

siesta: Atomic forces (eV/Ang):
     1   -0.000000    0.000000    0.000000
     2    0.450840   -0.780716   -0.000000
     3   -0.450815    0.780730   -0.000000
     4    0.450705    0.780674   -0.000000
     5   -0.450731   -0.780659   -0.000000
     6   -0.901540    0.000052   -0.000000
     7    0.901540   -0.000081   -0.000000
----------------------------------------
   Tot   -0.000000   -0.000000    0.000000
----------------------------------------
   Max    0.901540
   Res    0.481875    sqrt( Sum f_i^2 / 3N )
----------------------------------------
   Max    0.901540    constrained

Stress tensor Voigt[x,y,z,yz,xz,xy] (kbar):    -1161.87    -1161.90      437.98        0.00       -0.00       -0.03
(Free)E + p*V (eV/cell)     -169.0019
Target enthalpy (eV/cell)     -190.5471

siesta: Eigenvalues (eV):
  ik is       eps
   1  1  -22.5708  -15.5976  -14.9935  -13.3447  -13.3446  -13.0290   -7.7369   -7.7369   -6.1663   -5.2090
          -0.5669   -0.5668    0.6636    0.6640    1.8236    1.8236   10.7047   12.8959   12.8961   16.6326
   16.6326   18.5674   18.5675   23.5814   31.4463   37.5507   37.5519   38.4358   38.4359   40.9346
   40.9351   44.1341   47.1173
   2  1  -22.5913  -16.6113  -14.5106  -14.3492  -13.7460  -10.7647   -8.3249   -6.5629   -5.2245   -4.0429
          -3.3477   -3.3130   -2.0732   -1.0985    3.1659    5.0216    7.9680    9.5736   10.3046   13.2826
   14.8600   17.5070   19.2607   20.2707   20.9875   22.0154   23.5079   25.4371   26.5309   45.5400
   46.1494   50.9105   54.5502
   3  1  -22.5913  -16.6113  -14.5106  -14.3492  -13.7460  -10.7647   -8.3249   -6.5629   -5.2245   -4.0429
          -3.3477   -3.3130   -2.0732   -1.0985    3.1659    5.0216    7.9680    9.5736   10.3046   13.2826
   14.8600   17.5070   19.2607   20.2707   20.9875   22.0154   23.5079   25.4371   26.5309   45.5400
   46.1494   50.9105   54.5502
   4  1  -22.5913  -16.6113  -14.5106  -14.3492  -13.7460  -10.7646   -8.3249   -6.5629   -5.2246   -4.0429
          -3.3476   -3.3130   -2.0732   -1.0985    3.1657    5.0219    7.9680    9.5738   10.3047   13.2828
   14.8599   17.5070   19.2607   20.2707   20.9872   22.0154   23.5081   25.4367   26.5308   45.5399
   46.1492   50.9106   54.5501
   5  1  -22.2548  -17.3563  -13.4151  -13.1634  -13.1633  -12.8056  -10.9989   -5.8425   -5.8424   -4.3968
          -4.3968   -4.3666   -4.3665   -0.4190    4.5498    4.5504   14.6140   14.6140   15.9122   21.3106
   21.3106   23.1066   24.9326   24.9336   27.0072   27.0073   28.1838   28.1839   43.4353   44.8568
   47.2788   69.2606   69.2608
   6  1  -21.8626  -17.5503  -15.8190  -13.7580  -13.4328  -13.1483   -9.9078   -6.2188   -5.5258   -2.1936
          -1.6600   -1.2372   -0.3141    0.6949    0.7242    1.0691    1.8399    5.0515   14.8268   15.5691
   18.7109   20.7157   22.0222   23.2495   24.8985   25.2638   25.5758   44.0112   47.8494   51.4904
   51.9566   58.8901   59.8412
   7  1  -21.8626  -17.5503  -15.8190  -13.7580  -13.4328  -13.1483   -9.9078   -6.2188   -5.5258   -2.1936
          -1.6600   -1.2372   -0.3141    0.6949    0.7242    1.0691    1.8399    5.0515   14.8268   15.5691
   18.7109   20.7157   22.0222   23.2495   24.8985   25.2638   25.5758   44.0112   47.8494   51.4904
   51.9567   58.8901   59.8412
   8  1  -21.8626  -17.5503  -15.8190  -13.7581  -13.4329  -13.1483   -9.9077   -6.2185   -5.5258   -2.1939
          -1.6601   -1.2372   -0.3141    0.6949    0.7242    1.0690    1.8399    5.0515   14.8266   15.5691
   18.7110   20.7157   22.0222   23.2502   24.8986   25.2638   25.5757   44.0101   47.8495   51.4903
   51.9565   58.8900   59.8413
siesta: Fermi energy =     -13.165038 eV

siesta: Program's energy decomposition (eV):
siesta: Ebs     =      -162.970602
siesta: Eions   =       321.344870
siesta: Ena     =        83.903996
siesta: Ekin    =       142.306784
siesta: Enl     =         5.780508
siesta: Eso     =         0.000000
siesta: Edftu   =         0.000000
siesta: DEna    =         3.798251
siesta: DUscf   =         1.212766
siesta: DUext   =         0.000000
siesta: Exc     =      -102.865596
siesta: eta*DQ  =         0.000000
siesta: Emadel  =         0.000000
siesta: Emeta   =         0.000000
siesta: Emolmec =        -3.317221
siesta: Ekinion =         0.000000
siesta: Eharris =      -190.525384
siesta: Etot    =      -190.525382
siesta: FreeEng =      -190.547124

siesta: Final energy (eV):
siesta:  Band Struct. =    -162.970602
siesta:       Kinetic =     142.306784
siesta:       Hartree =      52.001963
siesta:       Edftu   =       0.000000
siesta:       Eso     =       0.000000
siesta:    Ext. field =       0.000000
siesta:   Exch.-corr. =    -102.865596
siesta:  Ion-electron =    -295.278220
siesta:       Ion-ion =      16.626908
siesta:       Ekinion =       0.000000
siesta:         Total =    -190.525382
siesta:         Fermi =     -13.165038

siesta: Atomic forces (eV/Ang):
siesta:      1   -0.000000    0.000000    0.000000
siesta:      2    0.450840   -0.780716   -0.000000
siesta:      3   -0.450815    0.780730   -0.000000
siesta:      4    0.450705    0.780674   -0.000000
siesta:      5   -0.450731   -0.780659   -0.000000
siesta:      6   -0.901540    0.000052   -0.000000
siesta:      7    0.901540   -0.000081   -0.000000
siesta: ----------------------------------------
siesta:    Tot   -0.000000   -0.000000    0.000000

siesta: Stress tensor (static) (eV/Ang**3):
siesta:    -0.725174   -0.000018   -0.000000
siesta:    -0.000018   -0.725195    0.000000
siesta:    -0.000000    0.000000    0.273360

siesta: Cell volume =         54.915227 Ang**3

siesta: Pressure (static):
siesta:                Solid            Molecule  Units
siesta:           0.00427304          0.00400403  Ry/Bohr**3
siesta:           0.39233629          0.36763628  eV/Ang**3
siesta:         628.59883553        589.02461966  kBar
(Free)E+ p_basis*V_orbitals  =        -174.035199
(Free)Eharris+ p_basis*V_orbitals  =        -174.035201

cite: Please see "LiC6_scf.bib" for an exhaustive BiBTeX file.
cite: Please clearly indicate Siesta version in published work: 4.1.5
cite: This calculation has made use of the following articles
cite: which are encouraged to be cited in a published work.
        Primary SIESTA paper
          DOI: www.doi.org/10.1088/0953-8984/14/11/302

>> End of run:   9-NOV-2022  10:52:08
Job completed
