Siesta Version  : 4.1.5
Architecture    : x86_64-unknown-linux-gnu--unknown
Compiler version: GNU Fortran (GCC) 11.3.0
Compiler flags  : mpif90 -g -O2 -fallow-argument-mismatch
PP flags        : -DMPI -DFC_HAVE_FLUSH -DFC_HAVE_ABORT
Libraries       :  -I/global/software/sl-7.x86_64/modules/intel/2020.4.304/mkl/include  /globall/software/sl-7.x86_64/modules/intel/2020.4.304/mkl/lib/intel64/libmkl_scalapack_lp64.a -Wl,--start-group /global/software/sl-7.x86_64/modules/intel/2020.4.304/mkl/lib/intel64/libmkl_intel_lp64.a /global/software/sl-7.x86_64/modules/intel/2020.4.304/mkl/lib/intel64/libmkl_sequential.a /global/software/sl-7.x86_64/modules/intel/2020.4.304/mkl/lib/intel64/libmkl_core.a /global/software/sl-7.x86_64/modules/intel/2020.4.304/mkl/lib/intel64/libmkl_blacs_openmpi_lp64.a -Wl,--end-group -lpthread -lm -ldl
PARALLEL version

* Running on 4 nodes in parallel
>> Start of run:   9-NOV-2022  11:33:33

                           ***********************       
                           *  WELCOME TO SIESTA  *       
                           ***********************       

reinit: Reading from standard input
reinit: Dumped input in INPUT_TMP.80450
************************** Dump of input data file ****************************
SystemName LiC6_scf
SystemLabel LiC6_scf
NumberOfAtoms   7
NumberOfSpecies 2
%block ChemicalSpeciesLabel
1  3   Li-gga
2  6   C-gga
%endblock ChemicalSpeciesLabel
PAO.BasisSize  SZP
PAO.EnergyShift  10 meV
%block PS.Lmax
C-gga   2
Li-gga  2
%endblock PS.Lmax
LatticeConstant 1.000000 Ang
%block LatticeVectors
	4.3161300000	0.0000000000	0.0000000000
	-2.1580650000	3.7378782260	0.0000000000
	0.0000000000	0.0000000000	2.5899020000
%endblock LatticeVectors
AtomicCoordinatesFormat Ang
%block AtomicCoordinatesAndAtomicSpecies
	0.00000000	0.00000000	0.00000000	2
	-0.70288177	1.21742694	1.29495100	1
	-1.45518323	2.52045129	1.29495100	1
	1.45518323	2.52045129	1.29495100	1
	0.70288177	1.21742694	1.29495100	1
	1.40576354	0.00000000	1.29495100	1
	2.91036646	0.00000000	1.29495100	1
%endblock AtomicCoordinatesAndAtomicSpecies
Kgrid_NoTRS  T
%block kgrid_MonkhorstPack
2       0       0       0.0
0       2       0       0.0
0       0       2       0.0
%endblock kgrid_MonkhorstPack
AtomCoorFormatOut Ang
BlockSize 1
#ProcessorY 12
Diag.ParallelOverK   T
Diag.DivideAndConquer F
MeshCutoff   300 Ry
SCF.FreeE.Tolerance 1E-3 eV
SCF.EDM.Tolerance   5E-3 eV
DM.Tolerance  1E-3
DM.Require.Energy.Convergence T
DM.NumberPulay 4
XC.Functional GGA
XC.Authors    PBE
UseSaveData        F
MD.TypeOfRun       CG
MD.VariableCell    F
MD.NumCGsteps      00
MD.MaxCGDispl      0.200000 Bohr
MD.MaxStressTol    1.000000 GPa
MD.MaxForceTol     0.010000 eV/Ang
WriteMDHistory T
WriteCoorStep T
WriteForces T
WriteCoorStep    T
WriteEigenValues T
WriteDM    F
MM.UnitsDistance Ang  # what this program prints out DO NOT CHANGE
MM.UnitsEnergy    eV  # what this program prints out DO NOT CHANGE
MM.Grimme.S6     0.75 # Grimme-paper for PBE (correct for your functional)
MM.Grimme.D     20.   # Grimme-paper (correct for your functional)
%block MM.Potentials
  1   1 Grimme     16.69      1.650 # Li, 10.1002/jcc.20495
  1   2 Grimme     17.40      2.277 # Li / C
  2   2 Grimme     18.14      2.904 # C, 10.1002/jcc.20495
%endblock MM.Potentials
#%block ProjectedDensityOfStates
# -200.0  120.0  0.4  12800  eV
#%endblock ProjectedDensityOfStates
************************** End of input data file *****************************

reinit: -----------------------------------------------------------------------
reinit: System Name: LiC6_scf
reinit: -----------------------------------------------------------------------
reinit: System Label: LiC6_scf
reinit: -----------------------------------------------------------------------
Reading two-body potentials
Grimme - two-body potential between 1 and 1
Grimme - two-body potential between 1 and 2
Grimme - two-body potential between 2 and 2

initatom: Reading input for the pseudopotentials and atomic orbitals ----------
Species number:   1 Atomic number:    3 Label: Li-gga
Species number:   2 Atomic number:    6 Label: C-gga

Ground state valence configuration:   2s01
Reading pseudopotential information in formatted form from Li-gga.psf

Valence configuration for pseudopotential generation:
2s( 1.00) rc: 2.28
2p( 0.00) rc: 2.28
3d( 0.00) rc: 2.59
4f( 0.00) rc: 2.59
Ground state valence configuration:   2s02  2p02
Reading pseudopotential information in formatted form from C-gga.psf

Valence configuration for pseudopotential generation:
2s( 2.00) rc: 1.56
2p( 2.00) rc: 1.56
3d( 0.00) rc: 1.56
4f( 0.00) rc: 1.56
relmxkb: Read Max KB Ang. Momentum=    2 for species C-gga
relmxkb: Read Max KB Ang. Momentum=    2 for species Li-gga

<basis_specs>
===============================================================================
Li-gga               Z=   3    Mass=  6.9400        Charge= 0.17977+309
Lmxo=0 Lmxkb= 2    BasisType=split      Semic=F
L=0  Nsemic=0  Cnfigmx=2
          i=1  nzeta=1  polorb=1  (2s)
            splnorm:   0.15000    
               vcte:    0.0000    
               rinn:    0.0000    
               qcoe:    0.0000    
               qyuk:    0.0000    
               qwid:   0.10000E-01
                rcs:    0.0000    
            lambdas:    1.0000    
-------------------------------------------------------------------------------
L=0  Nkbl=1  erefs: 0.17977+309
L=1  Nkbl=1  erefs: 0.17977+309
L=2  Nkbl=1  erefs: 0.17977+309
===============================================================================
</basis_specs>

atom: Called for Li-gga                (Z =   3)

read_vps: Pseudopotential generation method:
read_vps: ATM 3.2.2 Troullier-Martins                       
Valence charge for ps generation:    1.00000

read_vps: Pseudopotential includes a core correction:
read_vps: Pseudo-core for xc-correction

xc_check: Exchange-correlation functional:
xc_check: GGA Perdew, Burke & Ernzerhof 1996
V l=0 = -2*Zval/r beyond r=  2.2278
V l=1 = -2*Zval/r beyond r=  2.2278
V l=2 = -2*Zval/r beyond r=  2.5245
All V_l potentials equal beyond r=  2.4622
This should be close to max(r_c) in ps generation
All pots = -2*Zval/r beyond r=  2.5245

VLOCAL1: 99.0% of the norm of Vloc inside      7.160 Ry
VLOCAL1: 99.9% of the norm of Vloc inside     16.318 Ry
atom: Maximum radius for 4*pi*r*r*local-pseudopot. charge    2.86079
atom: Maximum radius for r*vlocal+2*Zval:    2.43160
GHOST: No ghost state for L =  0
GHOST: No ghost state for L =  1
GHOST: No ghost state for L =  2

KBgen: Kleinman-Bylander projectors: 
   l= 0   rc=  2.654023   el= -0.211234   Ekb=  1.742119   kbcos=  0.228463
   l= 1   rc=  2.721230   el= -0.080095   Ekb= -1.122375   kbcos= -0.147941
   l= 2   rc=  2.825246   el=  0.002001   Ekb= -0.207076   kbcos= -0.031965

KBgen: Total number of Kleinman-Bylander projectors:    9
atom: -------------------------------------------------------------------------

atom: SANKEY-TYPE ORBITALS:

SPLIT: Orbitals with angular momentum L= 0

SPLIT: Basis orbitals for state 2s

SPLIT: PAO cut-off radius determined from an
SPLIT: energy shift=  0.000735 Ry

   izeta = 1
                 lambda =    1.000000
                     rc =   11.897381
                 energy =   -0.210580
                kinetic =    0.143382
    potential(screened) =   -0.353962
       potential(ionic) =   -0.533453

POLgen: Perturbative polarization orbital with L=  1

POLgen: Polarization orbital for state 2s

   izeta = 1
                     rc =   11.897381
                 energy =   -0.027011
                kinetic =    0.282985
    potential(screened) =   -0.309997
       potential(ionic) =   -0.490997
atom: Total number of Sankey-type orbitals:  4

atm_pop: Valence configuration (for local Pseudopot. screening):
 2s( 1.00)                                                            
Vna: chval, zval:    1.00000   1.00000

Vna:  Cut-off radius for the neutral-atom potential:  11.897381
comcore: Pseudo-core radius Rcore=  3.450946

atom: _________________________________________________________________________

<basis_specs>
===============================================================================
C-gga                Z=   6    Mass=  12.010        Charge= 0.17977+309
Lmxo=1 Lmxkb= 2    BasisType=split      Semic=F
L=0  Nsemic=0  Cnfigmx=2
          i=1  nzeta=1  polorb=0  (2s)
            splnorm:   0.15000    
               vcte:    0.0000    
               rinn:    0.0000    
               qcoe:    0.0000    
               qyuk:    0.0000    
               qwid:   0.10000E-01
                rcs:    0.0000    
            lambdas:    1.0000    
L=1  Nsemic=0  Cnfigmx=2
          i=1  nzeta=1  polorb=1  (2p)
            splnorm:   0.15000    
               vcte:    0.0000    
               rinn:    0.0000    
               qcoe:    0.0000    
               qyuk:    0.0000    
               qwid:   0.10000E-01
                rcs:    0.0000    
            lambdas:    1.0000    
-------------------------------------------------------------------------------
L=0  Nkbl=1  erefs: 0.17977+309
L=1  Nkbl=1  erefs: 0.17977+309
L=2  Nkbl=1  erefs: 0.17977+309
===============================================================================
</basis_specs>

atom: Called for C-gga                 (Z =   6)

read_vps: Pseudopotential generation method:
read_vps: ATM 3.2.2 Troullier-Martins                       
Valence charge for ps generation:    4.00000

xc_check: Exchange-correlation functional:
xc_check: GGA Perdew, Burke & Ernzerhof 1996
V l=0 = -2*Zval/r beyond r=  1.5227
V l=1 = -2*Zval/r beyond r=  1.5227
V l=2 = -2*Zval/r beyond r=  1.5227
All V_l potentials equal beyond r=  1.4851
This should be close to max(r_c) in ps generation
All pots = -2*Zval/r beyond r=  1.5227

VLOCAL1: 99.0% of the norm of Vloc inside     19.682 Ry
VLOCAL1: 99.9% of the norm of Vloc inside     44.856 Ry
atom: Maximum radius for 4*pi*r*r*local-pseudopot. charge    1.79142
atom: Maximum radius for r*vlocal+2*Zval:    1.54183
GHOST: No ghost state for L =  0
GHOST: No ghost state for L =  1
GHOST: No ghost state for L =  2

KBgen: Kleinman-Bylander projectors: 
   l= 0   rc=  1.661951   el= -1.010689   Ekb=  5.289847   kbcos=  0.316429
   l= 1   rc=  1.661951   el= -0.388490   Ekb= -4.102504   kbcos= -0.351025
   l= 2   rc=  1.747182   el=  0.001971   Ekb= -1.006005   kbcos= -0.008530

KBgen: Total number of Kleinman-Bylander projectors:    9
atom: -------------------------------------------------------------------------

atom: SANKEY-TYPE ORBITALS:

SPLIT: Orbitals with angular momentum L= 0

SPLIT: Basis orbitals for state 2s

SPLIT: PAO cut-off radius determined from an
SPLIT: energy shift=  0.000735 Ry

   izeta = 1
                 lambda =    1.000000
                     rc =    5.948690
                 energy =   -1.010099
                kinetic =    0.827121
    potential(screened) =   -1.837220
       potential(ionic) =   -5.392783

SPLIT: Orbitals with angular momentum L= 1

SPLIT: Basis orbitals for state 2p

SPLIT: PAO cut-off radius determined from an
SPLIT: energy shift=  0.000735 Ry

   izeta = 1
                 lambda =    1.000000
                     rc =    7.638387
                 energy =   -0.387843
                kinetic =    2.314739
    potential(screened) =   -2.702582
       potential(ionic) =   -6.092371

POLgen: Perturbative polarization orbital with L=  2

POLgen: Polarization orbital for state 2p

   izeta = 1
                     rc =    7.638387
                 energy =    0.921402
                kinetic =    1.955040
    potential(screened) =   -1.033637
       potential(ionic) =   -3.679558
atom: Total number of Sankey-type orbitals:  9

atm_pop: Valence configuration (for local Pseudopot. screening):
 2s( 2.00)                                                            
 2p( 2.00)                                                            
Vna: chval, zval:    4.00000   4.00000

Vna:  Cut-off radius for the neutral-atom potential:   7.638387

atom: _________________________________________________________________________

prinput: Basis input ----------------------------------------------------------

PAO.BasisType split     

%block ChemicalSpeciesLabel
    1    3 Li-gga                  # Species index, atomic number, species label
    2    6 C-gga                   # Species index, atomic number, species label
%endblock ChemicalSpeciesLabel

%block PAO.Basis                 # Define Basis set
Li-gga                1                    # Species label, number of l-shells
 n=2   0   1 P   1                   # n, l, Nzeta, Polarization, NzetaPol
  11.897   
   1.000   
C-gga                 2                    # Species label, number of l-shells
 n=2   0   1                         # n, l, Nzeta 
   5.949   
   1.000   
 n=2   1   1 P   1                   # n, l, Nzeta, Polarization, NzetaPol
   7.638   
   1.000   
%endblock PAO.Basis

prinput: ----------------------------------------------------------------------

coor:   Atomic-coordinates input format  =     Cartesian coordinates
coor:                                          (in Angstroms)

siesta: Atomic coordinates (Bohr) and species
siesta:      0.00000   0.00000   0.00000  2        1
siesta:     -1.32825   2.30060   2.44710  1        2
siesta:     -2.74990   4.76296   2.44710  1        3
siesta:      2.74990   4.76296   2.44710  1        4
siesta:      1.32825   2.30060   2.44710  1        5
siesta:      2.65651   0.00000   2.44710  1        6
siesta:      5.49980   0.00000   2.44710  1        7

siesta: System type = bulk      

initatomlists: Number of atoms, orbitals, and projectors:      7    33    63

siesta: ******************** Simulation parameters ****************************
siesta:
siesta: The following are some of the parameters of the simulation.
siesta: A complete list of the parameters used, including default values,
siesta: can be found in file out.fdf
siesta:
redata: Spin configuration                          = none
redata: Number of spin components                   = 1
redata: Time-Reversal Symmetry                      = T
redata: Spin spiral                                 = F
redata: Long output                                 =   F
redata: Number of Atomic Species                    =        2
redata: Charge density info will appear in .RHO file
redata: Write Mulliken Pop.                         = NO
redata: Matel table size (NRTAB)                    =     1024
redata: Mesh Cutoff                                 =   300.0000 Ry
redata: Net charge of the system                    =     0.0000 |e|
redata: Min. number of SCF Iter                     =        0
redata: Max. number of SCF Iter                     =     1000
redata: SCF convergence failure will abort job
redata: SCF mix quantity                            = Hamiltonian
redata: Mix DM or H after convergence               =   F
redata: Recompute H after scf cycle                 =   F
redata: Mix DM in first SCF step                    =   T
redata: Write Pulay info on disk                    =   F
redata: New DM Occupancy tolerance                  = 0.000000000001
redata: No kicks to SCF
redata: DM Mixing Weight for Kicks                  =     0.5000
redata: Require Harris convergence for SCF          =   F
redata: Harris energy tolerance for SCF             =     0.000100 eV
redata: Require DM convergence for SCF              =   T
redata: DM tolerance for SCF                        =     0.001000
redata: Require EDM convergence for SCF             =   F
redata: EDM tolerance for SCF                       =     0.005000 eV
redata: Require H convergence for SCF               =   T
redata: Hamiltonian tolerance for SCF               =     0.001000 eV
redata: Require (free) Energy convergence for SCF   =   T
redata: (free) Energy tolerance for SCF             =     0.001000 eV
redata: Using Saved Data (generic)                  =   F
redata: Use continuation files for DM               =   F
redata: Neglect nonoverlap interactions             =   F
redata: Method of Calculation                       = Diagonalization
redata: Electronic Temperature                      =   299.9869 K
redata: Fix the spin of the system                  =   F
redata: Dynamics option                             = Single-point calculation
mix.SCF: Pulay mixing                            = Pulay
mix.SCF:    Variant                              = stable
mix.SCF:    History steps                        = 4
mix.SCF:    Linear mixing weight                 =     0.250000
mix.SCF:    Mixing weight                        =     0.250000
mix.SCF:    SVD condition                        = 0.1000E-07
redata: ***********************************************************************

%block SCF.Mixers
  Pulay
%endblock SCF.Mixers

%block SCF.Mixer.Pulay
  # Mixing method
  method pulay
  variant stable

  # Mixing options
  weight 0.2500
  weight.linear 0.2500
  history 4
%endblock SCF.Mixer.Pulay

DM_history_depth set to one: no extrapolation allowed by default for geometry relaxation
Size of DM history Fstack: 1
Total number of electrons:    10.000000
Total ionic charge:    10.000000

* ProcessorY, Blocksize:    2   1


* Orbital distribution balance (max,min):     9     8

k-point displ. along   1 input, could be:     0.00    0.50
k-point displ. along   2 input, could be:     0.00    0.50
k-point displ. along   3 input, could be:     0.00    0.50
 Kpoints in:            8 . Kpoints trimmed:            8

siesta: k-grid: Number of k-points =     8
siesta: k-grid: Cutoff (effective) =     2.590 Ang
siesta: k-grid: Supercell and displacements
siesta: k-grid:    2   0   0      0.000
siesta: k-grid:    0   2   0      0.000
siesta: k-grid:    0   0   2      0.000

diag: Algorithm                                     = Expert
diag: Parallel over k                               =   T
diag: Use parallel 2D distribution                  =   T
diag: Parallel block-size                           = 1
diag: Parallel distribution                         =     2 x     2
diag: Used triangular part                          = Lower
diag: Absolute tolerance                            =  0.100E-15
diag: Orthogonalization factor                      =  0.100E-05
diag: Memory factor                                 =  1.0000

superc: Internal auxiliary supercell:     9 x     9 x    13  =    1053
superc: Number of atoms, orbitals, and projectors:   7371  34749  66339


ts: **************************************************************
ts: Save H and S matrices                           =    F
ts: Save DM and EDM matrices                        =    F
ts: Only save the overlap matrix S                  =    F
ts: **************************************************************

************************ Begin: TS CHECKS AND WARNINGS ************************
************************ End: TS CHECKS AND WARNINGS **************************


                     ====================================
                        Single-point calculation
                     ====================================

outcoor: Atomic coordinates (Ang):                          
    0.00000000    0.00000000    0.00000000   2       1  C-gga
   -0.70288177    1.21742694    1.29495100   1       2  Li-gga
   -1.45518323    2.52045129    1.29495100   1       3  Li-gga
    1.45518323    2.52045129    1.29495100   1       4  Li-gga
    0.70288177    1.21742694    1.29495100   1       5  Li-gga
    1.40576354    0.00000000    1.29495100   1       6  Li-gga
    2.91036646    0.00000000    1.29495100   1       7  Li-gga

superc: Internal auxiliary supercell:     9 x     9 x    13  =    1053
superc: Number of atoms, orbitals, and projectors:   7371  34749  66339

outcell: Unit cell vectors (Ang):
        4.316130    0.000000    0.000000
       -2.158065    3.737878    0.000000
        0.000000    0.000000    2.589902

outcell: Cell vector modules (Ang)   :    4.316130    4.316130    2.589902
outcell: Cell angles (23,13,12) (deg):     90.0000     90.0000    120.0000
outcell: Cell volume (Ang**3)        :     41.7833
<dSpData1D:S at geom step 0
  <sparsity:sparsity for geom step 0
    nrows_g=33 nrows=9 sparsity=67.6226 nnzs=73641, refcount: 7>
  <dData1D:(new from dSpData1D) n=73641, refcount: 1>
refcount: 1>
new_DM -- step:     1
Initializing Density Matrix...
DM filled with atomic data:
<dSpData2D:DM initialized from atoms
  <sparsity:sparsity for geom step 0
    nrows_g=33 nrows=9 sparsity=67.6226 nnzs=73641, refcount: 8>
  <dData2D:DM n=73641 m=1, refcount: 1>
refcount: 1>
No. of atoms with KB's overlaping orbs in proc 0. Max # of overlaps:     500    1270
New grid distribution:   1
           1       1:   20    1:   10    1:    8
           2       1:   20    1:   10    9:   15
           3       1:   20   11:   20    1:    8
           4       1:   20   11:   20    9:   15

InitMesh: MESH =    40 x    40 x    30 =       48000
InitMesh: (bp) =    20 x    20 x    15 =        6000
InitMesh: Mesh cutoff (required, used) =   300.000   316.498 Ry
ExtMesh (bp) on 0 =   156 x   146 x   156 =     3553056
New grid distribution:   2
           1       1:   10    1:   10    1:   15
           2      11:   20    1:   10    1:   15
           3       1:   10   11:   20    1:   15
           4      11:   20   11:   20    1:   15
New grid distribution:   3
           1       1:   10    1:   10    1:   15
           2      11:   20    1:   10    1:   15
           3       1:   10   11:   20    1:   15
           4      11:   20   11:   20    1:   15
Setting up quadratic distribution...
ExtMesh (bp) on 0 =   146 x   146 x   163 =     3474508
PhiOnMesh: Number of (b)points on node 0 =                 1500
PhiOnMesh: nlist on node 0 =              1015584

stepf: Fermi-Dirac step function

siesta: Program's energy decomposition (eV):
siesta: Ebs     =      -129.408068
siesta: Eions   =       321.344870
siesta: Ena     =        73.867761
siesta: Ekin    =       223.094730
siesta: Enl     =       -16.993445
siesta: Eso     =         0.000000
siesta: Edftu   =         0.000000
siesta: DEna    =       -36.309675
siesta: DUscf   =        23.378204
siesta: DUext   =         0.000000
siesta: Exc     =      -122.489919
siesta: eta*DQ  =         0.000000
siesta: Emadel  =         0.000000
siesta: Emeta   =         0.000000
siesta: Emolmec =        -3.791583
siesta: Ekinion =         0.000000
siesta: Eharris =      -140.621541
siesta: Etot    =      -180.588797
siesta: FreeEng =      -180.588798

        iscf     Eharris(eV)        E_KS(eV)     FreeEng(eV)     dDmax    Ef(eV) dHmax(eV)
   scf:    1     -140.621541     -180.588797     -180.588798  1.891663-16.502832 14.684902
timer: Routine,Calls,Time,% = IterSCF        1      17.187  59.28
   scf:    2     -198.300080     -191.428077     -191.440447  0.865330-15.214213  4.461019
   scf:    3     -183.505569     -190.687719     -190.696791  1.414691-14.850461  5.639571
   scf:    4     -192.961091     -191.942159     -191.955791  0.402889-14.706521  3.513669
   scf:    5     -189.492205     -190.811977     -190.825972  0.346016-14.867096  5.671072
   scf:    6     -180.782026     -190.093131     -190.093138  1.905414-15.449348  6.525772
   scf:    7     -190.303272     -190.198646     -190.198672  0.028435-15.405414  6.344060
   scf:    8     -192.157517     -192.792124     -192.811008  1.509406-14.664592  0.901757
   scf:    9     -187.348559     -191.174680     -191.186951  1.394137-15.118328  4.763572
   scf:   10     -190.311514     -190.753969     -190.758834  0.160451-15.173902  5.374055
   scf:   11     -192.653208     -191.782250     -191.794885  0.460882-15.001627  3.747305
   scf:   12     -192.137257     -191.963984     -191.977236  0.050112-14.764725  3.194450
   scf:   13     -133.716410     -174.419112     -174.419112  2.814629-15.275891 17.513101
   scf:   14     -198.663398     -188.461088     -188.486396  1.351262-14.788460  7.969304
   scf:   15     -194.194791     -192.791322     -192.810128  1.102568-14.672233  0.910790
   scf:   16     -190.995612     -192.077612     -192.093171  0.336123-14.703830  3.173575
   scf:   17     -167.998050     -182.394432     -182.394449  2.183896-14.819253 12.112273
   scf:   18     -190.074142     -192.520393     -192.544235  2.694897-14.726392  1.890917
   scf:   19     -189.601564     -192.053578     -192.068559  1.124210-14.749398  3.176775
   scf:   20     -191.537312     -191.803066     -191.817630  0.077169-14.800455  3.933271
   scf:   21     -189.904191     -192.298301     -192.318813  1.310053-14.754175  2.510744
   scf:   22     -191.463689     -191.907008     -191.919592  0.182923-14.844234  3.391422
   scf:   23     -192.768016     -192.840822     -192.864104  0.953372-14.732352  0.172869
   scf:   24     -192.440194     -192.717188     -192.742951  0.391458-14.742429  1.184311
   scf:   25     -192.284818     -192.523181     -192.546985  0.206315-14.759869  1.926684
   scf:   26     -192.569157     -192.814254     -192.834208  0.726006-14.750086  0.611027
   scf:   27     -192.849176     -192.834899     -192.856859  0.078400-14.747544  0.329471
   scf:   28     -192.834898     -192.841860     -192.865879  0.117973-14.745467  0.077675
   scf:   29     -192.842997     -192.842708     -192.866391  0.023547-14.745321  0.004515
   scf:   30     -192.842679     -192.842694     -192.866393  0.001310-14.744881  0.001440
   scf:   31     -192.842717     -192.842706     -192.866391  0.000994-14.744827  0.005005
   scf:   32     -192.842670     -192.842689     -192.866393  0.001338-14.744867  0.000313
   scf:   33     -192.842686     -192.842688     -192.866393  0.000122-14.744906  0.000127

SCF Convergence by FreeE+DM+H criterion
|FreeE_i-FreeE_(i-1)| (eV) <     0.00100000
max |DM_out - DM_in|         :     0.0001220650
max |H_out - H_in|      (eV) :     0.0001274649
SCF cycle converged after 33 iterations

Using DM_out to compute the final energy and forces
No. of atoms with KB's overlaping orbs in proc 0. Max # of overlaps:     500    1270

MM-Stress (kbar):       24.14       24.14      163.42        0.00       -0.00       -0.00

siesta: E_KS(eV) =             -192.8427

siesta: E_KS - E_eggbox =      -192.8427

siesta: Atomic forces (eV/Ang):
     1    0.000000    0.000000    0.000000
     2   -0.887412    1.536987   -0.000000
     3    0.887411   -1.536987   -0.000000
     4   -0.887371   -1.536974   -0.000000
     5    0.887372    1.536973   -0.000000
     6    1.774776   -0.000027   -0.000000
     7   -1.774776    0.000028   -0.000000
----------------------------------------
   Tot   -0.000000   -0.000000   -0.000000
----------------------------------------
   Max    1.774776
   Res    0.948652    sqrt( Sum f_i^2 / 3N )
----------------------------------------
   Max    1.774776    constrained

Stress tensor Voigt[x,y,z,yz,xz,xy] (kbar):    -1650.25    -1650.28      354.03        0.00       -0.00       -0.03
(Free)E + p*V (eV/cell)     -167.2526
Target enthalpy (eV/cell)     -192.8664

siesta: Eigenvalues (eV):
  ik is       eps
   1  1  -27.0670  -20.2526  -17.9742  -17.9740  -17.8156  -14.9769  -12.2217  -12.2217   -2.1039   -0.4486
          -0.3308   -0.3303    4.4860    4.4860    5.7462    5.7463    9.5312    9.5312   10.4635   19.4153
   19.4154   19.4820   19.4820   19.8147   32.7290   32.7306   37.7115   39.6897   40.4808   40.4820
   42.3815   46.9821   46.9824
   2  1  -27.4290  -20.9774  -19.0299  -18.2054  -15.4471  -14.6984   -9.7125   -9.2523   -6.3541   -4.6748
          -3.4054   -0.2525    2.6783    2.8695    4.8260    6.6734    9.5190   11.9064   16.2309   17.3013
   18.3097   18.6492   19.9981   23.9027   25.1982   26.1413   26.6581   27.3286   39.8946   45.1282
   47.9677   48.7527   49.2019
   3  1  -27.4290  -20.9774  -19.0299  -18.2054  -15.4471  -14.6984   -9.7125   -9.2523   -6.3541   -4.6748
          -3.4054   -0.2525    2.6783    2.8695    4.8260    6.6734    9.5190   11.9064   16.2309   17.3013
   18.3097   18.6492   19.9981   23.9027   25.1982   26.1413   26.6581   27.3286   39.8946   45.1282
   47.9677   48.7527   49.2019
   4  1  -27.4290  -20.9773  -19.0299  -18.2056  -15.4470  -14.6984   -9.7126   -9.2523   -6.3541   -4.6747
          -3.4054   -0.2525    2.6783    2.8695    4.8255    6.6734    9.5194   11.9069   16.2315   17.3012
   18.3097   18.6488   19.9982   23.9029   25.1977   26.1413   26.6578   27.3284   39.8946   45.1280
   47.9677   48.7528   49.2019
   5  1  -26.1836  -21.6011  -17.9115  -17.9113  -15.0168  -14.7654  -13.9942  -11.1022  -11.1022   -4.7654
          -4.7654   -4.7017   -4.7017    2.0902    2.0910    7.0661   20.5932   20.5944   21.1379   23.4694
   23.4696   26.5590   27.6033   27.6033   31.0955   31.0956   33.2502   33.2503   40.7552   42.8266
   47.3011   87.0025   87.0029
   6  1  -25.6362  -21.7098  -20.7228  -18.5637  -14.7224  -14.4096  -14.3487   -9.6507   -6.0584   -5.3109
          -2.4233   -2.3453   -0.6912   -0.5105   -0.0770    0.5769    1.5164    7.2126   13.7723   16.8550
   19.0697   20.6271   24.2610   28.4427   30.9215   31.3438   34.3057   37.1856   53.6620   56.1017
   59.5486   72.2057   80.5318
   7  1  -25.6362  -21.7098  -20.7228  -18.5637  -14.7224  -14.4096  -14.3487   -9.6507   -6.0584   -5.3109
          -2.4233   -2.3453   -0.6912   -0.5105   -0.0770    0.5769    1.5164    7.2126   13.7723   16.8550
   19.0697   20.6271   24.2610   28.4427   30.9215   31.3438   34.3057   37.1856   53.6620   56.1017
   59.5486   72.2057   80.5318
   8  1  -25.6362  -21.7098  -20.7227  -18.5638  -14.7224  -14.4096  -14.3488   -9.6502   -6.0586   -5.3109
          -2.4233   -2.3453   -0.6912   -0.5105   -0.0770    0.5768    1.5164    7.2127   13.7718   16.8550
   19.0707   20.6271   24.2610   28.4427   30.9216   31.3436   34.3056   37.1844   53.6621   56.1016
   59.5488   72.2053   80.5322
siesta: Fermi energy =     -14.744906 eV

siesta: Program's energy decomposition (eV):
siesta: Ebs     =      -201.827828
siesta: Eions   =       321.344870
siesta: Ena     =        73.867761
siesta: Ekin    =       169.260178
siesta: Enl     =        -0.137412
siesta: Eso     =         0.000000
siesta: Edftu   =         0.000000
siesta: DEna    =        -2.533173
siesta: DUscf   =         3.061829
siesta: DUext   =         0.000000
siesta: Exc     =      -111.225416
siesta: eta*DQ  =         0.000000
siesta: Emadel  =         0.000000
siesta: Emeta   =         0.000000
siesta: Emolmec =        -3.791583
siesta: Ekinion =         0.000000
siesta: Eharris =      -192.842686
siesta: Etot    =      -192.842688
siesta: FreeEng =      -192.866393

siesta: Final energy (eV):
siesta:  Band Struct. =    -201.827828
siesta:       Kinetic =     169.260178
siesta:       Hartree =      64.920216
siesta:       Edftu   =       0.000000
siesta:       Eso     =       0.000000
siesta:    Ext. field =       0.000000
siesta:   Exch.-corr. =    -111.225416
siesta:  Ion-electron =    -376.151772
siesta:       Ion-ion =      64.145690
siesta:       Ekinion =       0.000000
siesta:         Total =    -192.842688
siesta:         Fermi =     -14.744906

siesta: Atomic forces (eV/Ang):
siesta:      1    0.000000    0.000000    0.000000
siesta:      2   -0.887412    1.536987   -0.000000
siesta:      3    0.887411   -1.536987   -0.000000
siesta:      4   -0.887371   -1.536974   -0.000000
siesta:      5    0.887372    1.536973   -0.000000
siesta:      6    1.774776   -0.000027   -0.000000
siesta:      7   -1.774776    0.000028   -0.000000
siesta: ----------------------------------------
siesta:    Tot   -0.000000   -0.000000   -0.000000

siesta: Stress tensor (static) (eV/Ang**3):
siesta:    -1.029993   -0.000018   -0.000000
siesta:    -0.000018   -1.030013    0.000000
siesta:    -0.000000    0.000000    0.220963

siesta: Cell volume =         41.783325 Ang**3

siesta: Pressure (static):
siesta:                Solid            Molecule  Units
siesta:           0.00667651          0.00737256  Ry/Bohr**3
siesta:           0.61301453          0.67692321  eV/Ang**3
siesta:         982.16816716       1084.56226788  kBar
(Free)E+ p_basis*V_orbitals  =        -176.354467
(Free)Eharris+ p_basis*V_orbitals  =        -176.354466

cite: Please see "LiC6_scf.bib" for an exhaustive BiBTeX file.
cite: Please clearly indicate Siesta version in published work: 4.1.5
cite: This calculation has made use of the following articles
cite: which are encouraged to be cited in a published work.
        Primary SIESTA paper
          DOI: www.doi.org/10.1088/0953-8984/14/11/302

>> End of run:   9-NOV-2022  11:39:49
Job completed
