Siesta Version  : 4.1.5
Architecture    : x86_64-unknown-linux-gnu--unknown
Compiler version: GNU Fortran (GCC) 11.3.0
Compiler flags  : mpif90 -g -O2 -fallow-argument-mismatch
PP flags        : -DMPI -DFC_HAVE_FLUSH -DFC_HAVE_ABORT
Libraries       :  -I/global/software/sl-7.x86_64/modules/intel/2020.4.304/mkl/include  /globall/software/sl-7.x86_64/modules/intel/2020.4.304/mkl/lib/intel64/libmkl_scalapack_lp64.a -Wl,--start-group /global/software/sl-7.x86_64/modules/intel/2020.4.304/mkl/lib/intel64/libmkl_intel_lp64.a /global/software/sl-7.x86_64/modules/intel/2020.4.304/mkl/lib/intel64/libmkl_sequential.a /global/software/sl-7.x86_64/modules/intel/2020.4.304/mkl/lib/intel64/libmkl_core.a /global/software/sl-7.x86_64/modules/intel/2020.4.304/mkl/lib/intel64/libmkl_blacs_openmpi_lp64.a -Wl,--end-group -lpthread -lm -ldl
PARALLEL version

* Running on 4 nodes in parallel
>> Start of run:   9-NOV-2022  12:36:13

                           ***********************       
                           *  WELCOME TO SIESTA  *       
                           ***********************       

reinit: Reading from standard input
reinit: Dumped input in INPUT_TMP.40328
************************** Dump of input data file ****************************
SystemName LiC6_scf
SystemLabel LiC6_scf
NumberOfAtoms   7
NumberOfSpecies 2
%block ChemicalSpeciesLabel
1  3   Li-gga
2  6   C-gga
%endblock ChemicalSpeciesLabel
PAO.BasisSize  SZP
PAO.EnergyShift  10 meV
%block PS.Lmax
C-gga   2
Li-gga  2
%endblock PS.Lmax
LatticeConstant 1.000000 Ang
%block LatticeVectors
	4.3161300000	0.0000000000	0.0000000000
	-2.1580650000	3.7378782260	0.0000000000
	0.0000000000	0.0000000000	5.2538012000
%endblock LatticeVectors
AtomicCoordinatesFormat Ang
%block AtomicCoordinatesAndAtomicSpecies
	0.00000000	0.00000000	0.00000000	2
	-0.70288177	1.21742694	2.62690060	1
	-1.45518323	2.52045129	2.62690060	1
	1.45518323	2.52045129	2.62690060	1
	0.70288177	1.21742694	2.62690060	1
	1.40576354	0.00000000	2.62690060	1
	2.91036646	0.00000000	2.62690060	1
%endblock AtomicCoordinatesAndAtomicSpecies
Kgrid_NoTRS  T
%block kgrid_MonkhorstPack
2       0       0       0.0
0       2       0       0.0
0       0       2       0.0
%endblock kgrid_MonkhorstPack
AtomCoorFormatOut Ang
BlockSize 1
#ProcessorY 12
Diag.ParallelOverK   T
Diag.DivideAndConquer F
MeshCutoff   300 Ry
SCF.FreeE.Tolerance 1E-3 eV
SCF.EDM.Tolerance   5E-3 eV
DM.Tolerance  1E-3
DM.Require.Energy.Convergence T
DM.NumberPulay 4
XC.Functional GGA
XC.Authors    PBE
UseSaveData        F
MD.TypeOfRun       CG
MD.VariableCell    F
MD.NumCGsteps      00
MD.MaxCGDispl      0.200000 Bohr
MD.MaxStressTol    1.000000 GPa
MD.MaxForceTol     0.010000 eV/Ang
WriteMDHistory T
WriteCoorStep T
WriteForces T
WriteCoorStep    T
WriteEigenValues T
WriteDM    F
MM.UnitsDistance Ang  # what this program prints out DO NOT CHANGE
MM.UnitsEnergy    eV  # what this program prints out DO NOT CHANGE
MM.Grimme.S6     0.75 # Grimme-paper for PBE (correct for your functional)
MM.Grimme.D     20.   # Grimme-paper (correct for your functional)
%block MM.Potentials
  1   1 Grimme     16.69      1.650 # Li, 10.1002/jcc.20495
  1   2 Grimme     17.40      2.277 # Li / C
  2   2 Grimme     18.14      2.904 # C, 10.1002/jcc.20495
%endblock MM.Potentials
#%block ProjectedDensityOfStates
# -200.0  120.0  0.4  12800  eV
#%endblock ProjectedDensityOfStates
************************** End of input data file *****************************

reinit: -----------------------------------------------------------------------
reinit: System Name: LiC6_scf
reinit: -----------------------------------------------------------------------
reinit: System Label: LiC6_scf
reinit: -----------------------------------------------------------------------
Reading two-body potentials
Grimme - two-body potential between 1 and 1
Grimme - two-body potential between 1 and 2
Grimme - two-body potential between 2 and 2

initatom: Reading input for the pseudopotentials and atomic orbitals ----------
Species number:   1 Atomic number:    3 Label: Li-gga
Species number:   2 Atomic number:    6 Label: C-gga

Ground state valence configuration:   2s01
Reading pseudopotential information in formatted form from Li-gga.psf

Valence configuration for pseudopotential generation:
2s( 1.00) rc: 2.28
2p( 0.00) rc: 2.28
3d( 0.00) rc: 2.59
4f( 0.00) rc: 2.59
Ground state valence configuration:   2s02  2p02
Reading pseudopotential information in formatted form from C-gga.psf

Valence configuration for pseudopotential generation:
2s( 2.00) rc: 1.56
2p( 2.00) rc: 1.56
3d( 0.00) rc: 1.56
4f( 0.00) rc: 1.56
relmxkb: Read Max KB Ang. Momentum=    2 for species C-gga
relmxkb: Read Max KB Ang. Momentum=    2 for species Li-gga

<basis_specs>
===============================================================================
Li-gga               Z=   3    Mass=  6.9400        Charge= 0.17977+309
Lmxo=0 Lmxkb= 2    BasisType=split      Semic=F
L=0  Nsemic=0  Cnfigmx=2
          i=1  nzeta=1  polorb=1  (2s)
            splnorm:   0.15000    
               vcte:    0.0000    
               rinn:    0.0000    
               qcoe:    0.0000    
               qyuk:    0.0000    
               qwid:   0.10000E-01
                rcs:    0.0000    
            lambdas:    1.0000    
-------------------------------------------------------------------------------
L=0  Nkbl=1  erefs: 0.17977+309
L=1  Nkbl=1  erefs: 0.17977+309
L=2  Nkbl=1  erefs: 0.17977+309
===============================================================================
</basis_specs>

atom: Called for Li-gga                (Z =   3)

read_vps: Pseudopotential generation method:
read_vps: ATM 3.2.2 Troullier-Martins                       
Valence charge for ps generation:    1.00000

read_vps: Pseudopotential includes a core correction:
read_vps: Pseudo-core for xc-correction

xc_check: Exchange-correlation functional:
xc_check: GGA Perdew, Burke & Ernzerhof 1996
V l=0 = -2*Zval/r beyond r=  2.2278
V l=1 = -2*Zval/r beyond r=  2.2278
V l=2 = -2*Zval/r beyond r=  2.5245
All V_l potentials equal beyond r=  2.4622
This should be close to max(r_c) in ps generation
All pots = -2*Zval/r beyond r=  2.5245

VLOCAL1: 99.0% of the norm of Vloc inside      7.160 Ry
VLOCAL1: 99.9% of the norm of Vloc inside     16.318 Ry
atom: Maximum radius for 4*pi*r*r*local-pseudopot. charge    2.86079
atom: Maximum radius for r*vlocal+2*Zval:    2.43160
GHOST: No ghost state for L =  0
GHOST: No ghost state for L =  1
GHOST: No ghost state for L =  2

KBgen: Kleinman-Bylander projectors: 
   l= 0   rc=  2.654023   el= -0.211234   Ekb=  1.742119   kbcos=  0.228463
   l= 1   rc=  2.721230   el= -0.080095   Ekb= -1.122375   kbcos= -0.147941
   l= 2   rc=  2.825246   el=  0.002001   Ekb= -0.207076   kbcos= -0.031965

KBgen: Total number of Kleinman-Bylander projectors:    9
atom: -------------------------------------------------------------------------

atom: SANKEY-TYPE ORBITALS:

SPLIT: Orbitals with angular momentum L= 0

SPLIT: Basis orbitals for state 2s

SPLIT: PAO cut-off radius determined from an
SPLIT: energy shift=  0.000735 Ry

   izeta = 1
                 lambda =    1.000000
                     rc =   11.897381
                 energy =   -0.210580
                kinetic =    0.143382
    potential(screened) =   -0.353962
       potential(ionic) =   -0.533453

POLgen: Perturbative polarization orbital with L=  1

POLgen: Polarization orbital for state 2s

   izeta = 1
                     rc =   11.897381
                 energy =   -0.027011
                kinetic =    0.282985
    potential(screened) =   -0.309997
       potential(ionic) =   -0.490997
atom: Total number of Sankey-type orbitals:  4

atm_pop: Valence configuration (for local Pseudopot. screening):
 2s( 1.00)                                                            
Vna: chval, zval:    1.00000   1.00000

Vna:  Cut-off radius for the neutral-atom potential:  11.897381
comcore: Pseudo-core radius Rcore=  3.450946

atom: _________________________________________________________________________

<basis_specs>
===============================================================================
C-gga                Z=   6    Mass=  12.010        Charge= 0.17977+309
Lmxo=1 Lmxkb= 2    BasisType=split      Semic=F
L=0  Nsemic=0  Cnfigmx=2
          i=1  nzeta=1  polorb=0  (2s)
            splnorm:   0.15000    
               vcte:    0.0000    
               rinn:    0.0000    
               qcoe:    0.0000    
               qyuk:    0.0000    
               qwid:   0.10000E-01
                rcs:    0.0000    
            lambdas:    1.0000    
L=1  Nsemic=0  Cnfigmx=2
          i=1  nzeta=1  polorb=1  (2p)
            splnorm:   0.15000    
               vcte:    0.0000    
               rinn:    0.0000    
               qcoe:    0.0000    
               qyuk:    0.0000    
               qwid:   0.10000E-01
                rcs:    0.0000    
            lambdas:    1.0000    
-------------------------------------------------------------------------------
L=0  Nkbl=1  erefs: 0.17977+309
L=1  Nkbl=1  erefs: 0.17977+309
L=2  Nkbl=1  erefs: 0.17977+309
===============================================================================
</basis_specs>

atom: Called for C-gga                 (Z =   6)

read_vps: Pseudopotential generation method:
read_vps: ATM 3.2.2 Troullier-Martins                       
Valence charge for ps generation:    4.00000

xc_check: Exchange-correlation functional:
xc_check: GGA Perdew, Burke & Ernzerhof 1996
V l=0 = -2*Zval/r beyond r=  1.5227
V l=1 = -2*Zval/r beyond r=  1.5227
V l=2 = -2*Zval/r beyond r=  1.5227
All V_l potentials equal beyond r=  1.4851
This should be close to max(r_c) in ps generation
All pots = -2*Zval/r beyond r=  1.5227

VLOCAL1: 99.0% of the norm of Vloc inside     19.682 Ry
VLOCAL1: 99.9% of the norm of Vloc inside     44.856 Ry
atom: Maximum radius for 4*pi*r*r*local-pseudopot. charge    1.79142
atom: Maximum radius for r*vlocal+2*Zval:    1.54183
GHOST: No ghost state for L =  0
GHOST: No ghost state for L =  1
GHOST: No ghost state for L =  2

KBgen: Kleinman-Bylander projectors: 
   l= 0   rc=  1.661951   el= -1.010689   Ekb=  5.289847   kbcos=  0.316429
   l= 1   rc=  1.661951   el= -0.388490   Ekb= -4.102504   kbcos= -0.351025
   l= 2   rc=  1.747182   el=  0.001971   Ekb= -1.006005   kbcos= -0.008530

KBgen: Total number of Kleinman-Bylander projectors:    9
atom: -------------------------------------------------------------------------

atom: SANKEY-TYPE ORBITALS:

SPLIT: Orbitals with angular momentum L= 0

SPLIT: Basis orbitals for state 2s

SPLIT: PAO cut-off radius determined from an
SPLIT: energy shift=  0.000735 Ry

   izeta = 1
                 lambda =    1.000000
                     rc =    5.948690
                 energy =   -1.010099
                kinetic =    0.827121
    potential(screened) =   -1.837220
       potential(ionic) =   -5.392783

SPLIT: Orbitals with angular momentum L= 1

SPLIT: Basis orbitals for state 2p

SPLIT: PAO cut-off radius determined from an
SPLIT: energy shift=  0.000735 Ry

   izeta = 1
                 lambda =    1.000000
                     rc =    7.638387
                 energy =   -0.387843
                kinetic =    2.314739
    potential(screened) =   -2.702582
       potential(ionic) =   -6.092371

POLgen: Perturbative polarization orbital with L=  2

POLgen: Polarization orbital for state 2p

   izeta = 1
                     rc =    7.638387
                 energy =    0.921402
                kinetic =    1.955040
    potential(screened) =   -1.033637
       potential(ionic) =   -3.679558
atom: Total number of Sankey-type orbitals:  9

atm_pop: Valence configuration (for local Pseudopot. screening):
 2s( 2.00)                                                            
 2p( 2.00)                                                            
Vna: chval, zval:    4.00000   4.00000

Vna:  Cut-off radius for the neutral-atom potential:   7.638387

atom: _________________________________________________________________________

prinput: Basis input ----------------------------------------------------------

PAO.BasisType split     

%block ChemicalSpeciesLabel
    1    3 Li-gga                  # Species index, atomic number, species label
    2    6 C-gga                   # Species index, atomic number, species label
%endblock ChemicalSpeciesLabel

%block PAO.Basis                 # Define Basis set
Li-gga                1                    # Species label, number of l-shells
 n=2   0   1 P   1                   # n, l, Nzeta, Polarization, NzetaPol
  11.897   
   1.000   
C-gga                 2                    # Species label, number of l-shells
 n=2   0   1                         # n, l, Nzeta 
   5.949   
   1.000   
 n=2   1   1 P   1                   # n, l, Nzeta, Polarization, NzetaPol
   7.638   
   1.000   
%endblock PAO.Basis

prinput: ----------------------------------------------------------------------

coor:   Atomic-coordinates input format  =     Cartesian coordinates
coor:                                          (in Angstroms)

siesta: Atomic coordinates (Bohr) and species
siesta:      0.00000   0.00000   0.00000  2        1
siesta:     -1.32825   2.30060   4.96412  1        2
siesta:     -2.74990   4.76296   4.96412  1        3
siesta:      2.74990   4.76296   4.96412  1        4
siesta:      1.32825   2.30060   4.96412  1        5
siesta:      2.65651   0.00000   4.96412  1        6
siesta:      5.49980   0.00000   4.96412  1        7

siesta: System type = bulk      

initatomlists: Number of atoms, orbitals, and projectors:      7    33    63

siesta: ******************** Simulation parameters ****************************
siesta:
siesta: The following are some of the parameters of the simulation.
siesta: A complete list of the parameters used, including default values,
siesta: can be found in file out.fdf
siesta:
redata: Spin configuration                          = none
redata: Number of spin components                   = 1
redata: Time-Reversal Symmetry                      = T
redata: Spin spiral                                 = F
redata: Long output                                 =   F
redata: Number of Atomic Species                    =        2
redata: Charge density info will appear in .RHO file
redata: Write Mulliken Pop.                         = NO
redata: Matel table size (NRTAB)                    =     1024
redata: Mesh Cutoff                                 =   300.0000 Ry
redata: Net charge of the system                    =     0.0000 |e|
redata: Min. number of SCF Iter                     =        0
redata: Max. number of SCF Iter                     =     1000
redata: SCF convergence failure will abort job
redata: SCF mix quantity                            = Hamiltonian
redata: Mix DM or H after convergence               =   F
redata: Recompute H after scf cycle                 =   F
redata: Mix DM in first SCF step                    =   T
redata: Write Pulay info on disk                    =   F
redata: New DM Occupancy tolerance                  = 0.000000000001
redata: No kicks to SCF
redata: DM Mixing Weight for Kicks                  =     0.5000
redata: Require Harris convergence for SCF          =   F
redata: Harris energy tolerance for SCF             =     0.000100 eV
redata: Require DM convergence for SCF              =   T
redata: DM tolerance for SCF                        =     0.001000
redata: Require EDM convergence for SCF             =   F
redata: EDM tolerance for SCF                       =     0.005000 eV
redata: Require H convergence for SCF               =   T
redata: Hamiltonian tolerance for SCF               =     0.001000 eV
redata: Require (free) Energy convergence for SCF   =   T
redata: (free) Energy tolerance for SCF             =     0.001000 eV
redata: Using Saved Data (generic)                  =   F
redata: Use continuation files for DM               =   F
redata: Neglect nonoverlap interactions             =   F
redata: Method of Calculation                       = Diagonalization
redata: Electronic Temperature                      =   299.9869 K
redata: Fix the spin of the system                  =   F
redata: Dynamics option                             = Single-point calculation
mix.SCF: Pulay mixing                            = Pulay
mix.SCF:    Variant                              = stable
mix.SCF:    History steps                        = 4
mix.SCF:    Linear mixing weight                 =     0.250000
mix.SCF:    Mixing weight                        =     0.250000
mix.SCF:    SVD condition                        = 0.1000E-07
redata: ***********************************************************************

%block SCF.Mixers
  Pulay
%endblock SCF.Mixers

%block SCF.Mixer.Pulay
  # Mixing method
  method pulay
  variant stable

  # Mixing options
  weight 0.2500
  weight.linear 0.2500
  history 4
%endblock SCF.Mixer.Pulay

DM_history_depth set to one: no extrapolation allowed by default for geometry relaxation
Size of DM history Fstack: 1
Total number of electrons:    10.000000
Total ionic charge:    10.000000

* ProcessorY, Blocksize:    2   1


* Orbital distribution balance (max,min):     9     8

k-point displ. along   1 input, could be:     0.00    0.50
k-point displ. along   2 input, could be:     0.00    0.50
k-point displ. along   3 input, could be:     0.00    0.50
 Kpoints in:            8 . Kpoints trimmed:            8

siesta: k-grid: Number of k-points =     8
siesta: k-grid: Cutoff (effective) =     4.316 Ang
siesta: k-grid: Supercell and displacements
siesta: k-grid:    2   0   0      0.000
siesta: k-grid:    0   2   0      0.000
siesta: k-grid:    0   0   2      0.000

diag: Algorithm                                     = Expert
diag: Parallel over k                               =   T
diag: Use parallel 2D distribution                  =   T
diag: Parallel block-size                           = 1
diag: Parallel distribution                         =     2 x     2
diag: Used triangular part                          = Lower
diag: Absolute tolerance                            =  0.100E-15
diag: Orthogonalization factor                      =  0.100E-05
diag: Memory factor                                 =  1.0000

superc: Internal auxiliary supercell:     9 x     9 x     5  =     405
superc: Number of atoms, orbitals, and projectors:   2835  13365  25515


ts: **************************************************************
ts: Save H and S matrices                           =    F
ts: Save DM and EDM matrices                        =    F
ts: Only save the overlap matrix S                  =    F
ts: **************************************************************

************************ Begin: TS CHECKS AND WARNINGS ************************
************************ End: TS CHECKS AND WARNINGS **************************


                     ====================================
                        Single-point calculation
                     ====================================

outcoor: Atomic coordinates (Ang):                          
    0.00000000    0.00000000    0.00000000   2       1  C-gga
   -0.70288177    1.21742694    2.62690060   1       2  Li-gga
   -1.45518323    2.52045129    2.62690060   1       3  Li-gga
    1.45518323    2.52045129    2.62690060   1       4  Li-gga
    0.70288177    1.21742694    2.62690060   1       5  Li-gga
    1.40576354    0.00000000    2.62690060   1       6  Li-gga
    2.91036646    0.00000000    2.62690060   1       7  Li-gga

superc: Internal auxiliary supercell:     9 x     9 x     5  =     405
superc: Number of atoms, orbitals, and projectors:   2835  13365  25515

outcell: Unit cell vectors (Ang):
        4.316130    0.000000    0.000000
       -2.158065    3.737878    0.000000
        0.000000    0.000000    5.253801

outcell: Cell vector modules (Ang)   :    4.316130    4.316130    5.253801
outcell: Cell angles (23,13,12) (deg):     90.0000     90.0000    120.0000
outcell: Cell volume (Ang**3)        :     84.7605
<dSpData1D:S at geom step 0
  <sparsity:sparsity for geom step 0
    nrows_g=33 nrows=9 sparsity=31.5675 nnzs=34377, refcount: 7>
  <dData1D:(new from dSpData1D) n=34377, refcount: 1>
refcount: 1>
new_DM -- step:     1
Initializing Density Matrix...
DM filled with atomic data:
<dSpData2D:DM initialized from atoms
  <sparsity:sparsity for geom step 0
    nrows_g=33 nrows=9 sparsity=31.5675 nnzs=34377, refcount: 8>
  <dData2D:DM n=34377 m=1, refcount: 1>
refcount: 1>
No. of atoms with KB's overlaping orbs in proc 0. Max # of overlaps:     268     676
New grid distribution:   1
           1       1:   20    1:   10    1:   15
           2       1:   20    1:   10   16:   30
           3       1:   20   11:   20    1:   15
           4       1:   20   11:   20   16:   30

InitMesh: MESH =    40 x    40 x    60 =       96000
InitMesh: (bp) =    20 x    20 x    30 =       12000
InitMesh: Mesh cutoff (required, used) =   300.000   316.498 Ry
ExtMesh (bp) on 0 =   156 x   146 x   159 =     3621384
New grid distribution:   2
           1       1:   20    1:   10    1:   15
           2       1:   20    1:   10   16:   30
           3       1:   20   11:   20    1:   15
           4       1:   20   11:   20   16:   30
New grid distribution:   3
           1       1:   20    1:   10    1:   15
           2       1:   20    1:   10   16:   30
           3       1:   20   11:   20    1:   15
           4       1:   20   11:   20   16:   30
Setting up quadratic distribution...
ExtMesh (bp) on 0 =   156 x   146 x   159 =     3621384
PhiOnMesh: Number of (b)points on node 0 =                 3000
PhiOnMesh: nlist on node 0 =              1007940

stepf: Fermi-Dirac step function

siesta: Program's energy decomposition (eV):
siesta: Ebs     =      -137.026871
siesta: Eions   =       321.344870
siesta: Ena     =        95.415231
siesta: Ekin    =        88.893398
siesta: Enl     =        26.334008
siesta: Eso     =         0.000000
siesta: Edftu   =         0.000000
siesta: DEna    =        15.859284
siesta: DUscf   =        11.186026
siesta: DUext   =         0.000000
siesta: Exc     =       -88.944916
siesta: eta*DQ  =         0.000000
siesta: Emadel  =         0.000000
siesta: Emeta   =         0.000000
siesta: Emolmec =        -2.644182
siesta: Ekinion =         0.000000
siesta: Eharris =      -157.449959
siesta: Etot    =      -175.246023
siesta: FreeEng =      -175.258428

        iscf     Eharris(eV)        E_KS(eV)     FreeEng(eV)     dDmax    Ef(eV) dHmax(eV)
   scf:    1     -157.449959     -175.246023     -175.258428  1.689833 -8.344008 10.007248
timer: Routine,Calls,Time,% = IterSCF        1       7.852  56.61
   scf:    2     -181.839915     -181.444641     -181.467707  0.400102-10.051934  1.122056
   scf:    3     -181.066608     -181.383333     -181.406473  0.095807 -9.905189  1.045411
   scf:    4     -156.385534     -173.524903     -173.544501  0.681858-10.309550  9.864208
   scf:    5     -173.761269     -180.432176     -180.447503  0.777838 -9.340767  4.005513
   scf:    6     -180.584884     -180.509084     -180.524564  0.008834 -9.381782  3.852688
   scf:    7     -181.466042     -181.025988     -181.042377  0.067370 -9.708784  2.515031
   scf:    8     -180.859298     -180.944042     -180.960187  0.013071 -9.648501  2.766605
   scf:    9     -164.260703     -176.630465     -176.645661  0.613659-10.201745  7.489490
   scf:   10     -182.772989     -180.506238     -180.538621  0.416131-10.148102  3.457446
   scf:   11     -181.804826     -181.474638     -181.498615  0.165769 -9.994074  0.541401
   scf:   12     -179.822284     -180.987017     -181.003256  0.152436 -9.678379  2.640052
   scf:   13     -181.133484     -181.061521     -181.078156  0.012942 -9.731777  2.406264
   scf:   14     -181.583598     -181.489254     -181.514540  0.113609 -9.857877  0.313102
   scf:   15     -172.334837     -178.445915     -178.477245  0.388238-10.165018  5.932949
   scf:   16     -177.477636     -180.883735     -180.899717  0.507002 -9.618465  2.911029
   scf:   17     -181.636165     -181.323788     -181.347683  0.064959 -9.788918  1.488465
   scf:   18     -180.793320     -181.084575     -181.102385  0.046074 -9.745205  2.312422
   scf:   19     -181.346369     -181.479834     -181.503554  0.137848 -9.973966  0.437687
   scf:   20     -122.495433     -161.141174     -161.157990  0.975903-10.406856 15.956016
   scf:   21     -185.447949     -175.424287     -175.431526  0.460224-10.205121  8.367014
   scf:   22     -181.558968     -181.486354     -181.510729  0.611851 -9.850099  0.251305
   scf:   23     -177.749646     -180.154301     -180.169128  0.183271 -9.205541  4.551403
   scf:   24     -181.612745     -180.952905     -180.969064  0.092482 -9.655663  2.744237
   scf:   25     -177.764591     -179.527740     -179.541625  0.142286 -8.943607  5.592485
   scf:   26     -170.447444     -178.945778     -178.980138  0.542617-10.161545  5.438340
   scf:   27     -177.971339     -180.950604     -180.966801  0.471930 -9.659660  2.759168
   scf:   28     -101.496431     -156.638685     -156.640132  1.240702-10.356113 17.608569
   scf:   29     -175.782980     -181.083088     -181.099779  1.228876 -9.756768  2.334406
   scf:   30     -181.417919     -181.490950     -181.514489  0.136595 -9.929970  0.250225
   scf:   31     -147.726879     -169.866701     -169.899956  0.734642-10.228669 11.875195
   scf:   32     -181.127180     -181.465321     -181.490984  0.775297 -9.841554  0.633873
   scf:   33     -163.239009     -175.512564     -175.526894  0.684483-10.142258  7.944381
   scf:   34     -178.501574     -181.173382     -181.192650  0.698233 -9.780415  2.041970
   scf:   35     -181.531166     -181.491987     -181.516597  0.106696 -9.868030  0.176787
   scf:   36     -181.490673     -181.492979     -181.516710  0.010143 -9.894145  0.136270
   scf:   37     -181.494202     -181.493595     -181.517434  0.004115 -9.897083  0.125592
   scf:   38     -180.574909     -181.197653     -181.215230  0.140806 -9.886385  1.903380
   scf:   39     -181.335972     -181.269196     -181.289008  0.013122 -9.909372  1.633616
   scf:   40     -181.337376     -181.304008     -181.325220  0.009072 -9.909962  1.507226
   scf:   41     -181.324858     -181.476475     -181.500774  0.114065-10.012633  0.567561
   scf:   42     -181.494295     -181.485923     -181.509934  0.006994 -9.985432  0.419969
   scf:   43     -181.498732     -181.493048     -181.517467  0.006554 -9.961289  0.257212
   scf:   44     -181.241355     -181.422942     -181.447753  0.070080 -9.916779  0.928437
   scf:   45     -181.515364     -181.478069     -181.504065  0.028373 -9.927052  0.465444
   scf:   46     -181.463579     -181.471093     -181.496997  0.005699 -9.926852  0.541309
   scf:   47     -181.385064     -181.432369     -181.457403  0.019604 -9.920198  0.862269
   scf:   48     -181.510536     -181.496314     -181.522064  0.047031 -9.937298  0.086722
   scf:   49     -181.497499     -181.497213     -181.522727  0.005129 -9.939747  0.001421
   scf:   50     -181.497259     -181.497243     -181.522713  0.000959 -9.939968  0.014150
   scf:   51     -181.497243     -181.497243     -181.522719  0.000154 -9.939588  0.010738
   scf:   52     -181.497201     -181.497226     -181.522728  0.000509 -9.939152  0.000973

SCF Convergence by FreeE+DM+H criterion
|FreeE_i-FreeE_(i-1)| (eV) <     0.00100000
max |DM_out - DM_in|         :     0.0005086336
max |H_out - H_in|      (eV) :     0.0009733801
SCF cycle converged after 52 iterations

Using DM_out to compute the final energy and forces
No. of atoms with KB's overlaping orbs in proc 0. Max # of overlaps:     268     676

MM-Stress (kbar):       -7.46       -7.46       28.29        0.00       -0.00       -0.00

siesta: E_KS(eV) =             -181.4972

siesta: E_KS - E_eggbox =      -181.4972

siesta: Atomic forces (eV/Ang):
     1    0.000000   -0.000000   -0.000000
     2   -0.107802    0.186696    0.000000
     3    0.107802   -0.186696    0.000000
     4   -0.107829   -0.186765    0.000000
     5    0.107829    0.186765    0.000000
     6    0.215584   -0.000012    0.000000
     7   -0.215584    0.000012    0.000000
----------------------------------------
   Tot   -0.000000   -0.000000    0.000000
----------------------------------------
   Max    0.215584
   Res    0.115248    sqrt( Sum f_i^2 / 3N )
----------------------------------------
   Max    0.215584    constrained

Stress tensor Voigt[x,y,z,yz,xz,xy] (kbar):     -784.60     -784.62      246.82       -0.00        0.00       -0.01
(Free)E + p*V (eV/cell)     -158.2033
Target enthalpy (eV/cell)     -181.5227

siesta: Eigenvalues (eV):
  ik is       eps
   1  1  -18.7513  -12.4451  -11.7096  -10.3742  -10.2762   -9.6730   -9.6729   -6.7060   -3.7440   -3.7440
          -1.9671   -1.9671   -1.2822   -1.2821   -0.3051   -0.3051    6.9547    9.2719    9.2721   19.5017
   19.5017   19.5945   19.5945   24.0502   24.0502   25.5883   26.4441   26.4443   36.1820   36.1821
   46.2519   48.2509   49.4574
   2  1  -18.5565  -12.1055  -11.5268  -10.8819  -10.1337   -9.9312   -9.0506   -8.1123   -5.1288   -3.8692
          -3.5757   -0.1325   -0.0432    1.2828    2.6234    2.7398    4.6975    6.6890   15.0383   16.3531
   16.3961   16.4756   16.6322   16.9082   17.7821   18.8987   20.8591   25.9747   27.6372   27.8893
   50.5317   52.8993   58.0686
   3  1  -18.5565  -12.1055  -11.5268  -10.8819  -10.1337   -9.9312   -9.0506   -8.1123   -5.1288   -3.8692
          -3.5757   -0.1325   -0.0432    1.2828    2.6234    2.7398    4.6975    6.6890   15.0383   16.3531
   16.3961   16.4756   16.6322   16.9082   17.7821   18.8987   20.8591   25.9747   27.6372   27.8893
   50.5318   52.8993   58.0686
   4  1  -18.5565  -12.1055  -11.5268  -10.8819  -10.1337   -9.9312   -9.0505   -8.1123   -5.1288   -3.8692
          -3.5757   -0.1325   -0.0432    1.2828    2.6233    2.7398    4.6975    6.6891   15.0383   16.3531
   16.3959   16.4756   16.6321   16.9082   17.7821   18.8987   20.8592   25.9747   27.6371   27.8893
   50.5317   52.8993   58.0688
   5  1  -18.7139  -13.1254  -11.1050   -9.8894   -9.6355   -9.6354   -8.7173   -7.1288   -3.1630   -3.1630
          -2.9144   -2.9144   -0.8227   -0.8226    2.0565    2.0566    5.4422   14.4691   14.4691   18.1882
   18.1885   20.4408   20.4408   20.8306   20.8306   26.1433   29.0324   29.0324   34.4084   38.5894
   38.5895   47.9792   50.0437
   6  1  -18.4922  -12.8657  -11.6294  -11.1107  -10.5772   -9.9035   -7.1914   -6.7193   -5.8588   -4.6219
          -2.1308   -1.8340   -0.2872    0.0659    1.9614    2.0338    2.5260    9.3917   10.3077   12.5882
   13.4254   13.5442   15.4020   15.7601   19.7392   24.9429   25.4809   26.3615   26.9109   31.6030
   50.8556   52.4157   56.0593
   7  1  -18.4922  -12.8657  -11.6294  -11.1107  -10.5772   -9.9035   -7.1914   -6.7193   -5.8588   -4.6219
          -2.1308   -1.8340   -0.2872    0.0659    1.9614    2.0338    2.5260    9.3917   10.3077   12.5882
   13.4254   13.5442   15.4020   15.7601   19.7392   24.9429   25.4809   26.3615   26.9109   31.6030
   50.8557   52.4157   56.0593
   8  1  -18.4922  -12.8657  -11.6294  -11.1107  -10.5772   -9.9035   -7.1914   -6.7193   -5.8587   -4.6219
          -2.1308   -1.8340   -0.2872    0.0659    1.9614    2.0338    2.5260    9.3916   10.3077   12.5882
   13.4254   13.5443   15.4021   15.7602   19.7392   24.9427   25.4809   26.3614   26.9109   31.6029
   50.8556   52.4156   56.0594
siesta: Fermi energy =      -9.939152 eV

siesta: Program's energy decomposition (eV):
siesta: Ebs     =      -127.493051
siesta: Eions   =       321.344870
siesta: Ena     =        95.415231
siesta: Ekin    =       114.648035
siesta: Enl     =        18.236995
siesta: Eso     =         0.000000
siesta: Edftu   =         0.000000
siesta: DEna    =         5.660823
siesta: DUscf   =         1.644289
siesta: DUext   =         0.000000
siesta: Exc     =       -93.113545
siesta: eta*DQ  =         0.000000
siesta: Emadel  =         0.000000
siesta: Emeta   =         0.000000
siesta: Emolmec =        -2.644182
siesta: Ekinion =         0.000000
siesta: Eharris =      -181.497201
siesta: Etot    =      -181.497226
siesta: FreeEng =      -181.522728

siesta: Final energy (eV):
siesta:  Band Struct. =    -127.493051
siesta:       Kinetic =     114.648035
siesta:       Hartree =      35.034025
siesta:       Edftu   =       0.000000
siesta:       Eso     =       0.000000
siesta:    Ext. field =       0.000000
siesta:   Exch.-corr. =     -93.113545
siesta:  Ion-electron =    -211.228018
siesta:       Ion-ion =     -24.193539
siesta:       Ekinion =       0.000000
siesta:         Total =    -181.497226
siesta:         Fermi =      -9.939152

siesta: Atomic forces (eV/Ang):
siesta:      1    0.000000   -0.000000   -0.000000
siesta:      2   -0.107802    0.186696    0.000000
siesta:      3    0.107802   -0.186696    0.000000
siesta:      4   -0.107829   -0.186765    0.000000
siesta:      5    0.107829    0.186765    0.000000
siesta:      6    0.215584   -0.000012    0.000000
siesta:      7   -0.215584    0.000012    0.000000
siesta: ----------------------------------------
siesta:    Tot   -0.000000   -0.000000    0.000000

siesta: Stress tensor (static) (eV/Ang**3):
siesta:    -0.489706   -0.000006    0.000000
siesta:    -0.000006   -0.489713    0.000000
siesta:     0.000000   -0.000000    0.154054

siesta: Cell volume =         84.760459 Ang**3

siesta: Pressure (static):
siesta:                Solid            Molecule  Units
siesta:           0.00299643          0.00303811  Ry/Bohr**3
siesta:           0.27512179          0.27894911  eV/Ang**3
siesta:         440.79846559        446.93057440  kBar
(Free)E+ p_basis*V_orbitals  =        -165.010803
(Free)Eharris+ p_basis*V_orbitals  =        -165.010778

cite: Please see "LiC6_scf.bib" for an exhaustive BiBTeX file.
cite: Please clearly indicate Siesta version in published work: 4.1.5
cite: This calculation has made use of the following articles
cite: which are encouraged to be cited in a published work.
        Primary SIESTA paper
          DOI: www.doi.org/10.1088/0953-8984/14/11/302

>> End of run:   9-NOV-2022  12:40:17
Job completed
