BEGIN_CFG
Size
171
Supercell
       12.948390    0.000000    0.000000
       -6.474196   11.213634    0.000000
        0.000000    0.000000   11.099581
AtomData: id type cartes_x cartes_y cartes_z     fx     fy     fz
           1    0  -5.2192  10.3642  11.0696  0.3003  0.1237  0.9639
           2    0  -0.8030   2.8729  11.0658 -0.1300  0.1967  0.6871
           3    0  -3.0918   6.6427   0.0692  0.3141 -0.0046 -1.0368
           4    0  -0.8285  10.3009   0.0037  0.3112  0.2838 -0.1865
           5    0   3.3521   2.9507  11.0857  0.1990 -0.1017 -0.2492
           6    0   1.3927   6.6647   0.0779 -0.3276  0.0026 -1.1998
           7    0   3.4862  10.2823   0.0201 -0.0951  0.4199 -0.3791
           8    0   7.7657   2.9660  11.0862  0.1010 -0.2564  0.6461
           9    0   5.4953   6.4473   0.0680  0.5202  0.5224 -0.8718
          10    1   0.5580   0.3644   1.8934 -1.0223  2.2472  0.3282
          11    1  -1.5519   4.0950   1.9150 -0.9036  4.4302  0.4069
          12    1  -3.7379   7.8832   1.8427 -1.3326  2.4443  0.8073
          13    1   4.8875   0.4444   1.8123 -1.4015  0.0164  0.0487
          14    1   2.7327   4.1867   1.8445 -1.3760 -0.8978  0.4987
          15    1   0.5836   7.9780   1.9043 -0.6079 -2.5876  0.2566
          16    1   9.1850   0.3916   1.8905 -2.6611  1.7178  0.5881
          17    1   7.0679   4.1725   1.9333 -2.8890 -1.0998 -0.0958
          18    1   4.8641   7.9006   1.8264  0.2956  0.7995  0.6248
          19    1  -0.1597   1.6609   9.2656  3.3634 -2.8797 -0.7540
          20    1  -2.2405   5.3825   9.2235 -0.5001  2.2213  0.0829
          21    1  -4.3895   9.1212   9.2394 -0.6747 -0.6405  0.1199
          22    1   4.2735   1.6737   9.1455 -1.3980  0.1641  0.4987
          23    1   2.0639   5.3764   9.1325 -0.0381  0.2306  0.1195
          24    1  -0.0692   9.1029   9.1188 -1.1306  1.2741  0.2852
          25    1   8.5104   1.6228   9.2833  0.2799  0.3888 -0.5809
          26    1   6.3754   5.4037   9.1898 -1.3166 -3.0825  0.0465
          27    1   4.2202   9.1127   9.2520 -1.0430  1.9571 -0.7512
          28    1   2.7239   1.6560   1.8432 -0.7180  0.6533  0.4097
          29    1   0.5207   5.4160   1.8926  0.2602  0.2620  0.3469
          30    1  -1.5867   9.1781   1.8742 -0.4758 -2.0819  0.4683
          31    1   7.0171   1.7119   1.8613 -0.3222 -0.9609  0.4173
          32    1   4.8999   5.4125   1.8784  0.0723  0.9813  0.5757
          33    1   2.6975   9.1557   1.8527 -2.8442  0.6044  1.0331
          34    1  11.3238   1.6433   1.8822  0.4063  1.1379 -0.0218
          35    1   9.2362   5.4020   1.8778  0.2173 -0.7385  1.0427
          36    1   7.0451   9.1034   1.8968 -0.7385  2.3173  0.0541
          37    1   2.0713   0.3941   9.2677  2.1387  0.3106 -0.1313
          38    1  -0.0730   4.1409   9.2530 -0.9577 -1.6947 -0.5371
          39    1  -2.2499   7.8837   9.2096 -0.5576 -0.0684 -0.0679
          40    1   6.4021   0.3904   9.1682 -1.9272 -0.2292 -0.0887
          41    1   4.2100   4.1433   9.2192  0.1542 -0.0959 -0.3947
          42    1   2.0777   7.8822   9.2089 -2.1505 -1.4850 -0.3764
          43    1  10.6316   0.3952   9.2094  0.8920 -1.1368 -0.3249
          44    1   8.5435   4.1548   9.2457  1.0266 -2.1853  0.2241
          45    1   6.3827   7.8961   9.2644 -0.9408 -1.4323  0.0128
          46    1  -3.7719  10.4248   1.8691  2.0210 -2.6185  0.2517
          47    1   0.5717   2.9246   1.9014  0.2796 -3.1763  0.4218
          48    1  -1.5935   6.6787   1.8589  1.0155  0.1576  0.6117
          49    1   0.5198  10.4347   1.9779  0.0079 -0.2143  0.4143
          50    1   4.8628   2.9445   1.8342 -0.5138 -1.0786 -0.3336
          51    1   2.6688   6.6643   1.9146  3.1890 -0.7214  0.3591
          52    1   4.8718  10.3270   1.9415 -2.4276  2.8840 -0.3766
          53    1   9.1805   2.9050   1.9058  0.8197  0.9969  0.4596
          54    1   7.0916   6.6764   1.8993 -2.5225 -1.7524  0.2029
          55    1  -2.2313  10.3810   9.2292  1.1208  0.0949  0.1433
          56    1   2.0695   2.8805   9.1636 -0.9544 -0.3250 -0.2409
          57    1  -0.0988   6.6231   9.2270  1.8974 -0.8048 -0.2496
          58    1   2.0300  10.3234   9.2063  1.5110  1.7985 -0.5041
          59    1   6.4170   2.9069   9.2572 -1.5795 -0.6937 -0.5695
          60    1   4.1611   6.6344   9.2775  3.6579 -0.5386 -0.7202
          61    1   6.3724  10.3910   9.2935  0.6497 -1.1428 -0.6439
          62    1  10.6295   2.8865   9.2934  5.2860  0.4119 -0.3643
          63    1   8.5157   6.6110   9.1539  0.5639 -0.6981  0.5679
          64    1  -0.1901   1.6682   1.8714  1.8490 -1.7764  0.4875
          65    1  -2.2537   5.4175   1.9422 -0.8074 -2.1686 -0.2023
          66    1  -4.4985   9.1758   1.8725  2.5119 -2.0515  0.2394
          67    1   4.1350   1.6891   1.7197  1.5788 -0.6444  0.8612
          68    1   1.9629   5.4244   1.8829  0.4333 -1.4197  0.5315
          69    1  -0.1604   9.1769   1.9524 -0.4542  0.6306  0.1441
          70    1   8.4375   1.6686   1.9377  1.7703 -0.2798 -0.1458
          71    1   6.3537   5.3977   1.8928 -0.3949  2.1068  0.6002
          72    1   4.0772   9.1385   1.8893  4.0269 -0.7163  0.3146
          73    1   0.6509   0.3839   9.2438 -1.6118  2.6662 -0.1858
          74    1  -1.5153   4.1822   9.2540 -0.9281 -3.5648 -0.0478
          75    1  -3.7094   7.8499   9.1999  0.8811  0.3989 -0.3222
          76    1   4.9543   0.4351   9.2532  0.9143 -1.8960 -0.7395
          77    1   2.7778   4.1253   9.1662 -0.1848  0.6892 -0.4760
          78    1   0.6181   7.8628   9.1719  1.4198 -0.1383 -0.1850
          79    1   9.1905   0.3809   9.1929  1.6199 -0.6534  0.1109
          80    1   7.1443   4.1511   9.2581 -2.3903  0.4639 -0.7371
          81    1   4.9087   7.8831   9.2697  1.6020 -1.1345 -0.0428
          82    1   2.0136   0.4189   1.9546 -2.1959  0.8205 -0.3131
          83    1  -0.1380   4.1153   1.9401 -0.2128  3.1570 -0.0199
          84    1  -2.3191   7.9169   1.8760  0.5634  0.5776  0.0952
          85    1   6.3091   0.4658   1.8951 -0.6412  0.1518  0.0664
          86    1   4.1770   4.1886   1.8101 -1.2146  0.1742  0.5809
          87    1   2.0171   7.9036   1.9219 -1.4239  1.5875  0.2027
          88    1  10.5865   0.4268   1.8344  2.4542 -2.6199  0.7496
          89    1   8.4580   4.1847   1.9474  3.1801 -1.3113 -0.0194
          90    1   6.3339   7.9080   1.8647 -1.5292 -1.9405  0.1023
          91    1   2.8351   1.6666   9.2315 -1.3520 -1.7434 -0.5679
          92    1   0.6365   5.3492   9.2348  0.1916  2.5203 -0.3939
          93    1  -1.5167   9.1195   9.2669  0.2020  0.3988 -1.0255
          94    1   7.0887   1.6118   9.1878  0.4120  2.7816  0.2227
          95    1   4.9240   5.3776   9.1852 -0.0633  1.3458  0.0902
          96    1   2.7458   9.1059   9.2084  2.9469  0.6496 -0.1034
          97    1  11.3939   1.5996   9.2764 -2.5833  2.6287 -0.2866
          98    1   9.2567   5.3615   9.3263  0.9849  2.0194 -1.2667
          99    1   7.1108   9.1327   9.3226 -0.3328 -0.1272 -0.7989
         100    1  -2.3097  10.3820   1.8325 -1.0778  2.3783  0.3236
         101    1   1.9982   2.8910   1.9135  1.2085  1.9072 -0.0921
         102    1  -0.1551   6.7142   1.8604  0.3682 -0.6867  0.4589
         103    1   1.9214  10.4071   1.9947  3.0161 -1.0530 -0.4731
         104    1   6.2745   2.9281   1.8285  2.0148  1.3319  0.6040
         105    1   4.1543   6.6741   1.9012 -1.0698 -1.5206  0.2745
         106    1   6.2758  10.3357   1.8561  1.9621  0.6326  0.6755
         107    1  10.6489   2.9337   1.8999 -2.8081 -2.9743  0.1309
         108    1   8.5024   6.6301   1.9220  0.8395  1.1354  0.0380
         109    1  -3.6417  10.3330   9.3177 -1.8081  1.9763 -0.5859
         110    1   0.6089   2.8571   9.1881  0.7319  1.5062 -0.0357
         111    1  -1.4992   6.6607   9.1874 -2.5648 -1.6441  0.0375
         112    1   0.6444  10.3817   9.1403 -2.2370 -2.1587 -0.2077
         113    1   4.9514   2.9223   9.2287  1.9648 -0.0796 -0.3775
         114    1   2.7747   6.6380   9.1778 -1.7712 -0.7549 -0.0939
         115    1   4.9578  10.3879   9.1592 -2.4139 -0.9847  0.3912
         116    1   9.2607   2.8644   9.3144 -3.1105  0.9480 -0.4760
         117    1   7.0738   6.5932   9.2359  1.0297  3.8013 -0.3824
         118    1   9.4932   2.9860   5.5846 -2.7263  1.6410 -0.1049
         119    1   7.3591   6.6940   5.5300 -1.6871  2.8330  0.5323
         120    1   5.1710  10.4363   5.5794  0.1026  3.8647  0.0756
         121    1   0.8421   2.9875   5.5656 -0.6554  2.6499  0.3462
         122    1  -1.2639   6.7085   5.4783 -1.6936  2.4454  0.0602
         123    1  -3.4913  10.4500   5.4587  1.5242  0.7441 -0.0720
         124    1   5.1596   2.9736   5.4542  0.8056  3.1380  0.0940
         125    1   3.0161   6.7281   5.5781 -0.4003  2.9712 -0.1998
         126    1   0.8784  10.4675   5.5586 -0.7900  0.7518  0.1075
         127    1   8.7431   4.2977   5.5390  1.7392 -4.7784  0.2267
         128    1   6.5950   7.9940   5.5724  1.2137 -2.6531 -0.4183
         129    1  10.8966   0.5133   5.6259  1.9218 -0.8424 -0.1610
         130    1   0.1302   4.2984   5.6242  0.7279 -2.5031 -0.3954
         131    1  -2.0406   7.9883   5.4866  1.8205 -2.6553 -0.1086
         132    1   2.2723   0.4962   5.4474 -0.1357  0.1441  0.0364
         133    1   4.4264   4.2790   5.4768  0.0488 -2.9918 -0.5286
         134    1   2.2744   8.0399   5.5167  1.0034 -4.0912  0.2159
         135    1   6.5798   0.5263   5.5943  2.7891 -1.8678  0.0427
         136    1  -1.2994   4.2565   5.5599 -0.0827 -0.7222  0.1296
         137    1  -3.4524   7.9541   5.4711 -0.2246 -0.8948  0.1068
         138    1   0.8417   0.5386   5.4961 -0.9631 -1.7139 -0.0730
         139    1   2.9863   4.2580   5.4460  0.9492 -1.6710  0.4930
         140    1   0.8557   8.0270   5.4368  0.0902 -3.2808  0.2385
         141    1   5.1847   0.4943   5.4896 -2.2790 -1.0550 -0.0050
         142    1   7.3470   4.2541   5.5165 -3.5307  0.7165  0.5240
         143    1   5.1645   7.9874   5.6279  0.3051 -0.6773 -0.1050
         144    1   9.4847   0.5263   5.6197  0.3345 -3.9084  0.0212
         145    1  10.8906   2.9919   5.5915  1.4608  2.2914 -0.0755
         146    1   8.7862   6.6811   5.5257 -0.1978  1.7864 -0.1997
         147    1   6.5933  10.4548   5.4991  1.6539  0.6892 -0.2280
         148    1   2.2631   2.9764   5.5263  1.0423  1.1027 -0.3833
         149    1   0.1496   6.7179   5.5039  0.9660  2.5963 -0.3534
         150    1  -2.0479  10.4222   5.5132  0.1706  3.2440 -0.2239
         151    1   6.6078   2.9754   5.5298  0.2298  1.6746 -0.0170
         152    1   4.4458   6.7206   5.5919 -0.8292  2.2209  0.0265
         153    1   2.3189  10.4310   5.5611 -1.3741  3.5728  0.3084
         154    1  11.5837   1.7779   5.5923  2.7093 -2.0808  0.1838
         155    1   9.4929   5.4632   5.5618  2.2203  1.8156 -0.2737
         156    1   7.3229   9.1936   5.4239  1.5930  1.9150  0.4419
         157    1   2.9776   1.7405   5.4700  2.6318  0.0577 -0.3135
         158    1   0.8759   5.5145   5.5549  0.6453 -0.7223  0.2042
         159    1  -1.3389   9.2147   5.5218  2.8688 -0.2900 -0.0045
         160    1   7.3201   1.7527   5.6430  1.3066 -0.4224 -0.3527
         161    1   5.1270   5.5044   5.4859  2.0993 -0.4314  0.6922
         162    1   3.0048   9.2228   5.6083  2.9897  0.2499 -0.1578
         163    1   0.1211   1.7816   5.5646 -1.9048 -1.2575 -0.0131
         164    1  -1.9888   5.4995   5.5107 -1.7271 -1.0583  0.1755
         165    1  -4.1262   9.1987   5.4719 -4.0549 -0.3444 -0.4593
         166    1   4.4881   1.7516   5.4209 -3.6240 -1.5727  0.1883
         167    1   2.3350   5.5028   5.5600 -2.4363 -0.2077 -0.2539
         168    1   0.1613   9.2227   5.5215 -3.1126  2.0998 -0.1596
         169    1   8.8032   1.7221   5.6194 -3.1626  3.0276  0.1677
         170    1   6.5779   5.5249   5.6354  0.8255 -3.0650 -1.0337
         171    1   4.4862   9.2405   5.6009 -3.0981 -2.4266  0.3269
Energy
-24920.9205
PlusStress: xx yy zz yz xz xy
     -255.913 -246.890 133.363 0.372 -3.098 -9.013
Feature    EFS_by   siesta
END_CFG
