BEGIN_CFG
 Size
    171
 Supercell
        12.948390      0.000000      0.000000
        -6.474196     11.213634      0.000000
         0.000000      0.000000     11.099581
 AtomData:  id type       cartes_x      cartes_y      cartes_z           fx          fy          fz
             1    0      -5.219200     10.364200     11.069600     0.300300    0.123700    0.963900
             2    0      -0.803000      2.872900     11.065800    -0.130000    0.196700    0.687100
             3    0      -3.091800      6.642700      0.069200     0.314100   -0.004600   -1.036800
             4    0      -0.828500     10.300900      0.003700     0.311200    0.283800   -0.186500
             5    0       3.352100      2.950700     11.085700     0.199000   -0.101700   -0.249200
             6    0       1.392700      6.664700      0.077900    -0.327600    0.002600   -1.199800
             7    0       3.486200     10.282300      0.020100    -0.095100    0.419900   -0.379100
             8    0       7.765700      2.966000     11.086200     0.101000   -0.256400    0.646100
             9    0       5.495300      6.447300      0.068000     0.520200    0.522400   -0.871800
            10    1       0.558000      0.364400      1.893400    -1.022300    2.247200    0.328200
            11    1      -1.551900      4.095000      1.915000    -0.903600    4.430200    0.406900
            12    1      -3.737900      7.883200      1.842700    -1.332600    2.444300    0.807300
            13    1       4.887500      0.444400      1.812300    -1.401500    0.016400    0.048700
            14    1       2.732700      4.186700      1.844500    -1.376000   -0.897800    0.498700
            15    1       0.583600      7.978000      1.904300    -0.607900   -2.587600    0.256600
            16    1       9.185000      0.391600      1.890500    -2.661100    1.717800    0.588100
            17    1       7.067900      4.172500      1.933300    -2.889000   -1.099800   -0.095800
            18    1       4.864100      7.900600      1.826400     0.295600    0.799500    0.624800
            19    1      -0.159700      1.660900      9.265600     3.363400   -2.879700   -0.754000
            20    1      -2.240500      5.382500      9.223500    -0.500100    2.221300    0.082900
            21    1      -4.389500      9.121200      9.239400    -0.674700   -0.640500    0.119900
            22    1       4.273500      1.673700      9.145500    -1.398000    0.164100    0.498700
            23    1       2.063900      5.376400      9.132500    -0.038100    0.230600    0.119500
            24    1      -0.069200      9.102900      9.118800    -1.130600    1.274100    0.285200
            25    1       8.510400      1.622800      9.283300     0.279900    0.388800   -0.580900
            26    1       6.375400      5.403700      9.189800    -1.316600   -3.082500    0.046500
            27    1       4.220200      9.112700      9.252000    -1.043000    1.957100   -0.751200
            28    1       2.723900      1.656000      1.843200    -0.718000    0.653300    0.409700
            29    1       0.520700      5.416000      1.892600     0.260200    0.262000    0.346900
            30    1      -1.586700      9.178100      1.874200    -0.475800   -2.081900    0.468300
            31    1       7.017100      1.711900      1.861300    -0.322200   -0.960900    0.417300
            32    1       4.899900      5.412500      1.878400     0.072300    0.981300    0.575700
            33    1       2.697500      9.155700      1.852700    -2.844200    0.604400    1.033100
            34    1      11.323800      1.643300      1.882200     0.406300    1.137900   -0.021800
            35    1       9.236200      5.402000      1.877800     0.217300   -0.738500    1.042700
            36    1       7.045100      9.103400      1.896800    -0.738500    2.317300    0.054100
            37    1       2.071300      0.394100      9.267700     2.138700    0.310600   -0.131300
            38    1      -0.073000      4.140900      9.253000    -0.957700   -1.694700   -0.537100
            39    1      -2.249900      7.883700      9.209600    -0.557600   -0.068400   -0.067900
            40    1       6.402100      0.390400      9.168200    -1.927200   -0.229200   -0.088700
            41    1       4.210000      4.143300      9.219200     0.154200   -0.095900   -0.394700
            42    1       2.077700      7.882200      9.208900    -2.150500   -1.485000   -0.376400
            43    1      10.631600      0.395200      9.209400     0.892000   -1.136800   -0.324900
            44    1       8.543500      4.154800      9.245700     1.026600   -2.185300    0.224100
            45    1       6.382700      7.896100      9.264400    -0.940800   -1.432300    0.012800
            46    1      -3.771900     10.424800      1.869100     2.021000   -2.618500    0.251700
            47    1       0.571700      2.924600      1.901400     0.279600   -3.176300    0.421800
            48    1      -1.593500      6.678700      1.858900     1.015500    0.157600    0.611700
            49    1       0.519800     10.434700      1.977900     0.007900   -0.214300    0.414300
            50    1       4.862800      2.944500      1.834200    -0.513800   -1.078600   -0.333600
            51    1       2.668800      6.664300      1.914600     3.189000   -0.721400    0.359100
            52    1       4.871800     10.327000      1.941500    -2.427600    2.884000   -0.376600
            53    1       9.180500      2.905000      1.905800     0.819700    0.996900    0.459600
            54    1       7.091600      6.676400      1.899300    -2.522500   -1.752400    0.202900
            55    1      -2.231300     10.381000      9.229200     1.120800    0.094900    0.143300
            56    1       2.069500      2.880500      9.163600    -0.954400   -0.325000   -0.240900
            57    1      -0.098800      6.623100      9.227000     1.897400   -0.804800   -0.249600
            58    1       2.030000     10.323400      9.206300     1.511000    1.798500   -0.504100
            59    1       6.417000      2.906900      9.257200    -1.579500   -0.693700   -0.569500
            60    1       4.161100      6.634400      9.277500     3.657900   -0.538600   -0.720200
            61    1       6.372400     10.391000      9.293500     0.649700   -1.142800   -0.643900
            62    1      10.629500      2.886500      9.293400     5.286000    0.411900   -0.364300
            63    1       8.515700      6.611000      9.153900     0.563900   -0.698100    0.567900
            64    1      -0.190100      1.668200      1.871400     1.849000   -1.776400    0.487500
            65    1      -2.253700      5.417500      1.942200    -0.807400   -2.168600   -0.202300
            66    1      -4.498500      9.175800      1.872500     2.511900   -2.051500    0.239400
            67    1       4.135000      1.689100      1.719700     1.578800   -0.644400    0.861200
            68    1       1.962900      5.424400      1.882900     0.433300   -1.419700    0.531500
            69    1      -0.160400      9.176900      1.952400    -0.454200    0.630600    0.144100
            70    1       8.437500      1.668600      1.937700     1.770300   -0.279800   -0.145800
            71    1       6.353700      5.397700      1.892800    -0.394900    2.106800    0.600200
            72    1       4.077200      9.138500      1.889300     4.026900   -0.716300    0.314600
            73    1       0.650900      0.383900      9.243800    -1.611800    2.666200   -0.185800
            74    1      -1.515300      4.182200      9.254000    -0.928100   -3.564800   -0.047800
            75    1      -3.709400      7.849900      9.199900     0.881100    0.398900   -0.322200
            76    1       4.954300      0.435100      9.253200     0.914300   -1.896000   -0.739500
            77    1       2.777800      4.125300      9.166200    -0.184800    0.689200   -0.476000
            78    1       0.618100      7.862800      9.171900     1.419800   -0.138300   -0.185000
            79    1       9.190500      0.380900      9.192900     1.619900   -0.653400    0.110900
            80    1       7.144300      4.151100      9.258100    -2.390300    0.463900   -0.737100
            81    1       4.908700      7.883100      9.269700     1.602000   -1.134500   -0.042800
            82    1       2.013600      0.418900      1.954600    -2.195900    0.820500   -0.313100
            83    1      -0.138000      4.115300      1.940100    -0.212800    3.157000   -0.019900
            84    1      -2.319100      7.916900      1.876000     0.563400    0.577600    0.095200
            85    1       6.309100      0.465800      1.895100    -0.641200    0.151800    0.066400
            86    1       4.177000      4.188600      1.810100    -1.214600    0.174200    0.580900
            87    1       2.017100      7.903600      1.921900    -1.423900    1.587500    0.202700
            88    1      10.586500      0.426800      1.834400     2.454200   -2.619900    0.749600
            89    1       8.458000      4.184700      1.947400     3.180100   -1.311300   -0.019400
            90    1       6.333900      7.908000      1.864700    -1.529200   -1.940500    0.102300
            91    1       2.835100      1.666600      9.231500    -1.352000   -1.743400   -0.567900
            92    1       0.636500      5.349200      9.234800     0.191600    2.520300   -0.393900
            93    1      -1.516700      9.119500      9.266900     0.202000    0.398800   -1.025500
            94    1       7.088700      1.611800      9.187800     0.412000    2.781600    0.222700
            95    1       4.924000      5.377600      9.185200    -0.063300    1.345800    0.090200
            96    1       2.745800      9.105900      9.208400     2.946900    0.649600   -0.103400
            97    1      11.393900      1.599600      9.276400    -2.583300    2.628700   -0.286600
            98    1       9.256700      5.361500      9.326300     0.984900    2.019400   -1.266700
            99    1       7.110800      9.132700      9.322600    -0.332800   -0.127200   -0.798900
           100    1      -2.309700     10.382000      1.832500    -1.077800    2.378300    0.323600
           101    1       1.998200      2.891000      1.913500     1.208500    1.907200   -0.092100
           102    1      -0.155100      6.714200      1.860400     0.368200   -0.686700    0.458900
           103    1       1.921400     10.407100      1.994700     3.016100   -1.053000   -0.473100
           104    1       6.274500      2.928100      1.828500     2.014800    1.331900    0.604000
           105    1       4.154300      6.674100      1.901200    -1.069800   -1.520600    0.274500
           106    1       6.275800     10.335700      1.856100     1.962100    0.632600    0.675500
           107    1      10.648900      2.933700      1.899900    -2.808100   -2.974300    0.130900
           108    1       8.502400      6.630100      1.922000     0.839500    1.135400    0.038000
           109    1      -3.641700     10.333000      9.317700    -1.808100    1.976300   -0.585900
           110    1       0.608900      2.857100      9.188100     0.731900    1.506200   -0.035700
           111    1      -1.499200      6.660700      9.187400    -2.564800   -1.644100    0.037500
           112    1       0.644400     10.381700      9.140300    -2.237000   -2.158700   -0.207700
           113    1       4.951400      2.922300      9.228700     1.964800   -0.079600   -0.377500
           114    1       2.774700      6.638000      9.177800    -1.771200   -0.754900   -0.093900
           115    1       4.957800     10.387900      9.159200    -2.413900   -0.984700    0.391200
           116    1       9.260700      2.864400      9.314400    -3.110500    0.948000   -0.476000
           117    1       7.073800      6.593200      9.235900     1.029700    3.801300   -0.382400
           118    1       9.493200      2.986000      5.584600    -2.726300    1.641000   -0.104900
           119    1       7.359100      6.694000      5.530000    -1.687100    2.833000    0.532300
           120    1       5.171000     10.436300      5.579400     0.102600    3.864700    0.075600
           121    1       0.842100      2.987500      5.565600    -0.655400    2.649900    0.346200
           122    1      -1.263900      6.708500      5.478300    -1.693600    2.445400    0.060200
           123    1      -3.491300     10.450000      5.458700     1.524200    0.744100   -0.072000
           124    1       5.159600      2.973600      5.454200     0.805600    3.138000    0.094000
           125    1       3.016100      6.728100      5.578100    -0.400300    2.971200   -0.199800
           126    1       0.878400     10.467500      5.558600    -0.790000    0.751800    0.107500
           127    1       8.743100      4.297700      5.539000     1.739200   -4.778400    0.226700
           128    1       6.595000      7.994000      5.572400     1.213700   -2.653100   -0.418300
           129    1      10.896600      0.513300      5.625900     1.921800   -0.842400   -0.161000
           130    1       0.130200      4.298400      5.624200     0.727900   -2.503100   -0.395400
           131    1      -2.040600      7.988300      5.486600     1.820500   -2.655300   -0.108600
           132    1       2.272300      0.496200      5.447400    -0.135700    0.144100    0.036400
           133    1       4.426400      4.279000      5.476800     0.048800   -2.991800   -0.528600
           134    1       2.274400      8.039900      5.516700     1.003400   -4.091200    0.215900
           135    1       6.579800      0.526300      5.594300     2.789100   -1.867800    0.042700
           136    1      -1.299400      4.256500      5.559900    -0.082700   -0.722200    0.129600
           137    1      -3.452400      7.954100      5.471100    -0.224600   -0.894800    0.106800
           138    1       0.841700      0.538600      5.496100    -0.963100   -1.713900   -0.073000
           139    1       2.986300      4.258000      5.446000     0.949200   -1.671000    0.493000
           140    1       0.855700      8.027000      5.436800     0.090200   -3.280800    0.238500
           141    1       5.184700      0.494300      5.489600    -2.279000   -1.055000   -0.005000
           142    1       7.347000      4.254100      5.516500    -3.530700    0.716500    0.524000
           143    1       5.164500      7.987400      5.627900     0.305100   -0.677300   -0.105000
           144    1       9.484700      0.526300      5.619700     0.334500   -3.908400    0.021200
           145    1      10.890600      2.991900      5.591500     1.460800    2.291400   -0.075500
           146    1       8.786200      6.681100      5.525700    -0.197800    1.786400   -0.199700
           147    1       6.593300     10.454800      5.499100     1.653900    0.689200   -0.228000
           148    1       2.263100      2.976400      5.526300     1.042300    1.102700   -0.383300
           149    1       0.149600      6.717900      5.503900     0.966000    2.596300   -0.353400
           150    1      -2.047900     10.422200      5.513200     0.170600    3.244000   -0.223900
           151    1       6.607800      2.975400      5.529800     0.229800    1.674600   -0.017000
           152    1       4.445800      6.720600      5.591900    -0.829200    2.220900    0.026500
           153    1       2.318900     10.431000      5.561100    -1.374100    3.572800    0.308400
           154    1      11.583700      1.777900      5.592300     2.709300   -2.080800    0.183800
           155    1       9.492900      5.463200      5.561800     2.220300    1.815600   -0.273700
           156    1       7.322900      9.193600      5.423900     1.593000    1.915000    0.441900
           157    1       2.977600      1.740500      5.470000     2.631800    0.057700   -0.313500
           158    1       0.875900      5.514500      5.554900     0.645300   -0.722300    0.204200
           159    1      -1.338900      9.214700      5.521800     2.868800   -0.290000   -0.004500
           160    1       7.320100      1.752700      5.643000     1.306600   -0.422400   -0.352700
           161    1       5.127000      5.504400      5.485900     2.099300   -0.431400    0.692200
           162    1       3.004800      9.222800      5.608300     2.989700    0.249900   -0.157800
           163    1       0.121100      1.781600      5.564600    -1.904800   -1.257500   -0.013100
           164    1      -1.988800      5.499500      5.510700    -1.727100   -1.058300    0.175500
           165    1      -4.126200      9.198700      5.471900    -4.054900   -0.344400   -0.459300
           166    1       4.488100      1.751600      5.420900    -3.624000   -1.572700    0.188300
           167    1       2.335000      5.502800      5.560000    -2.436300   -0.207700   -0.253900
           168    1       0.161300      9.222700      5.521500    -3.112600    2.099800   -0.159600
           169    1       8.803200      1.722100      5.619400    -3.162600    3.027600    0.167700
           170    1       6.577900      5.524900      5.635400     0.825500   -3.065000   -1.033700
           171    1       4.486200      9.240500      5.600900    -3.098100   -2.426600    0.326900
 Energy
     -24920.920500000000
 PlusStress:  xx          yy          zz          yz          xz          xy
      -255.91300  -246.89000   133.36300     0.37200    -3.09800    -9.01300
 Feature   EFS_by	  siesta
 Feature   mindist	1.369139
END_CFG

