BEGIN_CFG
Size
234
Supercell
       12.805799    0.000000    0.000000
       -6.402900   11.090148    0.000000
        0.000000    0.000000   14.045800
AtomData: id type cartes_x cartes_y cartes_z     fx     fy     fz
           1    0   6.4000  11.0889  14.0443  0.0145  0.0153  0.0302
           2    0   0.0037   0.0032   7.0248 -0.0231 -0.0181 -0.0500
           3    0  10.6659   3.6989  14.0434  0.0285  0.0046  0.0168
           4    0   8.5351   7.3942  14.0434  0.0069 -0.0037  0.0447
           5    0   4.2667   7.3920  14.0450  0.0117  0.0167  0.0269
           6    0   2.1363   3.6984   0.0014  0.0011 -0.0185 -0.0102
           7    0   4.2690   0.0022   0.0038  0.0059 -0.0186 -0.0455
           8    0   8.5364   0.0009   0.0041  0.0088 -0.0022 -0.1040
           9    0  10.6682   3.7018   7.0246  0.0235 -0.0242 -0.0574
          10    0  -4.2657   7.3929   7.0227 -0.0301  0.0099  0.0096
          11    0   4.2722   7.3950   7.0200 -0.0137 -0.0018  0.0499
          12    0   2.1326   3.6927   7.0273  0.0195  0.0268 -0.0695
          13    0  -2.1379  11.0898   7.0214  0.0031 -0.0131  0.0261
          14    0   8.5387   0.0001   7.0266 -0.0152  0.0059 -0.0925
          15    0  -0.0003   7.3951  14.0435 -0.0000 -0.0018  0.0469
          16    0   6.4014   3.6990  14.0445  0.0079  0.0003  0.0412
          17    0  -0.0038   7.3915   7.0203  0.0206  0.0179  0.0531
          18    0   6.3996   3.6999   7.0258  0.0017 -0.0165 -0.0556
          19    1   1.4233   0.0002   1.7566  0.3922  0.1574  0.4812
          20    1   4.9815  11.0895  12.2895 -0.4090  0.2012 -0.4883
          21    1  -0.7098   1.2326   1.7571 -0.2999  0.4069  0.4901
          22    1  -5.6904   9.8616  12.2919  0.0738 -0.6310 -0.5240
          23    1   5.6952   9.8570   1.7525 -0.5190 -0.1198  0.5326
          24    1   0.7097   1.2323  12.2916  0.2441  0.1588 -0.5067
          25    1  11.3838   0.0037   1.7563 -0.3201 -0.3147  0.5011
          26    1  -4.9810  11.0879  12.2892  0.5159  0.2699 -0.4785
          27    1  -5.6908   9.8612   1.7559  0.2688 -0.5676  0.5087
          28    1  -0.7115   1.2328  12.2916 -0.2077  0.2575 -0.5042
          29    1   0.7094   1.2317   1.7554  0.4245  0.4397  0.4981
          30    1   5.6905   9.8598  12.2917  0.0244 -0.3345 -0.5145
          31    1   1.4193   0.0021   8.7775  0.4085 -0.1850  0.5170
          32    1   4.9806  11.0832   5.2644 -0.4018  0.3657 -0.4885
          33    1  12.0902   1.2290   8.7797  0.1577  0.5938  0.5007
          34    1   7.1149   9.8569   5.2646  0.2396 -0.4256 -0.4938
          35    1   5.6911   9.8550   8.7733 -0.2251 -0.0377  0.5331
          36    1   0.7120   1.2347   5.2729  0.0826 -0.0326 -0.5362
          37    1  11.3817   0.0043   8.7779 -0.2387 -0.6297  0.4847
          38    1  -4.9809  11.0857   5.2646  0.4510  0.3751 -0.4814
          39    1   7.1135   9.8588   8.7763  0.1668 -0.4348  0.4996
          40    1  12.0935   1.2309   5.2686 -0.2141  0.2238 -0.5108
          41    1   0.7103   1.2309   8.7801  0.0095  0.4245  0.4939
          42    1   5.6954   9.8565   5.2654 -0.4230 -0.5255 -0.4832
          43    1  -0.7131   3.6970   1.7566  0.4926  0.0527  0.4870
          44    1   7.1160   7.3939  12.2920 -0.6609 -0.2457 -0.5293
          45    1   3.5534   8.6247   1.7583  0.0111  0.2941  0.4689
          46    1   2.8459   2.4669  12.2860 -0.0391 -0.5026 -0.4571
          47    1  -2.8422   9.8578   1.7565 -0.4730 -0.1046  0.4817
          48    1   9.2493   1.2339  12.2885  0.0926  0.1219 -0.4853
          49    1   7.1135   7.3887   1.7555 -0.2033  0.3962  0.4989
          50    1  -0.7131   3.6946  12.2901  0.6603  0.3110 -0.4900
          51    1   2.8443   2.4680   1.7557  0.3332 -0.3430  0.5034
          52    1   3.5576   8.6251  12.2905  0.0223  0.3458 -0.5094
          53    1   9.2511   1.2317   1.7544 -0.1070  0.4146  0.5043
          54    1  -2.8439   9.8577  12.2889 -0.2312 -0.3092 -0.4801
          55    1   3.5550   1.2333  12.2938 -0.1155  0.2536 -0.5261
          56    1   2.8451   9.8571   1.7511  0.0859 -0.1933  0.5405
          57    1   5.6854   7.3917  12.2866  0.7567  0.2812 -0.4729
          58    1   0.7126   3.6973   1.7579 -0.4068  0.2410  0.4879
          59    1   9.9590   2.4640  12.2904 -0.0538 -0.0753 -0.5111
          60    1  -3.5587   8.6244   1.7512  0.2292  0.5007  0.5546
          61    1   2.8488   9.8544  12.2911 -0.0701  0.1333 -0.4892
          62    1   3.5575   1.2319   1.7551 -0.2602  0.5546  0.5165
          63    1   0.7176   3.6961  12.2925 -0.8070  0.0054 -0.5220
          64    1   5.6942   7.3898   1.7544 -0.1400  0.1736  0.5019
          65    1  -3.5555   8.6214  12.2901  0.0472  0.5890 -0.4972
          66    1   9.9615   2.4676   1.7528 -0.1274 -0.5031  0.5159
          67    1  -0.7121   3.7003   8.7823  0.4433 -0.2859  0.4781
          68    1   7.1155   7.3913   5.2659 -0.4059  0.1296 -0.4764
          69    1   3.5575   8.6249   8.7782 -0.2025  0.3177  0.5059
          70    1   2.8478   2.4640   5.2694 -0.0193 -0.3062 -0.5221
          71    1  -2.8454   9.8549   8.7796 -0.2732 -0.0312  0.4764
          72    1   9.2488   1.2335   5.2683  0.2435  0.2408 -0.5038
          73    1   7.1111   7.3929   8.7848 -0.3002  0.2257  0.4636
          74    1  -0.7099   3.6950   5.2696  0.2335  0.1535 -0.5324
          75    1   2.8473   2.4638   8.7780  0.1428 -0.3849  0.5130
          76    1   3.5589   8.6246   5.2648 -0.3914  0.3124 -0.4755
          77    1   9.2530   1.2297   8.7792 -0.1688  0.3669  0.5041
          78    1  -2.8467   9.8585   5.2658 -0.0557 -0.3257 -0.5025
          79    1   3.5581   1.2308   5.2656 -0.2093  0.2694 -0.4858
          80    1   2.8422   9.8596   8.7776  0.4828 -0.5509  0.4992
          81    1   5.6913   7.3915   5.2694  0.3034  0.0584 -0.5222
          82    1   0.7143   3.6968   8.7788 -0.5113 -0.1333  0.5165
          83    1   9.9628   2.4650   5.2654 -0.4877 -0.0537 -0.5113
          84    1  -3.5607   8.6260   8.7796  0.3283  0.2471  0.4899
          85    1   2.8460   9.8597   5.2683  0.1463 -0.4945 -0.5245
          86    1   3.5592   1.2278   8.7801 -0.4367  0.3753  0.4800
          87    1   0.7155   3.6949   5.2653 -0.5499  0.2307 -0.4779
          88    1   5.6879   7.3950   8.7839  0.5147 -0.2200  0.4952
          89    1  -3.5557   8.6257   5.2667  0.0863  0.2164 -0.5087
          90    1   9.9595   2.4652   8.7785  0.0276 -0.3797  0.4976
          91    1  -2.8465   7.3963   1.7572  0.3221 -0.2723  0.4633
          92    1   9.2514   3.6994  12.2883 -0.5202 -0.1449 -0.4847
          93    1   1.4272   4.9294   1.7551 -0.4712  0.3673  0.5237
          94    1   4.9793   6.1625  12.2925  0.3225 -0.5800 -0.5536
          95    1   1.4236   9.8600   1.7538 -0.2922 -0.5559  0.5028
          96    1   4.9753   1.2259  12.2899  0.5170  0.9599 -0.4903
          97    1   9.2539   3.6991   1.7566 -0.8719 -0.2330  0.5129
          98    1  -2.8451   7.3940  12.2939  0.6135 -0.1568 -0.5277
          99    1   4.9784   6.1582   1.7537  0.2469 -0.1445  0.4976
         100    1   1.4246   4.9273  12.2927 -0.4122  0.5552 -0.4985
         101    1   4.9767   1.2309   1.7573  0.5286  0.2782  0.4886
         102    1   1.4228   9.8567  12.2880 -0.0678 -0.3942 -0.4966
         103    1   7.8262   1.2284  12.2876 -0.1479  0.5877 -0.4868
         104    1  -1.4229   9.8624   1.7567  0.3190 -0.6144  0.5108
         105    1   3.5546   3.6932  12.2882  0.5702  0.1442 -0.4967
         106    1   2.8470   7.3944   1.7551 -0.6025 -0.1710  0.5072
         107    1   7.8241   6.1572  12.2932  0.0193 -0.0896 -0.5168
         108    1  -1.4260   4.9259   1.7553  0.3512  0.5414  0.5125
         109    1  -1.4217   9.8604  12.2900  0.1446 -0.4574 -0.4864
         110    1   7.8229   1.2310   1.7523  0.2081  0.5594  0.5173
         111    1   2.8511   7.3970  12.2905 -0.6472 -0.4261 -0.5139
         112    1   3.5590   3.6990   1.7567  0.2696 -0.2038  0.5094
         113    1  -1.4195   4.9316  12.2889 -0.0231  0.0850 -0.4873
         114    1   7.8259   6.1630   1.7528 -0.1312 -0.4948  0.5153
         115    1  -2.8504   7.3955   8.7782  0.5071 -0.0197  0.5282
         116    1   9.2525   3.7032   5.2619 -0.5871 -0.3833 -0.4848
         117    1   1.4208   4.9275   8.7781  0.0031  0.5038  0.5120
         118    1   4.9790   6.1614   5.2672  0.1986 -0.3453 -0.5088
         119    1   1.4245   9.8600   8.7755 -0.4000 -0.9146  0.5350
         120    1   4.9792   1.2272   5.2683  0.1749  0.5989 -0.5049
         121    1   9.2517   3.6958   8.7757 -0.5810  0.0690  0.5145
         122    1  -2.8470   7.3923   5.2669  0.4194  0.1734 -0.4930
         123    1   4.9795   6.1637   8.7787  0.2623 -0.4346  0.5163
         124    1   1.4248   4.9281   5.2668 -0.2574  0.3394 -0.4908
         125    1   4.9772   1.2271   8.7744  0.5921  0.7102  0.5403
         126    1   1.4259   9.8570   5.2637 -0.4165 -0.1268 -0.4777
         127    1   7.8287   1.2351   5.2673 -0.3351 -0.0700 -0.5023
         128    1  -1.4235   9.8608   8.7770  0.2607 -0.5021  0.5222
         129    1   3.5567   3.6954   5.2639  0.3859  0.0553 -0.4713
         130    1   2.8496   7.3901   8.7793 -0.5108  0.4311  0.4943
         131    1   7.8250   6.1618   5.2693 -0.0742 -0.3646 -0.5057
         132    1  -1.4256   4.9285   8.7811  0.4559  0.3500  0.4969
         133    1  -1.4255   9.8605   5.2674  0.3178 -0.5072 -0.5113
         134    1   7.8253   1.2310   8.7768  0.0934  0.3804  0.5297
         135    1   2.8470   7.3922   5.2689 -0.4044  0.0804 -0.5289
         136    1   3.5517   3.6985   8.7808  0.4219  0.0203  0.5115
         137    1  -1.4214   4.9304   5.2650  0.1057  0.0950 -0.4723
         138    1   7.8205   6.1659   8.7800  0.2499 -0.4393  0.5006
         139    1  -0.7072  11.0884   1.7551  0.0721  0.2720  0.5112
         140    1   0.7144  11.0894  12.2883 -0.5221 -0.0653 -0.4990
         141    1   9.9590   4.9246   1.7604 -0.1317  0.7970  0.4837
         142    1  -3.5539   6.1619  12.2897 -0.1630 -0.2978 -0.4653
         143    1   3.5572   6.1607   1.7550 -0.2000 -0.2216  0.5013
         144    1   2.8437   4.9234  12.2908  0.4517  0.6755 -0.5268
         145    1   7.1175   0.0025   1.7540 -0.4177 -0.1955  0.5099
         146    1   5.6896   0.0009  12.2896  0.5371 -0.0812 -0.5021
         147    1   9.2468   6.1635   1.7566  0.3419 -0.4079  0.5098
         148    1   9.9599   4.9289  12.2924  0.1521  0.3610 -0.5474
         149    1   2.8470   4.9264   1.7562  0.1697  0.4899  0.5044
         150    1   3.5620   6.1599  12.2887 -0.6374 -0.3253 -0.4806
         151    1  -0.7108  11.0901   8.7789  0.5316 -0.0558  0.4752
         152    1   7.1118   0.0010   5.2658  0.0644 -0.0298 -0.4792
         153    1  -2.8409   4.9260   8.7757 -0.7441  0.6741  0.5323
         154    1  -3.5583   6.1654   5.2688  0.0809 -0.4313 -0.5094
         155    1   3.5591   6.1656   8.7773 -0.2207 -0.6514  0.5094
         156    1   2.8461   4.9265   5.2675  0.1639  0.3871 -0.5084
         157    1   0.7191  11.0856   8.7809 -0.8595  0.3269  0.4842
         158    1   5.6910   0.0003   5.2692  0.2996 -0.1434 -0.5149
         159    1  -3.5584   6.1665   8.7785  0.1190 -0.7346  0.4930
         160    1  -2.8468   4.9327   5.2671  0.0609  0.3182 -0.5138
         161    1   2.8447   4.9318   8.7799  0.1350  0.2695  0.4802
         162    1   3.5565   6.1621   5.2659 -0.0860 -0.4285 -0.4827
         163    1   1.4183   7.3938   1.7552  0.7216  0.0761  0.5164
         164    1   4.9826   3.6955  12.2917 -0.6027  0.0740 -0.5281
         165    1  -0.7125   8.6240   1.7572 -0.2705  0.3619  0.4908
         166    1   7.1170   2.4671  12.2911  0.1352 -0.4746 -0.5066
         167    1  -0.7119   6.1626   1.7556 -0.1766 -0.5699  0.5014
         168    1   7.1124   4.9242  12.2898  0.1342  0.5923 -0.5092
         169    1   4.9815   3.6983   1.7584 -0.3442 -0.2146  0.4677
         170    1   1.4213   7.3932  12.2895  0.5469 -0.0163 -0.5101
         171    1   7.1130   2.4673   1.7551  0.1978 -0.4399  0.4848
         172    1  -0.7095   8.6264  12.2916 -0.4069  0.2557 -0.5268
         173    1   7.1115   4.9320   1.7558  0.3524  0.0456  0.4860
         174    1  -0.7093   6.1641  12.2864 -0.3372 -0.4391 -0.4826
         175    1   5.6912   4.9256  12.2866 -0.2344  0.4861 -0.4627
         176    1   0.7113   6.1665   1.7581  0.1322 -0.7234  0.4744
         177    1   7.8244   3.7004  12.2921  0.6211 -0.2915 -0.5197
         178    1  -1.4225   7.3906   1.7543 -0.4107  0.2332  0.5204
         179    1   5.6943   2.4691  12.2926 -0.3440 -0.9061 -0.5238
         180    1   0.7077   8.6223   1.7574  0.3174  0.6916  0.4993
         181    1   0.7060   6.1648  12.2924  0.7611 -0.5903 -0.5263
         182    1   5.6906   4.9259   1.7530 -0.1187  0.4684  0.5273
         183    1  -1.4166   7.3923  12.2910 -0.7294  0.2417 -0.5123
         184    1   7.8243   3.6966   1.7572  0.4961  0.2197  0.4957
         185    1   0.7073   8.6221  12.2854  0.5314  0.5243 -0.4908
         186    1   5.6913   2.4646   1.7522 -0.2753 -0.3121  0.5360
         187    1   1.4243   7.3999   8.7815  0.3957 -0.7547  0.4734
         188    1   4.9808   3.6991   5.2660 -0.2719 -0.1937 -0.5133
         189    1  -0.7108   8.6245   8.7804 -0.3569  0.2973  0.4875
         190    1   7.1152   2.4625   5.2639 -0.0722 -0.1150 -0.4601
         191    1  -0.7136   6.1616   8.7791 -0.0617 -0.1902  0.5134
         192    1   7.1139   4.9291   5.2701  0.2764  0.1748 -0.5143
         193    1   4.9755   3.6978   8.7825 -0.1259  0.0861  0.4819
         194    1   1.4228   7.3909   5.2660  0.3831  0.1333 -0.4777
         195    1   7.1175   2.4688   8.7800 -0.1628 -0.6278  0.4757
         196    1  -0.7136   8.6236   5.2652  0.0128  0.5016 -0.4955
         197    1   7.1175   4.9314   8.7778 -0.1119  0.1007  0.5018
         198    1  -0.7097   6.1607   5.2703 -0.2720 -0.1422 -0.5190
         199    1   5.6941   4.9292   5.2659 -0.3379  0.3086 -0.4891
         200    1   0.7114   6.1621   8.7790  0.1193 -0.1579  0.5065
         201    1   7.8237   3.6943   5.2654  0.5431  0.1919 -0.4977
         202    1  -1.4259   7.3939   8.7798 -0.2915  0.0035  0.4958
         203    1   5.6891   2.4626   5.2686 -0.0527 -0.2231 -0.5069
         204    1   0.7088   8.6156   8.7796  0.3352  1.2128  0.5042
         205    1   0.7103   6.1629   5.2699  0.2970 -0.5151 -0.5179
         206    1   5.6923   4.9296   8.7798 -0.2142  0.3123  0.5200
         207    1  -1.4236   7.3938   5.2699 -0.3022 -0.1324 -0.5229
         208    1   7.8234   3.6959   8.7759  0.7250  0.3016  0.5155
         209    1   0.7138   8.6239   5.2650 -0.0514  0.2992 -0.5015
         210    1   5.6910   2.4695   8.7767 -0.2593 -0.6589  0.5216
         211    1   3.5555  11.0889   1.7575  0.4974  0.0316  0.4820
         212    1   2.8495   0.0012  12.2927 -0.6092 -0.1470 -0.5174
         213    1   7.8254   8.6236   1.7604 -0.2463  0.3115  0.4566
         214    1  -1.4221   2.4672  12.2914  0.0127 -0.4998 -0.5055
         215    1   1.4232   2.4695   1.7561 -0.2350 -0.6391  0.5078
         216    1   4.9802   8.6290  12.2888  0.1681  0.0560 -0.4923
         217    1   2.8482   0.0052   1.7549 -0.4281 -0.4455  0.5249
         218    1   9.9608   0.0028  12.2916  0.2572 -0.2500 -0.5106
         219    1  -1.4218   2.4681   1.7542  0.1293 -0.4802  0.5095
         220    1   7.8251   8.6230  12.2910 -0.0642  0.5118 -0.5053
         221    1   4.9751   8.6263   1.7561  0.5304  0.0948  0.4950
         222    1   1.4206   2.4635  12.2905  0.0845 -0.2852 -0.5006
         223    1   3.5575  11.0878   8.7782  0.2717  0.0981  0.5108
         224    1  -3.5538  11.0891   5.2652 -0.6426  0.0568 -0.5105
         225    1  -4.9780   8.6228   8.7776 -0.5067  0.4601  0.5260
         226    1  11.3786   2.4663   5.2644  0.5614 -0.4304 -0.4664
         227    1   1.4249   2.4628   8.7771 -0.2735 -0.2533  0.5277
         228    1   4.9760   8.6218   5.2679  0.5672  0.4495 -0.5271
         229    1  -3.5607  11.0883   8.7775 -0.1371 -0.0554  0.5135
         230    1   3.5527  11.0888   5.2659  0.6506  0.1361 -0.4920
         231    1  -1.4217   2.4645   8.7780  0.0879 -0.1398  0.5173
         232    1  -4.9777   8.6223   5.2660 -0.2183  0.3559 -0.5095
         233    1   4.9811   8.6203   8.7818 -0.0749  0.7050  0.4790
         234    1   1.4215   2.4669   5.2693  0.2034 -0.4744 -0.4917
Energy
-33310.2525
PlusStress: xx yy zz yz xz xy
     -498.149 -500.278 127.479 0.087 0.000 -1.071
Feature    EFS_by   siesta
END_CFG
