BEGIN_CFG
 Size
    189
 Supercell
        13.473081      0.002083      0.001826
        -6.737530     11.673566     -0.001449
         0.002937     -0.001366     11.150198
 AtomData:  id type       cartes_x      cartes_y      cartes_z           fx          fy          fz
             1    0       0.350900     -0.585500     -0.061200    -0.975900    1.219000    0.619700
             2    0       0.398200      0.018800      3.726700    -1.048700   -0.059000   -0.552200
             3    0       0.509500      0.170600      7.410400    -0.932700   -0.310900    0.251800
             4    0      -2.391300      3.770100      0.036400     0.722200    0.671300   -0.187000
             5    0      -5.125100      7.996100     -0.036200     1.180000   -0.994500    0.097500
             6    0       4.818900      7.636700     -0.133600    -0.486000    0.151400    0.134800
             7    0       2.697900      3.941400     -0.030700    -1.034300    0.580700    0.482300
             8    0       4.294800     -0.108700      0.012600     1.048900    0.371400    0.311500
             9    0       8.877900     -0.544600      0.043300     0.401400    0.354600   -0.073600
            10    0      -2.507200      3.836900      3.597600     0.460300    0.131700    0.015000
            11    0      -4.457100      7.946700      7.411500     0.421000   -0.306400    0.501400
            12    0       2.837900      8.789100      3.830700    -0.327500   -0.254700    0.033000
            13    0       1.955200      3.663100      7.395000     0.805800    0.027600    0.470700
            14    0       4.784800     -0.007300      3.724200    -0.692900    0.238100   -0.507900
            15    0       9.562400      0.736100      7.592600    -0.558600   -0.223100   -0.539000
            16    0      -4.647800      7.891600      3.755700     0.359400   -0.267400   -0.138500
            17    0      -2.402300      3.850800      7.517200     0.234000    0.112300   -0.075000
            18    0       2.127600      3.796000      3.776500     0.125000    0.617400   -1.251800
            19    0       2.441700      9.052700      7.336800    -1.459200    0.320000    0.647600
            20    0       9.297800      0.238800      3.618600    -0.461300    0.121600    0.213400
            21    0       5.029900     -0.061700      7.511400    -0.866000    0.105800   -0.546900
            22    0       0.486000      8.127000      0.053300    -0.546400   -0.519200   -0.157100
            23    0       6.543500      4.059200      0.001300     0.075200    0.210700   -0.013100
            24    0      -0.465200      7.675800      3.578700     0.474900   -0.058700    0.079500
            25    0       6.714300      3.747900      7.410300     0.350300   -0.142600    0.359200
            26    0       6.596200      3.887700      3.777400     0.404500   -0.082400   -0.437700
            27    0      -0.802600      7.271600      7.550400     0.363300    0.284200    0.035000
            28    1      -0.766600      1.284400      1.755500     0.146800    0.519100    0.023200
            29    1      -5.953700     10.357200      9.233800     0.138600   -0.649400   -0.832100
            30    1       6.043600     10.350900      1.934300     0.249000    0.438500    0.213700
            31    1       0.732100      1.320200      9.419000    -0.342400   -1.303000    0.687300
            32    1       1.494300      0.025200      1.819500     0.464400   -0.111000   -0.460800
            33    1      12.003700     -0.030900      9.288400    -0.574200   -0.301200    0.390800
            34    1      -5.939900     10.370400      1.858100     0.235500   -0.311900    0.608700
            35    1      -0.760400      1.271600      9.468700     0.183700    0.643200   -0.281800
            36    1       0.726100      1.324800      1.769300    -0.072700   -0.733200   -0.489100
            37    1       6.020100     10.333200      9.162900     0.496200    0.803100   -0.424500
            38    1      12.014100     -0.033400      1.873400    -0.554000    0.173100   -0.671800
            39    1       1.483800      0.008200      9.315500     0.850200    0.162400    0.536500
            40    1      -0.783000      1.294200      5.531300     0.581000    0.977300    0.040100
            41    1      -5.939600     10.381400      5.585900    -0.238300   -1.023000    0.158800
            42    1       6.029900     10.324500      5.618200     0.813700    2.112100    0.113700
            43    1       0.726800      1.351700      5.525300    -0.998900   -2.654600   -0.252400
            44    1       1.494600      0.021100      5.509200     0.822000    0.629900    0.156500
            45    1      12.014600     -0.012600      5.586800    -0.387500   -0.965000    0.167900
            46    1      -3.022800      5.199000      1.690400     0.577400    0.226900    0.155600
            47    1      -3.718100      6.480900      9.379600     0.017600   -0.749600    0.410100
            48    1       3.813300      6.455500      1.957900    -0.666600    1.140500    0.292200
            49    1       3.008500      5.195800      9.120900    -0.403600   -0.662800   -0.430100
            50    1       6.000200      0.021100      1.806100     0.107800   -0.107600   -0.070000
            51    1       7.463500     -0.019000      9.491400     0.919700    0.291100   -0.878800
            52    1      -3.729700      6.514500      1.741200     0.259900   -0.727900   -0.265300
            53    1      -2.995100      5.168900      9.465300     0.499200    0.518200   -0.015000
            54    1       3.003100      5.204400      1.946300    -0.033000   -0.260800    0.322800
            55    1       3.795800      6.444700      9.011400    -0.197600    1.227300   -0.644300
            56    1       7.501500     -0.048700      1.782700    -0.155100    0.828200    0.839600
            57    1       5.986800      0.021800      9.430800    -0.569600   -0.275700    0.498800
            58    1      -3.028200      5.190900      5.535300     0.583200    0.462800   -0.081300
            59    1      -3.712600      6.525500      5.578000    -0.647100   -1.014900   -0.058100
            60    1       3.761500      6.422000      5.762600     0.983700    1.763100    0.288600
            61    1       3.001200      5.194000      5.639700    -1.180000   -1.803400    0.050600
            62    1       6.016200      0.011600      5.559800    -0.030900   -0.088500   -0.394300
            63    1       7.509200     -0.041200      5.485600     0.322100    0.041100    0.050300
            64    1      -5.178300      9.066500      1.796400    -0.725100    0.919800    1.055200
            65    1      -1.518000      2.585700      9.531700    -0.170300   -1.228100   -0.584300
            66    1       1.438500      2.620400      1.675900     0.960700    0.512300    0.945300
            67    1       5.325400      9.043600      8.953100    -1.023500   -0.341300   -0.191100
            68    1      10.517100     -0.041600      1.738400    -0.197600    0.418800    0.139400
            69    1       2.980700      0.026400      9.406200    -0.360500   -0.532300   -0.660900
            70    1      -1.536300      2.587400      1.699900    -0.004600   -0.700100    0.445600
            71    1      -5.190500      9.044900      9.295000    -0.589400    1.133700   -0.903400
            72    1       5.345200      9.049200      2.037200    -1.259700   -0.139800   -0.136400
            73    1       1.445600      2.601600      9.573200     0.987600    0.951700   -1.298700
            74    1       2.986800      0.036600      1.758200     0.076900   -0.211500    1.004300
            75    1      10.501100     -0.051600      9.397900    -0.007300    0.478200    0.538900
            76    1      -5.174900      9.073400      5.639700    -0.504800    1.390900   -0.425700
            77    1      -1.564200      2.612900      5.493600     0.157500   -1.375400    0.272000
            78    1       1.422300      2.590600      5.460100     1.730900    2.204700    0.306600
            79    1       5.315300      9.062600      5.741500    -0.960300   -1.561700    0.315000
            80    1      10.522100     -0.050400      5.606300    -0.121500    0.996900   -0.326800
            81    1       3.001300      0.056900      5.492500    -0.505600   -1.482900   -0.009400
            82    1       3.718200      1.333700      1.811400    -0.016800    0.005200    0.124700
            83    1       3.011300     10.345900      9.204100     0.753900   -0.079800   -0.628500
            84    1      10.416500      2.535500      1.668300     1.438900    2.383600    0.241000
            85    1      -3.704500      9.101100      9.425000    -0.375600   -1.636900   -0.120500
            86    1       6.078900      7.753100      2.150700    -0.314500    0.278400   -0.570900
            87    1       0.724600      3.905700      9.354500    -0.406500    0.002900    0.811300
            88    1       3.035900     10.341000      1.919200     0.484000   -0.142300    0.487100
            89    1       3.710600      1.315800      9.412500     0.047000    0.476400   -0.292500
            90    1      -3.694000      9.115200      1.786400    -0.286000   -1.303500   -0.231300
            91    1      10.437900      2.516900      9.536400     1.144300    2.458400   -0.169800
            92    1       0.709900      3.924900      1.813300    -0.450400   -0.348100   -0.495500
            93    1       6.068700      7.736400      8.852100     0.150300    0.441800    0.418100
            94    1      -0.784300      3.884000      9.489000     1.201500    0.736200   -0.552600
            95    1       7.562200      7.764900      1.983200    -0.759700   -0.158000   -0.163900
            96    1      -3.002000     10.386900      9.419000     0.684100    0.615300   -0.660500
            97    1       9.735200      1.271600      1.603600    -0.621400   -1.890300    0.068300
            98    1       3.816800      9.049900      8.942700    -0.268000    0.368900    1.393800
            99    1       2.947000      2.635200      1.823400     0.628300   -0.808400    0.099100
           100    1       7.566000      7.741100      9.077000    -1.240300   -0.376500    0.053800
           101    1      -0.805200      3.901200      1.727300     1.112800    0.503500    0.423000
           102    1       9.730300      1.265300      9.636600    -0.516900   -1.920900    0.330700
           103    1      -2.982700     10.397600      1.822200     0.501400    0.708400    0.306700
           104    1       2.952200      2.624100      9.431900     0.487900   -1.127000   -0.802800
           105    1       3.842400      9.048000      1.946700    -0.271500    0.393600   -0.585500
           106    1       3.718800      1.321900      5.448300     0.634000    1.018900    0.414700
           107    1       3.054400     10.335800      5.594600     0.076300   -0.355200    0.074900
           108    1      10.410600      2.561100      5.538900     1.350100    2.061800   -0.154000
           109    1      -3.664100      9.150100      5.521100    -1.640600   -2.554000    0.368500
           110    1       6.029600      7.738200      5.763600     0.837400    1.400800    0.044800
           111    1       0.682300      3.911000      5.544300    -0.418700   -0.929600   -0.364700
           112    1      -0.833700      3.891500      5.477300     1.342500    0.889400    0.256900
           113    1       7.542900      7.785800      5.710400    -0.864100   -1.001700   -0.264200
           114    1      -2.979300     10.414700      5.499600     1.281900    1.484700    0.232300
           115    1       9.747200      1.278800      5.522200    -0.749700   -1.736200   -0.187500
           116    1       3.826700      9.018100      5.805200    -0.214700    0.751700   -0.930400
           117    1       2.954000      2.633400      5.410800    -0.041300   -1.500000    0.839200
           118    1       1.488700      5.208500      1.962000    -0.053800    0.261200   -1.260600
           119    1       5.296600      6.452000      8.848400    -0.096400   -0.755500    0.377100
           120    1       1.532300     10.376900      2.189800     0.157200    0.368600   -1.422500
           121    1       5.214800      1.319800      9.383500    -0.273400   -1.288900    0.625400
           122    1      -2.959000      7.801100      1.699500     0.185500    0.591000   -0.292900
           123    1       9.714600      3.869300      9.531200    -0.213900   -0.670400   -0.553000
           124    1       5.303000      6.471400      2.142100    -0.124300   -0.554300   -0.459000
           125    1       1.487100      5.204600      9.111600    -0.052100    0.104400    1.586400
           126    1       5.231700      1.324700      1.816300    -0.485900   -1.151600   -0.457000
           127    1       1.497400     10.392900      9.121800     0.211700    0.569900    0.827000
           128    1       9.690400      3.887800      1.663200     0.037200   -0.620300    0.429000
           129    1      -2.965800      7.770000      9.470500     0.481500    0.996500    0.538300
           130    1       3.721300      3.883400      9.189800     0.882900   -0.004200   -0.368400
           131    1       3.071900      7.768900      1.870300    -0.199800   -0.434800    0.021400
           132    1       8.266300      6.410100      9.241300     0.471600    1.989600   -0.332500
           133    1      -1.505500      5.245000      1.713300    -1.096600   -1.991000   -0.127600
           134    1       8.221800      1.250900      9.712600    -0.062500    0.553200   -0.527500
           135    1      -1.479100     10.405900      1.893100    -0.024300   -0.653400   -0.876700
           136    1       3.050800      7.759200      9.009000    -0.151000   -0.161200    0.861600
           137    1       3.728500      3.905300      1.943600     0.580100   -0.366000    0.285700
           138    1      -1.470200      5.229300      9.495800    -1.386800   -1.803600    0.058300
           139    1       8.264100      6.451700      1.863000     0.227100    1.205700    0.196300
           140    1      -1.495900     10.392900      9.362300    -0.030500   -0.102600    0.932800
           141    1       8.226600      1.250200      1.565600    -0.012200    0.317500    0.397600
           142    1       1.462100      5.169200      5.637200     0.856400    0.757200   -0.265400
           143    1       5.275100      6.477000      5.762800    -0.627700   -1.588100   -0.010600
           144    1       1.548800     10.320300      5.444500     0.222000    1.303200    0.350500
           145    1       5.226800      1.324600      5.575100    -0.613600   -2.249500   -0.250100
           146    1      -2.957700      7.810300      5.546200     0.530800    0.563100   -0.186100
           147    1       9.680300      3.898700      5.515100     0.213400   -0.801600    0.281500
           148    1       3.725100      3.882200      5.539400     0.874400    0.683100    0.312700
           149    1       3.053500      7.722100      5.824300    -0.639600    0.057600   -0.957300
           150    1       8.252100      6.445600      5.641900     0.658500    2.141900    0.127100
           151    1      -1.514700      5.227400      5.476300    -1.280200   -2.078900    0.131700
           152    1       8.248500      1.236600      5.468100    -0.185600    0.925100    0.453400
           153    1      -1.461400     10.393800      5.514100    -0.261600   -0.267300    0.115000
           154    1      -0.688900      9.116200      1.774300    -0.776400    0.261700    0.682200
           155    1       7.462300      2.565200      9.653100    -0.115000   -0.738800   -0.976200
           156    1      -0.743100      6.491700      1.651000     0.918900    1.538100   -0.333400
           157    1       7.524800      5.149500      9.225300    -1.173700   -1.243100   -0.070100
           158    1       1.551800      7.809100      1.878200     0.034300   -0.497800    0.871900
           159    1       5.248600      3.864500      9.189200    -1.072300   -0.120200    0.178400
           160    1       7.467700      2.561000      1.598900    -0.109000   -0.326600    0.654000
           161    1      -0.719600      9.119300      9.493700    -0.158400   -0.491400   -0.796300
           162    1       7.517200      5.175800      1.894200    -0.768300   -0.877700    0.130300
           163    1      -0.712500      6.484900      9.612900     0.574600    1.405100    0.052600
           164    1       5.248200      3.882600      1.937000    -0.847500   -0.031100   -0.267500
           165    1       1.543600      7.821600      9.281600     0.219700   -0.634300   -1.194000
           166    1       8.211000      3.835900      9.484200     0.866600    0.857300   -0.162000
           167    1      -1.459800      7.832800      1.534400    -0.319700   -0.664600    0.703700
           168    1       5.961400      2.563800      9.406500     1.080300    1.144900    0.130100
           169    1       0.772900      9.090200      2.143900     0.077900   -0.674300   -1.117700
           170    1       6.017300      5.126300      9.015400     0.173400    1.398400    0.701700
           171    1       0.765100      6.511000      1.770000     0.057900   -0.278700    0.675500
           172    1      -1.457700      7.814500      9.707900    -0.545700   -0.579000   -0.772400
           173    1       8.200200      3.858400      1.729800     0.819000    0.338000   -0.154200
           174    1       0.761000      9.118200      9.191900    -0.308000   -1.034200    0.383500
           175    1       5.962600      2.578200      1.753200     1.023300    0.887000    0.273000
           176    1       0.777100      6.518900      9.358900    -0.070100   -0.452000   -0.270600
           177    1       6.023100      5.153800      2.048800    -0.149300    0.986000   -0.608300
           178    1      -0.707600      9.091700      5.498200     0.173400   -0.022200    0.037100
           179    1       7.469800      2.553300      5.502400     0.102400   -0.935800    0.279400
           180    1      -0.752100      6.462700      5.453600     0.994600    1.726000    0.353300
           181    1       7.509000      5.189800      5.639100    -1.381800   -1.553500   -0.125300
           182    1       1.526900      7.742900      5.608200     0.575500    0.367900    0.191000
           183    1       5.251700      3.879800      5.589900    -1.426500   -0.795500    0.200300
           184    1       8.184500      3.843800      5.527100     1.103600    1.168900    0.207400
           185    1      -1.447100      7.804600      5.492900    -1.051500   -0.448900    0.165500
           186    1       5.970100      2.539900      5.594400     0.964000    2.340000   -0.402200
           187    1       0.805600      9.063800      5.464500    -0.752400   -0.936700    0.239000
           188    1       5.990700      5.150500      5.682600     0.654000    1.540700   -0.028900
           189    1       0.758000      6.480100      5.596400    -0.523600   -0.529900   -0.222700
 Energy
     -25153.736700000001
 PlusStress:  xx          yy          zz          yz          xz          xy
       173.70200   155.70500    21.65200    -0.77700     0.55800   -20.77700
 Feature   EFS_by	  siesta
 Feature   mindist	1.422267
END_CFG

