Siesta Version  : 4.1.5
Architecture    : x86_64-unknown-linux-gnu--unknown
Compiler version: GNU Fortran (GCC) 11.3.0
Compiler flags  : mpif90 -g -O2 -fallow-argument-mismatch
PP flags        : -DMPI -DFC_HAVE_FLUSH -DFC_HAVE_ABORT
Libraries       :  -I/global/software/sl-7.x86_64/modules/intel/2020.4.304/mkl/include  /globall/software/sl-7.x86_64/modules/intel/2020.4.304/mkl/lib/intel64/libmkl_scalapack_lp64.a -Wl,--start-group /global/software/sl-7.x86_64/modules/intel/2020.4.304/mkl/lib/intel64/libmkl_intel_lp64.a /global/software/sl-7.x86_64/modules/intel/2020.4.304/mkl/lib/intel64/libmkl_sequential.a /global/software/sl-7.x86_64/modules/intel/2020.4.304/mkl/lib/intel64/libmkl_core.a /global/software/sl-7.x86_64/modules/intel/2020.4.304/mkl/lib/intel64/libmkl_blacs_openmpi_lp64.a -Wl,--end-group -lpthread -lm -ldl
PARALLEL version

* Running on 12 nodes in parallel
>> Start of run:   9-NOV-2022  14:30:53

                           ***********************       
                           *  WELCOME TO SIESTA  *       
                           ***********************       

reinit: Reading from standard input
reinit: Dumped input in INPUT_TMP.20373
************************** Dump of input data file ****************************
SystemName LiC12_scf
SystemLabel LiC12_scf
NumberOfAtoms   13
NumberOfSpecies 2
%block ChemicalSpeciesLabel
1  3   Li-gga
2  6   C-gga
%endblock ChemicalSpeciesLabel
PAO.BasisSize  SZ
PAO.EnergyShift  10 meV
%block PS.Lmax
C-gga   2
Li-gga  2
%endblock PS.Lmax
LatticeConstant 1.000000 Ang
%block LatticeVectors
	4.2686000000	0.0000000000	0.0000000000
	-2.1343000000	3.6967160386	0.0000000000
	0.0000000000	0.0000000000	9.6916020000
%endblock LatticeVectors
AtomicCoordinatesFormat Ang
%block AtomicCoordinatesAndAtomicSpecies
	0.00000000	0.00000000	0.00000000	2
	1.42144380	0.00000000	2.42290050	1
	2.84715620	0.00000000	7.26870150	1
	-0.71072190	1.23100644	2.42290050	1
	-1.42357810	2.46570960	7.26870150	1
	1.42357810	2.46570960	2.42290050	1
	0.71072190	1.23100644	7.26870150	1
	2.84715620	0.00000000	2.42290050	1
	1.42144380	0.00000000	7.26870150	1
	-1.42357810	2.46570960	2.42290050	1
	-0.71072190	1.23100644	7.26870150	1
	0.71072190	1.23100644	2.42290050	1
	1.42357810	2.46570960	7.26870150	1
%endblock AtomicCoordinatesAndAtomicSpecies
Kgrid_NoTRS  T
%block kgrid_MonkhorstPack
2       0       0       0.0
0       2       0       0.0
0       0       2       0.0
%endblock kgrid_MonkhorstPack
AtomCoorFormatOut Ang
BlockSize 1
#ProcessorY 12
Diag.ParallelOverK   T
Diag.DivideAndConquer F
MeshCutoff   300 Ry
SCF.FreeE.Tolerance 1E-3 eV
SCF.EDM.Tolerance   5E-3 eV
DM.Tolerance  1E-3
DM.Require.Energy.Convergence T
DM.NumberPulay 4
XC.Functional GGA
XC.Authors    PBE
UseSaveData        F
MD.TypeOfRun       CG
MD.VariableCell    F
MD.NumCGsteps      00
MD.MaxCGDispl      0.200000 Bohr
MD.MaxStressTol    1.000000 GPa
MD.MaxForceTol     0.010000 eV/Ang
WriteMDHistory T
WriteCoorStep T
WriteForces T
WriteCoorStep    T
WriteEigenValues T
WriteDM    F
MM.UnitsDistance Ang  # what this program prints out DO NOT CHANGE
MM.UnitsEnergy    eV  # what this program prints out DO NOT CHANGE
MM.Grimme.S6     0.75 # Grimme-paper for PBE (correct for your functional)
MM.Grimme.D     20.   # Grimme-paper (correct for your functional)
%block MM.Potentials
  1   1 Grimme     16.69      1.650 # Li, 10.1002/jcc.20495
  1   2 Grimme     17.40      2.277 # Li / C
  2   2 Grimme     18.14      2.904 # C, 10.1002/jcc.20495
%endblock MM.Potentials
#%block ProjectedDensityOfStates
# -200.0  120.0  0.4  12800  eV
#%endblock ProjectedDensityOfStates
************************** End of input data file *****************************

reinit: -----------------------------------------------------------------------
reinit: System Name: LiC12_scf
reinit: -----------------------------------------------------------------------
reinit: System Label: LiC12_scf
reinit: -----------------------------------------------------------------------
Reading two-body potentials
Grimme - two-body potential between 1 and 1
Grimme - two-body potential between 1 and 2
Grimme - two-body potential between 2 and 2

initatom: Reading input for the pseudopotentials and atomic orbitals ----------
Species number:   1 Atomic number:    3 Label: Li-gga
Species number:   2 Atomic number:    6 Label: C-gga

Ground state valence configuration:   2s01
Reading pseudopotential information in formatted form from Li-gga.psf

Valence configuration for pseudopotential generation:
2s( 1.00) rc: 2.28
2p( 0.00) rc: 2.28
3d( 0.00) rc: 2.59
4f( 0.00) rc: 2.59
Ground state valence configuration:   2s02  2p02
Reading pseudopotential information in formatted form from C-gga.psf

Valence configuration for pseudopotential generation:
2s( 2.00) rc: 1.56
2p( 2.00) rc: 1.56
3d( 0.00) rc: 1.56
4f( 0.00) rc: 1.56
relmxkb: Read Max KB Ang. Momentum=    2 for species C-gga
relmxkb: Read Max KB Ang. Momentum=    2 for species Li-gga

<basis_specs>
===============================================================================
Li-gga               Z=   3    Mass=  6.9400        Charge= 0.17977+309
Lmxo=0 Lmxkb= 2    BasisType=split      Semic=F
L=0  Nsemic=0  Cnfigmx=2
          i=1  nzeta=1  polorb=0  (2s)
            splnorm:   0.15000    
               vcte:    0.0000    
               rinn:    0.0000    
               qcoe:    0.0000    
               qyuk:    0.0000    
               qwid:   0.10000E-01
                rcs:    0.0000    
            lambdas:    1.0000    
-------------------------------------------------------------------------------
L=0  Nkbl=1  erefs: 0.17977+309
L=1  Nkbl=1  erefs: 0.17977+309
L=2  Nkbl=1  erefs: 0.17977+309
===============================================================================
</basis_specs>

atom: Called for Li-gga                (Z =   3)

read_vps: Pseudopotential generation method:
read_vps: ATM 3.2.2 Troullier-Martins                       
Valence charge for ps generation:    1.00000

read_vps: Pseudopotential includes a core correction:
read_vps: Pseudo-core for xc-correction

xc_check: Exchange-correlation functional:
xc_check: GGA Perdew, Burke & Ernzerhof 1996
V l=0 = -2*Zval/r beyond r=  2.2278
V l=1 = -2*Zval/r beyond r=  2.2278
V l=2 = -2*Zval/r beyond r=  2.5245
All V_l potentials equal beyond r=  2.4622
This should be close to max(r_c) in ps generation
All pots = -2*Zval/r beyond r=  2.5245

VLOCAL1: 99.0% of the norm of Vloc inside      7.160 Ry
VLOCAL1: 99.9% of the norm of Vloc inside     16.318 Ry
atom: Maximum radius for 4*pi*r*r*local-pseudopot. charge    2.86079
atom: Maximum radius for r*vlocal+2*Zval:    2.43160
GHOST: No ghost state for L =  0
GHOST: No ghost state for L =  1
GHOST: No ghost state for L =  2

KBgen: Kleinman-Bylander projectors: 
   l= 0   rc=  2.654023   el= -0.211234   Ekb=  1.742119   kbcos=  0.228463
   l= 1   rc=  2.721230   el= -0.080095   Ekb= -1.122375   kbcos= -0.147941
   l= 2   rc=  2.825246   el=  0.002001   Ekb= -0.207076   kbcos= -0.031965

KBgen: Total number of Kleinman-Bylander projectors:    9
atom: -------------------------------------------------------------------------

atom: SANKEY-TYPE ORBITALS:

SPLIT: Orbitals with angular momentum L= 0

SPLIT: Basis orbitals for state 2s

SPLIT: PAO cut-off radius determined from an
SPLIT: energy shift=  0.000735 Ry

   izeta = 1
                 lambda =    1.000000
                     rc =   11.897381
                 energy =   -0.210580
                kinetic =    0.143382
    potential(screened) =   -0.353962
       potential(ionic) =   -0.533453
atom: Total number of Sankey-type orbitals:  1

atm_pop: Valence configuration (for local Pseudopot. screening):
 2s( 1.00)                                                            
Vna: chval, zval:    1.00000   1.00000

Vna:  Cut-off radius for the neutral-atom potential:  11.897381
comcore: Pseudo-core radius Rcore=  3.450946

atom: _________________________________________________________________________

<basis_specs>
===============================================================================
C-gga                Z=   6    Mass=  12.010        Charge= 0.17977+309
Lmxo=1 Lmxkb= 2    BasisType=split      Semic=F
L=0  Nsemic=0  Cnfigmx=2
          i=1  nzeta=1  polorb=0  (2s)
            splnorm:   0.15000    
               vcte:    0.0000    
               rinn:    0.0000    
               qcoe:    0.0000    
               qyuk:    0.0000    
               qwid:   0.10000E-01
                rcs:    0.0000    
            lambdas:    1.0000    
L=1  Nsemic=0  Cnfigmx=2
          i=1  nzeta=1  polorb=0  (2p)
            splnorm:   0.15000    
               vcte:    0.0000    
               rinn:    0.0000    
               qcoe:    0.0000    
               qyuk:    0.0000    
               qwid:   0.10000E-01
                rcs:    0.0000    
            lambdas:    1.0000    
-------------------------------------------------------------------------------
L=0  Nkbl=1  erefs: 0.17977+309
L=1  Nkbl=1  erefs: 0.17977+309
L=2  Nkbl=1  erefs: 0.17977+309
===============================================================================
</basis_specs>

atom: Called for C-gga                 (Z =   6)

read_vps: Pseudopotential generation method:
read_vps: ATM 3.2.2 Troullier-Martins                       
Valence charge for ps generation:    4.00000

xc_check: Exchange-correlation functional:
xc_check: GGA Perdew, Burke & Ernzerhof 1996
V l=0 = -2*Zval/r beyond r=  1.5227
V l=1 = -2*Zval/r beyond r=  1.5227
V l=2 = -2*Zval/r beyond r=  1.5227
All V_l potentials equal beyond r=  1.4851
This should be close to max(r_c) in ps generation
All pots = -2*Zval/r beyond r=  1.5227

VLOCAL1: 99.0% of the norm of Vloc inside     19.682 Ry
VLOCAL1: 99.9% of the norm of Vloc inside     44.856 Ry
atom: Maximum radius for 4*pi*r*r*local-pseudopot. charge    1.79142
atom: Maximum radius for r*vlocal+2*Zval:    1.54183
GHOST: No ghost state for L =  0
GHOST: No ghost state for L =  1
GHOST: No ghost state for L =  2

KBgen: Kleinman-Bylander projectors: 
   l= 0   rc=  1.661951   el= -1.010689   Ekb=  5.289847   kbcos=  0.316429
   l= 1   rc=  1.661951   el= -0.388490   Ekb= -4.102504   kbcos= -0.351025
   l= 2   rc=  1.747182   el=  0.001971   Ekb= -1.006005   kbcos= -0.008530

KBgen: Total number of Kleinman-Bylander projectors:    9
atom: -------------------------------------------------------------------------

atom: SANKEY-TYPE ORBITALS:

SPLIT: Orbitals with angular momentum L= 0

SPLIT: Basis orbitals for state 2s

SPLIT: PAO cut-off radius determined from an
SPLIT: energy shift=  0.000735 Ry

   izeta = 1
                 lambda =    1.000000
                     rc =    5.948690
                 energy =   -1.010099
                kinetic =    0.827121
    potential(screened) =   -1.837220
       potential(ionic) =   -5.392783

SPLIT: Orbitals with angular momentum L= 1

SPLIT: Basis orbitals for state 2p

SPLIT: PAO cut-off radius determined from an
SPLIT: energy shift=  0.000735 Ry

   izeta = 1
                 lambda =    1.000000
                     rc =    7.638387
                 energy =   -0.387843
                kinetic =    2.314739
    potential(screened) =   -2.702582
       potential(ionic) =   -6.092371
atom: Total number of Sankey-type orbitals:  4

atm_pop: Valence configuration (for local Pseudopot. screening):
 2s( 2.00)                                                            
 2p( 2.00)                                                            
Vna: chval, zval:    4.00000   4.00000

Vna:  Cut-off radius for the neutral-atom potential:   7.638387

atom: _________________________________________________________________________

prinput: Basis input ----------------------------------------------------------

PAO.BasisType split     

%block ChemicalSpeciesLabel
    1    3 Li-gga                  # Species index, atomic number, species label
    2    6 C-gga                   # Species index, atomic number, species label
%endblock ChemicalSpeciesLabel

%block PAO.Basis                 # Define Basis set
Li-gga                1                    # Species label, number of l-shells
 n=2   0   1                         # n, l, Nzeta 
  11.897   
   1.000   
C-gga                 2                    # Species label, number of l-shells
 n=2   0   1                         # n, l, Nzeta 
   5.949   
   1.000   
 n=2   1   1                         # n, l, Nzeta 
   7.638   
   1.000   
%endblock PAO.Basis

prinput: ----------------------------------------------------------------------

coor:   Atomic-coordinates input format  =     Cartesian coordinates
coor:                                          (in Angstroms)

siesta: Atomic coordinates (Bohr) and species
siesta:      0.00000   0.00000   0.00000  2        1
siesta:      2.68614   0.00000   4.57862  1        2
siesta:      5.38035   0.00000  13.73586  1        3
siesta:     -1.34307   2.32627   4.57862  1        4
siesta:     -2.69017   4.65952  13.73586  1        5
siesta:      2.69017   4.65952   4.57862  1        6
siesta:      1.34307   2.32627  13.73586  1        7
siesta:      5.38035   0.00000   4.57862  1        8
siesta:      2.68614   0.00000  13.73586  1        9
siesta:     -2.69017   4.65952   4.57862  1       10
siesta:     -1.34307   2.32627  13.73586  1       11
siesta:      1.34307   2.32627   4.57862  1       12
siesta:      2.69017   4.65952  13.73586  1       13

siesta: System type = bulk      

initatomlists: Number of atoms, orbitals, and projectors:     13    16   117

siesta: ******************** Simulation parameters ****************************
siesta:
siesta: The following are some of the parameters of the simulation.
siesta: A complete list of the parameters used, including default values,
siesta: can be found in file out.fdf
siesta:
redata: Spin configuration                          = none
redata: Number of spin components                   = 1
redata: Time-Reversal Symmetry                      = T
redata: Spin spiral                                 = F
redata: Long output                                 =   F
redata: Number of Atomic Species                    =        2
redata: Charge density info will appear in .RHO file
redata: Write Mulliken Pop.                         = NO
redata: Matel table size (NRTAB)                    =     1024
redata: Mesh Cutoff                                 =   300.0000 Ry
redata: Net charge of the system                    =     0.0000 |e|
redata: Min. number of SCF Iter                     =        0
redata: Max. number of SCF Iter                     =     1000
redata: SCF convergence failure will abort job
redata: SCF mix quantity                            = Hamiltonian
redata: Mix DM or H after convergence               =   F
redata: Recompute H after scf cycle                 =   F
redata: Mix DM in first SCF step                    =   T
redata: Write Pulay info on disk                    =   F
redata: New DM Occupancy tolerance                  = 0.000000000001
redata: No kicks to SCF
redata: DM Mixing Weight for Kicks                  =     0.5000
redata: Require Harris convergence for SCF          =   F
redata: Harris energy tolerance for SCF             =     0.000100 eV
redata: Require DM convergence for SCF              =   T
redata: DM tolerance for SCF                        =     0.001000
redata: Require EDM convergence for SCF             =   F
redata: EDM tolerance for SCF                       =     0.005000 eV
redata: Require H convergence for SCF               =   T
redata: Hamiltonian tolerance for SCF               =     0.001000 eV
redata: Require (free) Energy convergence for SCF   =   T
redata: (free) Energy tolerance for SCF             =     0.001000 eV
redata: Using Saved Data (generic)                  =   F
redata: Use continuation files for DM               =   F
redata: Neglect nonoverlap interactions             =   F
redata: Method of Calculation                       = Diagonalization
redata: Electronic Temperature                      =   299.9869 K
redata: Fix the spin of the system                  =   F
redata: Dynamics option                             = Single-point calculation
mix.SCF: Pulay mixing                            = Pulay
mix.SCF:    Variant                              = stable
mix.SCF:    History steps                        = 4
mix.SCF:    Linear mixing weight                 =     0.250000
mix.SCF:    Mixing weight                        =     0.250000
mix.SCF:    SVD condition                        = 0.1000E-07
redata: ***********************************************************************

%block SCF.Mixers
  Pulay
%endblock SCF.Mixers

%block SCF.Mixer.Pulay
  # Mixing method
  method pulay
  variant stable

  # Mixing options
  weight 0.2500
  weight.linear 0.2500
  history 4
%endblock SCF.Mixer.Pulay

DM_history_depth set to one: no extrapolation allowed by default for geometry relaxation
Size of DM history Fstack: 1
Total number of electrons:    16.000000
Total ionic charge:    16.000000

* ProcessorY, Blocksize:    3   1


* Orbital distribution balance (max,min):     2     1

k-point displ. along   1 input, could be:     0.00    0.50
k-point displ. along   2 input, could be:     0.00    0.50
k-point displ. along   3 input, could be:     0.00    0.50
 Kpoints in:            8 . Kpoints trimmed:            8

siesta: k-grid: Number of k-points =     8
siesta: k-grid: Cutoff (effective) =     4.269 Ang
siesta: k-grid: Supercell and displacements
siesta: k-grid:    2   0   0      0.000
siesta: k-grid:    0   2   0      0.000
siesta: k-grid:    0   0   2      0.000

diag: Algorithm                                     = Expert
diag: Parallel over k                               =   T
diag: Use parallel 2D distribution                  =   T
diag: Parallel block-size                           = 1
diag: Parallel distribution                         =     3 x     4
diag: Used triangular part                          = Lower
diag: Absolute tolerance                            =  0.100E-15
diag: Orthogonalization factor                      =  0.100E-05
diag: Memory factor                                 =  1.0000

superc: Internal auxiliary supercell:     9 x     9 x     3  =     243
superc: Number of atoms, orbitals, and projectors:   3159   3888  28431


ts: **************************************************************
ts: Save H and S matrices                           =    F
ts: Save DM and EDM matrices                        =    F
ts: Only save the overlap matrix S                  =    F
ts: **************************************************************

************************ Begin: TS CHECKS AND WARNINGS ************************
************************ End: TS CHECKS AND WARNINGS **************************


                     ====================================
                        Single-point calculation
                     ====================================

outcoor: Atomic coordinates (Ang):                          
    0.00000000    0.00000000    0.00000000   2       1  C-gga
    1.42144380    0.00000000    2.42290050   1       2  Li-gga
    2.84715620    0.00000000    7.26870150   1       3  Li-gga
   -0.71072190    1.23100644    2.42290050   1       4  Li-gga
   -1.42357810    2.46570960    7.26870150   1       5  Li-gga
    1.42357810    2.46570960    2.42290050   1       6  Li-gga
    0.71072190    1.23100644    7.26870150   1       7  Li-gga
    2.84715620    0.00000000    2.42290050   1       8  Li-gga
    1.42144380    0.00000000    7.26870150   1       9  Li-gga
   -1.42357810    2.46570960    2.42290050   1      10  Li-gga
   -0.71072190    1.23100644    7.26870150   1      11  Li-gga
    0.71072190    1.23100644    2.42290050   1      12  Li-gga
    1.42357810    2.46570960    7.26870150   1      13  Li-gga

superc: Internal auxiliary supercell:     9 x     9 x     3  =     243
superc: Number of atoms, orbitals, and projectors:   3159   3888  28431

outcell: Unit cell vectors (Ang):
        4.268600    0.000000    0.000000
       -2.134300    3.696716    0.000000
        0.000000    0.000000    9.691602

outcell: Cell vector modules (Ang)   :    4.268600    4.268600    9.691602
outcell: Cell angles (23,13,12) (deg):     90.0000     90.0000    120.0000
outcell: Cell volume (Ang**3)        :    152.9316
<dSpData1D:S at geom step 0
  <sparsity:sparsity for geom step 0
    nrows_g=16 nrows=2 sparsity=6.6367 nnzs=1699, refcount: 7>
  <dData1D:(new from dSpData1D) n=1699, refcount: 1>
refcount: 1>
new_DM -- step:     1
Initializing Density Matrix...
DM filled with atomic data:
<dSpData2D:DM initialized from atoms
  <sparsity:sparsity for geom step 0
    nrows_g=16 nrows=2 sparsity=6.6367 nnzs=1699, refcount: 8>
  <dData2D:DM n=1699 m=1, refcount: 1>
refcount: 1>
No. of atoms with KB's overlaping orbs in proc 0. Max # of overlaps:     166     169
New grid distribution:   1
           1       1:   20    1:    7    1:   14
           2       1:   20    1:    7   15:   28
           3       1:   20    1:    7   29:   41
           4       1:   20    1:    7   42:   54
           5       1:   20    8:   14    1:   14
           6       1:   20    8:   14   15:   28
           7       1:   20    8:   14   29:   41
           8       1:   20    8:   14   42:   54
           9       1:   20   15:   20    1:   14
          10       1:   20   15:   20   15:   28
          11       1:   20   15:   20   29:   41
          12       1:   20   15:   20   42:   54

InitMesh: MESH =    40 x    40 x   108 =      172800
InitMesh: (bp) =    20 x    20 x    54 =       21600
InitMesh: Mesh cutoff (required, used) =   300.000   323.586 Ry
ExtMesh (bp) on 0 =   160 x   147 x   158 =     3716160
New grid distribution:   2
           1       1:   20    1:    7    1:   13
           2      11:   20    8:   20    1:   13
           3       1:   20    1:    7   28:   42
           4       1:   20    1:    7   43:   54
           5       1:   20    1:    7   14:   27
           6       1:   10    8:   20   14:   27
           7       1:   10    8:   20   28:   42
           8      11:   20    8:   20   43:   54
           9       1:   10    8:   20    1:   13
          10      11:   20    8:   20   14:   27
          11      11:   20    8:   20   28:   42
          12       1:   10    8:   20   43:   54
New grid distribution:   3
           1       1:   10    8:   20   15:   27
           2       1:   20    1:    7   15:   27
           3       1:   20    1:    7   28:   41
           4       1:   20    1:    7   42:   54
           5       1:   20    1:    7    1:   14
           6       1:   10    8:   20    1:   14
           7      11:   20    8:   20   28:   41
           8       1:   10    8:   20   42:   54
           9      11:   20    8:   20    1:   14
          10      11:   20    8:   20   15:   27
          11       1:   10    8:   20   28:   41
          12      11:   20    8:   20   42:   54
Setting up quadratic distribution...
ExtMesh (bp) on 0 =   160 x   147 x   157 =     3692640
PhiOnMesh: Number of (b)points on node 0 =                 1820
PhiOnMesh: nlist on node 0 =               173175

stepf: Fermi-Dirac step function

siesta: Program's energy decomposition (eV):
siesta: Ebs     =        74.057989
siesta: Eions   =       380.620085
siesta: Ena     =       124.215367
siesta: Ekin    =       253.529150
siesta: Enl     =        24.102047
siesta: Eso     =         0.000000
siesta: Edftu   =         0.000000
siesta: DEna    =       -34.169477
siesta: DUscf   =        65.273462
siesta: DUext   =         0.000000
siesta: Exc     =      -171.741395
siesta: eta*DQ  =         0.000000
siesta: Emadel  =         0.000000
siesta: Emeta   =         0.000000
siesta: Emolmec =        -5.012796
siesta: Ekinion =         0.000000
siesta: Eharris =        29.061694
siesta: Etot    =      -124.423727
siesta: FreeEng =      -124.436067

        iscf     Eharris(eV)        E_KS(eV)     FreeEng(eV)     dDmax    Ef(eV) dHmax(eV)
   scf:    1       29.061694     -124.423727     -124.436067  3.045997 -3.676154 35.492538
timer: Routine,Calls,Time,% = IterSCF        1       0.527  14.98
   scf:    2     -117.172681     -160.351638     -160.363979 14.037875 -0.610683 14.140431
   scf:    3     -149.856180     -165.238793     -165.264469  8.900943 -2.253993  8.761778
   scf:    4     -161.234305     -167.322702     -167.347210  5.558953 -1.312648  5.617665
   scf:    5     -136.692410     -159.759010     -159.776637  7.116958 -3.652424 14.985954
   scf:    6     -170.669955     -168.663694     -168.680507  4.603988 -2.199981  1.235053
   scf:    7     -168.764530     -168.728416     -168.742340  0.322158 -2.160535  0.405346
   scf:    8     -168.710009     -168.719837     -168.734528  0.066066 -2.178162  0.587244
   scf:    9     -168.736414     -168.728853     -168.742862  0.073962 -2.175129  0.399019
   scf:   10     -168.738529     -168.734276     -168.747528  0.062471 -2.155353  0.219933
   scf:   11     -168.738017     -168.736569     -168.749309  0.050900 -2.128411  0.058163
   scf:   12     -168.731996     -168.735336     -168.747755  0.075842 -2.065244  0.214990
   scf:   13     -168.737434     -168.736836     -168.749389  0.049598 -2.106759  0.035313
   scf:   14     -168.736186     -168.736624     -168.749332  0.025253 -2.125237  0.052384
   scf:   15     -168.736946     -168.736840     -168.749433  0.017794 -2.112405  0.009052
   scf:   16     -168.736806     -168.736825     -168.749436  0.003199 -2.114807  0.002138
   scf:   17     -168.736831     -168.736828     -168.749436  0.000513 -2.114440  0.000369

SCF Convergence by FreeE+DM+H criterion
|FreeE_i-FreeE_(i-1)| (eV) <     0.00100000
max |DM_out - DM_in|         :     0.0005130113
max |H_out - H_in|      (eV) :     0.0003689182
SCF cycle converged after 17 iterations

Using DM_out to compute the final energy and forces
No. of atoms with KB's overlaping orbs in proc 0. Max # of overlaps:     166     169

MM-Stress (kbar):        6.92        6.92       24.14       -0.00        0.00        0.00

siesta: E_KS(eV) =             -168.7368

siesta: E_KS - E_eggbox =      -168.7368

siesta: Atomic forces (eV/Ang):
     1   -0.000000    0.000000    0.000000
     2   -0.100712   -0.000021   -0.654879
     3    0.100712    0.000021    0.654879
     4    0.050338   -0.087230   -0.654879
     5   -0.050338    0.087230    0.654879
     6    0.050336    0.087184   -0.654817
     7   -0.050336   -0.087184    0.654817
     8    0.100712    0.000021   -0.654879
     9   -0.100712   -0.000021    0.654879
    10   -0.050338    0.087230   -0.654879
    11    0.050338   -0.087230    0.654879
    12   -0.050336   -0.087184   -0.654817
    13    0.050336    0.087184    0.654817
----------------------------------------
   Tot   -0.000000    0.000000    0.000000
----------------------------------------
   Max    0.654879
   Res    0.367520    sqrt( Sum f_i^2 / 3N )
----------------------------------------
   Max    0.654879    constrained

Stress tensor Voigt[x,y,z,yz,xz,xy] (kbar):    -1998.02    -1998.03      268.10       -0.00       -0.00       -0.01
(Free)E + p*V (eV/cell)      -50.1368
Target enthalpy (eV/cell)     -168.7494

siesta: Eigenvalues (eV):
  ik is       eps
   1  1  -14.1054  -13.5010   -9.2648   -2.7815   -1.8772   -1.8771    6.5164    6.5165    9.6230    9.6230
           9.8001    9.8001    9.9599    9.9599   23.7511   23.8852
   2  1  -12.8941  -12.3218  -12.2407  -12.1789   -8.8991   -5.3460   -3.8631   -3.4084   -2.5667   -2.2777
          -0.1073    0.7313   17.5131   17.5151   18.3073   18.3101
   3  1  -12.8941  -12.3218  -12.2407  -12.1789   -8.8991   -5.3460   -3.8631   -3.4084   -2.5667   -2.2777
          -0.1073    0.7313   17.5131   17.5151   18.3073   18.3101
   4  1  -12.8941  -12.3218  -12.2407  -12.1790   -8.8991   -5.3460   -3.8631   -3.4084   -2.5666   -2.2777
          -0.1074    0.7313   17.5131   17.5151   18.3073   18.3101
   5  1  -14.0275  -13.8307   -8.6186   -3.4398   -1.8876   -1.8875    7.2934    7.2934    7.4349    7.4350
           8.0930    8.0930   13.0037   13.0038   23.7828   23.8410
   6  1  -12.8110  -12.5633  -12.5054  -11.8352   -8.3298   -4.9277   -4.5648   -3.9348   -2.1326   -1.3742
          -0.3147    0.3484   17.8804   17.8845   17.9325   17.9357
   7  1  -12.8110  -12.5633  -12.5054  -11.8352   -8.3298   -4.9277   -4.5648   -3.9348   -2.1326   -1.3742
          -0.3147    0.3484   17.8804   17.8845   17.9325   17.9357
   8  1  -12.8110  -12.5632  -12.5054  -11.8352   -8.3298   -4.9277   -4.5648   -3.9348   -2.1325   -1.3742
          -0.3147    0.3482   17.8804   17.8845   17.9325   17.9357
siesta: Fermi energy =      -2.114440 eV

siesta: Program's energy decomposition (eV):
siesta: Ebs     =      -131.558380
siesta: Eions   =       380.620085
siesta: Ena     =       124.215367
siesta: Ekin    =       196.312603
siesta: Enl     =        49.848972
siesta: Eso     =         0.000000
siesta: Edftu   =         0.000000
siesta: DEna    =        -4.040358
siesta: DUscf   =         3.144383
siesta: DUext   =         0.000000
siesta: Exc     =      -152.584914
siesta: eta*DQ  =         0.000000
siesta: Emadel  =         0.000000
siesta: Emeta   =         0.000000
siesta: Emolmec =        -5.012796
siesta: Ekinion =         0.000000
siesta: Eharris =      -168.736831
siesta: Etot    =      -168.736828
siesta: FreeEng =      -168.749436

siesta: Final energy (eV):
siesta:  Band Struct. =    -131.558380
siesta:       Kinetic =     196.312603
siesta:       Hartree =     105.100034
siesta:       Edftu   =       0.000000
siesta:       Eso     =       0.000000
siesta:    Ext. field =       0.000000
siesta:   Exch.-corr. =    -152.584914
siesta:  Ion-electron =    -380.517630
siesta:       Ion-ion =      67.965875
siesta:       Ekinion =       0.000000
siesta:         Total =    -168.736828
siesta:         Fermi =      -2.114440

siesta: Atomic forces (eV/Ang):
siesta:      1   -0.000000    0.000000    0.000000
siesta:      2   -0.100712   -0.000021   -0.654879
siesta:      3    0.100712    0.000021    0.654879
siesta:      4    0.050338   -0.087230   -0.654879
siesta:      5   -0.050338    0.087230    0.654879
siesta:      6    0.050336    0.087184   -0.654817
siesta:      7   -0.050336   -0.087184    0.654817
siesta:      8    0.100712    0.000021   -0.654879
siesta:      9   -0.100712   -0.000021    0.654879
siesta:     10   -0.050338    0.087230   -0.654879
siesta:     11    0.050338   -0.087230    0.654879
siesta:     12   -0.050336   -0.087184   -0.654817
siesta:     13    0.050336    0.087184    0.654817
siesta: ----------------------------------------
siesta:    Tot   -0.000000    0.000000    0.000000

siesta: Stress tensor (static) (eV/Ang**3):
siesta:    -1.247054   -0.000003   -0.000000
siesta:    -0.000003   -1.247058   -0.000000
siesta:    -0.000000   -0.000000    0.167332

siesta: Cell volume =        152.931561 Ang**3

siesta: Pressure (static):
siesta:                Solid            Molecule  Units
siesta:           0.00844720          0.00797476  Ry/Bohr**3
siesta:           0.77559309          0.73221578  eV/Ang**3
siesta:        1242.65055487       1173.15168787  kBar
(Free)E+ p_basis*V_orbitals  =        -152.582822
(Free)Eharris+ p_basis*V_orbitals  =        -152.582825

cite: Please see "LiC12_scf.bib" for an exhaustive BiBTeX file.
cite: Please clearly indicate Siesta version in published work: 4.1.5
cite: This calculation has made use of the following articles
cite: which are encouraged to be cited in a published work.
        Primary SIESTA paper
          DOI: www.doi.org/10.1088/0953-8984/14/11/302

>> End of run:   9-NOV-2022  14:31:04
Job completed
