Siesta Version  : 4.1.5
Architecture    : x86_64-unknown-linux-gnu--unknown
Compiler version: GNU Fortran (GCC) 11.3.0
Compiler flags  : mpif90 -g -O2 -fallow-argument-mismatch
PP flags        : -DMPI -DFC_HAVE_FLUSH -DFC_HAVE_ABORT
Libraries       :  -I/global/software/sl-7.x86_64/modules/intel/2020.4.304/mkl/include  /globall/software/sl-7.x86_64/modules/intel/2020.4.304/mkl/lib/intel64/libmkl_scalapack_lp64.a -Wl,--start-group /global/software/sl-7.x86_64/modules/intel/2020.4.304/mkl/lib/intel64/libmkl_intel_lp64.a /global/software/sl-7.x86_64/modules/intel/2020.4.304/mkl/lib/intel64/libmkl_sequential.a /global/software/sl-7.x86_64/modules/intel/2020.4.304/mkl/lib/intel64/libmkl_core.a /global/software/sl-7.x86_64/modules/intel/2020.4.304/mkl/lib/intel64/libmkl_blacs_openmpi_lp64.a -Wl,--end-group -lpthread -lm -ldl
PARALLEL version

* Running on 12 nodes in parallel
>> Start of run:   9-NOV-2022  14:24:13

                           ***********************       
                           *  WELCOME TO SIESTA  *       
                           ***********************       

reinit: Reading from standard input
reinit: Dumped input in INPUT_TMP.20297
************************** Dump of input data file ****************************
SystemName LiC12_scf
SystemLabel LiC12_scf
NumberOfAtoms   13
NumberOfSpecies 2
%block ChemicalSpeciesLabel
1  3   Li-gga
2  6   C-gga
%endblock ChemicalSpeciesLabel
PAO.BasisSize  SZ
PAO.EnergyShift  10 meV
%block PS.Lmax
C-gga   2
Li-gga  2
%endblock PS.Lmax
LatticeConstant 1.000000 Ang
%block LatticeVectors
	4.2686000000	0.0000000000	0.0000000000
	-2.1343000000	3.6967160386	0.0000000000
	0.0000000000	0.0000000000	4.0732820000
%endblock LatticeVectors
AtomicCoordinatesFormat Ang
%block AtomicCoordinatesAndAtomicSpecies
	0.00000000	0.00000000	0.00000000	2
	1.42144380	0.00000000	1.01832050	1
	2.84715620	0.00000000	3.05496150	1
	-0.71072190	1.23100644	1.01832050	1
	-1.42357810	2.46570960	3.05496150	1
	1.42357810	2.46570960	1.01832050	1
	0.71072190	1.23100644	3.05496150	1
	2.84715620	0.00000000	1.01832050	1
	1.42144380	0.00000000	3.05496150	1
	-1.42357810	2.46570960	1.01832050	1
	-0.71072190	1.23100644	3.05496150	1
	0.71072190	1.23100644	1.01832050	1
	1.42357810	2.46570960	3.05496150	1
%endblock AtomicCoordinatesAndAtomicSpecies
Kgrid_NoTRS  T
%block kgrid_MonkhorstPack
2       0       0       0.0
0       2       0       0.0
0       0       2       0.0
%endblock kgrid_MonkhorstPack
AtomCoorFormatOut Ang
BlockSize 1
#ProcessorY 12
Diag.ParallelOverK   T
Diag.DivideAndConquer F
MeshCutoff   300 Ry
SCF.FreeE.Tolerance 1E-3 eV
SCF.EDM.Tolerance   5E-3 eV
DM.Tolerance  1E-3
DM.Require.Energy.Convergence T
DM.NumberPulay 4
XC.Functional GGA
XC.Authors    PBE
UseSaveData        F
MD.TypeOfRun       CG
MD.VariableCell    F
MD.NumCGsteps      00
MD.MaxCGDispl      0.200000 Bohr
MD.MaxStressTol    1.000000 GPa
MD.MaxForceTol     0.010000 eV/Ang
WriteMDHistory T
WriteCoorStep T
WriteForces T
WriteCoorStep    T
WriteEigenValues T
WriteDM    F
MM.UnitsDistance Ang  # what this program prints out DO NOT CHANGE
MM.UnitsEnergy    eV  # what this program prints out DO NOT CHANGE
MM.Grimme.S6     0.75 # Grimme-paper for PBE (correct for your functional)
MM.Grimme.D     20.   # Grimme-paper (correct for your functional)
%block MM.Potentials
  1   1 Grimme     16.69      1.650 # Li, 10.1002/jcc.20495
  1   2 Grimme     17.40      2.277 # Li / C
  2   2 Grimme     18.14      2.904 # C, 10.1002/jcc.20495
%endblock MM.Potentials
#%block ProjectedDensityOfStates
# -200.0  120.0  0.4  12800  eV
#%endblock ProjectedDensityOfStates
************************** End of input data file *****************************

reinit: -----------------------------------------------------------------------
reinit: System Name: LiC12_scf
reinit: -----------------------------------------------------------------------
reinit: System Label: LiC12_scf
reinit: -----------------------------------------------------------------------
Reading two-body potentials
Grimme - two-body potential between 1 and 1
Grimme - two-body potential between 1 and 2
Grimme - two-body potential between 2 and 2

initatom: Reading input for the pseudopotentials and atomic orbitals ----------
Species number:   1 Atomic number:    3 Label: Li-gga
Species number:   2 Atomic number:    6 Label: C-gga

Ground state valence configuration:   2s01
Reading pseudopotential information in formatted form from Li-gga.psf

Valence configuration for pseudopotential generation:
2s( 1.00) rc: 2.28
2p( 0.00) rc: 2.28
3d( 0.00) rc: 2.59
4f( 0.00) rc: 2.59
Ground state valence configuration:   2s02  2p02
Reading pseudopotential information in formatted form from C-gga.psf

Valence configuration for pseudopotential generation:
2s( 2.00) rc: 1.56
2p( 2.00) rc: 1.56
3d( 0.00) rc: 1.56
4f( 0.00) rc: 1.56
relmxkb: Read Max KB Ang. Momentum=    2 for species C-gga
relmxkb: Read Max KB Ang. Momentum=    2 for species Li-gga

<basis_specs>
===============================================================================
Li-gga               Z=   3    Mass=  6.9400        Charge= 0.17977+309
Lmxo=0 Lmxkb= 2    BasisType=split      Semic=F
L=0  Nsemic=0  Cnfigmx=2
          i=1  nzeta=1  polorb=0  (2s)
            splnorm:   0.15000    
               vcte:    0.0000    
               rinn:    0.0000    
               qcoe:    0.0000    
               qyuk:    0.0000    
               qwid:   0.10000E-01
                rcs:    0.0000    
            lambdas:    1.0000    
-------------------------------------------------------------------------------
L=0  Nkbl=1  erefs: 0.17977+309
L=1  Nkbl=1  erefs: 0.17977+309
L=2  Nkbl=1  erefs: 0.17977+309
===============================================================================
</basis_specs>

atom: Called for Li-gga                (Z =   3)

read_vps: Pseudopotential generation method:
read_vps: ATM 3.2.2 Troullier-Martins                       
Valence charge for ps generation:    1.00000

read_vps: Pseudopotential includes a core correction:
read_vps: Pseudo-core for xc-correction

xc_check: Exchange-correlation functional:
xc_check: GGA Perdew, Burke & Ernzerhof 1996
V l=0 = -2*Zval/r beyond r=  2.2278
V l=1 = -2*Zval/r beyond r=  2.2278
V l=2 = -2*Zval/r beyond r=  2.5245
All V_l potentials equal beyond r=  2.4622
This should be close to max(r_c) in ps generation
All pots = -2*Zval/r beyond r=  2.5245

VLOCAL1: 99.0% of the norm of Vloc inside      7.160 Ry
VLOCAL1: 99.9% of the norm of Vloc inside     16.318 Ry
atom: Maximum radius for 4*pi*r*r*local-pseudopot. charge    2.86079
atom: Maximum radius for r*vlocal+2*Zval:    2.43160
GHOST: No ghost state for L =  0
GHOST: No ghost state for L =  1
GHOST: No ghost state for L =  2

KBgen: Kleinman-Bylander projectors: 
   l= 0   rc=  2.654023   el= -0.211234   Ekb=  1.742119   kbcos=  0.228463
   l= 1   rc=  2.721230   el= -0.080095   Ekb= -1.122375   kbcos= -0.147941
   l= 2   rc=  2.825246   el=  0.002001   Ekb= -0.207076   kbcos= -0.031965

KBgen: Total number of Kleinman-Bylander projectors:    9
atom: -------------------------------------------------------------------------

atom: SANKEY-TYPE ORBITALS:

SPLIT: Orbitals with angular momentum L= 0

SPLIT: Basis orbitals for state 2s

SPLIT: PAO cut-off radius determined from an
SPLIT: energy shift=  0.000735 Ry

   izeta = 1
                 lambda =    1.000000
                     rc =   11.897381
                 energy =   -0.210580
                kinetic =    0.143382
    potential(screened) =   -0.353962
       potential(ionic) =   -0.533453
atom: Total number of Sankey-type orbitals:  1

atm_pop: Valence configuration (for local Pseudopot. screening):
 2s( 1.00)                                                            
Vna: chval, zval:    1.00000   1.00000

Vna:  Cut-off radius for the neutral-atom potential:  11.897381
comcore: Pseudo-core radius Rcore=  3.450946

atom: _________________________________________________________________________

<basis_specs>
===============================================================================
C-gga                Z=   6    Mass=  12.010        Charge= 0.17977+309
Lmxo=1 Lmxkb= 2    BasisType=split      Semic=F
L=0  Nsemic=0  Cnfigmx=2
          i=1  nzeta=1  polorb=0  (2s)
            splnorm:   0.15000    
               vcte:    0.0000    
               rinn:    0.0000    
               qcoe:    0.0000    
               qyuk:    0.0000    
               qwid:   0.10000E-01
                rcs:    0.0000    
            lambdas:    1.0000    
L=1  Nsemic=0  Cnfigmx=2
          i=1  nzeta=1  polorb=0  (2p)
            splnorm:   0.15000    
               vcte:    0.0000    
               rinn:    0.0000    
               qcoe:    0.0000    
               qyuk:    0.0000    
               qwid:   0.10000E-01
                rcs:    0.0000    
            lambdas:    1.0000    
-------------------------------------------------------------------------------
L=0  Nkbl=1  erefs: 0.17977+309
L=1  Nkbl=1  erefs: 0.17977+309
L=2  Nkbl=1  erefs: 0.17977+309
===============================================================================
</basis_specs>

atom: Called for C-gga                 (Z =   6)

read_vps: Pseudopotential generation method:
read_vps: ATM 3.2.2 Troullier-Martins                       
Valence charge for ps generation:    4.00000

xc_check: Exchange-correlation functional:
xc_check: GGA Perdew, Burke & Ernzerhof 1996
V l=0 = -2*Zval/r beyond r=  1.5227
V l=1 = -2*Zval/r beyond r=  1.5227
V l=2 = -2*Zval/r beyond r=  1.5227
All V_l potentials equal beyond r=  1.4851
This should be close to max(r_c) in ps generation
All pots = -2*Zval/r beyond r=  1.5227

VLOCAL1: 99.0% of the norm of Vloc inside     19.682 Ry
VLOCAL1: 99.9% of the norm of Vloc inside     44.856 Ry
atom: Maximum radius for 4*pi*r*r*local-pseudopot. charge    1.79142
atom: Maximum radius for r*vlocal+2*Zval:    1.54183
GHOST: No ghost state for L =  0
GHOST: No ghost state for L =  1
GHOST: No ghost state for L =  2

KBgen: Kleinman-Bylander projectors: 
   l= 0   rc=  1.661951   el= -1.010689   Ekb=  5.289847   kbcos=  0.316429
   l= 1   rc=  1.661951   el= -0.388490   Ekb= -4.102504   kbcos= -0.351025
   l= 2   rc=  1.747182   el=  0.001971   Ekb= -1.006005   kbcos= -0.008530

KBgen: Total number of Kleinman-Bylander projectors:    9
atom: -------------------------------------------------------------------------

atom: SANKEY-TYPE ORBITALS:

SPLIT: Orbitals with angular momentum L= 0

SPLIT: Basis orbitals for state 2s

SPLIT: PAO cut-off radius determined from an
SPLIT: energy shift=  0.000735 Ry

   izeta = 1
                 lambda =    1.000000
                     rc =    5.948690
                 energy =   -1.010099
                kinetic =    0.827121
    potential(screened) =   -1.837220
       potential(ionic) =   -5.392783

SPLIT: Orbitals with angular momentum L= 1

SPLIT: Basis orbitals for state 2p

SPLIT: PAO cut-off radius determined from an
SPLIT: energy shift=  0.000735 Ry

   izeta = 1
                 lambda =    1.000000
                     rc =    7.638387
                 energy =   -0.387843
                kinetic =    2.314739
    potential(screened) =   -2.702582
       potential(ionic) =   -6.092371
atom: Total number of Sankey-type orbitals:  4

atm_pop: Valence configuration (for local Pseudopot. screening):
 2s( 2.00)                                                            
 2p( 2.00)                                                            
Vna: chval, zval:    4.00000   4.00000

Vna:  Cut-off radius for the neutral-atom potential:   7.638387

atom: _________________________________________________________________________

prinput: Basis input ----------------------------------------------------------

PAO.BasisType split     

%block ChemicalSpeciesLabel
    1    3 Li-gga                  # Species index, atomic number, species label
    2    6 C-gga                   # Species index, atomic number, species label
%endblock ChemicalSpeciesLabel

%block PAO.Basis                 # Define Basis set
Li-gga                1                    # Species label, number of l-shells
 n=2   0   1                         # n, l, Nzeta 
  11.897   
   1.000   
C-gga                 2                    # Species label, number of l-shells
 n=2   0   1                         # n, l, Nzeta 
   5.949   
   1.000   
 n=2   1   1                         # n, l, Nzeta 
   7.638   
   1.000   
%endblock PAO.Basis

prinput: ----------------------------------------------------------------------

coor:   Atomic-coordinates input format  =     Cartesian coordinates
coor:                                          (in Angstroms)

siesta: Atomic coordinates (Bohr) and species
siesta:      0.00000   0.00000   0.00000  2        1
siesta:      2.68614   0.00000   1.92435  1        2
siesta:      5.38035   0.00000   5.77304  1        3
siesta:     -1.34307   2.32627   1.92435  1        4
siesta:     -2.69017   4.65952   5.77304  1        5
siesta:      2.69017   4.65952   1.92435  1        6
siesta:      1.34307   2.32627   5.77304  1        7
siesta:      5.38035   0.00000   1.92435  1        8
siesta:      2.68614   0.00000   5.77304  1        9
siesta:     -2.69017   4.65952   1.92435  1       10
siesta:     -1.34307   2.32627   5.77304  1       11
siesta:      1.34307   2.32627   1.92435  1       12
siesta:      2.69017   4.65952   5.77304  1       13

siesta: System type = bulk      

initatomlists: Number of atoms, orbitals, and projectors:     13    16   117

siesta: ******************** Simulation parameters ****************************
siesta:
siesta: The following are some of the parameters of the simulation.
siesta: A complete list of the parameters used, including default values,
siesta: can be found in file out.fdf
siesta:
redata: Spin configuration                          = none
redata: Number of spin components                   = 1
redata: Time-Reversal Symmetry                      = T
redata: Spin spiral                                 = F
redata: Long output                                 =   F
redata: Number of Atomic Species                    =        2
redata: Charge density info will appear in .RHO file
redata: Write Mulliken Pop.                         = NO
redata: Matel table size (NRTAB)                    =     1024
redata: Mesh Cutoff                                 =   300.0000 Ry
redata: Net charge of the system                    =     0.0000 |e|
redata: Min. number of SCF Iter                     =        0
redata: Max. number of SCF Iter                     =     1000
redata: SCF convergence failure will abort job
redata: SCF mix quantity                            = Hamiltonian
redata: Mix DM or H after convergence               =   F
redata: Recompute H after scf cycle                 =   F
redata: Mix DM in first SCF step                    =   T
redata: Write Pulay info on disk                    =   F
redata: New DM Occupancy tolerance                  = 0.000000000001
redata: No kicks to SCF
redata: DM Mixing Weight for Kicks                  =     0.5000
redata: Require Harris convergence for SCF          =   F
redata: Harris energy tolerance for SCF             =     0.000100 eV
redata: Require DM convergence for SCF              =   T
redata: DM tolerance for SCF                        =     0.001000
redata: Require EDM convergence for SCF             =   F
redata: EDM tolerance for SCF                       =     0.005000 eV
redata: Require H convergence for SCF               =   T
redata: Hamiltonian tolerance for SCF               =     0.001000 eV
redata: Require (free) Energy convergence for SCF   =   T
redata: (free) Energy tolerance for SCF             =     0.001000 eV
redata: Using Saved Data (generic)                  =   F
redata: Use continuation files for DM               =   F
redata: Neglect nonoverlap interactions             =   F
redata: Method of Calculation                       = Diagonalization
redata: Electronic Temperature                      =   299.9869 K
redata: Fix the spin of the system                  =   F
redata: Dynamics option                             = Single-point calculation
mix.SCF: Pulay mixing                            = Pulay
mix.SCF:    Variant                              = stable
mix.SCF:    History steps                        = 4
mix.SCF:    Linear mixing weight                 =     0.250000
mix.SCF:    Mixing weight                        =     0.250000
mix.SCF:    SVD condition                        = 0.1000E-07
redata: ***********************************************************************

%block SCF.Mixers
  Pulay
%endblock SCF.Mixers

%block SCF.Mixer.Pulay
  # Mixing method
  method pulay
  variant stable

  # Mixing options
  weight 0.2500
  weight.linear 0.2500
  history 4
%endblock SCF.Mixer.Pulay

DM_history_depth set to one: no extrapolation allowed by default for geometry relaxation
Size of DM history Fstack: 1
Total number of electrons:    16.000000
Total ionic charge:    16.000000

* ProcessorY, Blocksize:    3   1


* Orbital distribution balance (max,min):     2     1

k-point displ. along   1 input, could be:     0.00    0.50
k-point displ. along   2 input, could be:     0.00    0.50
k-point displ. along   3 input, could be:     0.00    0.50
 Kpoints in:            8 . Kpoints trimmed:            8

siesta: k-grid: Number of k-points =     8
siesta: k-grid: Cutoff (effective) =     4.073 Ang
siesta: k-grid: Supercell and displacements
siesta: k-grid:    2   0   0      0.000
siesta: k-grid:    0   2   0      0.000
siesta: k-grid:    0   0   2      0.000

diag: Algorithm                                     = Expert
diag: Parallel over k                               =   T
diag: Use parallel 2D distribution                  =   T
diag: Parallel block-size                           = 1
diag: Parallel distribution                         =     3 x     4
diag: Used triangular part                          = Lower
diag: Absolute tolerance                            =  0.100E-15
diag: Orthogonalization factor                      =  0.100E-05
diag: Memory factor                                 =  1.0000

superc: Internal auxiliary supercell:     9 x     9 x     7  =     567
superc: Number of atoms, orbitals, and projectors:   7371   9072  66339


ts: **************************************************************
ts: Save H and S matrices                           =    F
ts: Save DM and EDM matrices                        =    F
ts: Only save the overlap matrix S                  =    F
ts: **************************************************************

************************ Begin: TS CHECKS AND WARNINGS ************************
************************ End: TS CHECKS AND WARNINGS **************************


                     ====================================
                        Single-point calculation
                     ====================================

outcoor: Atomic coordinates (Ang):                          
    0.00000000    0.00000000    0.00000000   2       1  C-gga
    1.42144380    0.00000000    1.01832050   1       2  Li-gga
    2.84715620    0.00000000    3.05496150   1       3  Li-gga
   -0.71072190    1.23100644    1.01832050   1       4  Li-gga
   -1.42357810    2.46570960    3.05496150   1       5  Li-gga
    1.42357810    2.46570960    1.01832050   1       6  Li-gga
    0.71072190    1.23100644    3.05496150   1       7  Li-gga
    2.84715620    0.00000000    1.01832050   1       8  Li-gga
    1.42144380    0.00000000    3.05496150   1       9  Li-gga
   -1.42357810    2.46570960    1.01832050   1      10  Li-gga
   -0.71072190    1.23100644    3.05496150   1      11  Li-gga
    0.71072190    1.23100644    1.01832050   1      12  Li-gga
    1.42357810    2.46570960    3.05496150   1      13  Li-gga

superc: Internal auxiliary supercell:     9 x     9 x     7  =     567
superc: Number of atoms, orbitals, and projectors:   7371   9072  66339

outcell: Unit cell vectors (Ang):
        4.268600    0.000000    0.000000
       -2.134300    3.696716    0.000000
        0.000000    0.000000    4.073282

outcell: Cell vector modules (Ang)   :    4.268600    4.268600    4.073282
outcell: Cell angles (23,13,12) (deg):     90.0000     90.0000    120.0000
outcell: Cell volume (Ang**3)        :     64.2756
<dSpData1D:S at geom step 0
  <sparsity:sparsity for geom step 0
    nrows_g=16 nrows=2 sparsity=17.7031 nnzs=4532, refcount: 7>
  <dData1D:(new from dSpData1D) n=4532, refcount: 1>
refcount: 1>
new_DM -- step:     1
Initializing Density Matrix...
DM filled with atomic data:
<dSpData2D:DM initialized from atoms
  <sparsity:sparsity for geom step 0
    nrows_g=16 nrows=2 sparsity=17.7031 nnzs=4532, refcount: 8>
  <dData2D:DM n=4532 m=1, refcount: 1>
refcount: 1>
No. of atoms with KB's overlaping orbs in proc 0. Max # of overlaps:     396     412
New grid distribution:   1
           1       1:   20    1:    7    1:    6
           2       1:   20    1:    7    7:   12
           3       1:   20    1:    7   13:   18
           4       1:   20    1:    7   19:   24
           5       1:   20    8:   14    1:    6
           6       1:   20    8:   14    7:   12
           7       1:   20    8:   14   13:   18
           8       1:   20    8:   14   19:   24
           9       1:   20   15:   20    1:    6
          10       1:   20   15:   20    7:   12
          11       1:   20   15:   20   13:   18
          12       1:   20   15:   20   19:   24

InitMesh: MESH =    40 x    40 x    48 =       76800
InitMesh: (bp) =    20 x    20 x    24 =        9600
InitMesh: Mesh cutoff (required, used) =   300.000   323.586 Ry
ExtMesh (bp) on 0 =   160 x   147 x   158 =     3716160
New grid distribution:   2
           1       1:    7    1:   10    1:   12
           2       8:   20   11:   20   13:   18
           3       1:    7    1:   10   13:   24
           4       8:   20    1:   10    1:    6
           5       8:   20   11:   20    1:    6
           6       8:   20    1:   10    7:   12
           7       1:    7   11:   20   13:   24
           8       8:   20    1:   10   19:   24
           9       1:    7   11:   20    1:   12
          10       8:   20    1:   10   13:   18
          11       8:   20   11:   20    7:   12
          12       8:   20   11:   20   19:   24
New grid distribution:   3
           1       1:    7    1:   10    1:   12
           2       8:   20   11:   20   13:   18
           3       1:    7    1:   10   13:   24
           4       8:   20    1:   10    1:    6
           5       8:   20   11:   20    1:    6
           6       8:   20    1:   10    7:   12
           7       1:    7   11:   20   13:   24
           8       8:   20    1:   10   19:   24
           9       1:    7   11:   20    1:   12
          10       8:   20    1:   10   13:   18
          11       8:   20   11:   20    7:   12
          12       8:   20   11:   20   19:   24
Setting up quadratic distribution...
ExtMesh (bp) on 0 =   147 x   150 x   164 =     3616200
PhiOnMesh: Number of (b)points on node 0 =                  840
PhiOnMesh: nlist on node 0 =               181662

stepf: Fermi-Dirac step function

siesta: Program's energy decomposition (eV):
siesta: Ebs     =      -229.273926
siesta: Eions   =       380.620085
siesta: Ena     =        77.483847
siesta: Ekin    =       332.044701
siesta: Enl     =        30.358105
siesta: Eso     =         0.000000
siesta: Edftu   =         0.000000
siesta: DEna    =       -63.586419
siesta: DUscf   =        42.465065
siesta: DUext   =         0.000000
siesta: Exc     =      -199.238546
siesta: eta*DQ  =         0.000000
siesta: Emadel  =         0.000000
siesta: Emeta   =         0.000000
siesta: Emolmec =       -10.870098
siesta: Ekinion =         0.000000
siesta: Eharris =       -73.071838
siesta: Etot    =      -171.963430
siesta: FreeEng =      -171.963430

        iscf     Eharris(eV)        E_KS(eV)     FreeEng(eV)     dDmax    Ef(eV) dHmax(eV)
   scf:    1      -73.071838     -171.963430     -171.963430  9.610835-13.187093 20.118403
timer: Routine,Calls,Time,% = IterSCF        1       1.185  15.22
   scf:    2     -184.550894     -178.486688     -178.486688  1.035019-13.642447 12.839129
   scf:    3     -176.707130     -183.773130     -183.790145 10.862615 -8.919321  7.932589
   scf:    4     -188.452942     -186.605551     -186.605551  2.737348-11.552677  1.802642
   scf:    5     -186.454428     -186.532029     -186.532029  0.155942-11.395659  2.194226
   scf:    6     -186.860469     -186.756398     -186.756398  0.829075-12.225940  0.027509
   scf:    7     -186.756473     -186.756443     -186.756443  0.008664-12.235456  0.005005
   scf:    8     -186.756446     -186.756445     -186.756445  0.001688-12.237197  0.001542
   scf:    9     -186.756445     -186.756445     -186.756445  0.000619-12.237763  0.000019

SCF Convergence by FreeE+DM+H criterion
|FreeE_i-FreeE_(i-1)| (eV) <     0.00100000
max |DM_out - DM_in|         :     0.0006190353
max |H_out - H_in|      (eV) :     0.0000194486
SCF cycle converged after 9 iterations

Using DM_out to compute the final energy and forces
No. of atoms with KB's overlaping orbs in proc 0. Max # of overlaps:     396     412

MM-Stress (kbar):      153.30      153.30      629.76        0.00       -0.00       -0.00

siesta: E_KS(eV) =             -186.7564

siesta: E_KS - E_eggbox =      -186.7564

siesta: Atomic forces (eV/Ang):
     1    0.000000    0.000000    0.000000
     2   -0.713034    0.000011   -1.100641
     3    0.713034   -0.000011    1.100641
     4    0.356527   -0.617500   -1.100641
     5   -0.356527    0.617500    1.100641
     6    0.356551    0.617565   -1.100708
     7   -0.356551   -0.617565    1.100708
     8    0.713034   -0.000011   -1.100641
     9   -0.713034    0.000011    1.100641
    10   -0.356527    0.617500   -1.100641
    11    0.356527   -0.617500    1.100641
    12   -0.356551   -0.617565   -1.100708
    13    0.356551    0.617565    1.100708
----------------------------------------
   Tot    0.000000   -0.000000   -0.000000
----------------------------------------
   Max    1.100708
   Res    0.727463    sqrt( Sum f_i^2 / 3N )
----------------------------------------
   Max    1.100708    constrained

Stress tensor Voigt[x,y,z,yz,xz,xy] (kbar):    -3499.67    -3499.71    -1447.85        0.00        0.00       -0.03
(Free)E + p*V (eV/cell)      -73.7965
Target enthalpy (eV/cell)     -186.7564

siesta: Eigenvalues (eV):
  ik is       eps
   1  1  -25.9341  -20.9609  -18.5355  -18.5354  -16.5345  -14.9294  -14.9293  -10.0124   -4.5377   -4.5372
           4.0298    4.0298    4.2085    4.2085   15.8999   20.4582
   2  1  -25.9924  -23.1642  -22.5568  -18.7343  -17.8191  -15.4989  -14.2337  -13.7189  -11.7757   -2.5628
           6.0445    9.9040   10.4546   11.9663   13.8588   13.9299
   3  1  -25.9924  -23.1642  -22.5568  -18.7343  -17.8191  -15.4989  -14.2337  -13.7189  -11.7757   -2.5628
           6.0445    9.9040   10.4546   11.9663   13.8588   13.9299
   4  1  -25.9924  -23.1642  -22.5568  -18.7343  -17.8191  -15.4985  -14.2337  -13.7189  -11.7760   -2.5628
           6.0445    9.9040   10.4546   11.9664   13.8588   13.9299
   5  1  -25.8018  -23.5578  -17.7037  -17.6993  -17.6991  -16.1527    0.8766    0.8766    0.9230    0.9231
           1.5137    1.5137   16.3262   16.4777   16.7829   16.7831
   6  1  -25.7611  -23.1799  -23.1047  -22.7944  -19.5829  -17.9520  -17.4059  -17.2523  -12.6998   -5.5146
          -5.2275    7.9580   11.1669   11.2532   11.2588   12.2839
   7  1  -25.7611  -23.1799  -23.1047  -22.7944  -19.5829  -17.9520  -17.4059  -17.2523  -12.6998   -5.5146
          -5.2275    7.9580   11.1669   11.2532   11.2588   12.2839
   8  1  -25.7611  -23.1799  -23.1047  -22.7944  -19.5829  -17.9520  -17.4059  -17.2523  -12.6994   -5.5146
          -5.2279    7.9580   11.1669   11.2532   11.2588   12.2838
siesta: Fermi energy =     -12.237763 eV

siesta: Program's energy decomposition (eV):
siesta: Ebs     =      -310.832109
siesta: Eions   =       380.620085
siesta: Ena     =        77.483847
siesta: Ekin    =       281.072151
siesta: Enl     =        50.960310
siesta: Eso     =         0.000000
siesta: Edftu   =         0.000000
siesta: DEna    =       -29.432150
siesta: DUscf   =        12.423490
siesta: DUext   =         0.000000
siesta: Exc     =      -187.773909
siesta: eta*DQ  =         0.000000
siesta: Emadel  =         0.000000
siesta: Emeta   =         0.000000
siesta: Emolmec =       -10.870098
siesta: Ekinion =         0.000000
siesta: Eharris =      -186.756445
siesta: Etot    =      -186.756445
siesta: FreeEng =      -186.756445

siesta: Final energy (eV):
siesta:  Band Struct. =    -310.832109
siesta:       Kinetic =     281.072151
siesta:       Hartree =     102.091509
siesta:       Edftu   =       0.000000
siesta:       Eso     =       0.000000
siesta:    Ext. field =       0.000000
siesta:   Exch.-corr. =    -187.773909
siesta:  Ion-electron =    -594.170258
siesta:       Ion-ion =     222.894161
siesta:       Ekinion =       0.000000
siesta:         Total =    -186.756445
siesta:         Fermi =     -12.237763

siesta: Atomic forces (eV/Ang):
siesta:      1    0.000000    0.000000    0.000000
siesta:      2   -0.713034    0.000011   -1.100641
siesta:      3    0.713034   -0.000011    1.100641
siesta:      4    0.356527   -0.617500   -1.100641
siesta:      5   -0.356527    0.617500    1.100641
siesta:      6    0.356551    0.617565   -1.100708
siesta:      7   -0.356551   -0.617565    1.100708
siesta:      8    0.713034   -0.000011   -1.100641
siesta:      9   -0.713034    0.000011    1.100641
siesta:     10   -0.356527    0.617500   -1.100641
siesta:     11    0.356527   -0.617500    1.100641
siesta:     12   -0.356551   -0.617565   -1.100708
siesta:     13    0.356551    0.617565    1.100708
siesta: ----------------------------------------
siesta:    Tot    0.000000   -0.000000   -0.000000

siesta: Stress tensor (static) (eV/Ang**3):
siesta:    -2.184301   -0.000019    0.000000
siesta:    -0.000019   -2.184323    0.000000
siesta:     0.000000    0.000000   -0.903669

siesta: Cell volume =         64.275584 Ang**3

siesta: Pressure (static):
siesta:                Solid            Molecule  Units
siesta:           0.01914067          0.01803646  Ry/Bohr**3
siesta:           1.75743118          1.65604682  eV/Ang**3
siesta:        2815.74560241       2653.30819113  kBar
(Free)E+ p_basis*V_orbitals  =        -170.589831
(Free)Eharris+ p_basis*V_orbitals  =        -170.589831

cite: Please see "LiC12_scf.bib" for an exhaustive BiBTeX file.
cite: Please clearly indicate Siesta version in published work: 4.1.5
cite: This calculation has made use of the following articles
cite: which are encouraged to be cited in a published work.
        Primary SIESTA paper
          DOI: www.doi.org/10.1088/0953-8984/14/11/302

>> End of run:   9-NOV-2022  14:24:31
Job completed
