Siesta Version  : 4.1.5
Architecture    : x86_64-unknown-linux-gnu--unknown
Compiler version: GNU Fortran (GCC) 11.3.0
Compiler flags  : mpif90 -g -O2 -fallow-argument-mismatch
PP flags        : -DMPI -DFC_HAVE_FLUSH -DFC_HAVE_ABORT
Libraries       :  -I/global/software/sl-7.x86_64/modules/intel/2020.4.304/mkl/include  /globall/software/sl-7.x86_64/modules/intel/2020.4.304/mkl/lib/intel64/libmkl_scalapack_lp64.a -Wl,--start-group /global/software/sl-7.x86_64/modules/intel/2020.4.304/mkl/lib/intel64/libmkl_intel_lp64.a /global/software/sl-7.x86_64/modules/intel/2020.4.304/mkl/lib/intel64/libmkl_sequential.a /global/software/sl-7.x86_64/modules/intel/2020.4.304/mkl/lib/intel64/libmkl_core.a /global/software/sl-7.x86_64/modules/intel/2020.4.304/mkl/lib/intel64/libmkl_blacs_openmpi_lp64.a -Wl,--end-group -lpthread -lm -ldl
PARALLEL version

* Running on 12 nodes in parallel
>> Start of run:   9-NOV-2022  14:31:35

                           ***********************       
                           *  WELCOME TO SIESTA  *       
                           ***********************       

reinit: Reading from standard input
reinit: Dumped input in INPUT_TMP.62142
************************** Dump of input data file ****************************
SystemName LiC12_scf
SystemLabel LiC12_scf
NumberOfAtoms   13
NumberOfSpecies 2
%block ChemicalSpeciesLabel
1  3   Li-gga
2  6   C-gga
%endblock ChemicalSpeciesLabel
PAO.BasisSize  SZ
PAO.EnergyShift  10 meV
%block PS.Lmax
C-gga   2
Li-gga  2
%endblock PS.Lmax
LatticeConstant 1.000000 Ang
%block LatticeVectors
	4.2686000000	0.0000000000	0.0000000000
	-2.1343000000	3.6967160386	0.0000000000
	0.0000000000	0.0000000000	10.2534340000
%endblock LatticeVectors
AtomicCoordinatesFormat Ang
%block AtomicCoordinatesAndAtomicSpecies
	0.00000000	0.00000000	0.00000000	2
	1.42144380	0.00000000	2.56335850	1
	2.84715620	0.00000000	7.69007550	1
	-0.71072190	1.23100644	2.56335850	1
	-1.42357810	2.46570960	7.69007550	1
	1.42357810	2.46570960	2.56335850	1
	0.71072190	1.23100644	7.69007550	1
	2.84715620	0.00000000	2.56335850	1
	1.42144380	0.00000000	7.69007550	1
	-1.42357810	2.46570960	2.56335850	1
	-0.71072190	1.23100644	7.69007550	1
	0.71072190	1.23100644	2.56335850	1
	1.42357810	2.46570960	7.69007550	1
%endblock AtomicCoordinatesAndAtomicSpecies
Kgrid_NoTRS  T
%block kgrid_MonkhorstPack
2       0       0       0.0
0       2       0       0.0
0       0       2       0.0
%endblock kgrid_MonkhorstPack
AtomCoorFormatOut Ang
BlockSize 1
#ProcessorY 12
Diag.ParallelOverK   T
Diag.DivideAndConquer F
MeshCutoff   300 Ry
SCF.FreeE.Tolerance 1E-3 eV
SCF.EDM.Tolerance   5E-3 eV
DM.Tolerance  1E-3
DM.Require.Energy.Convergence T
DM.NumberPulay 4
XC.Functional GGA
XC.Authors    PBE
UseSaveData        F
MD.TypeOfRun       CG
MD.VariableCell    F
MD.NumCGsteps      00
MD.MaxCGDispl      0.200000 Bohr
MD.MaxStressTol    1.000000 GPa
MD.MaxForceTol     0.010000 eV/Ang
WriteMDHistory T
WriteCoorStep T
WriteForces T
WriteCoorStep    T
WriteEigenValues T
WriteDM    F
MM.UnitsDistance Ang  # what this program prints out DO NOT CHANGE
MM.UnitsEnergy    eV  # what this program prints out DO NOT CHANGE
MM.Grimme.S6     0.75 # Grimme-paper for PBE (correct for your functional)
MM.Grimme.D     20.   # Grimme-paper (correct for your functional)
%block MM.Potentials
  1   1 Grimme     16.69      1.650 # Li, 10.1002/jcc.20495
  1   2 Grimme     17.40      2.277 # Li / C
  2   2 Grimme     18.14      2.904 # C, 10.1002/jcc.20495
%endblock MM.Potentials
#%block ProjectedDensityOfStates
# -200.0  120.0  0.4  12800  eV
#%endblock ProjectedDensityOfStates
************************** End of input data file *****************************

reinit: -----------------------------------------------------------------------
reinit: System Name: LiC12_scf
reinit: -----------------------------------------------------------------------
reinit: System Label: LiC12_scf
reinit: -----------------------------------------------------------------------
Reading two-body potentials
Grimme - two-body potential between 1 and 1
Grimme - two-body potential between 1 and 2
Grimme - two-body potential between 2 and 2

initatom: Reading input for the pseudopotentials and atomic orbitals ----------
Species number:   1 Atomic number:    3 Label: Li-gga
Species number:   2 Atomic number:    6 Label: C-gga

Ground state valence configuration:   2s01
Reading pseudopotential information in formatted form from Li-gga.psf

Valence configuration for pseudopotential generation:
2s( 1.00) rc: 2.28
2p( 0.00) rc: 2.28
3d( 0.00) rc: 2.59
4f( 0.00) rc: 2.59
Ground state valence configuration:   2s02  2p02
Reading pseudopotential information in formatted form from C-gga.psf

Valence configuration for pseudopotential generation:
2s( 2.00) rc: 1.56
2p( 2.00) rc: 1.56
3d( 0.00) rc: 1.56
4f( 0.00) rc: 1.56
relmxkb: Read Max KB Ang. Momentum=    2 for species C-gga
relmxkb: Read Max KB Ang. Momentum=    2 for species Li-gga

<basis_specs>
===============================================================================
Li-gga               Z=   3    Mass=  6.9400        Charge= 0.17977+309
Lmxo=0 Lmxkb= 2    BasisType=split      Semic=F
L=0  Nsemic=0  Cnfigmx=2
          i=1  nzeta=1  polorb=0  (2s)
            splnorm:   0.15000    
               vcte:    0.0000    
               rinn:    0.0000    
               qcoe:    0.0000    
               qyuk:    0.0000    
               qwid:   0.10000E-01
                rcs:    0.0000    
            lambdas:    1.0000    
-------------------------------------------------------------------------------
L=0  Nkbl=1  erefs: 0.17977+309
L=1  Nkbl=1  erefs: 0.17977+309
L=2  Nkbl=1  erefs: 0.17977+309
===============================================================================
</basis_specs>

atom: Called for Li-gga                (Z =   3)

read_vps: Pseudopotential generation method:
read_vps: ATM 3.2.2 Troullier-Martins                       
Valence charge for ps generation:    1.00000

read_vps: Pseudopotential includes a core correction:
read_vps: Pseudo-core for xc-correction

xc_check: Exchange-correlation functional:
xc_check: GGA Perdew, Burke & Ernzerhof 1996
V l=0 = -2*Zval/r beyond r=  2.2278
V l=1 = -2*Zval/r beyond r=  2.2278
V l=2 = -2*Zval/r beyond r=  2.5245
All V_l potentials equal beyond r=  2.4622
This should be close to max(r_c) in ps generation
All pots = -2*Zval/r beyond r=  2.5245

VLOCAL1: 99.0% of the norm of Vloc inside      7.160 Ry
VLOCAL1: 99.9% of the norm of Vloc inside     16.318 Ry
atom: Maximum radius for 4*pi*r*r*local-pseudopot. charge    2.86079
atom: Maximum radius for r*vlocal+2*Zval:    2.43160
GHOST: No ghost state for L =  0
GHOST: No ghost state for L =  1
GHOST: No ghost state for L =  2

KBgen: Kleinman-Bylander projectors: 
   l= 0   rc=  2.654023   el= -0.211234   Ekb=  1.742119   kbcos=  0.228463
   l= 1   rc=  2.721230   el= -0.080095   Ekb= -1.122375   kbcos= -0.147941
   l= 2   rc=  2.825246   el=  0.002001   Ekb= -0.207076   kbcos= -0.031965

KBgen: Total number of Kleinman-Bylander projectors:    9
atom: -------------------------------------------------------------------------

atom: SANKEY-TYPE ORBITALS:

SPLIT: Orbitals with angular momentum L= 0

SPLIT: Basis orbitals for state 2s

SPLIT: PAO cut-off radius determined from an
SPLIT: energy shift=  0.000735 Ry

   izeta = 1
                 lambda =    1.000000
                     rc =   11.897381
                 energy =   -0.210580
                kinetic =    0.143382
    potential(screened) =   -0.353962
       potential(ionic) =   -0.533453
atom: Total number of Sankey-type orbitals:  1

atm_pop: Valence configuration (for local Pseudopot. screening):
 2s( 1.00)                                                            
Vna: chval, zval:    1.00000   1.00000

Vna:  Cut-off radius for the neutral-atom potential:  11.897381
comcore: Pseudo-core radius Rcore=  3.450946

atom: _________________________________________________________________________

<basis_specs>
===============================================================================
C-gga                Z=   6    Mass=  12.010        Charge= 0.17977+309
Lmxo=1 Lmxkb= 2    BasisType=split      Semic=F
L=0  Nsemic=0  Cnfigmx=2
          i=1  nzeta=1  polorb=0  (2s)
            splnorm:   0.15000    
               vcte:    0.0000    
               rinn:    0.0000    
               qcoe:    0.0000    
               qyuk:    0.0000    
               qwid:   0.10000E-01
                rcs:    0.0000    
            lambdas:    1.0000    
L=1  Nsemic=0  Cnfigmx=2
          i=1  nzeta=1  polorb=0  (2p)
            splnorm:   0.15000    
               vcte:    0.0000    
               rinn:    0.0000    
               qcoe:    0.0000    
               qyuk:    0.0000    
               qwid:   0.10000E-01
                rcs:    0.0000    
            lambdas:    1.0000    
-------------------------------------------------------------------------------
L=0  Nkbl=1  erefs: 0.17977+309
L=1  Nkbl=1  erefs: 0.17977+309
L=2  Nkbl=1  erefs: 0.17977+309
===============================================================================
</basis_specs>

atom: Called for C-gga                 (Z =   6)

read_vps: Pseudopotential generation method:
read_vps: ATM 3.2.2 Troullier-Martins                       
Valence charge for ps generation:    4.00000

xc_check: Exchange-correlation functional:
xc_check: GGA Perdew, Burke & Ernzerhof 1996
V l=0 = -2*Zval/r beyond r=  1.5227
V l=1 = -2*Zval/r beyond r=  1.5227
V l=2 = -2*Zval/r beyond r=  1.5227
All V_l potentials equal beyond r=  1.4851
This should be close to max(r_c) in ps generation
All pots = -2*Zval/r beyond r=  1.5227

VLOCAL1: 99.0% of the norm of Vloc inside     19.682 Ry
VLOCAL1: 99.9% of the norm of Vloc inside     44.856 Ry
atom: Maximum radius for 4*pi*r*r*local-pseudopot. charge    1.79142
atom: Maximum radius for r*vlocal+2*Zval:    1.54183
GHOST: No ghost state for L =  0
GHOST: No ghost state for L =  1
GHOST: No ghost state for L =  2

KBgen: Kleinman-Bylander projectors: 
   l= 0   rc=  1.661951   el= -1.010689   Ekb=  5.289847   kbcos=  0.316429
   l= 1   rc=  1.661951   el= -0.388490   Ekb= -4.102504   kbcos= -0.351025
   l= 2   rc=  1.747182   el=  0.001971   Ekb= -1.006005   kbcos= -0.008530

KBgen: Total number of Kleinman-Bylander projectors:    9
atom: -------------------------------------------------------------------------

atom: SANKEY-TYPE ORBITALS:

SPLIT: Orbitals with angular momentum L= 0

SPLIT: Basis orbitals for state 2s

SPLIT: PAO cut-off radius determined from an
SPLIT: energy shift=  0.000735 Ry

   izeta = 1
                 lambda =    1.000000
                     rc =    5.948690
                 energy =   -1.010099
                kinetic =    0.827121
    potential(screened) =   -1.837220
       potential(ionic) =   -5.392783

SPLIT: Orbitals with angular momentum L= 1

SPLIT: Basis orbitals for state 2p

SPLIT: PAO cut-off radius determined from an
SPLIT: energy shift=  0.000735 Ry

   izeta = 1
                 lambda =    1.000000
                     rc =    7.638387
                 energy =   -0.387843
                kinetic =    2.314739
    potential(screened) =   -2.702582
       potential(ionic) =   -6.092371
atom: Total number of Sankey-type orbitals:  4

atm_pop: Valence configuration (for local Pseudopot. screening):
 2s( 2.00)                                                            
 2p( 2.00)                                                            
Vna: chval, zval:    4.00000   4.00000

Vna:  Cut-off radius for the neutral-atom potential:   7.638387

atom: _________________________________________________________________________

prinput: Basis input ----------------------------------------------------------

PAO.BasisType split     

%block ChemicalSpeciesLabel
    1    3 Li-gga                  # Species index, atomic number, species label
    2    6 C-gga                   # Species index, atomic number, species label
%endblock ChemicalSpeciesLabel

%block PAO.Basis                 # Define Basis set
Li-gga                1                    # Species label, number of l-shells
 n=2   0   1                         # n, l, Nzeta 
  11.897   
   1.000   
C-gga                 2                    # Species label, number of l-shells
 n=2   0   1                         # n, l, Nzeta 
   5.949   
   1.000   
 n=2   1   1                         # n, l, Nzeta 
   7.638   
   1.000   
%endblock PAO.Basis

prinput: ----------------------------------------------------------------------

coor:   Atomic-coordinates input format  =     Cartesian coordinates
coor:                                          (in Angstroms)

siesta: Atomic coordinates (Bohr) and species
siesta:      0.00000   0.00000   0.00000  2        1
siesta:      2.68614   0.00000   4.84405  1        2
siesta:      5.38035   0.00000  14.53214  1        3
siesta:     -1.34307   2.32627   4.84405  1        4
siesta:     -2.69017   4.65952  14.53214  1        5
siesta:      2.69017   4.65952   4.84405  1        6
siesta:      1.34307   2.32627  14.53214  1        7
siesta:      5.38035   0.00000   4.84405  1        8
siesta:      2.68614   0.00000  14.53214  1        9
siesta:     -2.69017   4.65952   4.84405  1       10
siesta:     -1.34307   2.32627  14.53214  1       11
siesta:      1.34307   2.32627   4.84405  1       12
siesta:      2.69017   4.65952  14.53214  1       13

siesta: System type = bulk      

initatomlists: Number of atoms, orbitals, and projectors:     13    16   117

siesta: ******************** Simulation parameters ****************************
siesta:
siesta: The following are some of the parameters of the simulation.
siesta: A complete list of the parameters used, including default values,
siesta: can be found in file out.fdf
siesta:
redata: Spin configuration                          = none
redata: Number of spin components                   = 1
redata: Time-Reversal Symmetry                      = T
redata: Spin spiral                                 = F
redata: Long output                                 =   F
redata: Number of Atomic Species                    =        2
redata: Charge density info will appear in .RHO file
redata: Write Mulliken Pop.                         = NO
redata: Matel table size (NRTAB)                    =     1024
redata: Mesh Cutoff                                 =   300.0000 Ry
redata: Net charge of the system                    =     0.0000 |e|
redata: Min. number of SCF Iter                     =        0
redata: Max. number of SCF Iter                     =     1000
redata: SCF convergence failure will abort job
redata: SCF mix quantity                            = Hamiltonian
redata: Mix DM or H after convergence               =   F
redata: Recompute H after scf cycle                 =   F
redata: Mix DM in first SCF step                    =   T
redata: Write Pulay info on disk                    =   F
redata: New DM Occupancy tolerance                  = 0.000000000001
redata: No kicks to SCF
redata: DM Mixing Weight for Kicks                  =     0.5000
redata: Require Harris convergence for SCF          =   F
redata: Harris energy tolerance for SCF             =     0.000100 eV
redata: Require DM convergence for SCF              =   T
redata: DM tolerance for SCF                        =     0.001000
redata: Require EDM convergence for SCF             =   F
redata: EDM tolerance for SCF                       =     0.005000 eV
redata: Require H convergence for SCF               =   T
redata: Hamiltonian tolerance for SCF               =     0.001000 eV
redata: Require (free) Energy convergence for SCF   =   T
redata: (free) Energy tolerance for SCF             =     0.001000 eV
redata: Using Saved Data (generic)                  =   F
redata: Use continuation files for DM               =   F
redata: Neglect nonoverlap interactions             =   F
redata: Method of Calculation                       = Diagonalization
redata: Electronic Temperature                      =   299.9869 K
redata: Fix the spin of the system                  =   F
redata: Dynamics option                             = Single-point calculation
mix.SCF: Pulay mixing                            = Pulay
mix.SCF:    Variant                              = stable
mix.SCF:    History steps                        = 4
mix.SCF:    Linear mixing weight                 =     0.250000
mix.SCF:    Mixing weight                        =     0.250000
mix.SCF:    SVD condition                        = 0.1000E-07
redata: ***********************************************************************

%block SCF.Mixers
  Pulay
%endblock SCF.Mixers

%block SCF.Mixer.Pulay
  # Mixing method
  method pulay
  variant stable

  # Mixing options
  weight 0.2500
  weight.linear 0.2500
  history 4
%endblock SCF.Mixer.Pulay

DM_history_depth set to one: no extrapolation allowed by default for geometry relaxation
Size of DM history Fstack: 1
Total number of electrons:    16.000000
Total ionic charge:    16.000000

* ProcessorY, Blocksize:    3   1


* Orbital distribution balance (max,min):     2     1

k-point displ. along   1 input, could be:     0.00    0.50
k-point displ. along   2 input, could be:     0.00    0.50
k-point displ. along   3 input, could be:     0.00    0.50
 Kpoints in:            8 . Kpoints trimmed:            8

siesta: k-grid: Number of k-points =     8
siesta: k-grid: Cutoff (effective) =     4.269 Ang
siesta: k-grid: Supercell and displacements
siesta: k-grid:    2   0   0      0.000
siesta: k-grid:    0   2   0      0.000
siesta: k-grid:    0   0   2      0.000

diag: Algorithm                                     = Expert
diag: Parallel over k                               =   T
diag: Use parallel 2D distribution                  =   T
diag: Parallel block-size                           = 1
diag: Parallel distribution                         =     3 x     4
diag: Used triangular part                          = Lower
diag: Absolute tolerance                            =  0.100E-15
diag: Orthogonalization factor                      =  0.100E-05
diag: Memory factor                                 =  1.0000

superc: Internal auxiliary supercell:     9 x     9 x     3  =     243
superc: Number of atoms, orbitals, and projectors:   3159   3888  28431


ts: **************************************************************
ts: Save H and S matrices                           =    F
ts: Save DM and EDM matrices                        =    F
ts: Only save the overlap matrix S                  =    F
ts: **************************************************************

************************ Begin: TS CHECKS AND WARNINGS ************************
************************ End: TS CHECKS AND WARNINGS **************************


                     ====================================
                        Single-point calculation
                     ====================================

outcoor: Atomic coordinates (Ang):                          
    0.00000000    0.00000000    0.00000000   2       1  C-gga
    1.42144380    0.00000000    2.56335850   1       2  Li-gga
    2.84715620    0.00000000    7.69007550   1       3  Li-gga
   -0.71072190    1.23100644    2.56335850   1       4  Li-gga
   -1.42357810    2.46570960    7.69007550   1       5  Li-gga
    1.42357810    2.46570960    2.56335850   1       6  Li-gga
    0.71072190    1.23100644    7.69007550   1       7  Li-gga
    2.84715620    0.00000000    2.56335850   1       8  Li-gga
    1.42144380    0.00000000    7.69007550   1       9  Li-gga
   -1.42357810    2.46570960    2.56335850   1      10  Li-gga
   -0.71072190    1.23100644    7.69007550   1      11  Li-gga
    0.71072190    1.23100644    2.56335850   1      12  Li-gga
    1.42357810    2.46570960    7.69007550   1      13  Li-gga

superc: Internal auxiliary supercell:     9 x     9 x     3  =     243
superc: Number of atoms, orbitals, and projectors:   3159   3888  28431

outcell: Unit cell vectors (Ang):
        4.268600    0.000000    0.000000
       -2.134300    3.696716    0.000000
        0.000000    0.000000   10.253434

outcell: Cell vector modules (Ang)   :    4.268600    4.268600   10.253434
outcell: Cell angles (23,13,12) (deg):     90.0000     90.0000    120.0000
outcell: Cell volume (Ang**3)        :    161.7972
<dSpData1D:S at geom step 0
  <sparsity:sparsity for geom step 0
    nrows_g=16 nrows=2 sparsity=6.6367 nnzs=1699, refcount: 7>
  <dData1D:(new from dSpData1D) n=1699, refcount: 1>
refcount: 1>
new_DM -- step:     1
Initializing Density Matrix...
DM filled with atomic data:
<dSpData2D:DM initialized from atoms
  <sparsity:sparsity for geom step 0
    nrows_g=16 nrows=2 sparsity=6.6367 nnzs=1699, refcount: 8>
  <dData2D:DM n=1699 m=1, refcount: 1>
refcount: 1>
No. of atoms with KB's overlaping orbs in proc 0. Max # of overlaps:     166     169
New grid distribution:   1
           1       1:   20    1:    7    1:   14
           2       1:   20    1:    7   15:   28
           3       1:   20    1:    7   29:   41
           4       1:   20    1:    7   42:   54
           5       1:   20    8:   14    1:   14
           6       1:   20    8:   14   15:   28
           7       1:   20    8:   14   29:   41
           8       1:   20    8:   14   42:   54
           9       1:   20   15:   20    1:   14
          10       1:   20   15:   20   15:   28
          11       1:   20   15:   20   29:   41
          12       1:   20   15:   20   42:   54

InitMesh: MESH =    40 x    40 x   108 =      172800
InitMesh: (bp) =    20 x    20 x    54 =       21600
InitMesh: Mesh cutoff (required, used) =   300.000   306.627 Ry
ExtMesh (bp) on 0 =   160 x   147 x   150 =     3528000
New grid distribution:   2
           1       1:   10    8:   20   28:   42
           2       1:   20    1:    7   13:   27
           3       1:   10    8:   20    1:   12
           4       1:   20    1:    7   43:   54
           5       1:   20    1:    7   28:   42
           6      11:   20    8:   20   13:   27
           7       1:   20    1:    7    1:   12
           8      11:   20    8:   20   43:   54
           9      11:   20    8:   20    1:   12
          10       1:   10    8:   20   13:   27
          11      11:   20    8:   20   28:   42
          12       1:   10    8:   20   43:   54
New grid distribution:   3
           1       1:   10    8:   20   15:   27
           2       1:   20    1:    7   15:   27
           3       1:   20    1:    7   28:   41
           4       1:   20    1:    7   42:   54
           5       1:   20    1:    7    1:   14
           6       1:   10    8:   20    1:   14
           7      11:   20    8:   20   28:   41
           8       1:   10    8:   20   42:   54
           9      11:   20    8:   20    1:   14
          10      11:   20    8:   20   15:   27
          11       1:   10    8:   20   28:   41
          12      11:   20    8:   20   42:   54
Setting up quadratic distribution...
ExtMesh (bp) on 0 =   150 x   153 x   151 =     3465450
PhiOnMesh: Number of (b)points on node 0 =                 1950
PhiOnMesh: nlist on node 0 =               162485

stepf: Fermi-Dirac step function

siesta: Program's energy decomposition (eV):
siesta: Ebs     =        94.810235
siesta: Eions   =       380.620085
siesta: Ena     =       125.592053
siesta: Ekin    =       250.908480
siesta: Enl     =        23.670470
siesta: Eso     =         0.000000
siesta: Edftu   =         0.000000
siesta: DEna    =       -31.365636
siesta: DUscf   =        70.307367
siesta: DUext   =         0.000000
siesta: Exc     =      -170.609418
siesta: eta*DQ  =         0.000000
siesta: Emadel  =         0.000000
siesta: Emeta   =         0.000000
siesta: Emolmec =        -4.893873
siesta: Ekinion =         0.000000
siesta: Eharris =        46.700750
siesta: Etot    =      -117.010643
siesta: FreeEng =      -117.023179

        iscf     Eharris(eV)        E_KS(eV)     FreeEng(eV)     dDmax    Ef(eV) dHmax(eV)
   scf:    1       46.700750     -117.010643     -117.023179  2.998139 -3.475616 37.776661
timer: Routine,Calls,Time,% = IterSCF        1       0.483  14.81
   scf:    2      -95.676289     -155.317356     -155.329702 15.283980  0.510347 18.026626
   scf:    3     -167.041816     -167.302675     -167.315020  6.760559 -2.011504  1.329720
   scf:    4     -167.396601     -167.357363     -167.369707  0.215612 -1.907377  0.613051
   scf:    5     -167.318170     -167.359847     -167.372191  0.397277 -1.872491  0.675388
   scf:    6     -167.369349     -167.374400     -167.386744  0.232989 -2.057113  0.173633
   scf:    7     -167.362813     -167.371986     -167.384329  0.136962 -1.964691  0.312939
   scf:    8     -167.376324     -167.375538     -167.387882  0.087884 -2.026520  0.000511
   scf:    9     -167.375538     -167.375538     -167.387882  0.000141 -2.026415  0.000018

SCF Convergence by FreeE+DM+H criterion
|FreeE_i-FreeE_(i-1)| (eV) <     0.00100000
max |DM_out - DM_in|         :     0.0001410879
max |H_out - H_in|      (eV) :     0.0000183414
SCF cycle converged after 9 iterations

Using DM_out to compute the final energy and forces
No. of atoms with KB's overlaping orbs in proc 0. Max # of overlaps:     166     169

MM-Stress (kbar):        5.25        5.25       18.84        0.00        0.00       -0.00

siesta: E_KS(eV) =             -167.3755

siesta: E_KS - E_eggbox =      -167.3755

siesta: Atomic forces (eV/Ang):
     1    0.000000   -0.000000    0.000000
     2   -0.060378   -0.000024   -0.573470
     3    0.060378    0.000024    0.573470
     4    0.030168   -0.052301   -0.573470
     5   -0.030168    0.052301    0.573470
     6    0.030167    0.052252   -0.573412
     7   -0.030167   -0.052252    0.573412
     8    0.060378    0.000024   -0.573470
     9   -0.060378   -0.000024    0.573470
    10   -0.030168    0.052301   -0.573470
    11    0.030168   -0.052301    0.573470
    12   -0.030167   -0.052252   -0.573412
    13    0.030167    0.052252    0.573412
----------------------------------------
   Tot    0.000000    0.000000    0.000000
----------------------------------------
   Max    0.573470
   Res    0.319851    sqrt( Sum f_i^2 / 3N )
----------------------------------------
   Max    0.573470    constrained

Stress tensor Voigt[x,y,z,yz,xz,xy] (kbar):    -1918.44    -1918.45      226.83       -0.00       -0.00       -0.00
(Free)E + p*V (eV/cell)      -45.8676
Target enthalpy (eV/cell)     -167.3879

siesta: Eigenvalues (eV):
  ik is       eps
   1  1  -13.7482  -13.5065   -9.1388   -2.4972   -1.4724   -1.4723    6.9687    6.9688    9.1087    9.1087
           9.2594    9.2594    9.8538    9.8539   23.6493   23.9721
   2  1  -12.5308  -12.2663  -12.2062  -11.9456   -8.8258   -5.1243   -3.6752   -3.0331   -2.4009   -2.3204
          -0.2076    0.5573   17.4906   17.4914   18.3048   18.3092
   3  1  -12.5308  -12.2663  -12.2062  -11.9456   -8.8258   -5.1243   -3.6752   -3.0331   -2.4009   -2.3204
          -0.2076    0.5573   17.4906   17.4914   18.3048   18.3092
   4  1  -12.5308  -12.2663  -12.2062  -11.9456   -8.8258   -5.1243   -3.6752   -3.0331   -2.4008   -2.3203
          -0.2077    0.5573   17.4906   17.4914   18.3048   18.3092
   5  1  -13.7928  -13.5588   -8.7367   -2.9514   -1.4678   -1.4677    7.5715    7.5715    7.7023    7.7023
           8.1507    8.1508   11.7685   11.7686   23.7723   23.8133
   6  1  -12.4927  -12.3630  -12.3152  -11.7380   -8.4631   -4.6650   -4.3673   -3.5067   -2.0444   -1.5199
          -0.3028    0.0726   17.8587   17.8640   17.8967   17.8969
   7  1  -12.4927  -12.3630  -12.3152  -11.7380   -8.4631   -4.6650   -4.3673   -3.5067   -2.0444   -1.5199
          -0.3028    0.0726   17.8587   17.8640   17.8967   17.8969
   8  1  -12.4927  -12.3630  -12.3152  -11.7381   -8.4631   -4.6650   -4.3673   -3.5067   -2.0443   -1.5199
          -0.3028    0.0725   17.8587   17.8640   17.8967   17.8969
siesta: Fermi energy =      -2.026415 eV

siesta: Program's energy decomposition (eV):
siesta: Ebs     =      -128.684519
siesta: Eions   =       380.620085
siesta: Ena     =       125.592053
siesta: Ekin    =       192.945985
siesta: Enl     =        50.081300
siesta: Eso     =         0.000000
siesta: Edftu   =         0.000000
siesta: DEna    =        -2.251764
siesta: DUscf   =         2.777985
siesta: DUext   =         0.000000
siesta: Exc     =      -151.007139
siesta: eta*DQ  =         0.000000
siesta: Emadel  =         0.000000
siesta: Emeta   =         0.000000
siesta: Emolmec =        -4.893873
siesta: Ekinion =         0.000000
siesta: Eharris =      -167.375538
siesta: Etot    =      -167.375538
siesta: FreeEng =      -167.387882

siesta: Final energy (eV):
siesta:  Band Struct. =    -128.684519
siesta:       Kinetic =     192.945985
siesta:       Hartree =     106.173938
siesta:       Edftu   =       0.000000
siesta:       Eso     =       0.000000
siesta:    Ext. field =       0.000000
siesta:   Exch.-corr. =    -151.007139
siesta:  Ion-electron =    -378.496561
siesta:       Ion-ion =      67.902113
siesta:       Ekinion =       0.000000
siesta:         Total =    -167.375538
siesta:         Fermi =      -2.026415

siesta: Atomic forces (eV/Ang):
siesta:      1    0.000000   -0.000000    0.000000
siesta:      2   -0.060378   -0.000024   -0.573470
siesta:      3    0.060378    0.000024    0.573470
siesta:      4    0.030168   -0.052301   -0.573470
siesta:      5   -0.030168    0.052301    0.573470
siesta:      6    0.030167    0.052252   -0.573412
siesta:      7   -0.030167   -0.052252    0.573412
siesta:      8    0.060378    0.000024   -0.573470
siesta:      9   -0.060378   -0.000024    0.573470
siesta:     10   -0.030168    0.052301   -0.573470
siesta:     11    0.030168   -0.052301    0.573470
siesta:     12   -0.030167   -0.052252   -0.573412
siesta:     13    0.030167    0.052252    0.573412
siesta: ----------------------------------------
siesta:    Tot    0.000000    0.000000    0.000000

siesta: Stress tensor (static) (eV/Ang**3):
siesta:    -1.197386   -0.000003    0.000000
siesta:    -0.000003   -1.197389   -0.000000
siesta:    -0.000000   -0.000000    0.141577

siesta: Cell volume =        161.797159 Ang**3

siesta: Pressure (static):
siesta:                Solid            Molecule  Units
siesta:           0.00818007          0.00777268  Ry/Bohr**3
siesta:           0.75106586          0.71366124  eV/Ang**3
siesta:        1203.35318529       1143.42372661  kBar
(Free)E+ p_basis*V_orbitals  =        -151.221268
(Free)Eharris+ p_basis*V_orbitals  =        -151.221268

cite: Please see "LiC12_scf.bib" for an exhaustive BiBTeX file.
cite: Please clearly indicate Siesta version in published work: 4.1.5
cite: This calculation has made use of the following articles
cite: which are encouraged to be cited in a published work.
        Primary SIESTA paper
          DOI: www.doi.org/10.1088/0953-8984/14/11/302

>> End of run:   9-NOV-2022  14:31:42
Job completed
