Siesta Version  : 4.1.5
Architecture    : x86_64-unknown-linux-gnu--unknown
Compiler version: GNU Fortran (GCC) 11.3.0
Compiler flags  : mpif90 -g -O2 -fallow-argument-mismatch
PP flags        : -DMPI -DFC_HAVE_FLUSH -DFC_HAVE_ABORT
Libraries       :  -I/global/software/sl-7.x86_64/modules/intel/2020.4.304/mkl/include  /globall/software/sl-7.x86_64/modules/intel/2020.4.304/mkl/lib/intel64/libmkl_scalapack_lp64.a -Wl,--start-group /global/software/sl-7.x86_64/modules/intel/2020.4.304/mkl/lib/intel64/libmkl_intel_lp64.a /global/software/sl-7.x86_64/modules/intel/2020.4.304/mkl/lib/intel64/libmkl_sequential.a /global/software/sl-7.x86_64/modules/intel/2020.4.304/mkl/lib/intel64/libmkl_core.a /global/software/sl-7.x86_64/modules/intel/2020.4.304/mkl/lib/intel64/libmkl_blacs_openmpi_lp64.a -Wl,--end-group -lpthread -lm -ldl
PARALLEL version

* Running on 12 nodes in parallel
>> Start of run:   9-NOV-2022  14:21:06

                           ***********************       
                           *  WELCOME TO SIESTA  *       
                           ***********************       

reinit: Reading from standard input
reinit: Dumped input in INPUT_TMP.33241
************************** Dump of input data file ****************************
SystemName LiC12_scf
SystemLabel LiC12_scf
NumberOfAtoms   13
NumberOfSpecies 2
%block ChemicalSpeciesLabel
1  3   Li-gga
2  6   C-gga
%endblock ChemicalSpeciesLabel
PAO.BasisSize  SZ
PAO.EnergyShift  10 meV
%block PS.Lmax
C-gga   2
Li-gga  2
%endblock PS.Lmax
LatticeConstant 1.000000 Ang
%block LatticeVectors
	4.2686000000	0.0000000000	0.0000000000
	-2.1343000000	3.6967160386	0.0000000000
	0.0000000000	0.0000000000	5.3374040000
%endblock LatticeVectors
AtomicCoordinatesFormat Ang
%block AtomicCoordinatesAndAtomicSpecies
	0.00000000	0.00000000	0.00000000	2
	1.42144380	0.00000000	1.33435100	1
	2.84715620	0.00000000	4.00305300	1
	-0.71072190	1.23100644	1.33435100	1
	-1.42357810	2.46570960	4.00305300	1
	1.42357810	2.46570960	1.33435100	1
	0.71072190	1.23100644	4.00305300	1
	2.84715620	0.00000000	1.33435100	1
	1.42144380	0.00000000	4.00305300	1
	-1.42357810	2.46570960	1.33435100	1
	-0.71072190	1.23100644	4.00305300	1
	0.71072190	1.23100644	1.33435100	1
	1.42357810	2.46570960	4.00305300	1
%endblock AtomicCoordinatesAndAtomicSpecies
Kgrid_NoTRS  T
%block kgrid_MonkhorstPack
2       0       0       0.0
0       2       0       0.0
0       0       2       0.0
%endblock kgrid_MonkhorstPack
AtomCoorFormatOut Ang
BlockSize 1
#ProcessorY 12
Diag.ParallelOverK   T
Diag.DivideAndConquer F
MeshCutoff   300 Ry
SCF.FreeE.Tolerance 1E-3 eV
SCF.EDM.Tolerance   5E-3 eV
DM.Tolerance  1E-3
DM.Require.Energy.Convergence T
DM.NumberPulay 4
XC.Functional GGA
XC.Authors    PBE
UseSaveData        F
MD.TypeOfRun       CG
MD.VariableCell    F
MD.NumCGsteps      00
MD.MaxCGDispl      0.200000 Bohr
MD.MaxStressTol    1.000000 GPa
MD.MaxForceTol     0.010000 eV/Ang
WriteMDHistory T
WriteCoorStep T
WriteForces T
WriteCoorStep    T
WriteEigenValues T
WriteDM    F
MM.UnitsDistance Ang  # what this program prints out DO NOT CHANGE
MM.UnitsEnergy    eV  # what this program prints out DO NOT CHANGE
MM.Grimme.S6     0.75 # Grimme-paper for PBE (correct for your functional)
MM.Grimme.D     20.   # Grimme-paper (correct for your functional)
%block MM.Potentials
  1   1 Grimme     16.69      1.650 # Li, 10.1002/jcc.20495
  1   2 Grimme     17.40      2.277 # Li / C
  2   2 Grimme     18.14      2.904 # C, 10.1002/jcc.20495
%endblock MM.Potentials
#%block ProjectedDensityOfStates
# -200.0  120.0  0.4  12800  eV
#%endblock ProjectedDensityOfStates
************************** End of input data file *****************************

reinit: -----------------------------------------------------------------------
reinit: System Name: LiC12_scf
reinit: -----------------------------------------------------------------------
reinit: System Label: LiC12_scf
reinit: -----------------------------------------------------------------------
Reading two-body potentials
Grimme - two-body potential between 1 and 1
Grimme - two-body potential between 1 and 2
Grimme - two-body potential between 2 and 2

initatom: Reading input for the pseudopotentials and atomic orbitals ----------
Species number:   1 Atomic number:    3 Label: Li-gga
Species number:   2 Atomic number:    6 Label: C-gga

Ground state valence configuration:   2s01
Reading pseudopotential information in formatted form from Li-gga.psf

Valence configuration for pseudopotential generation:
2s( 1.00) rc: 2.28
2p( 0.00) rc: 2.28
3d( 0.00) rc: 2.59
4f( 0.00) rc: 2.59
Ground state valence configuration:   2s02  2p02
Reading pseudopotential information in formatted form from C-gga.psf

Valence configuration for pseudopotential generation:
2s( 2.00) rc: 1.56
2p( 2.00) rc: 1.56
3d( 0.00) rc: 1.56
4f( 0.00) rc: 1.56
relmxkb: Read Max KB Ang. Momentum=    2 for species C-gga
relmxkb: Read Max KB Ang. Momentum=    2 for species Li-gga

<basis_specs>
===============================================================================
Li-gga               Z=   3    Mass=  6.9400        Charge= 0.17977+309
Lmxo=0 Lmxkb= 2    BasisType=split      Semic=F
L=0  Nsemic=0  Cnfigmx=2
          i=1  nzeta=1  polorb=0  (2s)
            splnorm:   0.15000    
               vcte:    0.0000    
               rinn:    0.0000    
               qcoe:    0.0000    
               qyuk:    0.0000    
               qwid:   0.10000E-01
                rcs:    0.0000    
            lambdas:    1.0000    
-------------------------------------------------------------------------------
L=0  Nkbl=1  erefs: 0.17977+309
L=1  Nkbl=1  erefs: 0.17977+309
L=2  Nkbl=1  erefs: 0.17977+309
===============================================================================
</basis_specs>

atom: Called for Li-gga                (Z =   3)

read_vps: Pseudopotential generation method:
read_vps: ATM 3.2.2 Troullier-Martins                       
Valence charge for ps generation:    1.00000

read_vps: Pseudopotential includes a core correction:
read_vps: Pseudo-core for xc-correction

xc_check: Exchange-correlation functional:
xc_check: GGA Perdew, Burke & Ernzerhof 1996
V l=0 = -2*Zval/r beyond r=  2.2278
V l=1 = -2*Zval/r beyond r=  2.2278
V l=2 = -2*Zval/r beyond r=  2.5245
All V_l potentials equal beyond r=  2.4622
This should be close to max(r_c) in ps generation
All pots = -2*Zval/r beyond r=  2.5245

VLOCAL1: 99.0% of the norm of Vloc inside      7.160 Ry
VLOCAL1: 99.9% of the norm of Vloc inside     16.318 Ry
atom: Maximum radius for 4*pi*r*r*local-pseudopot. charge    2.86079
atom: Maximum radius for r*vlocal+2*Zval:    2.43160
GHOST: No ghost state for L =  0
GHOST: No ghost state for L =  1
GHOST: No ghost state for L =  2

KBgen: Kleinman-Bylander projectors: 
   l= 0   rc=  2.654023   el= -0.211234   Ekb=  1.742119   kbcos=  0.228463
   l= 1   rc=  2.721230   el= -0.080095   Ekb= -1.122375   kbcos= -0.147941
   l= 2   rc=  2.825246   el=  0.002001   Ekb= -0.207076   kbcos= -0.031965

KBgen: Total number of Kleinman-Bylander projectors:    9
atom: -------------------------------------------------------------------------

atom: SANKEY-TYPE ORBITALS:

SPLIT: Orbitals with angular momentum L= 0

SPLIT: Basis orbitals for state 2s

SPLIT: PAO cut-off radius determined from an
SPLIT: energy shift=  0.000735 Ry

   izeta = 1
                 lambda =    1.000000
                     rc =   11.897381
                 energy =   -0.210580
                kinetic =    0.143382
    potential(screened) =   -0.353962
       potential(ionic) =   -0.533453
atom: Total number of Sankey-type orbitals:  1

atm_pop: Valence configuration (for local Pseudopot. screening):
 2s( 1.00)                                                            
Vna: chval, zval:    1.00000   1.00000

Vna:  Cut-off radius for the neutral-atom potential:  11.897381
comcore: Pseudo-core radius Rcore=  3.450946

atom: _________________________________________________________________________

<basis_specs>
===============================================================================
C-gga                Z=   6    Mass=  12.010        Charge= 0.17977+309
Lmxo=1 Lmxkb= 2    BasisType=split      Semic=F
L=0  Nsemic=0  Cnfigmx=2
          i=1  nzeta=1  polorb=0  (2s)
            splnorm:   0.15000    
               vcte:    0.0000    
               rinn:    0.0000    
               qcoe:    0.0000    
               qyuk:    0.0000    
               qwid:   0.10000E-01
                rcs:    0.0000    
            lambdas:    1.0000    
L=1  Nsemic=0  Cnfigmx=2
          i=1  nzeta=1  polorb=0  (2p)
            splnorm:   0.15000    
               vcte:    0.0000    
               rinn:    0.0000    
               qcoe:    0.0000    
               qyuk:    0.0000    
               qwid:   0.10000E-01
                rcs:    0.0000    
            lambdas:    1.0000    
-------------------------------------------------------------------------------
L=0  Nkbl=1  erefs: 0.17977+309
L=1  Nkbl=1  erefs: 0.17977+309
L=2  Nkbl=1  erefs: 0.17977+309
===============================================================================
</basis_specs>

atom: Called for C-gga                 (Z =   6)

read_vps: Pseudopotential generation method:
read_vps: ATM 3.2.2 Troullier-Martins                       
Valence charge for ps generation:    4.00000

xc_check: Exchange-correlation functional:
xc_check: GGA Perdew, Burke & Ernzerhof 1996
V l=0 = -2*Zval/r beyond r=  1.5227
V l=1 = -2*Zval/r beyond r=  1.5227
V l=2 = -2*Zval/r beyond r=  1.5227
All V_l potentials equal beyond r=  1.4851
This should be close to max(r_c) in ps generation
All pots = -2*Zval/r beyond r=  1.5227

VLOCAL1: 99.0% of the norm of Vloc inside     19.682 Ry
VLOCAL1: 99.9% of the norm of Vloc inside     44.856 Ry
atom: Maximum radius for 4*pi*r*r*local-pseudopot. charge    1.79142
atom: Maximum radius for r*vlocal+2*Zval:    1.54183
GHOST: No ghost state for L =  0
GHOST: No ghost state for L =  1
GHOST: No ghost state for L =  2

KBgen: Kleinman-Bylander projectors: 
   l= 0   rc=  1.661951   el= -1.010689   Ekb=  5.289847   kbcos=  0.316429
   l= 1   rc=  1.661951   el= -0.388490   Ekb= -4.102504   kbcos= -0.351025
   l= 2   rc=  1.747182   el=  0.001971   Ekb= -1.006005   kbcos= -0.008530

KBgen: Total number of Kleinman-Bylander projectors:    9
atom: -------------------------------------------------------------------------

atom: SANKEY-TYPE ORBITALS:

SPLIT: Orbitals with angular momentum L= 0

SPLIT: Basis orbitals for state 2s

SPLIT: PAO cut-off radius determined from an
SPLIT: energy shift=  0.000735 Ry

   izeta = 1
                 lambda =    1.000000
                     rc =    5.948690
                 energy =   -1.010099
                kinetic =    0.827121
    potential(screened) =   -1.837220
       potential(ionic) =   -5.392783

SPLIT: Orbitals with angular momentum L= 1

SPLIT: Basis orbitals for state 2p

SPLIT: PAO cut-off radius determined from an
SPLIT: energy shift=  0.000735 Ry

   izeta = 1
                 lambda =    1.000000
                     rc =    7.638387
                 energy =   -0.387843
                kinetic =    2.314739
    potential(screened) =   -2.702582
       potential(ionic) =   -6.092371
atom: Total number of Sankey-type orbitals:  4

atm_pop: Valence configuration (for local Pseudopot. screening):
 2s( 2.00)                                                            
 2p( 2.00)                                                            
Vna: chval, zval:    4.00000   4.00000

Vna:  Cut-off radius for the neutral-atom potential:   7.638387

atom: _________________________________________________________________________

prinput: Basis input ----------------------------------------------------------

PAO.BasisType split     

%block ChemicalSpeciesLabel
    1    3 Li-gga                  # Species index, atomic number, species label
    2    6 C-gga                   # Species index, atomic number, species label
%endblock ChemicalSpeciesLabel

%block PAO.Basis                 # Define Basis set
Li-gga                1                    # Species label, number of l-shells
 n=2   0   1                         # n, l, Nzeta 
  11.897   
   1.000   
C-gga                 2                    # Species label, number of l-shells
 n=2   0   1                         # n, l, Nzeta 
   5.949   
   1.000   
 n=2   1   1                         # n, l, Nzeta 
   7.638   
   1.000   
%endblock PAO.Basis

prinput: ----------------------------------------------------------------------

coor:   Atomic-coordinates input format  =     Cartesian coordinates
coor:                                          (in Angstroms)

siesta: Atomic coordinates (Bohr) and species
siesta:      0.00000   0.00000   0.00000  2        1
siesta:      2.68614   0.00000   2.52156  1        2
siesta:      5.38035   0.00000   7.56468  1        3
siesta:     -1.34307   2.32627   2.52156  1        4
siesta:     -2.69017   4.65952   7.56468  1        5
siesta:      2.69017   4.65952   2.52156  1        6
siesta:      1.34307   2.32627   7.56468  1        7
siesta:      5.38035   0.00000   2.52156  1        8
siesta:      2.68614   0.00000   7.56468  1        9
siesta:     -2.69017   4.65952   2.52156  1       10
siesta:     -1.34307   2.32627   7.56468  1       11
siesta:      1.34307   2.32627   2.52156  1       12
siesta:      2.69017   4.65952   7.56468  1       13

siesta: System type = bulk      

initatomlists: Number of atoms, orbitals, and projectors:     13    16   117

siesta: ******************** Simulation parameters ****************************
siesta:
siesta: The following are some of the parameters of the simulation.
siesta: A complete list of the parameters used, including default values,
siesta: can be found in file out.fdf
siesta:
redata: Spin configuration                          = none
redata: Number of spin components                   = 1
redata: Time-Reversal Symmetry                      = T
redata: Spin spiral                                 = F
redata: Long output                                 =   F
redata: Number of Atomic Species                    =        2
redata: Charge density info will appear in .RHO file
redata: Write Mulliken Pop.                         = NO
redata: Matel table size (NRTAB)                    =     1024
redata: Mesh Cutoff                                 =   300.0000 Ry
redata: Net charge of the system                    =     0.0000 |e|
redata: Min. number of SCF Iter                     =        0
redata: Max. number of SCF Iter                     =     1000
redata: SCF convergence failure will abort job
redata: SCF mix quantity                            = Hamiltonian
redata: Mix DM or H after convergence               =   F
redata: Recompute H after scf cycle                 =   F
redata: Mix DM in first SCF step                    =   T
redata: Write Pulay info on disk                    =   F
redata: New DM Occupancy tolerance                  = 0.000000000001
redata: No kicks to SCF
redata: DM Mixing Weight for Kicks                  =     0.5000
redata: Require Harris convergence for SCF          =   F
redata: Harris energy tolerance for SCF             =     0.000100 eV
redata: Require DM convergence for SCF              =   T
redata: DM tolerance for SCF                        =     0.001000
redata: Require EDM convergence for SCF             =   F
redata: EDM tolerance for SCF                       =     0.005000 eV
redata: Require H convergence for SCF               =   T
redata: Hamiltonian tolerance for SCF               =     0.001000 eV
redata: Require (free) Energy convergence for SCF   =   T
redata: (free) Energy tolerance for SCF             =     0.001000 eV
redata: Using Saved Data (generic)                  =   F
redata: Use continuation files for DM               =   F
redata: Neglect nonoverlap interactions             =   F
redata: Method of Calculation                       = Diagonalization
redata: Electronic Temperature                      =   299.9869 K
redata: Fix the spin of the system                  =   F
redata: Dynamics option                             = Single-point calculation
mix.SCF: Pulay mixing                            = Pulay
mix.SCF:    Variant                              = stable
mix.SCF:    History steps                        = 4
mix.SCF:    Linear mixing weight                 =     0.250000
mix.SCF:    Mixing weight                        =     0.250000
mix.SCF:    SVD condition                        = 0.1000E-07
redata: ***********************************************************************

%block SCF.Mixers
  Pulay
%endblock SCF.Mixers

%block SCF.Mixer.Pulay
  # Mixing method
  method pulay
  variant stable

  # Mixing options
  weight 0.2500
  weight.linear 0.2500
  history 4
%endblock SCF.Mixer.Pulay

DM_history_depth set to one: no extrapolation allowed by default for geometry relaxation
Size of DM history Fstack: 1
Total number of electrons:    16.000000
Total ionic charge:    16.000000

* ProcessorY, Blocksize:    3   1


* Orbital distribution balance (max,min):     2     1

k-point displ. along   1 input, could be:     0.00    0.50
k-point displ. along   2 input, could be:     0.00    0.50
k-point displ. along   3 input, could be:     0.00    0.50
 Kpoints in:            8 . Kpoints trimmed:            8

siesta: k-grid: Number of k-points =     8
siesta: k-grid: Cutoff (effective) =     4.269 Ang
siesta: k-grid: Supercell and displacements
siesta: k-grid:    2   0   0      0.000
siesta: k-grid:    0   2   0      0.000
siesta: k-grid:    0   0   2      0.000

diag: Algorithm                                     = Expert
diag: Parallel over k                               =   T
diag: Use parallel 2D distribution                  =   T
diag: Parallel block-size                           = 1
diag: Parallel distribution                         =     3 x     4
diag: Used triangular part                          = Lower
diag: Absolute tolerance                            =  0.100E-15
diag: Orthogonalization factor                      =  0.100E-05
diag: Memory factor                                 =  1.0000

superc: Internal auxiliary supercell:     9 x     9 x     7  =     567
superc: Number of atoms, orbitals, and projectors:   7371   9072  66339


ts: **************************************************************
ts: Save H and S matrices                           =    F
ts: Save DM and EDM matrices                        =    F
ts: Only save the overlap matrix S                  =    F
ts: **************************************************************

************************ Begin: TS CHECKS AND WARNINGS ************************
************************ End: TS CHECKS AND WARNINGS **************************


                     ====================================
                        Single-point calculation
                     ====================================

outcoor: Atomic coordinates (Ang):                          
    0.00000000    0.00000000    0.00000000   2       1  C-gga
    1.42144380    0.00000000    1.33435100   1       2  Li-gga
    2.84715620    0.00000000    4.00305300   1       3  Li-gga
   -0.71072190    1.23100644    1.33435100   1       4  Li-gga
   -1.42357810    2.46570960    4.00305300   1       5  Li-gga
    1.42357810    2.46570960    1.33435100   1       6  Li-gga
    0.71072190    1.23100644    4.00305300   1       7  Li-gga
    2.84715620    0.00000000    1.33435100   1       8  Li-gga
    1.42144380    0.00000000    4.00305300   1       9  Li-gga
   -1.42357810    2.46570960    1.33435100   1      10  Li-gga
   -0.71072190    1.23100644    4.00305300   1      11  Li-gga
    0.71072190    1.23100644    1.33435100   1      12  Li-gga
    1.42357810    2.46570960    4.00305300   1      13  Li-gga

superc: Internal auxiliary supercell:     9 x     9 x     7  =     567
superc: Number of atoms, orbitals, and projectors:   7371   9072  66339

outcell: Unit cell vectors (Ang):
        4.268600    0.000000    0.000000
       -2.134300    3.696716    0.000000
        0.000000    0.000000    5.337404

outcell: Cell vector modules (Ang)   :    4.268600    4.268600    5.337404
outcell: Cell angles (23,13,12) (deg):     90.0000     90.0000    120.0000
outcell: Cell volume (Ang**3)        :     84.2232
<dSpData1D:S at geom step 0
  <sparsity:sparsity for geom step 0
    nrows_g=16 nrows=2 sparsity=12.4023 nnzs=3175, refcount: 7>
  <dData1D:(new from dSpData1D) n=3175, refcount: 1>
refcount: 1>
new_DM -- step:     1
Initializing Density Matrix...
DM filled with atomic data:
<dSpData2D:DM initialized from atoms
  <sparsity:sparsity for geom step 0
    nrows_g=16 nrows=2 sparsity=12.4023 nnzs=3175, refcount: 8>
  <dData2D:DM n=3175 m=1, refcount: 1>
refcount: 1>
No. of atoms with KB's overlaping orbs in proc 0. Max # of overlaps:     286     304
New grid distribution:   1
           1       1:   20    1:    7    1:    8
           2       1:   20    1:    7    9:   16
           3       1:   20    1:    7   17:   23
           4       1:   20    1:    7   24:   30
           5       1:   20    8:   14    1:    8
           6       1:   20    8:   14    9:   16
           7       1:   20    8:   14   17:   23
           8       1:   20    8:   14   24:   30
           9       1:   20   15:   20    1:    8
          10       1:   20   15:   20    9:   16
          11       1:   20   15:   20   17:   23
          12       1:   20   15:   20   24:   30

InitMesh: MESH =    40 x    40 x    60 =       96000
InitMesh: (bp) =    20 x    20 x    30 =       12000
InitMesh: Mesh cutoff (required, used) =   300.000   323.586 Ry
ExtMesh (bp) on 0 =   160 x   147 x   152 =     3575040
New grid distribution:   2
           1       1:    7    1:   10    1:   15
           2       8:   20   11:   20    1:    8
           3       1:    7    1:   10   16:   30
           4       8:   20   11:   20    9:   15
           5       8:   20    1:   10    1:    8
           6       8:   20   11:   20   16:   22
           7       1:    7   11:   20   16:   30
           8       8:   20    1:   10    9:   15
           9       1:    7   11:   20    1:   15
          10       8:   20    1:   10   23:   30
          11       8:   20    1:   10   16:   22
          12       8:   20   11:   20   23:   30
New grid distribution:   3
           1       1:    7    1:   10    1:   15
           2       8:   20   11:   20    1:    8
           3       1:    7    1:   10   16:   30
           4       8:   20    1:   10    9:   15
           5       8:   20    1:   10    1:    8
           6       8:   20   11:   20    9:   15
           7       1:    7   11:   20   16:   30
           8       8:   20   11:   20   24:   30
           9       1:    7   11:   20    1:   15
          10       8:   20    1:   10   16:   23
          11       8:   20   11:   20   16:   23
          12       8:   20    1:   10   24:   30
Setting up quadratic distribution...
ExtMesh (bp) on 0 =   147 x   150 x   159 =     3505950
PhiOnMesh: Number of (b)points on node 0 =                 1050
PhiOnMesh: nlist on node 0 =               173464

stepf: Fermi-Dirac step function

siesta: Program's energy decomposition (eV):
siesta: Ebs     =      -134.980072
siesta: Eions   =       380.620085
siesta: Ena     =        92.533695
siesta: Ekin    =       302.053395
siesta: Enl     =        25.941894
siesta: Eso     =         0.000000
siesta: Edftu   =         0.000000
siesta: DEna    =       -57.862562
siesta: DUscf   =        42.291424
siesta: DUext   =         0.000000
siesta: Exc     =      -188.810255
siesta: eta*DQ  =         0.000000
siesta: Emadel  =         0.000000
siesta: Emeta   =         0.000000
siesta: Emolmec =        -6.817739
siesta: Ekinion =         0.000000
siesta: Eharris =       -63.599615
siesta: Etot    =      -171.290232
siesta: FreeEng =      -171.302573

        iscf     Eharris(eV)        E_KS(eV)     FreeEng(eV)     dDmax    Ef(eV) dHmax(eV)
   scf:    1      -63.599615     -171.290232     -171.302573  5.949015-10.014082 21.935788
timer: Routine,Calls,Time,% = IterSCF        1       0.834  14.13
   scf:    2     -189.852076     -181.135938     -181.148279  0.839786 -8.996968 12.644172
   scf:    3     -176.000542     -185.092075     -185.104616  6.514120 -4.107075  8.121569
   scf:    4     -188.299423     -186.811459     -186.823800  0.930679 -5.242106  5.008270
   scf:    5     -187.500534     -187.166330     -187.178671  0.255953 -5.554775  4.080956
   scf:    6     -183.526220     -186.868649     -186.882207  3.818525 -6.860619  4.203972
   scf:    7     -187.890785     -187.431336     -187.456178  0.480913 -6.533921  2.616736
   scf:    8     -186.381495     -187.609529     -187.621892  2.918720 -6.039023  2.457087
   scf:    9     -187.664470     -187.869969     -187.898884  1.666760 -6.403259  0.607305
   scf:   10     -186.954746     -187.511599     -187.535855  1.141426 -6.493049  2.360157
   scf:   11     -187.663030     -187.589720     -187.618313  0.253976 -6.453701  2.060849
   scf:   12     -187.760619     -187.887890     -187.916304  1.826177 -6.373213  0.432483
   scf:   13     -187.462569     -187.776500     -187.806690  1.385062 -6.423076  1.291141
   scf:   14     -187.619524     -187.854137     -187.878613  1.734133 -6.355918  0.834306
   scf:   15     -187.910683     -187.898076     -187.927190  0.567418 -6.384015  0.155067
   scf:   16     -187.899418     -187.899016     -187.928611  0.069575 -6.386728  0.066960
   scf:   17     -187.897429     -187.898610     -187.928819  0.078289 -6.390322  0.038915
   scf:   18     -187.899044     -187.898839     -187.928902  0.013589 -6.390137  0.020293
   scf:   19     -187.899057     -187.898965     -187.928932  0.017806 -6.389563  0.001643
   scf:   20     -187.898950     -187.898958     -187.928933  0.000999 -6.389600  0.000304

SCF Convergence by FreeE+DM+H criterion
|FreeE_i-FreeE_(i-1)| (eV) <     0.00100000
max |DM_out - DM_in|         :     0.0009993110
max |H_out - H_in|      (eV) :     0.0003035288
SCF cycle converged after 20 iterations

Using DM_out to compute the final energy and forces
No. of atoms with KB's overlaping orbs in proc 0. Max # of overlaps:     286     304

MM-Stress (kbar):       42.12       42.12      145.13       -0.00        0.00        0.00

siesta: E_KS(eV) =             -187.8990

siesta: E_KS - E_eggbox =      -187.8990

siesta: Atomic forces (eV/Ang):
     1   -0.000000   -0.000000    0.000000
     2   -1.020552    0.000083   -1.217428
     3    1.020552   -0.000083    1.217428
     4    0.510348   -0.883782   -1.217428
     5   -0.510348    0.883782    1.217428
     6    0.510374    0.883994   -1.217665
     7   -0.510374   -0.883994    1.217665
     8    1.020552   -0.000083   -1.217428
     9   -1.020552    0.000083    1.217428
    10   -0.510348    0.883782   -1.217428
    11    0.510348   -0.883782    1.217428
    12   -0.510374   -0.883994   -1.217665
    13    0.510374    0.883994    1.217665
----------------------------------------
   Tot    0.000000    0.000000    0.000000
----------------------------------------
   Max    1.217665
   Res    0.881255    sqrt( Sum f_i^2 / 3N )
----------------------------------------
   Max    1.217665    constrained

Stress tensor Voigt[x,y,z,yz,xz,xy] (kbar):    -2992.41    -2992.51      416.62        0.00        0.00       -0.09
(Free)E + p*V (eV/cell)      -90.3586
Target enthalpy (eV/cell)     -187.9289

siesta: Eigenvalues (eV):
  ik is       eps
   1  1  -21.2010  -15.8362  -13.8922  -11.8916  -11.8916   -7.7973   -6.4054   -6.4054    1.9203    1.9205
          15.8311   15.8311   15.8676   15.8676   20.7526   21.9613
   2  1  -20.6269  -18.7209  -15.6939  -14.5097  -13.8568  -12.9901   -9.9902   -9.8801   -6.4114   -5.6337
          14.2154   15.6149   15.8230   15.9826   16.6907   16.7581
   3  1  -20.6269  -18.7209  -15.6939  -14.5097  -13.8568  -12.9901   -9.9902   -9.8801   -6.4114   -5.6337
          14.2154   15.6149   15.8230   15.9826   16.6907   16.7581
   4  1  -20.6269  -18.7209  -15.6939  -14.5097  -13.8568  -12.9901   -9.9902   -9.8801   -6.4116   -5.6337
          14.2155   15.6149   15.8230   15.9826   16.6906   16.7581
   5  1  -21.0641  -19.3983  -11.8111  -11.5380  -11.5379  -11.3755   -0.3922   -0.3922   -0.3416   -0.3416
           0.8816    0.8816   19.8820   19.8823   22.0268   22.0322
   6  1  -20.5692  -18.3169  -18.2782  -17.8756  -13.7465  -12.4770  -11.8714  -11.8338   -6.3541   -4.8034
           1.3418    5.4582   15.4576   15.5083   15.5278   15.9598
   7  1  -20.5692  -18.3169  -18.2782  -17.8756  -13.7465  -12.4770  -11.8714  -11.8338   -6.3541   -4.8034
           1.3418    5.4582   15.4576   15.5083   15.5278   15.9598
   8  1  -20.5692  -18.3169  -18.2781  -17.8756  -13.7464  -12.4770  -11.8714  -11.8338   -6.3539   -4.8034
           1.3415    5.4582   15.4576   15.5083   15.5277   15.9598
siesta: Fermi energy =      -6.389600 eV

siesta: Program's energy decomposition (eV):
siesta: Ebs     =      -229.638965
siesta: Eions   =       380.620085
siesta: Ena     =        92.533695
siesta: Ekin    =       249.520484
siesta: Enl     =        46.792569
siesta: Eso     =         0.000000
siesta: Edftu   =         0.000000
siesta: DEna    =       -23.211930
siesta: DUscf   =         9.562409
siesta: DUext   =         0.000000
siesta: Exc     =      -175.658361
siesta: eta*DQ  =         0.000000
siesta: Emadel  =         0.000000
siesta: Emeta   =         0.000000
siesta: Emolmec =        -6.817739
siesta: Ekinion =         0.000000
siesta: Eharris =      -187.898950
siesta: Etot    =      -187.898958
siesta: FreeEng =      -187.928933

siesta: Final energy (eV):
siesta:  Band Struct. =    -229.638965
siesta:       Kinetic =     249.520484
siesta:       Hartree =     104.784286
siesta:       Edftu   =       0.000000
siesta:       Eso     =       0.000000
siesta:    Ext. field =       0.000000
siesta:   Exch.-corr. =    -175.658361
siesta:  Ion-electron =    -501.562273
siesta:       Ion-ion =     141.834644
siesta:       Ekinion =       0.000000
siesta:         Total =    -187.898958
siesta:         Fermi =      -6.389600

siesta: Atomic forces (eV/Ang):
siesta:      1   -0.000000   -0.000000    0.000000
siesta:      2   -1.020552    0.000083   -1.217428
siesta:      3    1.020552   -0.000083    1.217428
siesta:      4    0.510348   -0.883782   -1.217428
siesta:      5   -0.510348    0.883782    1.217428
siesta:      6    0.510374    0.883994   -1.217665
siesta:      7   -0.510374   -0.883994    1.217665
siesta:      8    1.020552   -0.000083   -1.217428
siesta:      9   -1.020552    0.000083    1.217428
siesta:     10   -0.510348    0.883782   -1.217428
siesta:     11    0.510348   -0.883782    1.217428
siesta:     12   -0.510374   -0.883994   -1.217665
siesta:     13    0.510374    0.883994    1.217665
siesta: ----------------------------------------
siesta:    Tot    0.000000    0.000000    0.000000

siesta: Stress tensor (static) (eV/Ang**3):
siesta:    -1.867695   -0.000054    0.000000
siesta:    -0.000054   -1.867758    0.000000
siesta:     0.000000    0.000000    0.260033

siesta: Cell volume =         84.223179 Ang**3

siesta: Pressure (static):
siesta:                Solid            Molecule  Units
siesta:           0.01261725          0.01140059  Ry/Bohr**3
siesta:           1.15847320          1.04676358  eV/Ang**3
siesta:        1856.09875914       1677.11827533  kBar
(Free)E+ p_basis*V_orbitals  =        -171.762319
(Free)Eharris+ p_basis*V_orbitals  =        -171.762311

cite: Please see "LiC12_scf.bib" for an exhaustive BiBTeX file.
cite: Please clearly indicate Siesta version in published work: 4.1.5
cite: This calculation has made use of the following articles
cite: which are encouraged to be cited in a published work.
        Primary SIESTA paper
          DOI: www.doi.org/10.1088/0953-8984/14/11/302

>> End of run:   9-NOV-2022  14:21:23
Job completed
