Siesta Version  : 4.1.5
Architecture    : x86_64-unknown-linux-gnu--unknown
Compiler version: GNU Fortran (GCC) 11.3.0
Compiler flags  : mpif90 -g -O2 -fallow-argument-mismatch
PP flags        : -DMPI -DFC_HAVE_FLUSH -DFC_HAVE_ABORT
Libraries       :  -I/global/software/sl-7.x86_64/modules/intel/2020.4.304/mkl/include  /globall/software/sl-7.x86_64/modules/intel/2020.4.304/mkl/lib/intel64/libmkl_scalapack_lp64.a -Wl,--start-group /global/software/sl-7.x86_64/modules/intel/2020.4.304/mkl/lib/intel64/libmkl_intel_lp64.a /global/software/sl-7.x86_64/modules/intel/2020.4.304/mkl/lib/intel64/libmkl_sequential.a /global/software/sl-7.x86_64/modules/intel/2020.4.304/mkl/lib/intel64/libmkl_core.a /global/software/sl-7.x86_64/modules/intel/2020.4.304/mkl/lib/intel64/libmkl_blacs_openmpi_lp64.a -Wl,--end-group -lpthread -lm -ldl
PARALLEL version

* Running on 12 nodes in parallel
>> Start of run:   9-NOV-2022  12:41:17

                           ***********************       
                           *  WELCOME TO SIESTA  *       
                           ***********************       

reinit: Reading from standard input
reinit: Dumped input in INPUT_TMP.44417
************************** Dump of input data file ****************************
SystemName LiC12_scf
SystemLabel LiC12_scf
NumberOfAtoms   13
NumberOfSpecies 2
%block ChemicalSpeciesLabel
1  3   Li-gga
2  6   C-gga
%endblock ChemicalSpeciesLabel
PAO.BasisSize  SZP
PAO.EnergyShift  10 meV
%block PS.Lmax
C-gga   2
Li-gga  2
%endblock PS.Lmax
LatticeConstant 1.000000 Ang
%block LatticeVectors
	4.2686000000	0.0000000000	0.0000000000
	-2.1343000000	3.6967160386	0.0000000000
	0.0000000000	0.0000000000	6.7419840000
%endblock LatticeVectors
AtomicCoordinatesFormat Ang
%block AtomicCoordinatesAndAtomicSpecies
	0.00000000	0.00000000	0.00000000	2
	1.42144380	0.00000000	1.68549600	1
	2.84715620	0.00000000	5.05648800	1
	-0.71072190	1.23100644	1.68549600	1
	-1.42357810	2.46570960	5.05648800	1
	1.42357810	2.46570960	1.68549600	1
	0.71072190	1.23100644	5.05648800	1
	2.84715620	0.00000000	1.68549600	1
	1.42144380	0.00000000	5.05648800	1
	-1.42357810	2.46570960	1.68549600	1
	-0.71072190	1.23100644	5.05648800	1
	0.71072190	1.23100644	1.68549600	1
	1.42357810	2.46570960	5.05648800	1
%endblock AtomicCoordinatesAndAtomicSpecies
Kgrid_NoTRS  T
%block kgrid_MonkhorstPack
4       0       0       0.0
0       4       0       0.0
0       0       4       0.0
%endblock kgrid_MonkhorstPack
AtomCoorFormatOut Ang
BlockSize 1
#ProcessorY 12
Diag.ParallelOverK   T
Diag.DivideAndConquer F
MeshCutoff   300 Ry
SCF.FreeE.Tolerance 1E-3 eV
SCF.EDM.Tolerance   5E-3 eV
DM.Tolerance  1E-3
DM.Require.Energy.Convergence T
DM.NumberPulay 4
XC.Functional GGA
XC.Authors    PBE
UseSaveData        F
MD.TypeOfRun       CG
MD.VariableCell    F
MD.NumCGsteps      00
MD.MaxCGDispl      0.200000 Bohr
MD.MaxStressTol    1.000000 GPa
MD.MaxForceTol     0.010000 eV/Ang
WriteMDHistory T
WriteCoorStep T
WriteForces T
WriteCoorStep    T
WriteEigenValues T
WriteDM    F
MM.UnitsDistance Ang  # what this program prints out DO NOT CHANGE
MM.UnitsEnergy    eV  # what this program prints out DO NOT CHANGE
MM.Grimme.S6     0.75 # Grimme-paper for PBE (correct for your functional)
MM.Grimme.D     20.   # Grimme-paper (correct for your functional)
%block MM.Potentials
  1   1 Grimme     16.69      1.650 # Li, 10.1002/jcc.20495
  1   2 Grimme     17.40      2.277 # Li / C
  2   2 Grimme     18.14      2.904 # C, 10.1002/jcc.20495
%endblock MM.Potentials
#%block ProjectedDensityOfStates
# -200.0  120.0  0.4  12800  eV
#%endblock ProjectedDensityOfStates
************************** End of input data file *****************************

reinit: -----------------------------------------------------------------------
reinit: System Name: LiC12_scf
reinit: -----------------------------------------------------------------------
reinit: System Label: LiC12_scf
reinit: -----------------------------------------------------------------------
Reading two-body potentials
Grimme - two-body potential between 1 and 1
Grimme - two-body potential between 1 and 2
Grimme - two-body potential between 2 and 2

initatom: Reading input for the pseudopotentials and atomic orbitals ----------
Species number:   1 Atomic number:    3 Label: Li-gga
Species number:   2 Atomic number:    6 Label: C-gga

Ground state valence configuration:   2s01
Reading pseudopotential information in formatted form from Li-gga.psf

Valence configuration for pseudopotential generation:
2s( 1.00) rc: 2.28
2p( 0.00) rc: 2.28
3d( 0.00) rc: 2.59
4f( 0.00) rc: 2.59
Ground state valence configuration:   2s02  2p02
Reading pseudopotential information in formatted form from C-gga.psf

Valence configuration for pseudopotential generation:
2s( 2.00) rc: 1.56
2p( 2.00) rc: 1.56
3d( 0.00) rc: 1.56
4f( 0.00) rc: 1.56
relmxkb: Read Max KB Ang. Momentum=    2 for species C-gga
relmxkb: Read Max KB Ang. Momentum=    2 for species Li-gga

<basis_specs>
===============================================================================
Li-gga               Z=   3    Mass=  6.9400        Charge= 0.17977+309
Lmxo=0 Lmxkb= 2    BasisType=split      Semic=F
L=0  Nsemic=0  Cnfigmx=2
          i=1  nzeta=1  polorb=1  (2s)
            splnorm:   0.15000    
               vcte:    0.0000    
               rinn:    0.0000    
               qcoe:    0.0000    
               qyuk:    0.0000    
               qwid:   0.10000E-01
                rcs:    0.0000    
            lambdas:    1.0000    
-------------------------------------------------------------------------------
L=0  Nkbl=1  erefs: 0.17977+309
L=1  Nkbl=1  erefs: 0.17977+309
L=2  Nkbl=1  erefs: 0.17977+309
===============================================================================
</basis_specs>

atom: Called for Li-gga                (Z =   3)

read_vps: Pseudopotential generation method:
read_vps: ATM 3.2.2 Troullier-Martins                       
Valence charge for ps generation:    1.00000

read_vps: Pseudopotential includes a core correction:
read_vps: Pseudo-core for xc-correction

xc_check: Exchange-correlation functional:
xc_check: GGA Perdew, Burke & Ernzerhof 1996
V l=0 = -2*Zval/r beyond r=  2.2278
V l=1 = -2*Zval/r beyond r=  2.2278
V l=2 = -2*Zval/r beyond r=  2.5245
All V_l potentials equal beyond r=  2.4622
This should be close to max(r_c) in ps generation
All pots = -2*Zval/r beyond r=  2.5245

VLOCAL1: 99.0% of the norm of Vloc inside      7.160 Ry
VLOCAL1: 99.9% of the norm of Vloc inside     16.318 Ry
atom: Maximum radius for 4*pi*r*r*local-pseudopot. charge    2.86079
atom: Maximum radius for r*vlocal+2*Zval:    2.43160
GHOST: No ghost state for L =  0
GHOST: No ghost state for L =  1
GHOST: No ghost state for L =  2

KBgen: Kleinman-Bylander projectors: 
   l= 0   rc=  2.654023   el= -0.211234   Ekb=  1.742119   kbcos=  0.228463
   l= 1   rc=  2.721230   el= -0.080095   Ekb= -1.122375   kbcos= -0.147941
   l= 2   rc=  2.825246   el=  0.002001   Ekb= -0.207076   kbcos= -0.031965

KBgen: Total number of Kleinman-Bylander projectors:    9
atom: -------------------------------------------------------------------------

atom: SANKEY-TYPE ORBITALS:

SPLIT: Orbitals with angular momentum L= 0

SPLIT: Basis orbitals for state 2s

SPLIT: PAO cut-off radius determined from an
SPLIT: energy shift=  0.000735 Ry

   izeta = 1
                 lambda =    1.000000
                     rc =   11.897381
                 energy =   -0.210580
                kinetic =    0.143382
    potential(screened) =   -0.353962
       potential(ionic) =   -0.533453

POLgen: Perturbative polarization orbital with L=  1

POLgen: Polarization orbital for state 2s

   izeta = 1
                     rc =   11.897381
                 energy =   -0.027011
                kinetic =    0.282985
    potential(screened) =   -0.309997
       potential(ionic) =   -0.490997
atom: Total number of Sankey-type orbitals:  4

atm_pop: Valence configuration (for local Pseudopot. screening):
 2s( 1.00)                                                            
Vna: chval, zval:    1.00000   1.00000

Vna:  Cut-off radius for the neutral-atom potential:  11.897381
comcore: Pseudo-core radius Rcore=  3.450946

atom: _________________________________________________________________________

<basis_specs>
===============================================================================
C-gga                Z=   6    Mass=  12.010        Charge= 0.17977+309
Lmxo=1 Lmxkb= 2    BasisType=split      Semic=F
L=0  Nsemic=0  Cnfigmx=2
          i=1  nzeta=1  polorb=0  (2s)
            splnorm:   0.15000    
               vcte:    0.0000    
               rinn:    0.0000    
               qcoe:    0.0000    
               qyuk:    0.0000    
               qwid:   0.10000E-01
                rcs:    0.0000    
            lambdas:    1.0000    
L=1  Nsemic=0  Cnfigmx=2
          i=1  nzeta=1  polorb=1  (2p)
            splnorm:   0.15000    
               vcte:    0.0000    
               rinn:    0.0000    
               qcoe:    0.0000    
               qyuk:    0.0000    
               qwid:   0.10000E-01
                rcs:    0.0000    
            lambdas:    1.0000    
-------------------------------------------------------------------------------
L=0  Nkbl=1  erefs: 0.17977+309
L=1  Nkbl=1  erefs: 0.17977+309
L=2  Nkbl=1  erefs: 0.17977+309
===============================================================================
</basis_specs>

atom: Called for C-gga                 (Z =   6)

read_vps: Pseudopotential generation method:
read_vps: ATM 3.2.2 Troullier-Martins                       
Valence charge for ps generation:    4.00000

xc_check: Exchange-correlation functional:
xc_check: GGA Perdew, Burke & Ernzerhof 1996
V l=0 = -2*Zval/r beyond r=  1.5227
V l=1 = -2*Zval/r beyond r=  1.5227
V l=2 = -2*Zval/r beyond r=  1.5227
All V_l potentials equal beyond r=  1.4851
This should be close to max(r_c) in ps generation
All pots = -2*Zval/r beyond r=  1.5227

VLOCAL1: 99.0% of the norm of Vloc inside     19.682 Ry
VLOCAL1: 99.9% of the norm of Vloc inside     44.856 Ry
atom: Maximum radius for 4*pi*r*r*local-pseudopot. charge    1.79142
atom: Maximum radius for r*vlocal+2*Zval:    1.54183
GHOST: No ghost state for L =  0
GHOST: No ghost state for L =  1
GHOST: No ghost state for L =  2

KBgen: Kleinman-Bylander projectors: 
   l= 0   rc=  1.661951   el= -1.010689   Ekb=  5.289847   kbcos=  0.316429
   l= 1   rc=  1.661951   el= -0.388490   Ekb= -4.102504   kbcos= -0.351025
   l= 2   rc=  1.747182   el=  0.001971   Ekb= -1.006005   kbcos= -0.008530

KBgen: Total number of Kleinman-Bylander projectors:    9
atom: -------------------------------------------------------------------------

atom: SANKEY-TYPE ORBITALS:

SPLIT: Orbitals with angular momentum L= 0

SPLIT: Basis orbitals for state 2s

SPLIT: PAO cut-off radius determined from an
SPLIT: energy shift=  0.000735 Ry

   izeta = 1
                 lambda =    1.000000
                     rc =    5.948690
                 energy =   -1.010099
                kinetic =    0.827121
    potential(screened) =   -1.837220
       potential(ionic) =   -5.392783

SPLIT: Orbitals with angular momentum L= 1

SPLIT: Basis orbitals for state 2p

SPLIT: PAO cut-off radius determined from an
SPLIT: energy shift=  0.000735 Ry

   izeta = 1
                 lambda =    1.000000
                     rc =    7.638387
                 energy =   -0.387843
                kinetic =    2.314739
    potential(screened) =   -2.702582
       potential(ionic) =   -6.092371

POLgen: Perturbative polarization orbital with L=  2

POLgen: Polarization orbital for state 2p

   izeta = 1
                     rc =    7.638387
                 energy =    0.921402
                kinetic =    1.955040
    potential(screened) =   -1.033637
       potential(ionic) =   -3.679558
atom: Total number of Sankey-type orbitals:  9

atm_pop: Valence configuration (for local Pseudopot. screening):
 2s( 2.00)                                                            
 2p( 2.00)                                                            
Vna: chval, zval:    4.00000   4.00000

Vna:  Cut-off radius for the neutral-atom potential:   7.638387

atom: _________________________________________________________________________

prinput: Basis input ----------------------------------------------------------

PAO.BasisType split     

%block ChemicalSpeciesLabel
    1    3 Li-gga                  # Species index, atomic number, species label
    2    6 C-gga                   # Species index, atomic number, species label
%endblock ChemicalSpeciesLabel

%block PAO.Basis                 # Define Basis set
Li-gga                1                    # Species label, number of l-shells
 n=2   0   1 P   1                   # n, l, Nzeta, Polarization, NzetaPol
  11.897   
   1.000   
C-gga                 2                    # Species label, number of l-shells
 n=2   0   1                         # n, l, Nzeta 
   5.949   
   1.000   
 n=2   1   1 P   1                   # n, l, Nzeta, Polarization, NzetaPol
   7.638   
   1.000   
%endblock PAO.Basis

prinput: ----------------------------------------------------------------------

coor:   Atomic-coordinates input format  =     Cartesian coordinates
coor:                                          (in Angstroms)

siesta: Atomic coordinates (Bohr) and species
siesta:      0.00000   0.00000   0.00000  2        1
siesta:      2.68614   0.00000   3.18513  1        2
siesta:      5.38035   0.00000   9.55538  1        3
siesta:     -1.34307   2.32627   3.18513  1        4
siesta:     -2.69017   4.65952   9.55538  1        5
siesta:      2.69017   4.65952   3.18513  1        6
siesta:      1.34307   2.32627   9.55538  1        7
siesta:      5.38035   0.00000   3.18513  1        8
siesta:      2.68614   0.00000   9.55538  1        9
siesta:     -2.69017   4.65952   3.18513  1       10
siesta:     -1.34307   2.32627   9.55538  1       11
siesta:      1.34307   2.32627   3.18513  1       12
siesta:      2.69017   4.65952   9.55538  1       13

siesta: System type = bulk      

initatomlists: Number of atoms, orbitals, and projectors:     13    57   117

siesta: ******************** Simulation parameters ****************************
siesta:
siesta: The following are some of the parameters of the simulation.
siesta: A complete list of the parameters used, including default values,
siesta: can be found in file out.fdf
siesta:
redata: Spin configuration                          = none
redata: Number of spin components                   = 1
redata: Time-Reversal Symmetry                      = T
redata: Spin spiral                                 = F
redata: Long output                                 =   F
redata: Number of Atomic Species                    =        2
redata: Charge density info will appear in .RHO file
redata: Write Mulliken Pop.                         = NO
redata: Matel table size (NRTAB)                    =     1024
redata: Mesh Cutoff                                 =   300.0000 Ry
redata: Net charge of the system                    =     0.0000 |e|
redata: Min. number of SCF Iter                     =        0
redata: Max. number of SCF Iter                     =     1000
redata: SCF convergence failure will abort job
redata: SCF mix quantity                            = Hamiltonian
redata: Mix DM or H after convergence               =   F
redata: Recompute H after scf cycle                 =   F
redata: Mix DM in first SCF step                    =   T
redata: Write Pulay info on disk                    =   F
redata: New DM Occupancy tolerance                  = 0.000000000001
redata: No kicks to SCF
redata: DM Mixing Weight for Kicks                  =     0.5000
redata: Require Harris convergence for SCF          =   F
redata: Harris energy tolerance for SCF             =     0.000100 eV
redata: Require DM convergence for SCF              =   T
redata: DM tolerance for SCF                        =     0.001000
redata: Require EDM convergence for SCF             =   F
redata: EDM tolerance for SCF                       =     0.005000 eV
redata: Require H convergence for SCF               =   T
redata: Hamiltonian tolerance for SCF               =     0.001000 eV
redata: Require (free) Energy convergence for SCF   =   T
redata: (free) Energy tolerance for SCF             =     0.001000 eV
redata: Using Saved Data (generic)                  =   F
redata: Use continuation files for DM               =   F
redata: Neglect nonoverlap interactions             =   F
redata: Method of Calculation                       = Diagonalization
redata: Electronic Temperature                      =   299.9869 K
redata: Fix the spin of the system                  =   F
redata: Dynamics option                             = Single-point calculation
mix.SCF: Pulay mixing                            = Pulay
mix.SCF:    Variant                              = stable
mix.SCF:    History steps                        = 4
mix.SCF:    Linear mixing weight                 =     0.250000
mix.SCF:    Mixing weight                        =     0.250000
mix.SCF:    SVD condition                        = 0.1000E-07
redata: ***********************************************************************

%block SCF.Mixers
  Pulay
%endblock SCF.Mixers

%block SCF.Mixer.Pulay
  # Mixing method
  method pulay
  variant stable

  # Mixing options
  weight 0.2500
  weight.linear 0.2500
  history 4
%endblock SCF.Mixer.Pulay

DM_history_depth set to one: no extrapolation allowed by default for geometry relaxation
Size of DM history Fstack: 1
Total number of electrons:    16.000000
Total ionic charge:    16.000000

* ProcessorY, Blocksize:    3   1


* Orbital distribution balance (max,min):     5     4

k-point displ. along   1 input, could be:     0.00    0.50
k-point displ. along   2 input, could be:     0.00    0.50
k-point displ. along   3 input, could be:     0.00    0.50
 Kpoints in:           48 . Kpoints trimmed:           44

siesta: k-grid: Number of k-points =    44
siesta: k-grid: Cutoff (effective) =     8.537 Ang
siesta: k-grid: Supercell and displacements
siesta: k-grid:    4   0   0      0.000
siesta: k-grid:    0   4   0      0.000
siesta: k-grid:    0   0   4      0.000

diag: Algorithm                                     = Expert
diag: Parallel over k                               =   T
diag: Use parallel 2D distribution                  =   T
diag: Parallel block-size                           = 1
diag: Parallel distribution                         =     3 x     4
diag: Used triangular part                          = Lower
diag: Absolute tolerance                            =  0.100E-15
diag: Orthogonalization factor                      =  0.100E-05
diag: Memory factor                                 =  1.0000

superc: Internal auxiliary supercell:     9 x     9 x     5  =     405
superc: Number of atoms, orbitals, and projectors:   5265  23085  47385


ts: **************************************************************
ts: Save H and S matrices                           =    F
ts: Save DM and EDM matrices                        =    F
ts: Only save the overlap matrix S                  =    F
ts: **************************************************************

************************ Begin: TS CHECKS AND WARNINGS ************************
************************ End: TS CHECKS AND WARNINGS **************************


                     ====================================
                        Single-point calculation
                     ====================================

outcoor: Atomic coordinates (Ang):                          
    0.00000000    0.00000000    0.00000000   2       1  C-gga
    1.42144380    0.00000000    1.68549600   1       2  Li-gga
    2.84715620    0.00000000    5.05648800   1       3  Li-gga
   -0.71072190    1.23100644    1.68549600   1       4  Li-gga
   -1.42357810    2.46570960    5.05648800   1       5  Li-gga
    1.42357810    2.46570960    1.68549600   1       6  Li-gga
    0.71072190    1.23100644    5.05648800   1       7  Li-gga
    2.84715620    0.00000000    1.68549600   1       8  Li-gga
    1.42144380    0.00000000    5.05648800   1       9  Li-gga
   -1.42357810    2.46570960    1.68549600   1      10  Li-gga
   -0.71072190    1.23100644    5.05648800   1      11  Li-gga
    0.71072190    1.23100644    1.68549600   1      12  Li-gga
    1.42357810    2.46570960    5.05648800   1      13  Li-gga

superc: Internal auxiliary supercell:     9 x     9 x     5  =     405
superc: Number of atoms, orbitals, and projectors:   5265  23085  47385

outcell: Unit cell vectors (Ang):
        4.268600    0.000000    0.000000
       -2.134300    3.696716    0.000000
        0.000000    0.000000    6.741984

outcell: Cell vector modules (Ang)   :    4.268600    4.268600    6.741984
outcell: Cell angles (23,13,12) (deg):     90.0000     90.0000    120.0000
outcell: Cell volume (Ang**3)        :    106.3872
<dSpData1D:S at geom step 0
  <sparsity:sparsity for geom step 0
    nrows_g=57 nrows=5 sparsity=9.4814 nnzs=30805, refcount: 7>
  <dData1D:(new from dSpData1D) n=30805, refcount: 1>
refcount: 1>
new_DM -- step:     1
Initializing Density Matrix...
DM filled with atomic data:
<dSpData2D:DM initialized from atoms
  <sparsity:sparsity for geom step 0
    nrows_g=57 nrows=5 sparsity=9.4814 nnzs=30805, refcount: 8>
  <dData2D:DM n=30805 m=1, refcount: 1>
refcount: 1>
No. of atoms with KB's overlaping orbs in proc 0. Max # of overlaps:     394     968
New grid distribution:   1
           1       1:   20    1:    7    1:    9
           2       1:   20    1:    7   10:   18
           3       1:   20    1:    7   19:   27
           4       1:   20    1:    7   28:   36
           5       1:   20    8:   14    1:    9
           6       1:   20    8:   14   10:   18
           7       1:   20    8:   14   19:   27
           8       1:   20    8:   14   28:   36
           9       1:   20   15:   20    1:    9
          10       1:   20   15:   20   10:   18
          11       1:   20   15:   20   19:   27
          12       1:   20   15:   20   28:   36

InitMesh: MESH =    40 x    40 x    72 =      115200
InitMesh: (bp) =    20 x    20 x    36 =       14400
InitMesh: Mesh cutoff (required, used) =   300.000   315.204 Ry
ExtMesh (bp) on 0 =   160 x   147 x   145 =     3410400
New grid distribution:   2
           1       1:    7    1:   10    1:   18
           2       8:   20   11:   20   19:   27
           3       1:    7    1:   10   19:   36
           4       8:   20    1:   10    1:    9
           5       8:   20   11:   20    1:    9
           6       8:   20    1:   10   10:   18
           7       1:    7   11:   20   19:   36
           8       8:   20    1:   10   28:   36
           9       1:    7   11:   20    1:   18
          10       8:   20    1:   10   19:   27
          11       8:   20   11:   20   10:   18
          12       8:   20   11:   20   28:   36
New grid distribution:   3
           1       1:    7    1:   10    1:   18
           2       8:   20   11:   20   19:   27
           3       1:    7    1:   10   19:   36
           4       8:   20    1:   10    1:    9
           5       8:   20   11:   20    1:    9
           6       8:   20    1:   10   10:   18
           7       1:    7   11:   20   19:   36
           8       8:   20    1:   10   28:   36
           9       1:    7   11:   20    1:   18
          10       8:   20    1:   10   19:   27
          11       8:   20   11:   20   10:   18
          12       8:   20   11:   20   28:   36
Setting up quadratic distribution...
ExtMesh (bp) on 0 =   147 x   150 x   154 =     3395700
PhiOnMesh: Number of (b)points on node 0 =                 1260
PhiOnMesh: nlist on node 0 =               642530

stepf: Fermi-Dirac step function

siesta: Program's energy decomposition (eV):
siesta: Ebs     =      -206.232688
siesta: Eions   =       380.620085
siesta: Ena     =       107.825006
siesta: Ekin    =       213.116024
siesta: Enl     =         5.774654
siesta: Eso     =         0.000000
siesta: Edftu   =         0.000000
siesta: DEna    =        -3.095954
siesta: DUscf   =         9.455434
siesta: DUext   =         0.000000
siesta: Exc     =      -164.782823
siesta: eta*DQ  =         0.000000
siesta: Emadel  =         0.000000
siesta: Emeta   =         0.000000
siesta: Emolmec =        -5.857894
siesta: Ekinion =         0.000000
siesta: Eharris =      -193.971610
siesta: Etot    =      -218.185639
siesta: FreeEng =      -218.209804

        iscf     Eharris(eV)        E_KS(eV)     FreeEng(eV)     dDmax    Ef(eV) dHmax(eV)
   scf:    1     -193.971610     -218.185639     -218.209804  1.185301-12.822165 10.328320
timer: Routine,Calls,Time,% = IterSCF        1      10.006  54.51
   scf:    2     -220.526153     -223.133887     -223.139545  0.509475-12.668135  3.053621
   scf:    3     -223.903491     -223.689239     -223.697234  0.081066-12.722669  0.363178
   scf:    4     -223.718650     -223.710096     -223.718794  0.024967-12.732909  0.118414
   scf:    5     -223.717271     -223.715047     -223.723323  0.025640-12.728263  0.112139
   scf:    6     -223.715388     -223.715519     -223.724050  0.003744-12.731734  0.018993
   scf:    7     -223.715528     -223.715524     -223.724078  0.000751-12.732201  0.012861
   scf:    8     -223.715430     -223.715479     -223.724109  0.002178-12.733398  0.001092
   scf:    9     -223.715485     -223.715482     -223.724110  0.000138-12.733153  0.000938

SCF Convergence by FreeE+DM+H criterion
|FreeE_i-FreeE_(i-1)| (eV) <     0.00100000
max |DM_out - DM_in|         :     0.0001379153
max |H_out - H_in|      (eV) :     0.0009378472
SCF cycle converged after 9 iterations

Using DM_out to compute the final energy and forces
No. of atoms with KB's overlaping orbs in proc 0. Max # of overlaps:     394     968

MM-Stress (kbar):        9.38        9.38       23.24       -0.00        0.00        0.00

siesta: E_KS(eV) =             -223.7155

siesta: E_KS - E_eggbox =      -223.7155

siesta: Atomic forces (eV/Ang):
     1   -0.000000    0.000000    0.000000
     2    0.084467   -0.000001    0.052204
     3   -0.084467    0.000001   -0.052204
     4   -0.042235    0.073150    0.052204
     5    0.042235   -0.073150   -0.052204
     6   -0.042242   -0.073165    0.052161
     7    0.042242    0.073165   -0.052161
     8   -0.084467    0.000001    0.052204
     9    0.084467   -0.000001   -0.052204
    10    0.042235   -0.073150    0.052204
    11   -0.042235    0.073150   -0.052204
    12    0.042242    0.073165    0.052161
    13   -0.042242   -0.073165   -0.052161
----------------------------------------
   Tot    0.000000    0.000000    0.000000
----------------------------------------
   Max    0.084467
   Res    0.055079    sqrt( Sum f_i^2 / 3N )
----------------------------------------
   Max    0.084467    constrained

Stress tensor Voigt[x,y,z,yz,xz,xy] (kbar):    -1258.85    -1258.86      591.31       -0.00        0.00       -0.01
(Free)E + p*V (eV/cell)     -181.0858
Target enthalpy (eV/cell)     -223.7241

siesta: Eigenvalues (eV):
  ik is       eps
   1  1  -22.6187  -16.9866  -16.0447  -15.1805  -15.1291  -13.5328  -13.5044  -12.8951  -12.8738  -10.3246
          -9.9141   -9.6875   -7.2669   -6.4041   -5.8034   -4.7261   -4.6183   -3.9126   -3.6371   -2.6158
   -0.5852    0.0899    0.1650    0.6711    1.2024    1.7425    1.9135    1.9260    4.9331    7.1744
    8.2646    9.0324   11.0753   11.1472   13.3298   14.6683   19.2720   19.9191   20.1801   20.3781
   20.7676   21.4078   21.4476   22.6275   23.4443   24.4756   26.1409   26.5807   27.2455   33.1369
   41.1329   43.9475   44.7743   44.8709   46.7677   47.1660   48.2098
   2  1  -22.7603  -17.0768  -16.2913  -15.5860  -13.7343  -13.6583  -13.0160  -12.9997  -12.9684  -11.1862
          -9.6537   -8.2284   -8.2253   -5.9737   -5.6973   -5.6101   -4.7803   -3.7942   -3.7550   -2.6816
   -2.2974   -1.7944   -1.5722   -1.4583    0.4223    2.5922    4.0499    5.3394    8.4900    8.5360
    9.8026   10.7143   11.0031   12.7341   14.2714   17.0597   19.2041   21.1222   21.2091   22.6969
   23.1453   23.8137   24.0445   24.2909   24.9540   25.4655   26.9142   35.6309   38.5401   40.1228
   45.5300   46.7137   48.1837   49.7784   51.1391   52.1810   53.8271
   3  1  -22.7603  -17.0768  -16.2913  -15.5860  -13.7344  -13.6583  -13.0159  -12.9997  -12.9684  -11.1861
          -9.6537   -8.2285   -8.2253   -5.9737   -5.6973   -5.6101   -4.7803   -3.7942   -3.7550   -2.6817
   -2.2974   -1.7943   -1.5722   -1.4583    0.4225    2.5920    4.0499    5.3395    8.4900    8.5359
    9.8026   10.7143   11.0031   12.7342   14.2713   17.0598   19.2039   21.1222   21.2092   22.6969
   23.1451   23.8136   24.0446   24.2915   24.9540   25.4654   26.9141   35.6310   38.5397   40.1227
   45.5301   46.7137   48.1834   49.7784   51.1390   52.1809   53.8270
   4  1  -22.6187  -16.9866  -16.0447  -15.1805  -15.1292  -13.5328  -13.5044  -12.8951  -12.8738  -10.3246
          -9.9142   -9.6874   -7.2669   -6.4041   -5.8034   -4.7261   -4.6182   -3.9126   -3.6371   -2.6157
   -0.5852    0.0899    0.1650    0.6711    1.2024    1.7426    1.9134    1.9260    4.9331    7.1744
    8.2646    9.0324   11.0752   11.1472   13.3299   14.6683   19.2720   19.9191   20.1805   20.3782
   20.7676   21.4078   21.4477   22.6275   23.4443   24.4756   26.1409   26.5801   27.2456   33.1369
   41.1330   43.9474   44.7743   44.8708   46.7678   47.1661   48.2097
   5  1  -22.7603  -17.0768  -16.2913  -15.5860  -13.7343  -13.6583  -13.0160  -12.9997  -12.9684  -11.1862
          -9.6537   -8.2284   -8.2253   -5.9737   -5.6973   -5.6101   -4.7803   -3.7942   -3.7550   -2.6816
   -2.2974   -1.7944   -1.5722   -1.4583    0.4223    2.5922    4.0499    5.3394    8.4900    8.5360
    9.8026   10.7143   11.0031   12.7341   14.2714   17.0597   19.2041   21.1222   21.2091   22.6969
   23.1453   23.8137   24.0445   24.2909   24.9540   25.4655   26.9142   35.6309   38.5401   40.1228
   45.5300   46.7137   48.1837   49.7784   51.1391   52.1810   53.8272
   6  1  -22.7546  -16.9484  -16.5804  -14.4266  -13.4901  -13.4899  -13.0285  -12.8791  -12.7064  -11.5672
          -8.7008   -7.1218   -7.1218   -6.4813   -6.4813   -5.3865   -5.3865   -4.1936   -4.1936   -3.4313
   -3.4286   -3.4286    0.9679    0.9679    2.1706    2.1706    2.6631    2.6636    7.0595   14.4274
   14.4275   17.9559   17.9560   18.1798   18.1798   18.6788   18.6788   23.4059   23.4706   24.5279
   24.5280   27.1301   27.1302   29.7019   32.2082   32.2092   33.2521   33.2522   37.6970   37.6973
   46.2758   46.4427   46.7031   46.7831   51.0485   57.1131   57.1133
   7  1  -22.6253  -17.0352  -16.3459  -14.9655  -14.6132  -13.9481  -13.7335  -12.9916  -12.9125  -10.2626
          -9.1363   -8.9302   -8.8314   -8.0883   -5.0592   -4.5862   -3.6966   -2.7235   -2.4145   -1.8672
   -1.4846   -1.0898   -0.8167    0.1142    1.1458    1.1956    2.0035    2.3070    2.4642    6.1487
    7.2992    8.2431    9.2044   11.1251   14.9551   15.4835   17.9052   18.6107   20.1957   20.9353
   21.3623   23.0199   23.5746   24.7596   25.2247   25.6045   25.8858   25.9271   29.8343   32.0219
   47.4653   48.7502   49.3428   54.8744   57.7118   58.7727   59.4960
   8  1  -22.6187  -16.9866  -16.0447  -15.1805  -15.1292  -13.5328  -13.5044  -12.8951  -12.8738  -10.3246
          -9.9142   -9.6874   -7.2669   -6.4041   -5.8034   -4.7261   -4.6182   -3.9126   -3.6371   -2.6157
   -0.5852    0.0899    0.1650    0.6711    1.2024    1.7426    1.9134    1.9260    4.9331    7.1744
    8.2646    9.0324   11.0752   11.1472   13.3299   14.6683   19.2720   19.9191   20.1805   20.3782
   20.7676   21.4078   21.4477   22.6275   23.4443   24.4756   26.1409   26.5801   27.2456   33.1369
   41.1330   43.9474   44.7743   44.8708   46.7678   47.1661   48.2097
   9  1  -22.6187  -16.9866  -16.0447  -15.1805  -15.1292  -13.5328  -13.5044  -12.8951  -12.8738  -10.3246
          -9.9142   -9.6874   -7.2669   -6.4041   -5.8034   -4.7261   -4.6182   -3.9126   -3.6371   -2.6157
   -0.5852    0.0899    0.1650    0.6711    1.2024    1.7426    1.9134    1.9260    4.9331    7.1744
    8.2646    9.0324   11.0752   11.1472   13.3299   14.6683   19.2720   19.9191   20.1805   20.3782
   20.7676   21.4078   21.4477   22.6275   23.4443   24.4756   26.1409   26.5801   27.2456   33.1369
   41.1330   43.9474   44.7743   44.8708   46.7678   47.1661   48.2097
  10  1  -22.6253  -17.0352  -16.3459  -14.9655  -14.6132  -13.9481  -13.7335  -12.9916  -12.9125  -10.2626
          -9.1363   -8.9302   -8.8314   -8.0883   -5.0592   -4.5862   -3.6966   -2.7235   -2.4145   -1.8672
   -1.4846   -1.0898   -0.8167    0.1141    1.1458    1.1956    2.0035    2.3070    2.4642    6.1487
    7.2992    8.2431    9.2044   11.1251   14.9551   15.4835   17.9052   18.6107   20.1957   20.9353
   21.3623   23.0199   23.5746   24.7596   25.2247   25.6045   25.8858   25.9271   29.8343   32.0219
   47.4653   48.7502   49.3428   54.8744   57.7118   58.7727   59.4960
  11  1  -22.6187  -16.9866  -16.0447  -15.1805  -15.1292  -13.5328  -13.5044  -12.8951  -12.8738  -10.3246
          -9.9142   -9.6874   -7.2669   -6.4041   -5.8034   -4.7261   -4.6182   -3.9126   -3.6371   -2.6157
   -0.5852    0.0899    0.1650    0.6711    1.2024    1.7426    1.9134    1.9260    4.9331    7.1744
    8.2646    9.0324   11.0752   11.1472   13.3299   14.6683   19.2720   19.9191   20.1805   20.3782
   20.7676   21.4078   21.4477   22.6275   23.4443   24.4756   26.1409   26.5801   27.2456   33.1369
   41.1330   43.9474   44.7743   44.8708   46.7678   47.1661   48.2097
  12  1  -22.6253  -17.0352  -16.3458  -14.9655  -14.6132  -13.9482  -13.7335  -12.9916  -12.9125  -10.2626
          -9.1363   -8.9301   -8.8314   -8.0883   -5.0592   -4.5862   -3.6967   -2.7235   -2.4145   -1.8672
   -1.4846   -1.0897   -0.8167    0.1142    1.1456    1.1956    2.0035    2.3070    2.4643    6.1487
    7.2991    8.2431    9.2044   11.1251   14.9552   15.4833   17.9053   18.6108   20.1957   20.9354
   21.3627   23.0198   23.5746   24.7596   25.2246   25.6044   25.8858   25.9271   29.8344   32.0212
   47.4653   48.7503   49.3428   54.8742   57.7117   58.7726   59.4961
  13  1  -22.6200  -17.0709  -16.0000  -15.1238  -15.0934  -13.7941  -13.4566  -12.6928  -12.5225  -10.9870
          -9.8963   -9.6894   -7.3769   -6.2326   -5.9702   -5.1619   -4.7652   -3.1551   -2.9857   -2.0227
   -0.3219   -0.1878   -0.0398    0.5728    1.0342    1.5814    2.2205    2.9284    5.3088    6.7832
    8.4691   10.0770   10.3647   11.7644   13.7775   14.2074   19.3123   19.6011   20.1312   20.8515
   20.8520   21.2545   21.5178   22.0422   23.0644   24.2719   24.4762   25.8851   31.9692   34.9680
   38.4624   43.6444   45.2104   45.3785   45.9029   46.8155   47.1903
  14  1  -22.7731  -17.1249  -16.1381  -15.5979  -13.7330  -13.6573  -13.2833  -13.0163  -12.6492  -11.5691
          -9.4182   -8.2366   -7.8694   -6.3926   -5.6932   -5.5513   -4.3188   -4.2612   -3.7810   -3.1119
   -2.3534   -2.0184   -1.7191   -0.7601    0.6601    3.0797    3.3972    6.1825    7.2403    8.8567
    9.5290   10.3813   12.1455   14.6923   16.7116   18.1997   20.3487   20.3854   21.2719   22.5414
   22.7352   23.0649   24.0721   24.8660   24.9180   25.2690   26.1727   31.8362   32.9966   40.4041
   45.6414   45.9230   46.6353   49.5352   50.8213   53.2786   53.7548
  15  1  -22.7731  -17.1249  -16.1381  -15.5978  -13.7331  -13.6572  -13.2833  -13.0163  -12.6492  -11.5691
          -9.4181   -8.2366   -7.8694   -6.3926   -5.6932   -5.5512   -4.3188   -4.2612   -3.7810   -3.1119
   -2.3533   -2.0184   -1.7191   -0.7602    0.6603    3.0795    3.3972    6.1825    7.2403    8.8567
    9.5289   10.3813   12.1455   14.6924   16.7115   18.1997   20.3487   20.3852   21.2720   22.5413
   22.7353   23.0649   24.0720   24.8660   24.9187   25.2689   26.1726   31.8363   32.9965   40.4037
   45.6412   45.9230   46.6354   49.5353   50.8212   53.2785   53.7547
  16  1  -22.6200  -17.0709  -16.0000  -15.1238  -15.0935  -13.7941  -13.4566  -12.6928  -12.5224  -10.9870
          -9.8962   -9.6894   -7.3769   -6.2327   -5.9702   -5.1620   -4.7652   -3.1551   -2.9857   -2.0227
   -0.3219   -0.1878   -0.0398    0.5728    1.0342    1.5814    2.2204    2.9286    5.3088    6.7831
    8.4690   10.0771   10.3647   11.7644   13.7774   14.2075   19.3123   19.6011   20.1313   20.8514
   20.8519   21.2545   21.5178   22.0426   23.0644   24.2718   24.4763   25.8850   31.9687   34.9680
   38.4624   43.6443   45.2105   45.3785   45.9029   46.8156   47.1904
  17  1  -22.7731  -17.1249  -16.1381  -15.5979  -13.7330  -13.6573  -13.2833  -13.0163  -12.6492  -11.5691
          -9.4182   -8.2366   -7.8694   -6.3926   -5.6932   -5.5513   -4.3188   -4.2612   -3.7810   -3.1119
   -2.3534   -2.0184   -1.7191   -0.7601    0.6601    3.0797    3.3972    6.1825    7.2403    8.8567
    9.5290   10.3813   12.1455   14.6923   16.7116   18.1997   20.3487   20.3854   21.2719   22.5414
   22.7352   23.0649   24.0721   24.8660   24.9180   25.2690   26.1727   31.8362   32.9966   40.4041
   45.6414   45.9230   46.6353   49.5352   50.8213   53.2786   53.7548
  18  1  -22.8073  -16.9023  -16.5216  -14.5061  -13.4938  -13.4936  -13.0687  -12.9738  -12.6981  -11.7065
          -8.2441   -6.9892   -6.9891   -6.6514   -6.6514   -5.9245   -5.9245   -4.1167   -3.5844   -3.5844
   -2.5029   -2.5029   -0.4631   -0.4631    1.1630    1.1630    3.8845    3.8849    9.9055   16.0952
   16.0953   18.2534   18.2534   18.7174   18.7175   19.0858   19.0858   23.3915   23.4473   24.2987
   24.2988   25.8405   25.8406   33.3592   33.3593   33.7132   34.3708   34.3719   39.1660   39.1664
   46.4249   46.7456   46.8515   47.2125   47.5180   52.3039   52.3041
  19  1  -22.7731  -17.1249  -16.1381  -15.5979  -13.7330  -13.6573  -13.2833  -13.0163  -12.6492  -11.5691
          -9.4182   -8.2366   -7.8694   -6.3926   -5.6932   -5.5513   -4.3188   -4.2612   -3.7810   -3.1119
   -2.3534   -2.0184   -1.7191   -0.7601    0.6601    3.0797    3.3972    6.1825    7.2403    8.8567
    9.5290   10.3813   12.1455   14.6923   16.7116   18.1997   20.3487   20.3854   21.2719   22.5414
   22.7352   23.0649   24.0721   24.8660   24.9180   25.2690   26.1727   31.8362   32.9966   40.4041
   45.6414   45.9230   46.6353   49.5352   50.8213   53.2786   53.7548
  20  1  -22.6304  -17.1097  -16.3052  -14.8048  -14.7171  -13.9427  -13.7437  -13.0075  -12.5510  -10.9590
          -9.8344   -8.8142   -8.3980   -7.2947   -4.7820   -4.5391   -3.7164   -3.1758   -2.5071   -1.8861
   -1.2923   -1.2153   -0.2952    0.0159    0.3978    1.2309    1.3135    2.8650    2.9567    3.5395
    8.9710   10.8525   10.9985   12.6348   15.3412   17.3911   18.0758   19.0236   19.1846   20.2957
   20.9586   21.6218   23.2218   23.3591   24.7492   25.2415   25.5475   25.9653   27.4157   35.8753
   47.9096   49.6030   50.2929   52.3846   55.5127   55.7250   57.0493
  21  1  -22.7731  -17.1249  -16.1381  -15.5978  -13.7331  -13.6572  -13.2833  -13.0163  -12.6492  -11.5691
          -9.4181   -8.2366   -7.8694   -6.3926   -5.6932   -5.5512   -4.3188   -4.2612   -3.7810   -3.1119
   -2.3533   -2.0184   -1.7191   -0.7602    0.6603    3.0795    3.3972    6.1825    7.2403    8.8567
    9.5289   10.3813   12.1455   14.6924   16.7115   18.1997   20.3487   20.3852   21.2720   22.5413
   22.7353   23.0649   24.0720   24.8660   24.9187   25.2689   26.1726   31.8363   32.9965   40.4037
   45.6412   45.9230   46.6354   49.5353   50.8212   53.2785   53.7546
  22  1  -22.7731  -17.1249  -16.1381  -15.5979  -13.7330  -13.6573  -13.2833  -13.0163  -12.6492  -11.5691
          -9.4182   -8.2366   -7.8694   -6.3926   -5.6932   -5.5513   -4.3188   -4.2612   -3.7810   -3.1119
   -2.3534   -2.0184   -1.7191   -0.7601    0.6601    3.0797    3.3972    6.1825    7.2403    8.8567
    9.5290   10.3813   12.1455   14.6923   16.7116   18.1997   20.3487   20.3854   21.2719   22.5414
   22.7352   23.0649   24.0721   24.8660   24.9180   25.2690   26.1727   31.8362   32.9966   40.4041
   45.6414   45.9230   46.6353   49.5352   50.8213   53.2786   53.7548
  23  1  -22.6200  -17.0709  -16.0000  -15.1238  -15.0934  -13.7941  -13.4566  -12.6928  -12.5225  -10.9870
          -9.8963   -9.6894   -7.3769   -6.2326   -5.9702   -5.1619   -4.7652   -3.1551   -2.9857   -2.0227
   -0.3219   -0.1878   -0.0398    0.5728    1.0342    1.5814    2.2205    2.9284    5.3088    6.7832
    8.4691   10.0770   10.3647   11.7644   13.7775   14.2074   19.3123   19.6011   20.1312   20.8515
   20.8520   21.2545   21.5178   22.0422   23.0644   24.2719   24.4762   25.8851   31.9692   34.9680
   38.4624   43.6444   45.2104   45.3785   45.9029   46.8155   47.1903
  24  1  -22.6200  -17.0709  -16.0000  -15.1238  -15.0935  -13.7941  -13.4566  -12.6928  -12.5224  -10.9870
          -9.8962   -9.6894   -7.3769   -6.2327   -5.9702   -5.1620   -4.7652   -3.1551   -2.9857   -2.0227
   -0.3219   -0.1878   -0.0398    0.5728    1.0342    1.5814    2.2204    2.9286    5.3088    6.7831
    8.4690   10.0771   10.3647   11.7644   13.7774   14.2075   19.3123   19.6011   20.1313   20.8514
   20.8519   21.2545   21.5178   22.0426   23.0644   24.2718   24.4763   25.8850   31.9687   34.9680
   38.4624   43.6443   45.2105   45.3785   45.9029   46.8156   47.1904
  25  1  -22.6200  -17.0709  -16.0000  -15.1238  -15.0935  -13.7941  -13.4566  -12.6928  -12.5224  -10.9870
          -9.8962   -9.6894   -7.3769   -6.2327   -5.9702   -5.1620   -4.7652   -3.1551   -2.9857   -2.0227
   -0.3219   -0.1878   -0.0398    0.5728    1.0342    1.5814    2.2204    2.9286    5.3088    6.7831
    8.4690   10.0771   10.3647   11.7644   13.7774   14.2075   19.3123   19.6011   20.1313   20.8514
   20.8519   21.2545   21.5178   22.0426   23.0644   24.2718   24.4763   25.8850   31.9687   34.9680
   38.4624   43.6443   45.2104   45.3785   45.9029   46.8156   47.1904
  26  1  -22.6304  -17.1097  -16.3052  -14.8048  -14.7171  -13.9427  -13.7437  -13.0075  -12.5510  -10.9590
          -9.8344   -8.8142   -8.3980   -7.2947   -4.7820   -4.5391   -3.7164   -3.1758   -2.5071   -1.8861
   -1.2923   -1.2153   -0.2952    0.0159    0.3978    1.2309    1.3135    2.8650    2.9567    3.5395
    8.9710   10.8525   10.9985   12.6348   15.3412   17.3911   18.0758   19.0236   19.1846   20.2957
   20.9586   21.6218   23.2218   23.3591   24.7492   25.2415   25.5475   25.9653   27.4157   35.8753
   47.9096   49.6030   50.2929   52.3846   55.5127   55.7250   57.0493
  27  1  -22.6200  -17.0709  -16.0000  -15.1238  -15.0935  -13.7941  -13.4566  -12.6928  -12.5224  -10.9870
          -9.8962   -9.6894   -7.3769   -6.2327   -5.9702   -5.1620   -4.7652   -3.1551   -2.9857   -2.0227
   -0.3219   -0.1878   -0.0398    0.5728    1.0342    1.5814    2.2204    2.9286    5.3088    6.7831
    8.4690   10.0771   10.3647   11.7644   13.7774   14.2075   19.3123   19.6011   20.1313   20.8514
   20.8519   21.2545   21.5178   22.0426   23.0644   24.2718   24.4763   25.8850   31.9687   34.9680
   38.4624   43.6443   45.2104   45.3785   45.9029   46.8156   47.1904
  28  1  -22.6304  -17.1097  -16.3051  -14.8048  -14.7171  -13.9428  -13.7437  -13.0075  -12.5510  -10.9590
          -9.8343   -8.8142   -8.3980   -7.2946   -4.7820   -4.5391   -3.7165   -3.1758   -2.5071   -1.8861
   -1.2923   -1.2153   -0.2952    0.0159    0.3977    1.2309    1.3135    2.8648    2.9568    3.5395
    8.9710   10.8525   10.9985   12.6348   15.3411   17.3912   18.0759   19.0236   19.1846   20.2957
   20.9585   21.6223   23.2218   23.3591   24.7492   25.2414   25.5475   25.9652   27.4157   35.8746
   47.9096   49.6030   50.2930   52.3844   55.5126   55.7250   57.0495
  29  1  -22.6201  -17.1460  -15.9522  -15.1243  -15.0482  -14.0058  -13.0853  -12.5895  -12.2134  -11.7439
         -10.0461   -9.3406   -7.5321   -6.7550   -5.7830   -5.2973   -4.7950   -2.3577   -2.0125   -1.8648
   -0.7957   -0.7144   -0.0487    0.4396    1.1696    2.1177    3.2082    4.1632    4.6834    5.4959
    5.8929    8.4506   12.9000   15.4816   15.7293   16.7314   17.7345   18.0714   18.5903   20.2981
   20.5704   21.5026   22.0265   22.4155   22.4340   22.9665   24.8037   25.6399   35.1118   35.7626
   39.5012   40.2008   44.0419   46.0618   46.3955   46.5211   46.7345
  30  1  -22.7829  -17.1587  -16.0008  -15.6174  -13.7314  -13.5324  -13.5154  -12.8731  -12.5053  -12.0378
          -8.9976   -8.2444   -7.8604   -6.0974   -5.9853   -5.6395   -4.4814   -4.3380   -3.3923   -3.3143
   -3.0580   -2.7636   -0.5684    0.0011    0.4739    2.3614    3.2582    5.1589    8.9221    9.4354
    9.4813   11.0355   12.9349   15.7162   18.8078   19.1980   19.3526   21.2056   21.6858   21.8422
   22.2063   23.5851   23.9194   24.8042   24.8131   25.3716   25.9278   27.9110   28.4976   39.0274
   44.8990   46.2403   46.2840   49.8539   49.8617   53.9432   54.1779
  31  1  -22.7829  -17.1587  -16.0008  -15.6174  -13.7315  -13.5324  -13.5154  -12.8731  -12.5052  -12.0378
          -8.9976   -8.2444   -7.8604   -6.0974   -5.9853   -5.6395   -4.4814   -4.3380   -3.3923   -3.3143
   -3.0580   -2.7636   -0.5683    0.0011    0.4737    2.3615    3.2582    5.1588    8.9221    9.4354
    9.4813   11.0354   12.9349   15.7162   18.8079   19.1980   19.3527   21.2057   21.6859   21.8421
   22.2061   23.5850   23.9195   24.8042   24.8131   25.3723   25.9277   27.9110   28.4976   39.0269
   44.8989   46.2403   46.2840   49.8539   49.8617   53.9430   54.1777
  32  1  -22.6201  -17.1460  -15.9522  -15.1243  -15.0482  -14.0058  -13.0853  -12.5896  -12.2133  -11.7439
         -10.0461   -9.3406   -7.5320   -6.7550   -5.7830   -5.2973   -4.7949   -2.3578   -2.0125   -1.8648
   -0.7957   -0.7144   -0.0487    0.4396    1.1696    2.1177    3.2084    4.1632    4.6834    5.4959
    5.8929    8.4504   12.8999   15.4816   15.7292   16.7314   17.7344   18.0714   18.5903   20.2981
   20.5704   21.5026   22.0266   22.4155   22.4342   22.9665   24.8040   25.6398   35.1113   35.7627
   39.5011   40.2007   44.0417   46.0619   46.3955   46.5212   46.7346
  33  1  -22.7829  -17.1587  -16.0008  -15.6174  -13.7314  -13.5324  -13.5154  -12.8731  -12.5053  -12.0378
          -8.9976   -8.2444   -7.8604   -6.0974   -5.9853   -5.6395   -4.4814   -4.3380   -3.3923   -3.3143
   -3.0580   -2.7636   -0.5684    0.0011    0.4739    2.3614    3.2582    5.1589    8.9221    9.4354
    9.4813   11.0355   12.9349   15.7162   18.8078   19.1980   19.3526   21.2056   21.6858   21.8422
   22.2063   23.5851   23.9194   24.8042   24.8131   25.3716   25.9278   27.9110   28.4976   39.0274
   44.8990   46.2403   46.2840   49.8539   49.8617   53.9432   54.1779
  34  1  -22.8531  -16.9006  -16.4098  -14.5975  -13.4974  -13.4972  -13.1180  -13.0531  -12.6511  -11.8671
          -7.6312   -6.7785   -6.7784   -6.6539   -6.6539   -6.5150   -6.5150   -4.9315   -2.3445   -2.3444
   -2.0834   -2.0833   -0.8616   -0.8616   -0.6505   -0.6505    4.4855    4.4859   13.0937   16.2639
   16.2640   19.1853   19.1853   19.7042   19.7043   22.2941   22.2941   22.4649   22.4650   23.4072
   23.4540   23.7214   23.7215   33.4104   33.4105   36.3617   36.3628   39.9700   40.2367   42.3727
   42.3731   46.5305   46.5307   46.9710   47.1437   47.4295   47.4546
  35  1  -22.7829  -17.1587  -16.0008  -15.6174  -13.7314  -13.5324  -13.5154  -12.8731  -12.5053  -12.0378
          -8.9976   -8.2444   -7.8604   -6.0974   -5.9853   -5.6395   -4.4814   -4.3380   -3.3923   -3.3143
   -3.0580   -2.7636   -0.5684    0.0011    0.4739    2.3614    3.2582    5.1589    8.9221    9.4354
    9.4813   11.0355   12.9349   15.7162   18.8078   19.1980   19.3526   21.2056   21.6858   21.8422
   22.2063   23.5851   23.9194   24.8042   24.8131   25.3716   25.9278   27.9110   28.4976   39.0274
   44.8990   46.2403   46.2840   49.8539   49.8617   53.9432   54.1779
  36  1  -22.6335  -17.1771  -16.2590  -14.9585  -14.4803  -13.9366  -13.7845  -12.8007  -12.0317  -11.7541
         -10.4646   -8.7977   -7.1290   -6.9488   -6.1035   -4.2798   -3.9655   -2.5838   -2.1992   -2.1055
   -1.6481   -0.5321   -0.2113   -0.0371    0.4508    0.5540    1.3291    1.5714    3.4275    3.5922
   11.3300   12.5278   12.7572   14.7821   15.9108   17.6644   17.7112   17.8110   18.3500   19.5315
   20.1760   21.7375   22.6410   23.0625   24.0757   24.8244   25.1839   25.4151   26.0260   39.1753
   48.6318   50.3433   50.8629   51.6653   52.7410   53.0079   53.8923
  37  1  -22.7829  -17.1587  -16.0008  -15.6174  -13.7315  -13.5324  -13.5154  -12.8731  -12.5052  -12.0378
          -8.9976   -8.2444   -7.8604   -6.0974   -5.9853   -5.6395   -4.4814   -4.3380   -3.3923   -3.3143
   -3.0580   -2.7636   -0.5683    0.0011    0.4737    2.3615    3.2582    5.1588    8.9221    9.4354
    9.4813   11.0354   12.9349   15.7162   18.8079   19.1980   19.3527   21.2057   21.6859   21.8421
   22.2061   23.5850   23.9195   24.8042   24.8131   25.3723   25.9277   27.9110   28.4976   39.0269
   44.8989   46.2403   46.2840   49.8539   49.8617   53.9430   54.1777
  38  1  -22.7829  -17.1587  -16.0008  -15.6174  -13.7314  -13.5324  -13.5154  -12.8731  -12.5053  -12.0378
          -8.9976   -8.2444   -7.8604   -6.0974   -5.9853   -5.6395   -4.4814   -4.3380   -3.3923   -3.3143
   -3.0580   -2.7636   -0.5684    0.0011    0.4739    2.3614    3.2582    5.1589    8.9221    9.4354
    9.4813   11.0355   12.9349   15.7162   18.8078   19.1980   19.3526   21.2056   21.6858   21.8422
   22.2063   23.5851   23.9194   24.8042   24.8131   25.3716   25.9278   27.9110   28.4976   39.0274
   44.8990   46.2403   46.2840   49.8539   49.8617   53.9432   54.1779
  39  1  -22.6201  -17.1460  -15.9522  -15.1243  -15.0482  -14.0058  -13.0853  -12.5895  -12.2134  -11.7439
         -10.0461   -9.3406   -7.5321   -6.7550   -5.7830   -5.2973   -4.7950   -2.3577   -2.0125   -1.8648
   -0.7957   -0.7144   -0.0487    0.4396    1.1696    2.1177    3.2082    4.1632    4.6834    5.4959
    5.8929    8.4506   12.9000   15.4816   15.7293   16.7314   17.7345   18.0714   18.5903   20.2981
   20.5704   21.5026   22.0265   22.4155   22.4340   22.9665   24.8037   25.6399   35.1118   35.7626
   39.5012   40.2008   44.0419   46.0618   46.3955   46.5211   46.7345
  40  1  -22.6201  -17.1460  -15.9522  -15.1243  -15.0482  -14.0058  -13.0853  -12.5896  -12.2133  -11.7439
         -10.0461   -9.3406   -7.5320   -6.7550   -5.7830   -5.2973   -4.7949   -2.3578   -2.0125   -1.8648
   -0.7957   -0.7144   -0.0487    0.4396    1.1696    2.1177    3.2084    4.1632    4.6834    5.4959
    5.8929    8.4504   12.8999   15.4816   15.7292   16.7314   17.7344   18.0714   18.5903   20.2981
   20.5704   21.5026   22.0266   22.4155   22.4342   22.9665   24.8040   25.6398   35.1113   35.7627
   39.5011   40.2007   44.0417   46.0619   46.3955   46.5212   46.7346
  41  1  -22.6201  -17.1460  -15.9522  -15.1243  -15.0482  -14.0058  -13.0853  -12.5896  -12.2133  -11.7439
         -10.0461   -9.3406   -7.5320   -6.7550   -5.7830   -5.2973   -4.7949   -2.3578   -2.0125   -1.8648
   -0.7957   -0.7144   -0.0487    0.4396    1.1696    2.1177    3.2084    4.1632    4.6834    5.4959
    5.8929    8.4504   12.8999   15.4816   15.7292   16.7314   17.7344   18.0714   18.5903   20.2981
   20.5704   21.5026   22.0266   22.4155   22.4342   22.9665   24.8040   25.6398   35.1113   35.7627
   39.5011   40.2007   44.0417   46.0619   46.3955   46.5212   46.7346
  42  1  -22.6335  -17.1771  -16.2590  -14.9585  -14.4803  -13.9366  -13.7845  -12.8007  -12.0317  -11.7541
         -10.4646   -8.7977   -7.1290   -6.9488   -6.1035   -4.2798   -3.9655   -2.5838   -2.1992   -2.1055
   -1.6481   -0.5321   -0.2113   -0.0371    0.4508    0.5540    1.3291    1.5714    3.4275    3.5922
   11.3300   12.5278   12.7572   14.7821   15.9108   17.6644   17.7112   17.8110   18.3500   19.5315
   20.1760   21.7375   22.6410   23.0625   24.0757   24.8244   25.1839   25.4151   26.0260   39.1753
   48.6318   50.3433   50.8630   51.6653   52.7410   53.0079   53.8923
  43  1  -22.6201  -17.1460  -15.9522  -15.1243  -15.0482  -14.0058  -13.0853  -12.5896  -12.2133  -11.7439
         -10.0461   -9.3406   -7.5320   -6.7550   -5.7830   -5.2973   -4.7949   -2.3578   -2.0125   -1.8648
   -0.7957   -0.7144   -0.0487    0.4396    1.1696    2.1177    3.2084    4.1632    4.6834    5.4959
    5.8929    8.4504   12.8999   15.4816   15.7292   16.7314   17.7344   18.0714   18.5903   20.2981
   20.5704   21.5026   22.0266   22.4155   22.4342   22.9665   24.8040   25.6398   35.1113   35.7627
   39.5011   40.2007   44.0417   46.0619   46.3955   46.5212   46.7346
  44  1  -22.6335  -17.1771  -16.2589  -14.9585  -14.4803  -13.9367  -13.7845  -12.8007  -12.0316  -11.7541
         -10.4646   -8.7977   -7.1290   -6.9486   -6.1035   -4.2798   -3.9655   -2.5839   -2.1992   -2.1055
   -1.6481   -0.5321   -0.2113   -0.0371    0.4508    0.5540    1.3291    1.5714    3.4276    3.5920
   11.3299   12.5277   12.7572   14.7821   15.9108   17.6645   17.7112   17.8109   18.3502   19.5315
   20.1761   21.7379   22.6409   23.0626   24.0756   24.8244   25.1838   25.4152   26.0259   39.1746
   48.6317   50.3432   50.8628   51.6652   52.7411   53.0081   53.8921
siesta: Fermi energy =     -12.733153 eV

siesta: Program's energy decomposition (eV):
siesta: Ebs     =      -251.193896
siesta: Eions   =       380.620085
siesta: Ena     =       107.825006
siesta: Ekin    =       183.427808
siesta: Enl     =        16.721416
siesta: Eso     =         0.000000
siesta: Edftu   =         0.000000
siesta: DEna    =        11.412922
siesta: DUscf   =         2.207112
siesta: DUext   =         0.000000
siesta: Exc     =      -158.831767
siesta: eta*DQ  =         0.000000
siesta: Emadel  =         0.000000
siesta: Emeta   =         0.000000
siesta: Emolmec =        -5.857894
siesta: Ekinion =         0.000000
siesta: Eharris =      -223.715485
siesta: Etot    =      -223.715482
siesta: FreeEng =      -223.724110

siesta: Final energy (eV):
siesta:  Band Struct. =    -251.193896
siesta:       Kinetic =     183.427808
siesta:       Hartree =      71.590291
siesta:       Edftu   =       0.000000
siesta:       Eso     =       0.000000
siesta:    Ext. field =       0.000000
siesta:   Exch.-corr. =    -158.831767
siesta:  Ion-electron =    -410.818605
siesta:       Ion-ion =      96.774684
siesta:       Ekinion =       0.000000
siesta:         Total =    -223.715482
siesta:         Fermi =     -12.733153

siesta: Atomic forces (eV/Ang):
siesta:      1   -0.000000    0.000000    0.000000
siesta:      2    0.084467   -0.000001    0.052204
siesta:      3   -0.084467    0.000001   -0.052204
siesta:      4   -0.042235    0.073150    0.052204
siesta:      5    0.042235   -0.073150   -0.052204
siesta:      6   -0.042242   -0.073165    0.052161
siesta:      7    0.042242    0.073165   -0.052161
siesta:      8   -0.084467    0.000001    0.052204
siesta:      9    0.084467   -0.000001   -0.052204
siesta:     10    0.042235   -0.073150    0.052204
siesta:     11   -0.042235    0.073150   -0.052204
siesta:     12    0.042242    0.073165    0.052161
siesta:     13   -0.042242   -0.073165   -0.052161
siesta: ----------------------------------------
siesta:    Tot    0.000000    0.000000    0.000000

siesta: Stress tensor (static) (eV/Ang**3):
siesta:    -0.785705   -0.000006    0.000000
siesta:    -0.000006   -0.785712   -0.000000
siesta:     0.000000   -0.000000    0.369064

siesta: Cell volume =        106.387173 Ang**3

siesta: Pressure (static):
siesta:                Solid            Molecule  Units
siesta:           0.00436506          0.00442574  Ry/Bohr**3
siesta:           0.40078454          0.40635595  eV/Ang**3
siesta:         642.13456192        651.06105013  kBar
(Free)E+ p_basis*V_orbitals  =        -191.553989
(Free)Eharris+ p_basis*V_orbitals  =        -191.553991

cite: Please see "LiC12_scf.bib" for an exhaustive BiBTeX file.
cite: Please clearly indicate Siesta version in published work: 4.1.5
cite: This calculation has made use of the following articles
cite: which are encouraged to be cited in a published work.
        Primary SIESTA paper
          DOI: www.doi.org/10.1088/0953-8984/14/11/302

>> End of run:   9-NOV-2022  12:42:46
Job completed
