Siesta Version  : 4.1.5
Architecture    : x86_64-unknown-linux-gnu--unknown
Compiler version: GNU Fortran (GCC) 11.3.0
Compiler flags  : mpif90 -g -O2 -fallow-argument-mismatch
PP flags        : -DMPI -DFC_HAVE_FLUSH -DFC_HAVE_ABORT
Libraries       :  -I/global/software/sl-7.x86_64/modules/intel/2020.4.304/mkl/include  /globall/software/sl-7.x86_64/modules/intel/2020.4.304/mkl/lib/intel64/libmkl_scalapack_lp64.a -Wl,--start-group /global/software/sl-7.x86_64/modules/intel/2020.4.304/mkl/lib/intel64/libmkl_intel_lp64.a /global/software/sl-7.x86_64/modules/intel/2020.4.304/mkl/lib/intel64/libmkl_sequential.a /global/software/sl-7.x86_64/modules/intel/2020.4.304/mkl/lib/intel64/libmkl_core.a /global/software/sl-7.x86_64/modules/intel/2020.4.304/mkl/lib/intel64/libmkl_blacs_openmpi_lp64.a -Wl,--end-group -lpthread -lm -ldl
PARALLEL version

* Running on 12 nodes in parallel
>> Start of run:   9-NOV-2022  13:07:54

                           ***********************       
                           *  WELCOME TO SIESTA  *       
                           ***********************       

reinit: Reading from standard input
reinit: Dumped input in INPUT_TMP.41117
************************** Dump of input data file ****************************
SystemName LiC12_scf
SystemLabel LiC12_scf
NumberOfAtoms   13
NumberOfSpecies 2
%block ChemicalSpeciesLabel
1  3   Li-gga
2  6   C-gga
%endblock ChemicalSpeciesLabel
PAO.BasisSize  SZP
PAO.EnergyShift  10 meV
%block PS.Lmax
C-gga   2
Li-gga  2
%endblock PS.Lmax
LatticeConstant 1.000000 Ang
%block LatticeVectors
	4.2686000000	0.0000000000	0.0000000000
	-2.1343000000	3.6967160386	0.0000000000
	0.0000000000	0.0000000000	4.6351140000
%endblock LatticeVectors
AtomicCoordinatesFormat Ang
%block AtomicCoordinatesAndAtomicSpecies
	0.00000000	0.00000000	0.00000000	2
	1.42144380	0.00000000	1.15877850	1
	2.84715620	0.00000000	3.47633550	1
	-0.71072190	1.23100644	1.15877850	1
	-1.42357810	2.46570960	3.47633550	1
	1.42357810	2.46570960	1.15877850	1
	0.71072190	1.23100644	3.47633550	1
	2.84715620	0.00000000	1.15877850	1
	1.42144380	0.00000000	3.47633550	1
	-1.42357810	2.46570960	1.15877850	1
	-0.71072190	1.23100644	3.47633550	1
	0.71072190	1.23100644	1.15877850	1
	1.42357810	2.46570960	3.47633550	1
%endblock AtomicCoordinatesAndAtomicSpecies
Kgrid_NoTRS  T
%block kgrid_MonkhorstPack
4       0       0       0.0
0       4       0       0.0
0       0       4       0.0
%endblock kgrid_MonkhorstPack
AtomCoorFormatOut Ang
BlockSize 1
#ProcessorY 12
Diag.ParallelOverK   T
Diag.DivideAndConquer F
MeshCutoff   300 Ry
SCF.FreeE.Tolerance 1E-3 eV
SCF.EDM.Tolerance   5E-3 eV
DM.Tolerance  1E-3
DM.Require.Energy.Convergence T
DM.NumberPulay 4
XC.Functional GGA
XC.Authors    PBE
UseSaveData        F
MD.TypeOfRun       CG
MD.VariableCell    F
MD.NumCGsteps      00
MD.MaxCGDispl      0.200000 Bohr
MD.MaxStressTol    1.000000 GPa
MD.MaxForceTol     0.010000 eV/Ang
WriteMDHistory T
WriteCoorStep T
WriteForces T
WriteCoorStep    T
WriteEigenValues T
WriteDM    F
MM.UnitsDistance Ang  # what this program prints out DO NOT CHANGE
MM.UnitsEnergy    eV  # what this program prints out DO NOT CHANGE
MM.Grimme.S6     0.75 # Grimme-paper for PBE (correct for your functional)
MM.Grimme.D     20.   # Grimme-paper (correct for your functional)
%block MM.Potentials
  1   1 Grimme     16.69      1.650 # Li, 10.1002/jcc.20495
  1   2 Grimme     17.40      2.277 # Li / C
  2   2 Grimme     18.14      2.904 # C, 10.1002/jcc.20495
%endblock MM.Potentials
#%block ProjectedDensityOfStates
# -200.0  120.0  0.4  12800  eV
#%endblock ProjectedDensityOfStates
************************** End of input data file *****************************

reinit: -----------------------------------------------------------------------
reinit: System Name: LiC12_scf
reinit: -----------------------------------------------------------------------
reinit: System Label: LiC12_scf
reinit: -----------------------------------------------------------------------
Reading two-body potentials
Grimme - two-body potential between 1 and 1
Grimme - two-body potential between 1 and 2
Grimme - two-body potential between 2 and 2

initatom: Reading input for the pseudopotentials and atomic orbitals ----------
Species number:   1 Atomic number:    3 Label: Li-gga
Species number:   2 Atomic number:    6 Label: C-gga

Ground state valence configuration:   2s01
Reading pseudopotential information in formatted form from Li-gga.psf

Valence configuration for pseudopotential generation:
2s( 1.00) rc: 2.28
2p( 0.00) rc: 2.28
3d( 0.00) rc: 2.59
4f( 0.00) rc: 2.59
Ground state valence configuration:   2s02  2p02
Reading pseudopotential information in formatted form from C-gga.psf

Valence configuration for pseudopotential generation:
2s( 2.00) rc: 1.56
2p( 2.00) rc: 1.56
3d( 0.00) rc: 1.56
4f( 0.00) rc: 1.56
relmxkb: Read Max KB Ang. Momentum=    2 for species C-gga
relmxkb: Read Max KB Ang. Momentum=    2 for species Li-gga

<basis_specs>
===============================================================================
Li-gga               Z=   3    Mass=  6.9400        Charge= 0.17977+309
Lmxo=0 Lmxkb= 2    BasisType=split      Semic=F
L=0  Nsemic=0  Cnfigmx=2
          i=1  nzeta=1  polorb=1  (2s)
            splnorm:   0.15000    
               vcte:    0.0000    
               rinn:    0.0000    
               qcoe:    0.0000    
               qyuk:    0.0000    
               qwid:   0.10000E-01
                rcs:    0.0000    
            lambdas:    1.0000    
-------------------------------------------------------------------------------
L=0  Nkbl=1  erefs: 0.17977+309
L=1  Nkbl=1  erefs: 0.17977+309
L=2  Nkbl=1  erefs: 0.17977+309
===============================================================================
</basis_specs>

atom: Called for Li-gga                (Z =   3)

read_vps: Pseudopotential generation method:
read_vps: ATM 3.2.2 Troullier-Martins                       
Valence charge for ps generation:    1.00000

read_vps: Pseudopotential includes a core correction:
read_vps: Pseudo-core for xc-correction

xc_check: Exchange-correlation functional:
xc_check: GGA Perdew, Burke & Ernzerhof 1996
V l=0 = -2*Zval/r beyond r=  2.2278
V l=1 = -2*Zval/r beyond r=  2.2278
V l=2 = -2*Zval/r beyond r=  2.5245
All V_l potentials equal beyond r=  2.4622
This should be close to max(r_c) in ps generation
All pots = -2*Zval/r beyond r=  2.5245

VLOCAL1: 99.0% of the norm of Vloc inside      7.160 Ry
VLOCAL1: 99.9% of the norm of Vloc inside     16.318 Ry
atom: Maximum radius for 4*pi*r*r*local-pseudopot. charge    2.86079
atom: Maximum radius for r*vlocal+2*Zval:    2.43160
GHOST: No ghost state for L =  0
GHOST: No ghost state for L =  1
GHOST: No ghost state for L =  2

KBgen: Kleinman-Bylander projectors: 
   l= 0   rc=  2.654023   el= -0.211234   Ekb=  1.742119   kbcos=  0.228463
   l= 1   rc=  2.721230   el= -0.080095   Ekb= -1.122375   kbcos= -0.147941
   l= 2   rc=  2.825246   el=  0.002001   Ekb= -0.207076   kbcos= -0.031965

KBgen: Total number of Kleinman-Bylander projectors:    9
atom: -------------------------------------------------------------------------

atom: SANKEY-TYPE ORBITALS:

SPLIT: Orbitals with angular momentum L= 0

SPLIT: Basis orbitals for state 2s

SPLIT: PAO cut-off radius determined from an
SPLIT: energy shift=  0.000735 Ry

   izeta = 1
                 lambda =    1.000000
                     rc =   11.897381
                 energy =   -0.210580
                kinetic =    0.143382
    potential(screened) =   -0.353962
       potential(ionic) =   -0.533453

POLgen: Perturbative polarization orbital with L=  1

POLgen: Polarization orbital for state 2s

   izeta = 1
                     rc =   11.897381
                 energy =   -0.027011
                kinetic =    0.282985
    potential(screened) =   -0.309997
       potential(ionic) =   -0.490997
atom: Total number of Sankey-type orbitals:  4

atm_pop: Valence configuration (for local Pseudopot. screening):
 2s( 1.00)                                                            
Vna: chval, zval:    1.00000   1.00000

Vna:  Cut-off radius for the neutral-atom potential:  11.897381
comcore: Pseudo-core radius Rcore=  3.450946

atom: _________________________________________________________________________

<basis_specs>
===============================================================================
C-gga                Z=   6    Mass=  12.010        Charge= 0.17977+309
Lmxo=1 Lmxkb= 2    BasisType=split      Semic=F
L=0  Nsemic=0  Cnfigmx=2
          i=1  nzeta=1  polorb=0  (2s)
            splnorm:   0.15000    
               vcte:    0.0000    
               rinn:    0.0000    
               qcoe:    0.0000    
               qyuk:    0.0000    
               qwid:   0.10000E-01
                rcs:    0.0000    
            lambdas:    1.0000    
L=1  Nsemic=0  Cnfigmx=2
          i=1  nzeta=1  polorb=1  (2p)
            splnorm:   0.15000    
               vcte:    0.0000    
               rinn:    0.0000    
               qcoe:    0.0000    
               qyuk:    0.0000    
               qwid:   0.10000E-01
                rcs:    0.0000    
            lambdas:    1.0000    
-------------------------------------------------------------------------------
L=0  Nkbl=1  erefs: 0.17977+309
L=1  Nkbl=1  erefs: 0.17977+309
L=2  Nkbl=1  erefs: 0.17977+309
===============================================================================
</basis_specs>

atom: Called for C-gga                 (Z =   6)

read_vps: Pseudopotential generation method:
read_vps: ATM 3.2.2 Troullier-Martins                       
Valence charge for ps generation:    4.00000

xc_check: Exchange-correlation functional:
xc_check: GGA Perdew, Burke & Ernzerhof 1996
V l=0 = -2*Zval/r beyond r=  1.5227
V l=1 = -2*Zval/r beyond r=  1.5227
V l=2 = -2*Zval/r beyond r=  1.5227
All V_l potentials equal beyond r=  1.4851
This should be close to max(r_c) in ps generation
All pots = -2*Zval/r beyond r=  1.5227

VLOCAL1: 99.0% of the norm of Vloc inside     19.682 Ry
VLOCAL1: 99.9% of the norm of Vloc inside     44.856 Ry
atom: Maximum radius for 4*pi*r*r*local-pseudopot. charge    1.79142
atom: Maximum radius for r*vlocal+2*Zval:    1.54183
GHOST: No ghost state for L =  0
GHOST: No ghost state for L =  1
GHOST: No ghost state for L =  2

KBgen: Kleinman-Bylander projectors: 
   l= 0   rc=  1.661951   el= -1.010689   Ekb=  5.289847   kbcos=  0.316429
   l= 1   rc=  1.661951   el= -0.388490   Ekb= -4.102504   kbcos= -0.351025
   l= 2   rc=  1.747182   el=  0.001971   Ekb= -1.006005   kbcos= -0.008530

KBgen: Total number of Kleinman-Bylander projectors:    9
atom: -------------------------------------------------------------------------

atom: SANKEY-TYPE ORBITALS:

SPLIT: Orbitals with angular momentum L= 0

SPLIT: Basis orbitals for state 2s

SPLIT: PAO cut-off radius determined from an
SPLIT: energy shift=  0.000735 Ry

   izeta = 1
                 lambda =    1.000000
                     rc =    5.948690
                 energy =   -1.010099
                kinetic =    0.827121
    potential(screened) =   -1.837220
       potential(ionic) =   -5.392783

SPLIT: Orbitals with angular momentum L= 1

SPLIT: Basis orbitals for state 2p

SPLIT: PAO cut-off radius determined from an
SPLIT: energy shift=  0.000735 Ry

   izeta = 1
                 lambda =    1.000000
                     rc =    7.638387
                 energy =   -0.387843
                kinetic =    2.314739
    potential(screened) =   -2.702582
       potential(ionic) =   -6.092371

POLgen: Perturbative polarization orbital with L=  2

POLgen: Polarization orbital for state 2p

   izeta = 1
                     rc =    7.638387
                 energy =    0.921402
                kinetic =    1.955040
    potential(screened) =   -1.033637
       potential(ionic) =   -3.679558
atom: Total number of Sankey-type orbitals:  9

atm_pop: Valence configuration (for local Pseudopot. screening):
 2s( 2.00)                                                            
 2p( 2.00)                                                            
Vna: chval, zval:    4.00000   4.00000

Vna:  Cut-off radius for the neutral-atom potential:   7.638387

atom: _________________________________________________________________________

prinput: Basis input ----------------------------------------------------------

PAO.BasisType split     

%block ChemicalSpeciesLabel
    1    3 Li-gga                  # Species index, atomic number, species label
    2    6 C-gga                   # Species index, atomic number, species label
%endblock ChemicalSpeciesLabel

%block PAO.Basis                 # Define Basis set
Li-gga                1                    # Species label, number of l-shells
 n=2   0   1 P   1                   # n, l, Nzeta, Polarization, NzetaPol
  11.897   
   1.000   
C-gga                 2                    # Species label, number of l-shells
 n=2   0   1                         # n, l, Nzeta 
   5.949   
   1.000   
 n=2   1   1 P   1                   # n, l, Nzeta, Polarization, NzetaPol
   7.638   
   1.000   
%endblock PAO.Basis

prinput: ----------------------------------------------------------------------

coor:   Atomic-coordinates input format  =     Cartesian coordinates
coor:                                          (in Angstroms)

siesta: Atomic coordinates (Bohr) and species
siesta:      0.00000   0.00000   0.00000  2        1
siesta:      2.68614   0.00000   2.18977  1        2
siesta:      5.38035   0.00000   6.56932  1        3
siesta:     -1.34307   2.32627   2.18977  1        4
siesta:     -2.69017   4.65952   6.56932  1        5
siesta:      2.69017   4.65952   2.18977  1        6
siesta:      1.34307   2.32627   6.56932  1        7
siesta:      5.38035   0.00000   2.18977  1        8
siesta:      2.68614   0.00000   6.56932  1        9
siesta:     -2.69017   4.65952   2.18977  1       10
siesta:     -1.34307   2.32627   6.56932  1       11
siesta:      1.34307   2.32627   2.18977  1       12
siesta:      2.69017   4.65952   6.56932  1       13

siesta: System type = bulk      

initatomlists: Number of atoms, orbitals, and projectors:     13    57   117

siesta: ******************** Simulation parameters ****************************
siesta:
siesta: The following are some of the parameters of the simulation.
siesta: A complete list of the parameters used, including default values,
siesta: can be found in file out.fdf
siesta:
redata: Spin configuration                          = none
redata: Number of spin components                   = 1
redata: Time-Reversal Symmetry                      = T
redata: Spin spiral                                 = F
redata: Long output                                 =   F
redata: Number of Atomic Species                    =        2
redata: Charge density info will appear in .RHO file
redata: Write Mulliken Pop.                         = NO
redata: Matel table size (NRTAB)                    =     1024
redata: Mesh Cutoff                                 =   300.0000 Ry
redata: Net charge of the system                    =     0.0000 |e|
redata: Min. number of SCF Iter                     =        0
redata: Max. number of SCF Iter                     =     1000
redata: SCF convergence failure will abort job
redata: SCF mix quantity                            = Hamiltonian
redata: Mix DM or H after convergence               =   F
redata: Recompute H after scf cycle                 =   F
redata: Mix DM in first SCF step                    =   T
redata: Write Pulay info on disk                    =   F
redata: New DM Occupancy tolerance                  = 0.000000000001
redata: No kicks to SCF
redata: DM Mixing Weight for Kicks                  =     0.5000
redata: Require Harris convergence for SCF          =   F
redata: Harris energy tolerance for SCF             =     0.000100 eV
redata: Require DM convergence for SCF              =   T
redata: DM tolerance for SCF                        =     0.001000
redata: Require EDM convergence for SCF             =   F
redata: EDM tolerance for SCF                       =     0.005000 eV
redata: Require H convergence for SCF               =   T
redata: Hamiltonian tolerance for SCF               =     0.001000 eV
redata: Require (free) Energy convergence for SCF   =   T
redata: (free) Energy tolerance for SCF             =     0.001000 eV
redata: Using Saved Data (generic)                  =   F
redata: Use continuation files for DM               =   F
redata: Neglect nonoverlap interactions             =   F
redata: Method of Calculation                       = Diagonalization
redata: Electronic Temperature                      =   299.9869 K
redata: Fix the spin of the system                  =   F
redata: Dynamics option                             = Single-point calculation
mix.SCF: Pulay mixing                            = Pulay
mix.SCF:    Variant                              = stable
mix.SCF:    History steps                        = 4
mix.SCF:    Linear mixing weight                 =     0.250000
mix.SCF:    Mixing weight                        =     0.250000
mix.SCF:    SVD condition                        = 0.1000E-07
redata: ***********************************************************************

%block SCF.Mixers
  Pulay
%endblock SCF.Mixers

%block SCF.Mixer.Pulay
  # Mixing method
  method pulay
  variant stable

  # Mixing options
  weight 0.2500
  weight.linear 0.2500
  history 4
%endblock SCF.Mixer.Pulay

DM_history_depth set to one: no extrapolation allowed by default for geometry relaxation
Size of DM history Fstack: 1
Total number of electrons:    16.000000
Total ionic charge:    16.000000

* ProcessorY, Blocksize:    3   1


* Orbital distribution balance (max,min):     5     4

k-point displ. along   1 input, could be:     0.00    0.50
k-point displ. along   2 input, could be:     0.00    0.50
k-point displ. along   3 input, could be:     0.00    0.50
 Kpoints in:           48 . Kpoints trimmed:           44

siesta: k-grid: Number of k-points =    44
siesta: k-grid: Cutoff (effective) =     8.537 Ang
siesta: k-grid: Supercell and displacements
siesta: k-grid:    4   0   0      0.000
siesta: k-grid:    0   4   0      0.000
siesta: k-grid:    0   0   4      0.000

diag: Algorithm                                     = Expert
diag: Parallel over k                               =   T
diag: Use parallel 2D distribution                  =   T
diag: Parallel block-size                           = 1
diag: Parallel distribution                         =     3 x     4
diag: Used triangular part                          = Lower
diag: Absolute tolerance                            =  0.100E-15
diag: Orthogonalization factor                      =  0.100E-05
diag: Memory factor                                 =  1.0000

superc: Internal auxiliary supercell:     9 x     9 x     7  =     567
superc: Number of atoms, orbitals, and projectors:   7371  32319  66339


ts: **************************************************************
ts: Save H and S matrices                           =    F
ts: Save DM and EDM matrices                        =    F
ts: Only save the overlap matrix S                  =    F
ts: **************************************************************

************************ Begin: TS CHECKS AND WARNINGS ************************
************************ End: TS CHECKS AND WARNINGS **************************


                     ====================================
                        Single-point calculation
                     ====================================

outcoor: Atomic coordinates (Ang):                          
    0.00000000    0.00000000    0.00000000   2       1  C-gga
    1.42144380    0.00000000    1.15877850   1       2  Li-gga
    2.84715620    0.00000000    3.47633550   1       3  Li-gga
   -0.71072190    1.23100644    1.15877850   1       4  Li-gga
   -1.42357810    2.46570960    3.47633550   1       5  Li-gga
    1.42357810    2.46570960    1.15877850   1       6  Li-gga
    0.71072190    1.23100644    3.47633550   1       7  Li-gga
    2.84715620    0.00000000    1.15877850   1       8  Li-gga
    1.42144380    0.00000000    3.47633550   1       9  Li-gga
   -1.42357810    2.46570960    1.15877850   1      10  Li-gga
   -0.71072190    1.23100644    3.47633550   1      11  Li-gga
    0.71072190    1.23100644    1.15877850   1      12  Li-gga
    1.42357810    2.46570960    3.47633550   1      13  Li-gga

superc: Internal auxiliary supercell:     9 x     9 x     7  =     567
superc: Number of atoms, orbitals, and projectors:   7371  32319  66339

outcell: Unit cell vectors (Ang):
        4.268600    0.000000    0.000000
       -2.134300    3.696716    0.000000
        0.000000    0.000000    4.635114

outcell: Cell vector modules (Ang)   :    4.268600    4.268600    4.635114
outcell: Cell angles (23,13,12) (deg):     90.0000     90.0000    120.0000
outcell: Cell volume (Ang**3)        :     73.1412
<dSpData1D:S at geom step 0
  <sparsity:sparsity for geom step 0
    nrows_g=57 nrows=5 sparsity=14.1370 nnzs=45931, refcount: 7>
  <dData1D:(new from dSpData1D) n=45931, refcount: 1>
refcount: 1>
new_DM -- step:     1
Initializing Density Matrix...
DM filled with atomic data:
<dSpData2D:DM initialized from atoms
  <sparsity:sparsity for geom step 0
    nrows_g=57 nrows=5 sparsity=14.1370 nnzs=45931, refcount: 8>
  <dData2D:DM n=45931 m=1, refcount: 1>
refcount: 1>
No. of atoms with KB's overlaping orbs in proc 0. Max # of overlaps:     548    1386
New grid distribution:   1
           1       1:   20    1:    7    1:    7
           2       1:   20    1:    7    8:   13
           3       1:   20    1:    7   14:   19
           4       1:   20    1:    7   20:   25
           5       1:   20    8:   14    1:    7
           6       1:   20    8:   14    8:   13
           7       1:   20    8:   14   14:   19
           8       1:   20    8:   14   20:   25
           9       1:   20   15:   20    1:    7
          10       1:   20   15:   20    8:   13
          11       1:   20   15:   20   14:   19
          12       1:   20   15:   20   20:   25

InitMesh: MESH =    40 x    40 x    50 =       80000
InitMesh: (bp) =    20 x    20 x    25 =       10000
InitMesh: Mesh cutoff (required, used) =   300.000   321.604 Ry
ExtMesh (bp) on 0 =   160 x   147 x   143 =     3363360
New grid distribution:   2
           1       8:   20    1:   10    1:    7
           2       1:    7    1:   10    1:   13
           3       8:   20    1:   10    8:   13
           4       8:   20    1:   10   20:   25
           5       8:   20   11:   20    1:    7
           6       8:   20   11:   20   14:   19
           7       1:    7    1:   10   14:   25
           8       8:   20    1:   10   14:   19
           9       1:    7   11:   20    1:   13
          10       8:   20   11:   20    8:   13
          11       1:    7   11:   20   14:   25
          12       8:   20   11:   20   20:   25
New grid distribution:   3
           1       8:   20    1:   10    1:    7
           2       1:    7    1:   10    1:   13
           3       8:   20    1:   10    8:   13
           4       8:   20    1:   10   20:   25
           5       8:   20   11:   20    1:    7
           6       8:   20   11:   20   14:   19
           7       1:    7    1:   10   14:   25
           8       8:   20    1:   10   14:   19
           9       1:    7   11:   20    1:   13
          10       8:   20   11:   20    8:   13
          11       1:    7   11:   20   14:   25
          12       8:   20   11:   20   20:   25
Setting up quadratic distribution...
ExtMesh (bp) on 0 =   153 x   150 x   143 =     3281850
PhiOnMesh: Number of (b)points on node 0 =                  910
PhiOnMesh: nlist on node 0 =               676067

stepf: Fermi-Dirac step function

siesta: Program's energy decomposition (eV):
siesta: Ebs     =      -266.719822
siesta: Eions   =       380.620085
siesta: Ena     =        83.893526
siesta: Ekin    =       283.973905
siesta: Enl     =        -8.327346
siesta: Eso     =         0.000000
siesta: Edftu   =         0.000000
siesta: DEna    =       -30.853864
siesta: DUscf   =        26.094819
siesta: DUext   =         0.000000
siesta: Exc     =      -186.777881
siesta: eta*DQ  =         0.000000
siesta: Emadel  =         0.000000
siesta: Emeta   =         0.000000
siesta: Emolmec =        -8.343895
siesta: Ekinion =         0.000000
siesta: Eharris =      -180.382273
siesta: Etot    =      -220.960822
siesta: FreeEng =      -220.967332

        iscf     Eharris(eV)        E_KS(eV)     FreeEng(eV)     dDmax    Ef(eV) dHmax(eV)
   scf:    1     -180.382273     -220.960822     -220.967332  1.648536-17.267370 15.847193
timer: Routine,Calls,Time,% = IterSCF        1      17.031  55.26
   scf:    2     -241.264471     -233.757355     -233.761215  0.702549-16.788927  3.903416
   scf:    3     -234.723356     -234.605649     -234.612326  0.213820-16.511764  0.354633
   scf:    4     -234.590455     -234.610182     -234.617833  0.058015-16.585210  0.431866
   scf:    5     -234.612833     -234.619411     -234.626322  0.030037-16.505076  0.218625
   scf:    6     -234.623929     -234.622137     -234.629141  0.012106-16.516225  0.077591
   scf:    7     -234.622413     -234.622406     -234.629544  0.006943-16.523482  0.002191
   scf:    8     -234.622408     -234.622407     -234.629545  0.000366-16.523446  0.001223
   scf:    9     -234.622407     -234.622407     -234.629546  0.000701-16.523511  0.000461

SCF Convergence by FreeE+DM+H criterion
|FreeE_i-FreeE_(i-1)| (eV) <     0.00100000
max |DM_out - DM_in|         :     0.0007008141
max |H_out - H_in|      (eV) :     0.0004607860
SCF cycle converged after 9 iterations

Using DM_out to compute the final energy and forces
No. of atoms with KB's overlaping orbs in proc 0. Max # of overlaps:     548    1386

MM-Stress (kbar):       85.22       85.22      319.62       -0.00        0.00       -0.00

siesta: E_KS(eV) =             -234.6224

siesta: E_KS - E_eggbox =      -234.6224

siesta: Atomic forces (eV/Ang):
     1    0.000000    0.000000    0.000000
     2    0.557453    0.000013    0.137835
     3   -0.557453   -0.000013   -0.137835
     4   -0.278715    0.482775    0.137835
     5    0.278715   -0.482775   -0.137835
     6   -0.278723   -0.482761    0.137764
     7    0.278722    0.482761   -0.137764
     8   -0.557453   -0.000013    0.137835
     9    0.557453    0.000013   -0.137835
    10    0.278715   -0.482775    0.137835
    11   -0.278715    0.482775   -0.137835
    12    0.278722    0.482761    0.137764
    13   -0.278723   -0.482761   -0.137764
----------------------------------------
   Tot    0.000000    0.000000   -0.000000
----------------------------------------
   Max    0.557453
   Res    0.318527    sqrt( Sum f_i^2 / 3N )
----------------------------------------
   Max    0.557453    constrained

Stress tensor Voigt[x,y,z,yz,xz,xy] (kbar):    -1533.24    -1533.26       93.84       -0.00        0.00       -0.02
(Free)E + p*V (eV/cell)     -189.3950
Target enthalpy (eV/cell)     -234.6295

siesta: Eigenvalues (eV):
  ik is       eps
   1  1  -28.2054  -22.2232  -21.9883  -21.3825  -20.6750  -20.4225  -20.1038  -16.3786  -15.9378  -14.7938
         -14.0423  -11.9250  -10.5950   -9.7020   -8.5878   -7.6765   -4.7884   -4.1552   -3.4314   -2.8443
   -1.7996   -1.0465   -0.1351    0.7202    2.5032    3.0587    4.3323    5.1678    6.8706    7.8664
   10.4922   12.9207   14.0181   14.9067   16.3870   16.4585   18.2230   18.5271   20.5541   21.4002
   22.7546   23.0313   23.1581   27.3855   27.5195   29.0903   32.5076   34.8134   35.1744   37.0693
   39.2361   40.7515   41.6252   43.9846   44.4358   45.7515   49.2004
   2  1  -28.3035  -22.9729  -21.9792  -20.7673  -20.4805  -19.9054  -19.5320  -15.9164  -15.0959  -14.9802
         -13.9646  -13.8892  -12.2892  -11.6968   -8.7205   -6.8571   -4.6896   -4.1971   -3.6688   -3.0340
   -2.6539   -1.6853   -0.9038    3.9975    4.1089    4.9515    8.0346    9.7343    9.8346   13.4955
   16.0092   16.6385   17.1206   17.5242   19.3549   20.0223   20.6516   21.4008   22.1870   22.6902
   22.8634   26.7781   26.8897   27.7327   29.7584   32.1774   33.2089   36.1634   36.1677   41.2803
   42.4759   43.3579   43.5827   45.4304   50.3237   51.8034   60.8607
   3  1  -28.3035  -22.9729  -21.9792  -20.7673  -20.4805  -19.9055  -19.5319  -15.9164  -15.0959  -14.9802
         -13.9646  -13.8892  -12.2892  -11.6968   -8.7205   -6.8569   -4.6896   -4.1971   -3.6688   -3.0341
   -2.6539   -1.6853   -0.9038    3.9975    4.1092    4.9511    8.0346    9.7343    9.8346   13.4952
   16.0098   16.6386   17.1206   17.5241   19.3549   20.0224   20.6516   21.4009   22.1869   22.6904
   22.8632   26.7780   26.8897   27.7327   29.7583   32.1775   33.2081   36.1634   36.1677   41.2802
   42.4759   43.3580   43.5828   45.4304   50.3236   51.8032   60.8606
   4  1  -28.2054  -22.2232  -21.9883  -21.3825  -20.6750  -20.4226  -20.1038  -16.3786  -15.9377  -14.7938
         -14.0423  -11.9249  -10.5951   -9.7020   -8.5878   -7.6765   -4.7884   -4.1552   -3.4314   -2.8443
   -1.7994   -1.0465   -0.1350    0.7202    2.5032    3.0587    4.3319    5.1678    6.8706    7.8664
   10.4922   12.9210   14.0181   14.9067   16.3871   16.4584   18.2229   18.5272   20.5542   21.4002
   22.7547   23.0313   23.1582   27.3854   27.5189   29.0903   32.5076   34.8134   35.1744   37.0694
   39.2361   40.7515   41.6250   43.9845   44.4359   45.7516   49.2005
   5  1  -28.3035  -22.9729  -21.9792  -20.7673  -20.4805  -19.9054  -19.5320  -15.9164  -15.0959  -14.9802
         -13.9646  -13.8892  -12.2892  -11.6968   -8.7205   -6.8571   -4.6896   -4.1971   -3.6688   -3.0340
   -2.6539   -1.6853   -0.9038    3.9975    4.1089    4.9515    8.0346    9.7343    9.8346   13.4955
   16.0092   16.6385   17.1206   17.5242   19.3549   20.0223   20.6516   21.4008   22.1870   22.6902
   22.8634   26.7781   26.8897   27.7327   29.7584   32.1774   33.2089   36.1634   36.1677   41.2803
   42.4759   43.3579   43.5827   45.4304   50.3237   51.8034   60.8607
   6  1  -28.2113  -23.0094  -21.0405  -20.6863  -20.0195  -19.6543  -19.6541  -15.2677  -13.4642  -13.4642
         -13.3880  -13.1413  -13.1413  -12.4979  -12.4979  -10.0701   -5.4058   -3.9177   -3.9176   -2.9652
   -2.9651    0.0946    0.0952    2.2980    2.2981    4.4514   12.5927   18.5130   18.5140   18.5142
   18.7421   18.7422   20.6341   20.6342   20.9461   24.7351   24.7355   25.1638   25.1650   32.7434
   32.7435   34.3574   34.3575   36.9001   41.8920   42.1564   44.0402   44.3341   55.0141   55.0141
   61.7223   61.7224   78.3600   78.3602   83.0730  150.8247  150.8247
   7  1  -28.2182  -22.4627  -21.6224  -21.4941  -20.6574  -20.5761  -20.1246  -15.5416  -15.3169  -14.9043
         -14.7907  -13.9668  -10.3115  -10.1693   -7.9133   -7.6122   -4.1602   -4.0476   -2.5710   -2.5557
   -0.4419   -0.4350    1.1765    1.3279    1.5870    2.8551    3.1407    4.6161    9.0275   11.1655
   12.0411   12.1069   15.0578   15.2043   15.3368   18.5830   18.7532   19.7195   20.4573   20.6031
   21.8096   23.3558   24.5205   25.2593   27.3774   29.8848   31.0744   37.5265   39.2305   43.2165
   45.6428   46.5828   49.9400   50.7634   52.5719   56.6461   63.4656
   8  1  -28.2054  -22.2232  -21.9883  -21.3825  -20.6750  -20.4226  -20.1038  -16.3786  -15.9377  -14.7938
         -14.0423  -11.9249  -10.5951   -9.7020   -8.5878   -7.6765   -4.7884   -4.1552   -3.4314   -2.8443
   -1.7994   -1.0465   -0.1350    0.7202    2.5032    3.0587    4.3319    5.1678    6.8706    7.8664
   10.4922   12.9210   14.0181   14.9067   16.3871   16.4584   18.2229   18.5272   20.5542   21.4002
   22.7547   23.0313   23.1582   27.3854   27.5189   29.0903   32.5076   34.8134   35.1744   37.0694
   39.2361   40.7515   41.6250   43.9845   44.4359   45.7516   49.2005
   9  1  -28.2054  -22.2232  -21.9883  -21.3825  -20.6750  -20.4226  -20.1038  -16.3786  -15.9377  -14.7938
         -14.0423  -11.9249  -10.5951   -9.7020   -8.5878   -7.6765   -4.7884   -4.1552   -3.4314   -2.8443
   -1.7994   -1.0465   -0.1350    0.7202    2.5032    3.0587    4.3319    5.1678    6.8706    7.8664
   10.4922   12.9210   14.0181   14.9067   16.3871   16.4584   18.2229   18.5272   20.5542   21.4002
   22.7547   23.0313   23.1582   27.3854   27.5189   29.0903   32.5076   34.8134   35.1744   37.0694
   39.2361   40.7515   41.6250   43.9845   44.4359   45.7516   49.2005
  10  1  -28.2182  -22.4627  -21.6224  -21.4941  -20.6574  -20.5761  -20.1246  -15.5416  -15.3169  -14.9043
         -14.7907  -13.9668  -10.3115  -10.1693   -7.9133   -7.6122   -4.1602   -4.0476   -2.5710   -2.5557
   -0.4419   -0.4350    1.1765    1.3279    1.5870    2.8551    3.1407    4.6161    9.0275   11.1655
   12.0411   12.1069   15.0578   15.2043   15.3368   18.5830   18.7532   19.7195   20.4573   20.6031
   21.8096   23.3558   24.5205   25.2593   27.3774   29.8848   31.0744   37.5265   39.2305   43.2165
   45.6428   46.5828   49.9400   50.7634   52.5719   56.6461   63.4656
  11  1  -28.2054  -22.2232  -21.9883  -21.3825  -20.6750  -20.4226  -20.1038  -16.3786  -15.9377  -14.7938
         -14.0423  -11.9249  -10.5951   -9.7020   -8.5878   -7.6765   -4.7884   -4.1552   -3.4314   -2.8443
   -1.7994   -1.0465   -0.1350    0.7202    2.5032    3.0587    4.3319    5.1678    6.8706    7.8664
   10.4922   12.9210   14.0181   14.9067   16.3871   16.4584   18.2229   18.5272   20.5542   21.4002
   22.7547   23.0313   23.1582   27.3854   27.5189   29.0903   32.5076   34.8134   35.1744   37.0694
   39.2361   40.7515   41.6250   43.9845   44.4359   45.7516   49.2005
  12  1  -28.2182  -22.4626  -21.6224  -21.4941  -20.6574  -20.5761  -20.1247  -15.5416  -15.3167  -14.9043
         -14.7907  -13.9668  -10.3115  -10.1694   -7.9133   -7.6121   -4.1602   -4.0476   -2.5712   -2.5557
   -0.4415   -0.4350    1.1765    1.3278    1.5870    2.8551    3.1407    4.6161    9.0275   11.1651
   12.0411   12.1073   15.0578   15.2044   15.3368   18.5829   18.7535   19.7193   20.4573   20.6031
   21.8096   23.3557   24.5205   25.2590   27.3775   29.8840   31.0745   37.5266   39.2304   43.2166
   45.6427   46.5826   49.9402   50.7635   52.5719   56.6462   63.4655
  13  1  -28.1815  -22.2695  -22.0824  -21.3030  -21.2857  -20.3963  -18.7615  -17.3641  -16.5538  -14.2602
         -13.5983  -11.8180  -10.0709   -9.8648   -8.7317   -7.4662   -5.6269   -4.5566   -4.5448   -2.7522
   -1.4399   -1.1903   -0.6242   -0.2814    0.9765    2.8835    3.2603    4.3662    7.2431    8.6683
   10.7603   12.2103   13.0780   16.2247   16.4050   17.0572   18.8777   19.3713   20.1480   22.0060
   23.3536   26.0901   27.5571   27.7021   30.4237   33.7601   34.6804   35.5144   37.8013   38.6666
   38.9049   40.6132   42.7781   43.6684   44.5303   45.4578   47.6132
  14  1  -28.2987  -22.9600  -21.9312  -21.2161  -20.2001  -19.9076  -19.0078  -17.1718  -15.9375  -14.9588
         -13.5510  -12.2448  -11.6869  -11.2056   -9.9721   -8.3981   -7.6436   -3.9011   -3.5479   -3.2947
   -2.6585   -0.3816    0.8377    0.9778    3.4476    4.0606    8.2186    9.4891    9.8266   11.0090
   13.5970   16.3064   17.0566   17.7527   18.9283   19.0121   19.8056   20.1417   21.5172   24.1545
   25.3679   26.4305   27.6700   30.0913   32.3513   33.3051   33.4331   37.3654   38.1926   40.5413
   41.3440   43.6911   44.1361   45.9791   49.0288   53.9167   54.8310
  15  1  -28.2987  -22.9600  -21.9312  -21.2160  -20.2001  -19.9078  -19.0077  -17.1718  -15.9375  -14.9588
         -13.5510  -12.2448  -11.6868  -11.2056   -9.9721   -8.3981   -7.6435   -3.9011   -3.5480   -3.2947
   -2.6585   -0.3815    0.8378    0.9778    3.4474    4.0608    8.2186    9.4892    9.8265   11.0088
   13.5970   16.3068   17.0564   17.7528   18.9284   19.0120   19.8057   20.1416   21.5170   24.1544
   25.3680   26.4306   27.6700   30.0914   32.3512   33.3053   33.4329   37.3654   38.1929   40.5411
   41.3439   43.6911   44.1361   45.9790   49.0288   53.9165   54.8308
  16  1  -28.1815  -22.2695  -22.0823  -21.3030  -21.2858  -20.3963  -18.7615  -17.3642  -16.5538  -14.2602
         -13.5983  -11.8179  -10.0709   -9.8649   -8.7317   -7.4662   -5.6268   -4.5566   -4.5448   -2.7522
   -1.4399   -1.1903   -0.6242   -0.2814    0.9765    2.8835    3.2604    4.3664    7.2431    8.6681
   10.7603   12.2104   13.0778   16.2248   16.4050   17.0572   18.8777   19.3713   20.1480   22.0061
   23.3538   26.0902   27.5569   27.7021   30.4236   33.7601   34.6804   35.5143   37.8013   38.6665
   38.9049   40.6132   42.7781   43.6683   44.5303   45.4577   47.6132
  17  1  -28.2987  -22.9600  -21.9312  -21.2161  -20.2001  -19.9076  -19.0078  -17.1718  -15.9375  -14.9588
         -13.5510  -12.2448  -11.6869  -11.2056   -9.9721   -8.3981   -7.6436   -3.9011   -3.5479   -3.2947
   -2.6585   -0.3816    0.8377    0.9778    3.4476    4.0606    8.2186    9.4891    9.8266   11.0090
   13.5970   16.3064   17.0566   17.7527   18.9283   19.0121   19.8056   20.1417   21.5172   24.1545
   25.3679   26.4305   27.6700   30.0913   32.3513   33.3051   33.4331   37.3654   38.1926   40.5413
   41.3440   43.6911   44.1361   45.9791   49.0288   53.9167   54.8310
  18  1  -28.0895  -22.5359  -21.2187  -20.6438  -19.6870  -19.6868  -19.6376  -16.6952  -14.1840  -13.4018
         -13.4017  -13.3086  -13.3086  -12.8399  -12.8399   -8.5139   -6.5958   -2.5698   -2.5698   -1.0588
   -1.0587    0.3945    0.3950    2.6533    5.3388    5.3389   13.2188   13.2188   15.6346   15.6347
   16.9571   16.9573   17.1085   18.3073   20.3489   23.9022   23.9023   25.1997   25.2000   31.0286
   31.0288   31.3934   33.7723   33.7724   34.1185   34.1186   42.3273   42.6371   43.1054   43.3858
   45.0103   45.0104   50.4598   50.4611   55.6059   56.5655   56.5661
  19  1  -28.2987  -22.9600  -21.9312  -21.2161  -20.2001  -19.9076  -19.0078  -17.1718  -15.9375  -14.9588
         -13.5510  -12.2448  -11.6869  -11.2056   -9.9721   -8.3981   -7.6436   -3.9011   -3.5479   -3.2947
   -2.6585   -0.3816    0.8377    0.9778    3.4476    4.0606    8.2186    9.4891    9.8266   11.0090
   13.5970   16.3064   17.0566   17.7527   18.9283   19.0121   19.8056   20.1417   21.5172   24.1545
   25.3679   26.4305   27.6700   30.0913   32.3513   33.3051   33.4331   37.3654   38.1926   40.5413
   41.3440   43.6911   44.1361   45.9791   49.0288   53.9167   54.8310
  20  1  -28.1971  -22.4190  -22.0689  -21.5561  -20.8493  -20.0945  -19.6645  -16.6518  -16.0382  -15.4983
         -12.9350  -11.6474  -10.7684  -10.1498   -7.8266   -7.6917   -5.4041   -4.7078   -4.1963   -3.1442
   -2.8388   -2.4613   -1.3834   -0.9486    2.3821    3.0142    4.4456    4.8032    6.6451    7.3343
    8.2061   11.7630   13.8095   14.5250   18.3148   18.6160   18.9533   20.5109   22.2078   22.7889
   25.3666   25.5265   28.2170   28.7375   29.5938   31.7600   32.2262   38.7827   41.0268   41.3789
   45.0641   45.2140   46.7662   48.8107   49.7537   52.0307   55.7622
  21  1  -28.2987  -22.9600  -21.9312  -21.2160  -20.2001  -19.9078  -19.0077  -17.1718  -15.9375  -14.9588
         -13.5510  -12.2448  -11.6868  -11.2056   -9.9721   -8.3981   -7.6435   -3.9011   -3.5480   -3.2947
   -2.6585   -0.3815    0.8378    0.9778    3.4474    4.0608    8.2186    9.4892    9.8265   11.0088
   13.5970   16.3068   17.0564   17.7528   18.9284   19.0120   19.8057   20.1416   21.5170   24.1544
   25.3680   26.4306   27.6700   30.0914   32.3512   33.3053   33.4329   37.3654   38.1929   40.5411
   41.3439   43.6911   44.1361   45.9790   49.0288   53.9165   54.8308
  22  1  -28.2987  -22.9600  -21.9312  -21.2161  -20.2001  -19.9076  -19.0078  -17.1718  -15.9375  -14.9588
         -13.5510  -12.2448  -11.6869  -11.2056   -9.9721   -8.3981   -7.6436   -3.9011   -3.5479   -3.2947
   -2.6585   -0.3816    0.8377    0.9778    3.4476    4.0606    8.2186    9.4891    9.8266   11.0090
   13.5970   16.3064   17.0566   17.7527   18.9283   19.0121   19.8056   20.1417   21.5172   24.1545
   25.3679   26.4305   27.6700   30.0913   32.3513   33.3051   33.4331   37.3654   38.1926   40.5413
   41.3440   43.6911   44.1361   45.9791   49.0288   53.9167   54.8310
  23  1  -28.1815  -22.2695  -22.0824  -21.3030  -21.2857  -20.3963  -18.7615  -17.3641  -16.5538  -14.2602
         -13.5983  -11.8180  -10.0709   -9.8648   -8.7317   -7.4662   -5.6269   -4.5566   -4.5448   -2.7522
   -1.4399   -1.1903   -0.6242   -0.2814    0.9765    2.8835    3.2603    4.3662    7.2431    8.6683
   10.7603   12.2103   13.0780   16.2247   16.4050   17.0572   18.8777   19.3713   20.1480   22.0060
   23.3536   26.0901   27.5571   27.7021   30.4237   33.7601   34.6804   35.5144   37.8013   38.6666
   38.9049   40.6132   42.7781   43.6684   44.5303   45.4578   47.6132
  24  1  -28.1815  -22.2695  -22.0823  -21.3030  -21.2858  -20.3963  -18.7615  -17.3642  -16.5538  -14.2602
         -13.5983  -11.8179  -10.0709   -9.8649   -8.7317   -7.4662   -5.6268   -4.5566   -4.5448   -2.7522
   -1.4399   -1.1903   -0.6242   -0.2814    0.9765    2.8835    3.2604    4.3664    7.2431    8.6681
   10.7603   12.2104   13.0778   16.2248   16.4050   17.0572   18.8777   19.3713   20.1480   22.0061
   23.3538   26.0902   27.5569   27.7021   30.4236   33.7601   34.6804   35.5143   37.8013   38.6665
   38.9049   40.6132   42.7781   43.6683   44.5303   45.4577   47.6132
  25  1  -28.1815  -22.2695  -22.0823  -21.3030  -21.2858  -20.3963  -18.7615  -17.3642  -16.5538  -14.2602
         -13.5983  -11.8179  -10.0709   -9.8649   -8.7317   -7.4662   -5.6268   -4.5566   -4.5448   -2.7522
   -1.4399   -1.1903   -0.6242   -0.2814    0.9765    2.8835    3.2604    4.3664    7.2431    8.6681
   10.7603   12.2104   13.0778   16.2248   16.4050   17.0572   18.8777   19.3713   20.1480   22.0061
   23.3538   26.0902   27.5569   27.7021   30.4236   33.7601   34.6804   35.5143   37.8013   38.6665
   38.9049   40.6132   42.7781   43.6683   44.5304   45.4577   47.6132
  26  1  -28.1971  -22.4190  -22.0689  -21.5561  -20.8493  -20.0945  -19.6645  -16.6518  -16.0382  -15.4983
         -12.9350  -11.6474  -10.7684  -10.1498   -7.8266   -7.6917   -5.4041   -4.7078   -4.1963   -3.1442
   -2.8388   -2.4613   -1.3834   -0.9486    2.3821    3.0142    4.4456    4.8032    6.6451    7.3343
    8.2061   11.7630   13.8095   14.5250   18.3148   18.6160   18.9533   20.5109   22.2078   22.7889
   25.3666   25.5265   28.2170   28.7375   29.5938   31.7600   32.2262   38.7827   41.0268   41.3789
   45.0641   45.2140   46.7662   48.8107   49.7537   52.0307   55.7622
  27  1  -28.1815  -22.2695  -22.0823  -21.3030  -21.2858  -20.3963  -18.7615  -17.3642  -16.5538  -14.2602
         -13.5983  -11.8179  -10.0709   -9.8649   -8.7317   -7.4662   -5.6268   -4.5566   -4.5448   -2.7522
   -1.4399   -1.1903   -0.6242   -0.2814    0.9765    2.8835    3.2604    4.3664    7.2431    8.6681
   10.7603   12.2104   13.0778   16.2248   16.4050   17.0572   18.8777   19.3713   20.1480   22.0061
   23.3538   26.0902   27.5569   27.7021   30.4236   33.7601   34.6804   35.5143   37.8013   38.6665
   38.9049   40.6132   42.7781   43.6683   44.5304   45.4577   47.6132
  28  1  -28.1971  -22.4190  -22.0689  -21.5561  -20.8493  -20.0946  -19.6645  -16.6518  -16.0381  -15.4983
         -12.9350  -11.6474  -10.7684  -10.1499   -7.8266   -7.6916   -5.4041   -4.7078   -4.1962   -3.1442
   -2.8388   -2.4613   -1.3834   -0.9486    2.3822    3.0140    4.4456    4.8036    6.6451    7.3342
    8.2061   11.7628   13.8097   14.5253   18.3146   18.6162   18.9534   20.5108   22.2077   22.7886
   25.3667   25.5268   28.2170   28.7367   29.5940   31.7598   32.2262   38.7826   41.0268   41.3789
   45.0639   45.2139   46.7661   48.8107   49.7539   52.0307   55.7622
  29  1  -28.1553  -22.4577  -22.1175  -21.4186  -21.1507  -20.2694  -18.0677  -17.3871  -17.3263  -14.0146
         -13.0421  -12.6729   -9.3978   -8.7849   -8.6231   -6.6399   -6.6281   -5.8896   -5.2979   -4.8300
   -4.2992   -3.0098   -2.3262    0.3049    2.4710    3.0642    5.4069    5.4253    5.9547    9.7192
   10.2604   11.1679   11.5544   15.5399   15.6288   16.0116   18.3981   18.9829   19.4160   22.0135
   23.7108   26.5927   27.6029   28.2976   31.0299   35.9431   36.2780   36.2851   37.5774   40.4001
   40.9482   41.7591   41.8074   44.2424   45.2068   45.2798   49.3643
  30  1  -28.2792  -22.9537  -21.7955  -21.6055  -19.8851  -19.3563  -19.2180  -18.0133  -15.9394  -14.9042
         -13.1161  -12.0152  -11.4504  -10.8658  -10.8322   -9.9267   -5.6329   -5.0395   -2.9258   -2.5784
   -0.2576   -0.2067    0.4657    2.4053    3.1245    3.9382    5.5856    6.0764    6.5145    8.1748
   11.2505   12.5944   15.7141   17.7872   18.1516   19.5196   20.4581   20.5324   22.0374   22.7779
   25.9102   27.3963   31.0470   31.3379   31.4308   33.0045   34.7879   35.4690   37.5826   38.7843
   42.4349   43.4032   45.6838   45.7815   48.1229   51.2905   53.7503
  31  1  -28.2792  -22.9537  -21.7955  -21.6055  -19.8853  -19.3563  -19.2180  -18.0132  -15.9394  -14.9043
         -13.1161  -12.0152  -11.4504  -10.8658  -10.8322   -9.9267   -5.6329   -5.0395   -2.9260   -2.5782
   -0.2576   -0.2067    0.4657    2.4052    3.1245    3.9382    5.5857    6.0761    6.5145    8.1748
   11.2508   12.5941   15.7144   17.7872   18.1516   19.5196   20.4577   20.5325   22.0372   22.7778
   25.9104   27.3964   31.0470   31.3379   31.4306   33.0053   34.7880   35.4690   37.5822   38.7842
   42.4349   43.4031   45.6838   45.7815   48.1227   51.2904   53.7501
  32  1  -28.1552  -22.4577  -22.1174  -21.4186  -21.1507  -20.2694  -18.0677  -17.3871  -17.3262  -14.0146
         -13.0421  -12.6729   -9.3978   -8.7849   -8.6231   -6.6399   -6.6281   -5.8896   -5.2979   -4.8300
   -4.2993   -3.0098   -2.3262    0.3049    2.4710    3.0642    5.4069    5.4255    5.9548    9.7194
   10.2602   11.1679   11.5542   15.5399   15.6288   16.0116   18.3981   18.9829   19.4157   22.0133
   23.7112   26.5926   27.6030   28.2976   31.0296   35.9431   36.2780   36.2850   37.5774   40.4001
   40.9482   41.7591   41.8074   44.2424   45.2070   45.2797   49.3642
  33  1  -28.2792  -22.9537  -21.7955  -21.6055  -19.8851  -19.3563  -19.2180  -18.0133  -15.9394  -14.9042
         -13.1161  -12.0152  -11.4504  -10.8658  -10.8322   -9.9267   -5.6329   -5.0395   -2.9258   -2.5784
   -0.2576   -0.2067    0.4657    2.4053    3.1245    3.9382    5.5856    6.0764    6.5145    8.1748
   11.2505   12.5944   15.7141   17.7872   18.1516   19.5196   20.4581   20.5324   22.0374   22.7779
   25.9102   27.3963   31.0470   31.3379   31.4308   33.0045   34.7879   35.4690   37.5826   38.7843
   42.4349   43.4032   45.6838   45.7815   48.1228   51.2906   53.7503
  34  1  -27.9821  -22.1184  -21.5462  -20.4591  -19.6894  -19.6893  -18.6146  -18.3410  -14.4712  -13.3815
         -13.3815  -13.3435  -13.3435  -13.0201  -13.0201  -10.9834   -3.5815   -2.1984   -0.8662   -0.8658
    1.8924    1.8924    4.7830    4.7830    5.5164    5.5165    7.1533    7.1535   10.1090   10.1092
   13.3964   13.3964   18.9729   19.0626   20.6841   24.4942   24.4943   28.4355   28.4359   29.7849
   29.7850   32.4197   32.4198   32.8062   32.8063   37.1754   37.2446   42.4987   42.8035   42.8799
   43.0455   47.1760   47.1774   48.7939   48.7941   49.5053   49.5062
  35  1  -28.2792  -22.9537  -21.7955  -21.6055  -19.8851  -19.3563  -19.2180  -18.0133  -15.9394  -14.9042
         -13.1161  -12.0152  -11.4504  -10.8658  -10.8322   -9.9267   -5.6329   -5.0395   -2.9258   -2.5784
   -0.2576   -0.2067    0.4657    2.4053    3.1245    3.9382    5.5856    6.0764    6.5145    8.1748
   11.2505   12.5944   15.7141   17.7872   18.1516   19.5196   20.4581   20.5324   22.0374   22.7779
   25.9102   27.3963   31.0470   31.3379   31.4308   33.0045   34.7879   35.4690   37.5826   38.7843
   42.4349   43.4032   45.6838   45.7815   48.1228   51.2906   53.7503
  36  1  -28.1656  -22.4338  -22.3875  -21.4756  -20.4511  -20.0607  -19.6914  -16.6808  -16.5004  -15.4456
         -12.2083  -11.9093  -10.0407   -8.5069   -7.1931   -6.8928   -6.7358   -6.4447   -6.4027   -4.7547
   -3.7433   -3.6341   -3.5715   -3.1172    0.0800    1.1138    4.3143    5.4833    7.9086    8.2610
   13.3275   13.6617   16.0189   16.2835   16.6324   17.9833   19.1763   19.2192   20.0820   24.2004
   24.3762   25.1938   25.6258   25.7520   26.4364   28.3220   31.3926   36.9917   39.1396   39.9468
   45.4836   47.2258   47.2412   47.9983   48.6429   48.8991   68.8558
  37  1  -28.2792  -22.9537  -21.7955  -21.6055  -19.8853  -19.3563  -19.2180  -18.0132  -15.9394  -14.9043
         -13.1161  -12.0152  -11.4504  -10.8658  -10.8322   -9.9267   -5.6329   -5.0395   -2.9260   -2.5782
   -0.2576   -0.2067    0.4657    2.4052    3.1245    3.9382    5.5857    6.0761    6.5145    8.1748
   11.2508   12.5941   15.7144   17.7872   18.1516   19.5196   20.4577   20.5325   22.0372   22.7778
   25.9104   27.3964   31.0470   31.3379   31.4306   33.0053   34.7880   35.4690   37.5822   38.7842
   42.4349   43.4031   45.6838   45.7815   48.1227   51.2904   53.7501
  38  1  -28.2792  -22.9537  -21.7955  -21.6055  -19.8851  -19.3563  -19.2180  -18.0133  -15.9394  -14.9042
         -13.1161  -12.0152  -11.4504  -10.8658  -10.8322   -9.9267   -5.6329   -5.0395   -2.9258   -2.5784
   -0.2576   -0.2067    0.4657    2.4053    3.1245    3.9382    5.5856    6.0764    6.5145    8.1748
   11.2505   12.5944   15.7141   17.7872   18.1516   19.5196   20.4581   20.5324   22.0374   22.7779
   25.9102   27.3963   31.0470   31.3379   31.4308   33.0045   34.7879   35.4690   37.5826   38.7843
   42.4349   43.4032   45.6838   45.7815   48.1229   51.2905   53.7503
  39  1  -28.1553  -22.4577  -22.1175  -21.4186  -21.1507  -20.2694  -18.0677  -17.3871  -17.3263  -14.0146
         -13.0421  -12.6729   -9.3978   -8.7849   -8.6231   -6.6399   -6.6281   -5.8896   -5.2979   -4.8300
   -4.2992   -3.0098   -2.3262    0.3049    2.4710    3.0642    5.4069    5.4253    5.9547    9.7192
   10.2604   11.1679   11.5544   15.5399   15.6288   16.0116   18.3981   18.9829   19.4160   22.0135
   23.7108   26.5927   27.6029   28.2976   31.0299   35.9431   36.2780   36.2851   37.5774   40.4001
   40.9482   41.7591   41.8074   44.2424   45.2068   45.2798   49.3643
  40  1  -28.1552  -22.4577  -22.1174  -21.4186  -21.1507  -20.2694  -18.0677  -17.3871  -17.3262  -14.0146
         -13.0421  -12.6729   -9.3978   -8.7849   -8.6231   -6.6399   -6.6281   -5.8896   -5.2979   -4.8300
   -4.2993   -3.0098   -2.3262    0.3049    2.4710    3.0642    5.4069    5.4255    5.9548    9.7194
   10.2602   11.1679   11.5542   15.5399   15.6288   16.0116   18.3981   18.9829   19.4157   22.0133
   23.7112   26.5926   27.6030   28.2976   31.0296   35.9431   36.2780   36.2850   37.5774   40.4001
   40.9482   41.7591   41.8074   44.2424   45.2070   45.2797   49.3642
  41  1  -28.1552  -22.4577  -22.1174  -21.4186  -21.1507  -20.2694  -18.0677  -17.3871  -17.3262  -14.0146
         -13.0421  -12.6729   -9.3978   -8.7849   -8.6231   -6.6399   -6.6281   -5.8896   -5.2979   -4.8300
   -4.2993   -3.0098   -2.3262    0.3049    2.4710    3.0642    5.4069    5.4255    5.9548    9.7194
   10.2602   11.1679   11.5542   15.5399   15.6288   16.0116   18.3981   18.9829   19.4157   22.0133
   23.7112   26.5926   27.6030   28.2976   31.0296   35.9431   36.2780   36.2850   37.5774   40.4001
   40.9483   41.7591   41.8074   44.2424   45.2070   45.2797   49.3642
  42  1  -28.1656  -22.4338  -22.3875  -21.4756  -20.4511  -20.0607  -19.6914  -16.6808  -16.5004  -15.4456
         -12.2083  -11.9093  -10.0407   -8.5069   -7.1931   -6.8928   -6.7358   -6.4447   -6.4027   -4.7547
   -3.7433   -3.6341   -3.5715   -3.1172    0.0800    1.1138    4.3143    5.4833    7.9086    8.2610
   13.3275   13.6617   16.0189   16.2835   16.6324   17.9833   19.1763   19.2192   20.0820   24.2004
   24.3762   25.1938   25.6258   25.7520   26.4364   28.3220   31.3926   36.9917   39.1396   39.9468
   45.4836   47.2258   47.2412   47.9983   48.6429   48.8991   68.8558
  43  1  -28.1552  -22.4577  -22.1174  -21.4186  -21.1507  -20.2694  -18.0677  -17.3871  -17.3262  -14.0146
         -13.0421  -12.6729   -9.3978   -8.7849   -8.6231   -6.6399   -6.6281   -5.8896   -5.2979   -4.8300
   -4.2993   -3.0098   -2.3262    0.3049    2.4710    3.0642    5.4069    5.4255    5.9548    9.7194
   10.2602   11.1679   11.5542   15.5399   15.6288   16.0116   18.3981   18.9829   19.4157   22.0133
   23.7112   26.5926   27.6030   28.2976   31.0296   35.9431   36.2780   36.2850   37.5774   40.4001
   40.9483   41.7591   41.8074   44.2424   45.2070   45.2797   49.3642
  44  1  -28.1656  -22.4338  -22.3874  -21.4756  -20.4511  -20.0609  -19.6914  -16.6808  -16.5003  -15.4456
         -12.2083  -11.9093  -10.0408   -8.5068   -7.1930   -6.8928   -6.7358   -6.4447   -6.4027   -4.7547
   -3.7433   -3.6340   -3.5715   -3.1172    0.0800    1.1138    4.3143    5.4828    7.9086    8.2615
   13.3279   13.6617   16.0189   16.2831   16.6324   17.9835   19.1763   19.2192   20.0819   24.2004
   24.3760   25.1940   25.6258   25.7520   26.4364   28.3225   31.3924   36.9916   39.1395   39.9462
   45.4835   47.2258   47.2412   47.9985   48.6429   48.8990   68.8557
siesta: Fermi energy =     -16.523511 eV

siesta: Program's energy decomposition (eV):
siesta: Ebs     =      -342.179107
siesta: Eions   =       380.620085
siesta: Ena     =        83.893526
siesta: Ekin    =       228.813766
siesta: Enl     =         8.603932
siesta: Eso     =         0.000000
siesta: Edftu   =         0.000000
siesta: DEna    =         3.649376
siesta: DUscf   =         5.352642
siesta: DUext   =         0.000000
siesta: Exc     =      -175.971669
siesta: eta*DQ  =         0.000000
siesta: Emadel  =         0.000000
siesta: Emeta   =         0.000000
siesta: Emolmec =        -8.343895
siesta: Ekinion =         0.000000
siesta: Eharris =      -234.622407
siesta: Etot    =      -234.622407
siesta: FreeEng =      -234.629546

siesta: Final energy (eV):
siesta:  Band Struct. =    -342.179107
siesta:       Kinetic =     228.813766
siesta:       Hartree =      76.837454
siesta:       Edftu   =       0.000000
siesta:       Eso     =       0.000000
siesta:    Ext. field =       0.000000
siesta:   Exch.-corr. =    -175.971669
siesta:  Ion-electron =    -535.897459
siesta:       Ion-ion =     179.939396
siesta:       Ekinion =       0.000000
siesta:         Total =    -234.622407
siesta:         Fermi =     -16.523511

siesta: Atomic forces (eV/Ang):
siesta:      1    0.000000    0.000000    0.000000
siesta:      2    0.557453    0.000013    0.137835
siesta:      3   -0.557453   -0.000013   -0.137835
siesta:      4   -0.278715    0.482775    0.137835
siesta:      5    0.278715   -0.482775   -0.137835
siesta:      6   -0.278723   -0.482761    0.137764
siesta:      7    0.278722    0.482761   -0.137764
siesta:      8   -0.557453   -0.000013    0.137835
siesta:      9    0.557453    0.000013   -0.137835
siesta:     10    0.278715   -0.482775    0.137835
siesta:     11   -0.278715    0.482775   -0.137835
siesta:     12    0.278722    0.482761    0.137764
siesta:     13   -0.278723   -0.482761   -0.137764
siesta: ----------------------------------------
siesta:    Tot    0.000000    0.000000   -0.000000

siesta: Stress tensor (static) (eV/Ang**3):
siesta:    -0.956961   -0.000012    0.000000
siesta:    -0.000012   -0.956976   -0.000000
siesta:     0.000000   -0.000000    0.058572

siesta: Cell volume =         73.141182 Ang**3

siesta: Pressure (static):
siesta:                Solid            Molecule  Units
siesta:           0.00673577          0.00706758  Ry/Bohr**3
siesta:           0.61845507          0.64892079  eV/Ang**3
siesta:         990.88497507       1039.69696877  kBar
(Free)E+ p_basis*V_orbitals  =        -202.459424
(Free)Eharris+ p_basis*V_orbitals  =        -202.459424

cite: Please see "LiC12_scf.bib" for an exhaustive BiBTeX file.
cite: Please clearly indicate Siesta version in published work: 4.1.5
cite: This calculation has made use of the following articles
cite: which are encouraged to be cited in a published work.
        Primary SIESTA paper
          DOI: www.doi.org/10.1088/0953-8984/14/11/302

>> End of run:   9-NOV-2022  13:10:38
Job completed
