Siesta Version  : 4.1.5
Architecture    : x86_64-unknown-linux-gnu--unknown
Compiler version: GNU Fortran (GCC) 11.3.0
Compiler flags  : mpif90 -g -O2 -fallow-argument-mismatch
PP flags        : -DMPI -DFC_HAVE_FLUSH -DFC_HAVE_ABORT
Libraries       :  -I/global/software/sl-7.x86_64/modules/intel/2020.4.304/mkl/include  /globall/software/sl-7.x86_64/modules/intel/2020.4.304/mkl/lib/intel64/libmkl_scalapack_lp64.a -Wl,--start-group /global/software/sl-7.x86_64/modules/intel/2020.4.304/mkl/lib/intel64/libmkl_intel_lp64.a /global/software/sl-7.x86_64/modules/intel/2020.4.304/mkl/lib/intel64/libmkl_sequential.a /global/software/sl-7.x86_64/modules/intel/2020.4.304/mkl/lib/intel64/libmkl_core.a /global/software/sl-7.x86_64/modules/intel/2020.4.304/mkl/lib/intel64/libmkl_blacs_openmpi_lp64.a -Wl,--end-group -lpthread -lm -ldl
PARALLEL version

* Running on 12 nodes in parallel
>> Start of run:   9-NOV-2022  13:10:38

                           ***********************       
                           *  WELCOME TO SIESTA  *       
                           ***********************       

reinit: Reading from standard input
reinit: Dumped input in INPUT_TMP.05945
************************** Dump of input data file ****************************
SystemName LiC12_scf
SystemLabel LiC12_scf
NumberOfAtoms   13
NumberOfSpecies 2
%block ChemicalSpeciesLabel
1  3   Li-gga
2  6   C-gga
%endblock ChemicalSpeciesLabel
PAO.BasisSize  SZP
PAO.EnergyShift  10 meV
%block PS.Lmax
C-gga   2
Li-gga  2
%endblock PS.Lmax
LatticeConstant 1.000000 Ang
%block LatticeVectors
	4.2686000000	0.0000000000	0.0000000000
	-2.1343000000	3.6967160386	0.0000000000
	0.0000000000	0.0000000000	4.4946560000
%endblock LatticeVectors
AtomicCoordinatesFormat Ang
%block AtomicCoordinatesAndAtomicSpecies
	0.00000000	0.00000000	0.00000000	2
	1.42144380	0.00000000	1.12366400	1
	2.84715620	0.00000000	3.37099200	1
	-0.71072190	1.23100644	1.12366400	1
	-1.42357810	2.46570960	3.37099200	1
	1.42357810	2.46570960	1.12366400	1
	0.71072190	1.23100644	3.37099200	1
	2.84715620	0.00000000	1.12366400	1
	1.42144380	0.00000000	3.37099200	1
	-1.42357810	2.46570960	1.12366400	1
	-0.71072190	1.23100644	3.37099200	1
	0.71072190	1.23100644	1.12366400	1
	1.42357810	2.46570960	3.37099200	1
%endblock AtomicCoordinatesAndAtomicSpecies
Kgrid_NoTRS  T
%block kgrid_MonkhorstPack
4       0       0       0.0
0       4       0       0.0
0       0       4       0.0
%endblock kgrid_MonkhorstPack
AtomCoorFormatOut Ang
BlockSize 1
#ProcessorY 12
Diag.ParallelOverK   T
Diag.DivideAndConquer F
MeshCutoff   300 Ry
SCF.FreeE.Tolerance 1E-3 eV
SCF.EDM.Tolerance   5E-3 eV
DM.Tolerance  1E-3
DM.Require.Energy.Convergence T
DM.NumberPulay 4
XC.Functional GGA
XC.Authors    PBE
UseSaveData        F
MD.TypeOfRun       CG
MD.VariableCell    F
MD.NumCGsteps      00
MD.MaxCGDispl      0.200000 Bohr
MD.MaxStressTol    1.000000 GPa
MD.MaxForceTol     0.010000 eV/Ang
WriteMDHistory T
WriteCoorStep T
WriteForces T
WriteCoorStep    T
WriteEigenValues T
WriteDM    F
MM.UnitsDistance Ang  # what this program prints out DO NOT CHANGE
MM.UnitsEnergy    eV  # what this program prints out DO NOT CHANGE
MM.Grimme.S6     0.75 # Grimme-paper for PBE (correct for your functional)
MM.Grimme.D     20.   # Grimme-paper (correct for your functional)
%block MM.Potentials
  1   1 Grimme     16.69      1.650 # Li, 10.1002/jcc.20495
  1   2 Grimme     17.40      2.277 # Li / C
  2   2 Grimme     18.14      2.904 # C, 10.1002/jcc.20495
%endblock MM.Potentials
#%block ProjectedDensityOfStates
# -200.0  120.0  0.4  12800  eV
#%endblock ProjectedDensityOfStates
************************** End of input data file *****************************

reinit: -----------------------------------------------------------------------
reinit: System Name: LiC12_scf
reinit: -----------------------------------------------------------------------
reinit: System Label: LiC12_scf
reinit: -----------------------------------------------------------------------
Reading two-body potentials
Grimme - two-body potential between 1 and 1
Grimme - two-body potential between 1 and 2
Grimme - two-body potential between 2 and 2

initatom: Reading input for the pseudopotentials and atomic orbitals ----------
Species number:   1 Atomic number:    3 Label: Li-gga
Species number:   2 Atomic number:    6 Label: C-gga

Ground state valence configuration:   2s01
Reading pseudopotential information in formatted form from Li-gga.psf

Valence configuration for pseudopotential generation:
2s( 1.00) rc: 2.28
2p( 0.00) rc: 2.28
3d( 0.00) rc: 2.59
4f( 0.00) rc: 2.59
Ground state valence configuration:   2s02  2p02
Reading pseudopotential information in formatted form from C-gga.psf

Valence configuration for pseudopotential generation:
2s( 2.00) rc: 1.56
2p( 2.00) rc: 1.56
3d( 0.00) rc: 1.56
4f( 0.00) rc: 1.56
relmxkb: Read Max KB Ang. Momentum=    2 for species C-gga
relmxkb: Read Max KB Ang. Momentum=    2 for species Li-gga

<basis_specs>
===============================================================================
Li-gga               Z=   3    Mass=  6.9400        Charge= 0.17977+309
Lmxo=0 Lmxkb= 2    BasisType=split      Semic=F
L=0  Nsemic=0  Cnfigmx=2
          i=1  nzeta=1  polorb=1  (2s)
            splnorm:   0.15000    
               vcte:    0.0000    
               rinn:    0.0000    
               qcoe:    0.0000    
               qyuk:    0.0000    
               qwid:   0.10000E-01
                rcs:    0.0000    
            lambdas:    1.0000    
-------------------------------------------------------------------------------
L=0  Nkbl=1  erefs: 0.17977+309
L=1  Nkbl=1  erefs: 0.17977+309
L=2  Nkbl=1  erefs: 0.17977+309
===============================================================================
</basis_specs>

atom: Called for Li-gga                (Z =   3)

read_vps: Pseudopotential generation method:
read_vps: ATM 3.2.2 Troullier-Martins                       
Valence charge for ps generation:    1.00000

read_vps: Pseudopotential includes a core correction:
read_vps: Pseudo-core for xc-correction

xc_check: Exchange-correlation functional:
xc_check: GGA Perdew, Burke & Ernzerhof 1996
V l=0 = -2*Zval/r beyond r=  2.2278
V l=1 = -2*Zval/r beyond r=  2.2278
V l=2 = -2*Zval/r beyond r=  2.5245
All V_l potentials equal beyond r=  2.4622
This should be close to max(r_c) in ps generation
All pots = -2*Zval/r beyond r=  2.5245

VLOCAL1: 99.0% of the norm of Vloc inside      7.160 Ry
VLOCAL1: 99.9% of the norm of Vloc inside     16.318 Ry
atom: Maximum radius for 4*pi*r*r*local-pseudopot. charge    2.86079
atom: Maximum radius for r*vlocal+2*Zval:    2.43160
GHOST: No ghost state for L =  0
GHOST: No ghost state for L =  1
GHOST: No ghost state for L =  2

KBgen: Kleinman-Bylander projectors: 
   l= 0   rc=  2.654023   el= -0.211234   Ekb=  1.742119   kbcos=  0.228463
   l= 1   rc=  2.721230   el= -0.080095   Ekb= -1.122375   kbcos= -0.147941
   l= 2   rc=  2.825246   el=  0.002001   Ekb= -0.207076   kbcos= -0.031965

KBgen: Total number of Kleinman-Bylander projectors:    9
atom: -------------------------------------------------------------------------

atom: SANKEY-TYPE ORBITALS:

SPLIT: Orbitals with angular momentum L= 0

SPLIT: Basis orbitals for state 2s

SPLIT: PAO cut-off radius determined from an
SPLIT: energy shift=  0.000735 Ry

   izeta = 1
                 lambda =    1.000000
                     rc =   11.897381
                 energy =   -0.210580
                kinetic =    0.143382
    potential(screened) =   -0.353962
       potential(ionic) =   -0.533453

POLgen: Perturbative polarization orbital with L=  1

POLgen: Polarization orbital for state 2s

   izeta = 1
                     rc =   11.897381
                 energy =   -0.027011
                kinetic =    0.282985
    potential(screened) =   -0.309997
       potential(ionic) =   -0.490997
atom: Total number of Sankey-type orbitals:  4

atm_pop: Valence configuration (for local Pseudopot. screening):
 2s( 1.00)                                                            
Vna: chval, zval:    1.00000   1.00000

Vna:  Cut-off radius for the neutral-atom potential:  11.897381
comcore: Pseudo-core radius Rcore=  3.450946

atom: _________________________________________________________________________

<basis_specs>
===============================================================================
C-gga                Z=   6    Mass=  12.010        Charge= 0.17977+309
Lmxo=1 Lmxkb= 2    BasisType=split      Semic=F
L=0  Nsemic=0  Cnfigmx=2
          i=1  nzeta=1  polorb=0  (2s)
            splnorm:   0.15000    
               vcte:    0.0000    
               rinn:    0.0000    
               qcoe:    0.0000    
               qyuk:    0.0000    
               qwid:   0.10000E-01
                rcs:    0.0000    
            lambdas:    1.0000    
L=1  Nsemic=0  Cnfigmx=2
          i=1  nzeta=1  polorb=1  (2p)
            splnorm:   0.15000    
               vcte:    0.0000    
               rinn:    0.0000    
               qcoe:    0.0000    
               qyuk:    0.0000    
               qwid:   0.10000E-01
                rcs:    0.0000    
            lambdas:    1.0000    
-------------------------------------------------------------------------------
L=0  Nkbl=1  erefs: 0.17977+309
L=1  Nkbl=1  erefs: 0.17977+309
L=2  Nkbl=1  erefs: 0.17977+309
===============================================================================
</basis_specs>

atom: Called for C-gga                 (Z =   6)

read_vps: Pseudopotential generation method:
read_vps: ATM 3.2.2 Troullier-Martins                       
Valence charge for ps generation:    4.00000

xc_check: Exchange-correlation functional:
xc_check: GGA Perdew, Burke & Ernzerhof 1996
V l=0 = -2*Zval/r beyond r=  1.5227
V l=1 = -2*Zval/r beyond r=  1.5227
V l=2 = -2*Zval/r beyond r=  1.5227
All V_l potentials equal beyond r=  1.4851
This should be close to max(r_c) in ps generation
All pots = -2*Zval/r beyond r=  1.5227

VLOCAL1: 99.0% of the norm of Vloc inside     19.682 Ry
VLOCAL1: 99.9% of the norm of Vloc inside     44.856 Ry
atom: Maximum radius for 4*pi*r*r*local-pseudopot. charge    1.79142
atom: Maximum radius for r*vlocal+2*Zval:    1.54183
GHOST: No ghost state for L =  0
GHOST: No ghost state for L =  1
GHOST: No ghost state for L =  2

KBgen: Kleinman-Bylander projectors: 
   l= 0   rc=  1.661951   el= -1.010689   Ekb=  5.289847   kbcos=  0.316429
   l= 1   rc=  1.661951   el= -0.388490   Ekb= -4.102504   kbcos= -0.351025
   l= 2   rc=  1.747182   el=  0.001971   Ekb= -1.006005   kbcos= -0.008530

KBgen: Total number of Kleinman-Bylander projectors:    9
atom: -------------------------------------------------------------------------

atom: SANKEY-TYPE ORBITALS:

SPLIT: Orbitals with angular momentum L= 0

SPLIT: Basis orbitals for state 2s

SPLIT: PAO cut-off radius determined from an
SPLIT: energy shift=  0.000735 Ry

   izeta = 1
                 lambda =    1.000000
                     rc =    5.948690
                 energy =   -1.010099
                kinetic =    0.827121
    potential(screened) =   -1.837220
       potential(ionic) =   -5.392783

SPLIT: Orbitals with angular momentum L= 1

SPLIT: Basis orbitals for state 2p

SPLIT: PAO cut-off radius determined from an
SPLIT: energy shift=  0.000735 Ry

   izeta = 1
                 lambda =    1.000000
                     rc =    7.638387
                 energy =   -0.387843
                kinetic =    2.314739
    potential(screened) =   -2.702582
       potential(ionic) =   -6.092371

POLgen: Perturbative polarization orbital with L=  2

POLgen: Polarization orbital for state 2p

   izeta = 1
                     rc =    7.638387
                 energy =    0.921402
                kinetic =    1.955040
    potential(screened) =   -1.033637
       potential(ionic) =   -3.679558
atom: Total number of Sankey-type orbitals:  9

atm_pop: Valence configuration (for local Pseudopot. screening):
 2s( 2.00)                                                            
 2p( 2.00)                                                            
Vna: chval, zval:    4.00000   4.00000

Vna:  Cut-off radius for the neutral-atom potential:   7.638387

atom: _________________________________________________________________________

prinput: Basis input ----------------------------------------------------------

PAO.BasisType split     

%block ChemicalSpeciesLabel
    1    3 Li-gga                  # Species index, atomic number, species label
    2    6 C-gga                   # Species index, atomic number, species label
%endblock ChemicalSpeciesLabel

%block PAO.Basis                 # Define Basis set
Li-gga                1                    # Species label, number of l-shells
 n=2   0   1 P   1                   # n, l, Nzeta, Polarization, NzetaPol
  11.897   
   1.000   
C-gga                 2                    # Species label, number of l-shells
 n=2   0   1                         # n, l, Nzeta 
   5.949   
   1.000   
 n=2   1   1 P   1                   # n, l, Nzeta, Polarization, NzetaPol
   7.638   
   1.000   
%endblock PAO.Basis

prinput: ----------------------------------------------------------------------

coor:   Atomic-coordinates input format  =     Cartesian coordinates
coor:                                          (in Angstroms)

siesta: Atomic coordinates (Bohr) and species
siesta:      0.00000   0.00000   0.00000  2        1
siesta:      2.68614   0.00000   2.12342  1        2
siesta:      5.38035   0.00000   6.37025  1        3
siesta:     -1.34307   2.32627   2.12342  1        4
siesta:     -2.69017   4.65952   6.37025  1        5
siesta:      2.69017   4.65952   2.12342  1        6
siesta:      1.34307   2.32627   6.37025  1        7
siesta:      5.38035   0.00000   2.12342  1        8
siesta:      2.68614   0.00000   6.37025  1        9
siesta:     -2.69017   4.65952   2.12342  1       10
siesta:     -1.34307   2.32627   6.37025  1       11
siesta:      1.34307   2.32627   2.12342  1       12
siesta:      2.69017   4.65952   6.37025  1       13

siesta: System type = bulk      

initatomlists: Number of atoms, orbitals, and projectors:     13    57   117

siesta: ******************** Simulation parameters ****************************
siesta:
siesta: The following are some of the parameters of the simulation.
siesta: A complete list of the parameters used, including default values,
siesta: can be found in file out.fdf
siesta:
redata: Spin configuration                          = none
redata: Number of spin components                   = 1
redata: Time-Reversal Symmetry                      = T
redata: Spin spiral                                 = F
redata: Long output                                 =   F
redata: Number of Atomic Species                    =        2
redata: Charge density info will appear in .RHO file
redata: Write Mulliken Pop.                         = NO
redata: Matel table size (NRTAB)                    =     1024
redata: Mesh Cutoff                                 =   300.0000 Ry
redata: Net charge of the system                    =     0.0000 |e|
redata: Min. number of SCF Iter                     =        0
redata: Max. number of SCF Iter                     =     1000
redata: SCF convergence failure will abort job
redata: SCF mix quantity                            = Hamiltonian
redata: Mix DM or H after convergence               =   F
redata: Recompute H after scf cycle                 =   F
redata: Mix DM in first SCF step                    =   T
redata: Write Pulay info on disk                    =   F
redata: New DM Occupancy tolerance                  = 0.000000000001
redata: No kicks to SCF
redata: DM Mixing Weight for Kicks                  =     0.5000
redata: Require Harris convergence for SCF          =   F
redata: Harris energy tolerance for SCF             =     0.000100 eV
redata: Require DM convergence for SCF              =   T
redata: DM tolerance for SCF                        =     0.001000
redata: Require EDM convergence for SCF             =   F
redata: EDM tolerance for SCF                       =     0.005000 eV
redata: Require H convergence for SCF               =   T
redata: Hamiltonian tolerance for SCF               =     0.001000 eV
redata: Require (free) Energy convergence for SCF   =   T
redata: (free) Energy tolerance for SCF             =     0.001000 eV
redata: Using Saved Data (generic)                  =   F
redata: Use continuation files for DM               =   F
redata: Neglect nonoverlap interactions             =   F
redata: Method of Calculation                       = Diagonalization
redata: Electronic Temperature                      =   299.9869 K
redata: Fix the spin of the system                  =   F
redata: Dynamics option                             = Single-point calculation
mix.SCF: Pulay mixing                            = Pulay
mix.SCF:    Variant                              = stable
mix.SCF:    History steps                        = 4
mix.SCF:    Linear mixing weight                 =     0.250000
mix.SCF:    Mixing weight                        =     0.250000
mix.SCF:    SVD condition                        = 0.1000E-07
redata: ***********************************************************************

%block SCF.Mixers
  Pulay
%endblock SCF.Mixers

%block SCF.Mixer.Pulay
  # Mixing method
  method pulay
  variant stable

  # Mixing options
  weight 0.2500
  weight.linear 0.2500
  history 4
%endblock SCF.Mixer.Pulay

DM_history_depth set to one: no extrapolation allowed by default for geometry relaxation
Size of DM history Fstack: 1
Total number of electrons:    16.000000
Total ionic charge:    16.000000

* ProcessorY, Blocksize:    3   1


* Orbital distribution balance (max,min):     5     4

k-point displ. along   1 input, could be:     0.00    0.50
k-point displ. along   2 input, could be:     0.00    0.50
k-point displ. along   3 input, could be:     0.00    0.50
 Kpoints in:           48 . Kpoints trimmed:           44

siesta: k-grid: Number of k-points =    44
siesta: k-grid: Cutoff (effective) =     8.537 Ang
siesta: k-grid: Supercell and displacements
siesta: k-grid:    4   0   0      0.000
siesta: k-grid:    0   4   0      0.000
siesta: k-grid:    0   0   4      0.000

diag: Algorithm                                     = Expert
diag: Parallel over k                               =   T
diag: Use parallel 2D distribution                  =   T
diag: Parallel block-size                           = 1
diag: Parallel distribution                         =     3 x     4
diag: Used triangular part                          = Lower
diag: Absolute tolerance                            =  0.100E-15
diag: Orthogonalization factor                      =  0.100E-05
diag: Memory factor                                 =  1.0000

superc: Internal auxiliary supercell:     9 x     9 x     7  =     567
superc: Number of atoms, orbitals, and projectors:   7371  32319  66339


ts: **************************************************************
ts: Save H and S matrices                           =    F
ts: Save DM and EDM matrices                        =    F
ts: Only save the overlap matrix S                  =    F
ts: **************************************************************

************************ Begin: TS CHECKS AND WARNINGS ************************
************************ End: TS CHECKS AND WARNINGS **************************


                     ====================================
                        Single-point calculation
                     ====================================

outcoor: Atomic coordinates (Ang):                          
    0.00000000    0.00000000    0.00000000   2       1  C-gga
    1.42144380    0.00000000    1.12366400   1       2  Li-gga
    2.84715620    0.00000000    3.37099200   1       3  Li-gga
   -0.71072190    1.23100644    1.12366400   1       4  Li-gga
   -1.42357810    2.46570960    3.37099200   1       5  Li-gga
    1.42357810    2.46570960    1.12366400   1       6  Li-gga
    0.71072190    1.23100644    3.37099200   1       7  Li-gga
    2.84715620    0.00000000    1.12366400   1       8  Li-gga
    1.42144380    0.00000000    3.37099200   1       9  Li-gga
   -1.42357810    2.46570960    1.12366400   1      10  Li-gga
   -0.71072190    1.23100644    3.37099200   1      11  Li-gga
    0.71072190    1.23100644    1.12366400   1      12  Li-gga
    1.42357810    2.46570960    3.37099200   1      13  Li-gga

superc: Internal auxiliary supercell:     9 x     9 x     7  =     567
superc: Number of atoms, orbitals, and projectors:   7371  32319  66339

outcell: Unit cell vectors (Ang):
        4.268600    0.000000    0.000000
       -2.134300    3.696716    0.000000
        0.000000    0.000000    4.494656

outcell: Cell vector modules (Ang)   :    4.268600    4.268600    4.494656
outcell: Cell angles (23,13,12) (deg):     90.0000     90.0000    120.0000
outcell: Cell volume (Ang**3)        :     70.9248
<dSpData1D:S at geom step 0
  <sparsity:sparsity for geom step 0
    nrows_g=57 nrows=5 sparsity=14.5235 nnzs=47187, refcount: 7>
  <dData1D:(new from dSpData1D) n=47187, refcount: 1>
refcount: 1>
new_DM -- step:     1
Initializing Density Matrix...
DM filled with atomic data:
<dSpData2D:DM initialized from atoms
  <sparsity:sparsity for geom step 0
    nrows_g=57 nrows=5 sparsity=14.5235 nnzs=47187, refcount: 8>
  <dData2D:DM n=47187 m=1, refcount: 1>
refcount: 1>
No. of atoms with KB's overlaping orbs in proc 0. Max # of overlaps:     570    1434
New grid distribution:   1
           1       1:   20    1:    7    1:    6
           2       1:   20    1:    7    7:   12
           3       1:   20    1:    7   13:   18
           4       1:   20    1:    7   19:   24
           5       1:   20    8:   14    1:    6
           6       1:   20    8:   14    7:   12
           7       1:   20    8:   14   13:   18
           8       1:   20    8:   14   19:   24
           9       1:   20   15:   20    1:    6
          10       1:   20   15:   20    7:   12
          11       1:   20   15:   20   13:   18
          12       1:   20   15:   20   19:   24

InitMesh: MESH =    40 x    40 x    48 =       76800
InitMesh: (bp) =    20 x    20 x    24 =        9600
InitMesh: Mesh cutoff (required, used) =   300.000   315.204 Ry
ExtMesh (bp) on 0 =   160 x   147 x   142 =     3339840
New grid distribution:   2
           1       1:    7    1:   10    1:   12
           2       8:   20   11:   20   13:   18
           3       1:    7    1:   10   13:   24
           4       8:   20    1:   10    1:    6
           5       8:   20   11:   20    1:    6
           6       8:   20    1:   10    7:   12
           7       1:    7   11:   20   13:   24
           8       8:   20    1:   10   19:   24
           9       1:    7   11:   20    1:   12
          10       8:   20    1:   10   13:   18
          11       8:   20   11:   20    7:   12
          12       8:   20   11:   20   19:   24
New grid distribution:   3
           1       1:    7    1:   10    1:   12
           2       8:   20   11:   20   13:   18
           3       1:    7    1:   10   13:   24
           4       8:   20    1:   10    1:    6
           5       8:   20   11:   20    1:    6
           6       8:   20    1:   10    7:   12
           7       1:    7   11:   20   13:   24
           8       8:   20    1:   10   19:   24
           9       1:    7   11:   20    1:   12
          10       8:   20    1:   10   13:   18
          11       8:   20   11:   20    7:   12
          12       8:   20   11:   20   19:   24
Setting up quadratic distribution...
ExtMesh (bp) on 0 =   147 x   150 x   148 =     3263400
PhiOnMesh: Number of (b)points on node 0 =                  840
PhiOnMesh: nlist on node 0 =               642251

stepf: Fermi-Dirac step function

siesta: Program's energy decomposition (eV):
siesta: Ebs     =      -275.631889
siesta: Eions   =       380.620085
siesta: Ena     =        82.212556
siesta: Ekin    =       289.037425
siesta: Enl     =        -8.553615
siesta: Eso     =         0.000000
siesta: Edftu   =         0.000000
siesta: DEna    =       -32.637272
siesta: DUscf   =        26.906087
siesta: DUext   =         0.000000
siesta: Exc     =      -188.387044
siesta: eta*DQ  =         0.000000
siesta: Emadel  =         0.000000
siesta: Emeta   =         0.000000
siesta: Emolmec =        -8.824932
siesta: Ekinion =         0.000000
siesta: Eharris =      -180.623409
siesta: Etot    =      -220.866880
siesta: FreeEng =      -220.871301

        iscf     Eharris(eV)        E_KS(eV)     FreeEng(eV)     dDmax    Ef(eV) dHmax(eV)
   scf:    1     -180.623409     -220.866880     -220.871301  1.761643-17.810750 15.932946
timer: Routine,Calls,Time,% = IterSCF        1      17.203  55.50
   scf:    2     -241.450329     -233.649178     -233.655154  0.692805-17.327172  4.275625
   scf:    3     -234.764323     -234.650800     -234.662287  0.228957-17.060570  0.405587
   scf:    4     -234.672231     -234.667834     -234.678331  0.038750-17.078990  0.115605
   scf:    5     -234.638831     -234.659363     -234.670666  0.050692-17.009941  0.433694
   scf:    6     -234.676960     -234.672208     -234.682936  0.031994-17.029943  0.019810
   scf:    7     -234.672367     -234.672427     -234.682650  0.007117-17.025912  0.072966
   scf:    8     -234.672568     -234.672635     -234.683062  0.004339-17.028144  0.001728
   scf:    9     -234.672681     -234.672658     -234.683063  0.001427-17.027699  0.001303
   scf:   10     -234.672660     -234.672659     -234.683063  0.000263-17.027810  0.000889

SCF Convergence by FreeE+DM+H criterion
|FreeE_i-FreeE_(i-1)| (eV) <     0.00100000
max |DM_out - DM_in|         :     0.0002633145
max |H_out - H_in|      (eV) :     0.0008894291
SCF cycle converged after 10 iterations

Using DM_out to compute the final energy and forces
No. of atoms with KB's overlaping orbs in proc 0. Max # of overlaps:     570    1434

MM-Stress (kbar):       98.27       98.27      377.14       -0.00       -0.00        0.00

siesta: E_KS(eV) =             -234.6727

siesta: E_KS - E_eggbox =      -234.6727

siesta: Atomic forces (eV/Ang):
     1   -0.000000    0.000000    0.000000
     2    0.675070    0.000001    0.017082
     3   -0.675070   -0.000001   -0.017082
     4   -0.337534    0.584628    0.017082
     5    0.337534   -0.584628   -0.017082
     6   -0.337546   -0.584646    0.017027
     7    0.337546    0.584646   -0.017027
     8   -0.675070   -0.000001    0.017082
     9    0.675070    0.000001   -0.017082
    10    0.337534   -0.584628    0.017082
    11   -0.337534    0.584628   -0.017082
    12    0.337546    0.584646    0.017027
    13   -0.337546   -0.584646   -0.017027
----------------------------------------
   Tot   -0.000000    0.000000    0.000000
----------------------------------------
   Max    0.675070
   Res    0.374585    sqrt( Sum f_i^2 / 3N )
----------------------------------------
   Max    0.675070    constrained

Stress tensor Voigt[x,y,z,yz,xz,xy] (kbar):    -1587.22    -1587.24      -12.03        0.00        0.00       -0.02
(Free)E + p*V (eV/cell)     -187.6640
Target enthalpy (eV/cell)     -234.6831

siesta: Eigenvalues (eV):
  ik is       eps
   1  1  -28.7330  -22.7642  -22.6182  -21.9492  -21.0779  -21.0607  -20.7628  -17.0028  -16.5855  -14.9109
         -14.1254  -12.5989  -11.2974  -10.3420   -9.4136   -8.6528   -5.8514   -3.5694   -3.3896   -2.6196
   -2.5211   -1.3176   -0.3364    0.2012    2.5275    3.3941    3.7796    6.0844    6.6427   10.4790
   10.9050   12.2084   13.5962   15.3284   15.9381   16.0851   18.1703   18.9408   20.1675   22.5963
   22.8993   23.1825   23.2476   25.1882   27.0957   27.5340   32.8940   34.8532   35.6230   37.1852
   39.9006   40.8740   42.1003   44.2745   45.6299   46.9037   49.5697
   2  1  -28.8186  -23.6115  -22.5220  -21.1715  -21.1430  -20.4522  -20.1683  -16.5396  -15.6225  -15.2007
         -14.4949  -13.9297  -12.9223  -12.3712   -9.4006   -7.3225   -4.3562   -4.1519   -3.9160   -3.8864
   -2.3175   -1.5421   -0.6925    3.7169    4.4783    5.4656    8.9632    9.9621   10.4498   12.8037
   15.2347   17.0332   17.4480   19.0053   19.2481   19.6278   20.6706   21.4512   21.8279   22.5870
   22.5961   24.2592   27.8292   31.6260   31.8051   33.1654   34.1787   36.0610   38.2980   41.4513
   42.5880   43.4761   44.9893   45.8223   48.7767   51.7220   66.4280
   3  1  -28.8186  -23.6115  -22.5220  -21.1715  -21.1430  -20.4523  -20.1683  -16.5395  -15.6225  -15.2007
         -14.4949  -13.9297  -12.9223  -12.3712   -9.4007   -7.3223   -4.3562   -4.1519   -3.9160   -3.8865
   -2.3175   -1.5421   -0.6925    3.7172    4.4779    5.4656    8.9632    9.9621   10.4498   12.8034
   15.2354   17.0331   17.4480   19.0053   19.2480   19.6277   20.6706   21.4512   21.8280   22.5868
   22.5964   24.2591   27.8292   31.6261   31.8051   33.1646   34.1787   36.0610   38.2980   41.4512
   42.5881   43.4762   44.9894   45.8224   48.7766   51.7217   66.4279
   4  1  -28.7330  -22.7641  -22.6182  -21.9492  -21.0780  -21.0607  -20.7628  -17.0029  -16.5854  -14.9109
         -14.1254  -12.5989  -11.2974  -10.3420   -9.4137   -8.6528   -5.8514   -3.5694   -3.3896   -2.6196
   -2.5209   -1.3176   -0.3364    0.2013    2.5275    3.3941    3.7792    6.0844    6.6427   10.4790
   10.9050   12.2087   13.5961   15.3284   15.9382   16.0851   18.1702   18.9409   20.1676   22.5963
   22.8994   23.1826   23.2477   25.1882   27.0957   27.5334   32.8939   34.8532   35.6229   37.1852
   39.9006   40.8741   42.1001   44.2746   45.6300   46.9036   49.5698
   5  1  -28.8186  -23.6115  -22.5220  -21.1715  -21.1430  -20.4522  -20.1683  -16.5396  -15.6225  -15.2007
         -14.4949  -13.9297  -12.9223  -12.3712   -9.4006   -7.3225   -4.3562   -4.1519   -3.9160   -3.8864
   -2.3175   -1.5421   -0.6925    3.7169    4.4783    5.4656    8.9632    9.9621   10.4498   12.8037
   15.2347   17.0332   17.4480   19.0053   19.2481   19.6278   20.6706   21.4512   21.8279   22.5870
   22.5961   24.2592   27.8292   31.6260   31.8051   33.1654   34.1787   36.0610   38.2980   41.4513
   42.5880   43.4761   44.9894   45.8223   48.7767   51.7220   66.4280
   6  1  -28.7271  -23.6489  -21.6474  -21.0640  -20.7327  -20.2007  -20.2005  -15.3774  -14.0743  -14.0743
         -13.7839  -13.7839  -13.4669  -13.0583  -13.0583  -10.3260   -4.4348   -3.8859   -3.8859   -2.8488
   -2.8488   -0.3749   -0.3743    1.5779    1.5780    5.8667   12.6443   17.4025   17.4026   17.7472
   17.7475   17.9911   20.7082   20.7084   20.8866   24.6587   24.6591   25.2713   25.2725   32.3106
   32.3106   33.5564   33.5565   39.5986   40.5944   40.8564   42.8077   43.1140   45.7875   45.7875
   46.2792   46.2793   71.6580   74.8932   74.8934  117.2069  117.2073
   7  1  -28.7448  -22.9615  -22.2868  -22.1428  -21.2476  -21.0326  -20.6747  -16.1844  -16.0415  -15.4599
         -14.9044  -14.0106  -11.0104  -10.9061   -8.7160   -8.7123   -4.0880   -3.5085   -3.3257   -3.0551
   -1.0995   -0.6596   -0.0657    1.3635    1.4375    3.0399    3.4135    6.5583    8.7814   10.0811
   12.0141   13.2202   15.4877   16.9948   17.4992   18.2569   18.7276   19.2418   20.9804   21.6367
   22.5150   24.1985   25.1039   27.2358   29.0360   29.4789   33.8359   39.6556   41.5330   45.0772
   46.1587   46.8989   48.7721   52.6264   53.2401   55.9749   67.3843
   8  1  -28.7330  -22.7641  -22.6182  -21.9492  -21.0780  -21.0607  -20.7628  -17.0029  -16.5854  -14.9109
         -14.1254  -12.5989  -11.2974  -10.3420   -9.4137   -8.6528   -5.8514   -3.5694   -3.3896   -2.6196
   -2.5209   -1.3176   -0.3364    0.2013    2.5275    3.3941    3.7792    6.0844    6.6427   10.4790
   10.9050   12.2087   13.5961   15.3284   15.9382   16.0851   18.1702   18.9409   20.1676   22.5963
   22.8994   23.1826   23.2477   25.1882   27.0957   27.5334   32.8939   34.8532   35.6229   37.1852
   39.9006   40.8741   42.1001   44.2746   45.6300   46.9036   49.5698
   9  1  -28.7330  -22.7641  -22.6182  -21.9492  -21.0780  -21.0607  -20.7628  -17.0029  -16.5854  -14.9109
         -14.1254  -12.5989  -11.2974  -10.3420   -9.4137   -8.6528   -5.8514   -3.5694   -3.3896   -2.6196
   -2.5209   -1.3176   -0.3364    0.2013    2.5275    3.3941    3.7792    6.0844    6.6427   10.4790
   10.9050   12.2087   13.5961   15.3284   15.9382   16.0851   18.1702   18.9409   20.1676   22.5963
   22.8994   23.1826   23.2477   25.1882   27.0957   27.5334   32.8939   34.8532   35.6229   37.1852
   39.9006   40.8741   42.1001   44.2746   45.6300   46.9036   49.5698
  10  1  -28.7448  -22.9615  -22.2868  -22.1428  -21.2476  -21.0326  -20.6747  -16.1844  -16.0415  -15.4599
         -14.9044  -14.0106  -11.0104  -10.9061   -8.7160   -8.7123   -4.0880   -3.5085   -3.3257   -3.0551
   -1.0995   -0.6596   -0.0657    1.3635    1.4375    3.0399    3.4135    6.5583    8.7814   10.0811
   12.0141   13.2202   15.4877   16.9948   17.4992   18.2569   18.7276   19.2418   20.9804   21.6367
   22.5150   24.1985   25.1039   27.2358   29.0360   29.4789   33.8359   39.6556   41.5330   45.0772
   46.1587   46.8989   48.7721   52.6264   53.2401   55.9749   67.3843
  11  1  -28.7330  -22.7641  -22.6182  -21.9492  -21.0780  -21.0607  -20.7628  -17.0029  -16.5854  -14.9109
         -14.1254  -12.5989  -11.2974  -10.3420   -9.4137   -8.6528   -5.8514   -3.5694   -3.3896   -2.6196
   -2.5209   -1.3176   -0.3364    0.2013    2.5275    3.3941    3.7792    6.0844    6.6427   10.4790
   10.9050   12.2087   13.5961   15.3284   15.9382   16.0851   18.1702   18.9409   20.1676   22.5963
   22.8994   23.1826   23.2477   25.1882   27.0957   27.5334   32.8939   34.8532   35.6229   37.1852
   39.9006   40.8741   42.1001   44.2746   45.6300   46.9036   49.5698
  12  1  -28.7448  -22.9614  -22.2868  -22.1428  -21.2476  -21.0326  -20.6748  -16.1844  -16.0413  -15.4599
         -14.9043  -14.0106  -11.0104  -10.9061   -8.7160   -8.7122   -4.0880   -3.5087   -3.3257   -3.0551
   -1.0990   -0.6596   -0.0657    1.3634    1.4375    3.0399    3.4135    6.5583    8.7814   10.0807
   12.0145   13.2203   15.4877   16.9948   17.4992   18.2572   18.7274   19.2417   20.9804   21.6367
   22.5150   24.1984   25.1036   27.2359   29.0353   29.4789   33.8360   39.6555   41.5330   45.0773
   46.1585   46.8988   48.7723   52.6264   53.2401   55.9750   67.3841
  13  1  -28.7062  -22.8954  -22.6174  -21.9024  -21.8400  -21.0642  -19.2319  -17.9023  -17.1137  -14.6911
         -13.9097  -12.3391  -10.4184  -10.2371   -9.2448   -8.1125   -5.2026   -5.1221   -4.8505   -3.1173
   -1.7856   -0.4977   -0.1973    0.4558    0.9674    3.1886    4.4880    4.6677    7.6774    8.8964
   11.6978   12.1344   12.6531   15.8038   15.9344   16.6316   19.6246   19.8373   20.9729   21.7499
   23.5540   27.4029   27.7922   28.4989   31.3213   34.7081   35.6683   36.9348   38.3918   38.7642
   39.5544   41.1110   42.6320   44.0149   44.6436   45.9880   48.1753
  14  1  -28.8130  -23.6083  -22.4853  -21.7399  -20.9038  -20.4621  -19.5780  -17.6684  -16.3815  -15.6401
         -13.8474  -12.8838  -12.1998  -11.4972  -10.5207   -8.1249   -7.6825   -4.0237   -3.9738   -3.3453
   -2.6625    0.0501    0.9671    1.5234    2.8601    3.5950    9.4277    9.6662    9.7388   12.3200
   14.1793   15.9720   17.7604   17.8540   18.4242   18.4572   19.7715   19.7816   21.1723   23.6654
   25.7503   26.4237   26.8714   30.4236   34.4160   34.8107   35.4645   38.4646   39.5049   40.7919
   42.7970   43.6479   44.1456   47.0907   48.6299   52.9828   54.9268
  15  1  -28.8130  -23.6083  -22.4853  -21.7399  -20.9038  -20.4622  -19.5779  -17.6684  -16.3815  -15.6401
         -13.8474  -12.8838  -12.1998  -11.4972  -10.5207   -8.1249   -7.6825   -4.0236   -3.9739   -3.3452
   -2.6625    0.0502    0.9671    1.5234    2.8599    3.5951    9.4279    9.6659    9.7389   12.3199
   14.1794   15.9723   17.7601   17.8541   18.4242   18.4571   19.7715   19.7815   21.1720   23.6653
   25.7504   26.4237   26.8715   30.4238   34.4157   34.8106   35.4647   38.4646   39.5051   40.7918
   42.7969   43.6479   44.1456   47.0906   48.6298   52.9825   54.9266
  16  1  -28.7062  -22.8954  -22.6174  -21.9024  -21.8400  -21.0643  -19.2319  -17.9024  -17.1136  -14.6911
         -13.9097  -12.3390  -10.4184  -10.2372   -9.2448   -8.1125   -5.2026   -5.1221   -4.8505   -3.1173
   -1.7856   -0.4977   -0.1973    0.4557    0.9674    3.1887    4.4881    4.6678    7.6774    8.8963
   11.6977   12.1344   12.6530   15.8038   15.9344   16.6315   19.6246   19.8373   20.9729   21.7499
   23.5542   27.4029   27.7919   28.4988   31.3213   34.7080   35.6683   36.9348   38.3918   38.7642
   39.5544   41.1110   42.6319   44.0150   44.6434   45.9881   48.1754
  17  1  -28.8130  -23.6083  -22.4853  -21.7399  -20.9038  -20.4621  -19.5780  -17.6684  -16.3815  -15.6401
         -13.8474  -12.8838  -12.1998  -11.4972  -10.5207   -8.1249   -7.6825   -4.0237   -3.9738   -3.3453
   -2.6625    0.0501    0.9671    1.5234    2.8601    3.5950    9.4277    9.6662    9.7388   12.3200
   14.1793   15.9720   17.7604   17.8540   18.4242   18.4572   19.7715   19.7816   21.1723   23.6654
   25.7503   26.4237   26.8714   30.4236   34.4160   34.8107   35.4645   38.4646   39.5049   40.7919
   42.7970   43.6479   44.1457   47.0907   48.6299   52.9828   54.9268
  18  1  -28.5875  -23.0969  -21.7750  -21.1732  -20.3527  -20.2508  -20.2506  -17.0638  -14.3910  -14.0870
         -14.0869  -13.9983  -13.9983  -13.4145  -13.4145   -8.1453   -5.4445   -2.4988   -2.4987   -0.7758
   -0.7758    0.0929    0.0934    4.4226    4.4227    4.9202   13.9630   13.9631   15.7593   15.7596
   17.2291   17.2291   17.2605   18.2242   20.0924   23.9265   23.9266   24.7012   24.7015   30.7039
   31.2090   31.2093   34.8378   34.8381   35.0624   35.0625   41.8685   42.1696   43.1973   43.5451
   44.4860   44.4861   50.6271   50.6282   57.4876   57.4882   58.0198
  19  1  -28.8130  -23.6083  -22.4853  -21.7399  -20.9038  -20.4621  -19.5780  -17.6684  -16.3815  -15.6401
         -13.8474  -12.8838  -12.1998  -11.4972  -10.5207   -8.1249   -7.6825   -4.0237   -3.9738   -3.3453
   -2.6625    0.0501    0.9671    1.5234    2.8601    3.5950    9.4277    9.6662    9.7388   12.3200
   14.1793   15.9720   17.7604   17.8540   18.4242   18.4572   19.7715   19.7816   21.1723   23.6654
   25.7503   26.4237   26.8714   30.4236   34.4160   34.8107   35.4645   38.4646   39.5049   40.7919
   42.7970   43.6479   44.1457   47.0907   48.6299   52.9828   54.9268
  20  1  -28.7235  -22.9255  -22.7063  -22.2261  -21.4857  -20.6445  -20.1533  -17.0286  -16.6394  -16.1657
         -13.1132  -11.8666  -11.1368  -10.8202   -8.5469   -8.3180   -5.2138   -4.7859   -4.6514   -3.1541
   -2.9494   -2.6199   -1.4985    1.1402    2.7783    3.1475    5.3391    5.7261    7.0731    8.3623
    8.5049   12.7867   13.5048   14.1178   17.5001   18.7924   19.4726   20.0339   21.7701   22.2467
   25.1838   27.0549   28.6832   29.3199   30.3056   33.2661   36.1275   37.1397   37.5037   40.6497
   45.6608   46.4431   47.1744   48.5883   49.6992   51.0809   55.7937
  21  1  -28.8130  -23.6083  -22.4853  -21.7399  -20.9038  -20.4622  -19.5779  -17.6684  -16.3815  -15.6401
         -13.8474  -12.8838  -12.1998  -11.4972  -10.5207   -8.1249   -7.6825   -4.0236   -3.9739   -3.3452
   -2.6625    0.0502    0.9671    1.5234    2.8599    3.5951    9.4279    9.6659    9.7389   12.3199
   14.1794   15.9723   17.7601   17.8541   18.4242   18.4571   19.7715   19.7815   21.1720   23.6653
   25.7504   26.4237   26.8715   30.4238   34.4157   34.8106   35.4647   38.4646   39.5051   40.7918
   42.7969   43.6479   44.1456   47.0906   48.6298   52.9825   54.9266
  22  1  -28.8130  -23.6083  -22.4853  -21.7399  -20.9038  -20.4621  -19.5780  -17.6684  -16.3815  -15.6401
         -13.8474  -12.8838  -12.1998  -11.4972  -10.5207   -8.1249   -7.6825   -4.0237   -3.9738   -3.3453
   -2.6625    0.0501    0.9671    1.5234    2.8601    3.5950    9.4277    9.6662    9.7388   12.3200
   14.1793   15.9720   17.7604   17.8540   18.4242   18.4572   19.7715   19.7816   21.1723   23.6654
   25.7503   26.4237   26.8714   30.4236   34.4160   34.8107   35.4645   38.4646   39.5049   40.7919
   42.7970   43.6479   44.1456   47.0907   48.6299   52.9828   54.9268
  23  1  -28.7062  -22.8954  -22.6174  -21.9024  -21.8400  -21.0642  -19.2319  -17.9023  -17.1137  -14.6911
         -13.9097  -12.3391  -10.4184  -10.2371   -9.2448   -8.1125   -5.2026   -5.1221   -4.8505   -3.1173
   -1.7856   -0.4977   -0.1973    0.4558    0.9674    3.1886    4.4880    4.6677    7.6774    8.8964
   11.6978   12.1344   12.6531   15.8038   15.9344   16.6316   19.6246   19.8373   20.9729   21.7499
   23.5540   27.4029   27.7922   28.4989   31.3213   34.7081   35.6683   36.9348   38.3918   38.7642
   39.5544   41.1110   42.6320   44.0149   44.6436   45.9880   48.1753
  24  1  -28.7062  -22.8954  -22.6174  -21.9024  -21.8400  -21.0643  -19.2319  -17.9024  -17.1136  -14.6911
         -13.9097  -12.3390  -10.4184  -10.2372   -9.2448   -8.1125   -5.2026   -5.1221   -4.8505   -3.1173
   -1.7856   -0.4977   -0.1973    0.4557    0.9674    3.1887    4.4881    4.6678    7.6774    8.8963
   11.6977   12.1344   12.6530   15.8038   15.9344   16.6315   19.6246   19.8373   20.9729   21.7499
   23.5542   27.4029   27.7919   28.4988   31.3213   34.7080   35.6683   36.9348   38.3918   38.7642
   39.5544   41.1110   42.6319   44.0150   44.6434   45.9881   48.1754
  25  1  -28.7062  -22.8954  -22.6174  -21.9024  -21.8400  -21.0643  -19.2319  -17.9024  -17.1136  -14.6911
         -13.9097  -12.3390  -10.4184  -10.2372   -9.2448   -8.1125   -5.2026   -5.1221   -4.8505   -3.1173
   -1.7856   -0.4977   -0.1973    0.4557    0.9674    3.1887    4.4881    4.6678    7.6774    8.8963
   11.6977   12.1344   12.6530   15.8038   15.9344   16.6315   19.6246   19.8373   20.9729   21.7499
   23.5542   27.4029   27.7919   28.4988   31.3213   34.7080   35.6683   36.9348   38.3918   38.7642
   39.5544   41.1110   42.6319   44.0150   44.6434   45.9881   48.1754
  26  1  -28.7235  -22.9255  -22.7063  -22.2261  -21.4857  -20.6445  -20.1533  -17.0286  -16.6394  -16.1657
         -13.1132  -11.8666  -11.1368  -10.8202   -8.5469   -8.3180   -5.2138   -4.7859   -4.6514   -3.1541
   -2.9494   -2.6199   -1.4985    1.1402    2.7783    3.1475    5.3391    5.7261    7.0731    8.3623
    8.5049   12.7867   13.5048   14.1178   17.5001   18.7924   19.4726   20.0339   21.7701   22.2467
   25.1838   27.0549   28.6832   29.3199   30.3056   33.2661   36.1275   37.1397   37.5037   40.6497
   45.6608   46.4432   47.1744   48.5883   49.6992   51.0809   55.7938
  27  1  -28.7062  -22.8954  -22.6174  -21.9024  -21.8400  -21.0643  -19.2319  -17.9024  -17.1136  -14.6911
         -13.9097  -12.3390  -10.4184  -10.2372   -9.2448   -8.1125   -5.2026   -5.1221   -4.8505   -3.1173
   -1.7856   -0.4977   -0.1973    0.4557    0.9674    3.1887    4.4881    4.6678    7.6774    8.8963
   11.6977   12.1344   12.6530   15.8038   15.9344   16.6315   19.6246   19.8373   20.9729   21.7499
   23.5542   27.4029   27.7919   28.4988   31.3213   34.7080   35.6683   36.9348   38.3918   38.7642
   39.5544   41.1110   42.6319   44.0150   44.6434   45.9881   48.1754
  28  1  -28.7235  -22.9255  -22.7063  -22.2261  -21.4857  -20.6447  -20.1533  -17.0286  -16.6392  -16.1657
         -13.1132  -11.8666  -11.1368  -10.8203   -8.5469   -8.3179   -5.2139   -4.7859   -4.6513   -3.1541
   -2.9495   -2.6199   -1.4985    1.1403    2.7783    3.1473    5.3394    5.7262    7.0730    8.3621
    8.5049   12.7865   13.5049   14.1181   17.5000   18.7925   19.4726   20.0338   21.7701   22.2465
   25.1839   27.0550   28.6824   29.3201   30.3058   33.2660   36.1275   37.1397   37.5037   40.6496
   45.6607   46.4430   47.1743   48.5885   49.6992   51.0809   55.7937
  29  1  -28.6735  -23.1176  -22.6373  -22.0482  -21.6807  -20.9311  -18.6313  -17.8873  -17.7251  -14.5657
         -13.4583  -13.0421   -9.6319   -9.0516   -8.8165   -6.7786   -6.1606   -5.7978   -5.6297   -4.8010
   -4.2690   -2.5956   -2.1688   -0.0718    2.5137    3.7973    5.8640    6.2127    6.6895   10.1419
   10.4311   11.3001   11.4281   15.0274   15.2141   16.9751   18.7044   18.9100   19.7796   21.5389
   23.1974   26.3626   28.0757   28.3181   34.6147   35.2739   38.1439   38.2224   39.5455   40.0375
   41.4814   41.6895   43.1301   44.3573   44.4178   45.1833   50.7676
  30  1  -28.7941  -23.6202  -22.3385  -22.2116  -20.4381  -20.0182  -19.7926  -18.5994  -16.3052  -15.5924
         -13.5206  -12.6157  -11.8588  -11.5910  -10.8672  -10.5362   -5.4007   -4.4992   -3.3902   -2.9482
    0.4924    0.7136    0.9884    2.6651    3.3003    3.3116    6.2840    6.3481    7.2466    9.3180
   10.6652   13.2662   14.9193   17.2606   17.6885   18.6496   19.8745   20.0023   21.3286   22.8165
   27.0262   27.9037   30.2506   30.8958   33.0763   34.0481   34.7192   36.5762   37.3291   40.9829
   42.7781   43.8619   45.9812   46.1170   50.6628   52.3296   55.5623
  31  1  -28.7941  -23.6202  -22.3385  -22.2116  -20.4382  -20.0182  -19.7926  -18.5993  -16.3052  -15.5924
         -13.5206  -12.6157  -11.8588  -11.5910  -10.8672  -10.5362   -5.4007   -4.4992   -3.3904   -2.9480
    0.4924    0.7136    0.9884    2.6651    3.3003    3.3116    6.2841    6.3478    7.2466    9.3180
   10.6654   13.2661   14.9196   17.2606   17.6886   18.6495   19.8740   20.0024   21.3284   22.8164
   27.0264   27.9038   30.2505   30.8958   33.0766   34.0487   34.7191   36.5763   37.3285   40.9828
   42.7781   43.8618   45.9812   46.1170   50.6627   52.3295   55.5621
  32  1  -28.6735  -23.1176  -22.6373  -22.0482  -21.6807  -20.9311  -18.6313  -17.8872  -17.7251  -14.5657
         -13.4583  -13.0421   -9.6318   -9.0516   -8.8166   -6.7786   -6.1606   -5.7978   -5.6297   -4.8010
   -4.2691   -2.5956   -2.1688   -0.0718    2.5138    3.7973    5.8641    6.2127    6.6896   10.1417
   10.4311   11.3002   11.4281   15.0274   15.2141   16.9750   18.7044   18.9100   19.7794   21.5387
   23.1977   26.3625   28.0758   28.3180   34.6146   35.2739   38.1439   38.2224   39.5454   40.0375
   41.4814   41.6895   43.1302   44.3571   44.4180   45.1833   50.7676
  33  1  -28.7941  -23.6202  -22.3385  -22.2116  -20.4381  -20.0182  -19.7926  -18.5994  -16.3052  -15.5924
         -13.5206  -12.6157  -11.8588  -11.5910  -10.8672  -10.5362   -5.4007   -4.4992   -3.3902   -2.9482
    0.4924    0.7136    0.9884    2.6651    3.3003    3.3116    6.2840    6.3481    7.2466    9.3180
   10.6652   13.2662   14.9193   17.2606   17.6885   18.6496   19.8745   20.0023   21.3286   22.8165
   27.0262   27.9037   30.2506   30.8958   33.0763   34.0481   34.7192   36.5762   37.3291   40.9829
   42.7781   43.8619   45.9812   46.1170   50.6628   52.3296   55.5623
  34  1  -28.3797  -22.4152  -22.0845  -20.9315  -20.2615  -20.2614  -19.2747  -18.9249  -14.5479  -14.1135
         -14.1135  -14.0844  -14.0844  -13.6249  -13.6249  -10.5656   -2.9932   -1.4469   -1.1019   -1.1014
    2.3723    2.3723    5.4428    5.4428    6.3314    6.3315    7.6408    7.6410    9.1049    9.1050
   11.9193   11.9193   18.2926   18.3739   21.8412   24.1193   24.1194   28.7716   28.7721   29.3908
   29.3908   34.1883   34.1884   34.8034   34.8034   37.9417   37.9770   41.9859   42.3079   42.4159
   42.6229   48.0235   48.0248   49.5258   49.5267   52.5899   52.5900
  35  1  -28.7941  -23.6202  -22.3385  -22.2116  -20.4381  -20.0182  -19.7926  -18.5994  -16.3052  -15.5924
         -13.5206  -12.6157  -11.8588  -11.5910  -10.8672  -10.5362   -5.4007   -4.4992   -3.3902   -2.9482
    0.4924    0.7136    0.9884    2.6651    3.3003    3.3116    6.2840    6.3481    7.2466    9.3180
   10.6652   13.2662   14.9193   17.2606   17.6885   18.6496   19.8745   20.0023   21.3286   22.8165
   27.0262   27.9037   30.2506   30.8958   33.0763   34.0481   34.7192   36.5762   37.3291   40.9829
   42.7781   43.8619   45.9812   46.1170   50.6628   52.3296   55.5623
  36  1  -28.6873  -23.0941  -22.9006  -22.1366  -21.0436  -20.5949  -20.2492  -17.0802  -16.9841  -16.1042
         -12.4462  -12.1707  -10.6215   -8.4354   -7.4916   -7.4097   -7.3484   -7.0436   -6.0800   -4.8988
   -3.7871   -3.5636   -2.8751   -2.4842    0.8718    1.9624    4.1461    5.6744    8.8784    9.1720
   12.6994   13.3690   15.7899   16.9668   17.4144   18.0677   18.9190   19.3043   19.6426   24.3785
   24.5136   25.4006   26.4952   28.1660   29.4853   29.5035   34.6368   39.0258   41.0985   41.2033
   46.0101   46.3125   46.8994   46.9459   47.7201   48.1539   66.5339
  37  1  -28.7941  -23.6202  -22.3385  -22.2116  -20.4382  -20.0182  -19.7926  -18.5993  -16.3052  -15.5924
         -13.5206  -12.6157  -11.8588  -11.5910  -10.8672  -10.5362   -5.4007   -4.4992   -3.3904   -2.9480
    0.4924    0.7136    0.9884    2.6651    3.3003    3.3116    6.2841    6.3478    7.2466    9.3180
   10.6654   13.2661   14.9196   17.2606   17.6886   18.6495   19.8740   20.0024   21.3284   22.8164
   27.0264   27.9038   30.2505   30.8958   33.0766   34.0487   34.7191   36.5763   37.3285   40.9828
   42.7781   43.8618   45.9812   46.1170   50.6627   52.3295   55.5621
  38  1  -28.7941  -23.6202  -22.3385  -22.2116  -20.4381  -20.0182  -19.7926  -18.5994  -16.3052  -15.5924
         -13.5206  -12.6157  -11.8588  -11.5910  -10.8672  -10.5362   -5.4007   -4.4992   -3.3902   -2.9482
    0.4924    0.7136    0.9884    2.6651    3.3003    3.3116    6.2840    6.3481    7.2466    9.3180
   10.6652   13.2662   14.9193   17.2606   17.6885   18.6496   19.8745   20.0023   21.3286   22.8165
   27.0262   27.9037   30.2506   30.8958   33.0763   34.0481   34.7192   36.5762   37.3291   40.9829
   42.7781   43.8619   45.9812   46.1170   50.6628   52.3296   55.5623
  39  1  -28.6735  -23.1176  -22.6373  -22.0482  -21.6807  -20.9311  -18.6313  -17.8873  -17.7251  -14.5657
         -13.4583  -13.0421   -9.6319   -9.0516   -8.8165   -6.7786   -6.1606   -5.7978   -5.6297   -4.8010
   -4.2690   -2.5956   -2.1688   -0.0718    2.5137    3.7973    5.8640    6.2127    6.6895   10.1419
   10.4311   11.3001   11.4281   15.0274   15.2141   16.9751   18.7044   18.9100   19.7796   21.5389
   23.1974   26.3626   28.0757   28.3181   34.6147   35.2739   38.1439   38.2224   39.5455   40.0375
   41.4814   41.6895   43.1301   44.3573   44.4178   45.1833   50.7676
  40  1  -28.6735  -23.1176  -22.6373  -22.0482  -21.6807  -20.9311  -18.6313  -17.8872  -17.7251  -14.5657
         -13.4583  -13.0421   -9.6318   -9.0516   -8.8166   -6.7786   -6.1606   -5.7978   -5.6297   -4.8010
   -4.2691   -2.5956   -2.1688   -0.0718    2.5138    3.7973    5.8641    6.2127    6.6896   10.1417
   10.4311   11.3002   11.4281   15.0274   15.2141   16.9750   18.7044   18.9100   19.7794   21.5387
   23.1977   26.3625   28.0758   28.3180   34.6146   35.2739   38.1439   38.2224   39.5454   40.0375
   41.4814   41.6895   43.1302   44.3571   44.4180   45.1833   50.7676
  41  1  -28.6735  -23.1176  -22.6373  -22.0482  -21.6807  -20.9311  -18.6313  -17.8872  -17.7251  -14.5657
         -13.4583  -13.0421   -9.6318   -9.0516   -8.8166   -6.7786   -6.1606   -5.7978   -5.6297   -4.8010
   -4.2691   -2.5956   -2.1688   -0.0718    2.5138    3.7973    5.8641    6.2127    6.6896   10.1417
   10.4311   11.3002   11.4281   15.0274   15.2141   16.9750   18.7044   18.9100   19.7794   21.5387
   23.1977   26.3625   28.0758   28.3180   34.6146   35.2739   38.1439   38.2224   39.5454   40.0375
   41.4814   41.6895   43.1302   44.3571   44.4180   45.1833   50.7676
  42  1  -28.6873  -23.0941  -22.9006  -22.1366  -21.0436  -20.5949  -20.2492  -17.0802  -16.9841  -16.1042
         -12.4462  -12.1707  -10.6215   -8.4354   -7.4916   -7.4097   -7.3484   -7.0436   -6.0800   -4.8988
   -3.7871   -3.5636   -2.8751   -2.4842    0.8718    1.9624    4.1461    5.6744    8.8784    9.1720
   12.6994   13.3690   15.7899   16.9668   17.4144   18.0677   18.9190   19.3043   19.6426   24.3785
   24.5136   25.4006   26.4952   28.1660   29.4853   29.5035   34.6368   39.0258   41.0985   41.2033
   46.0101   46.3125   46.8994   46.9459   47.7201   48.1539   66.5339
  43  1  -28.6735  -23.1176  -22.6373  -22.0482  -21.6807  -20.9311  -18.6313  -17.8872  -17.7251  -14.5657
         -13.4583  -13.0421   -9.6318   -9.0516   -8.8166   -6.7786   -6.1606   -5.7978   -5.6297   -4.8010
   -4.2691   -2.5956   -2.1688   -0.0718    2.5138    3.7973    5.8641    6.2127    6.6896   10.1417
   10.4311   11.3002   11.4281   15.0274   15.2141   16.9750   18.7044   18.9100   19.7794   21.5387
   23.1977   26.3625   28.0758   28.3180   34.6146   35.2739   38.1439   38.2224   39.5454   40.0375
   41.4814   41.6895   43.1302   44.3571   44.4180   45.1833   50.7676
  44  1  -28.6873  -23.0941  -22.9006  -22.1366  -21.0436  -20.5950  -20.2492  -17.0801  -16.9841  -16.1042
         -12.4462  -12.1707  -10.6216   -8.4353   -7.4916   -7.4097   -7.3484   -7.0436   -6.0800   -4.8988
   -3.7871   -3.5636   -2.8751   -2.4841    0.8718    1.9623    4.1461    5.6739    8.8789    9.1720
   12.6998   13.3690   15.7900   16.9663   17.4143   18.0679   18.9190   19.3042   19.6425   24.3786
   24.5133   25.4009   26.4952   28.1664   29.4853   29.5035   34.6367   39.0257   41.0981   41.2032
   46.0100   46.3126   46.8994   46.9459   47.7200   48.1538   66.5339
siesta: Fermi energy =     -17.027810 eV

siesta: Program's energy decomposition (eV):
siesta: Ebs     =      -351.202335
siesta: Eions   =       380.620085
siesta: Ena     =        82.212556
siesta: Ekin    =       232.945269
siesta: Enl     =         8.891813
siesta: Eso     =         0.000000
siesta: Edftu   =         0.000000
siesta: DEna    =         2.561259
siesta: DUscf   =         5.669509
siesta: DUext   =         0.000000
siesta: Exc     =      -177.508049
siesta: eta*DQ  =         0.000000
siesta: Emadel  =         0.000000
siesta: Emeta   =         0.000000
siesta: Emolmec =        -8.824932
siesta: Ekinion =         0.000000
siesta: Eharris =      -234.672660
siesta: Etot    =      -234.672659
siesta: FreeEng =      -234.683063

siesta: Final energy (eV):
siesta:  Band Struct. =    -351.202335
siesta:       Kinetic =     232.945269
siesta:       Hartree =      77.193543
siesta:       Edftu   =       0.000000
siesta:       Eso     =       0.000000
siesta:    Ext. field =       0.000000
siesta:   Exch.-corr. =    -177.508049
siesta:  Ion-electron =    -547.914680
siesta:       Ion-ion =     189.436189
siesta:       Ekinion =       0.000000
siesta:         Total =    -234.672659
siesta:         Fermi =     -17.027810

siesta: Atomic forces (eV/Ang):
siesta:      1   -0.000000    0.000000    0.000000
siesta:      2    0.675070    0.000001    0.017082
siesta:      3   -0.675070   -0.000001   -0.017082
siesta:      4   -0.337534    0.584628    0.017082
siesta:      5    0.337534   -0.584628   -0.017082
siesta:      6   -0.337546   -0.584646    0.017027
siesta:      7    0.337546    0.584646   -0.017027
siesta:      8   -0.675070   -0.000001    0.017082
siesta:      9    0.675070    0.000001   -0.017082
siesta:     10    0.337534   -0.584628    0.017082
siesta:     11   -0.337534    0.584628   -0.017082
siesta:     12    0.337546    0.584646    0.017027
siesta:     13   -0.337546   -0.584646   -0.017027
siesta: ----------------------------------------
siesta:    Tot   -0.000000    0.000000    0.000000

siesta: Stress tensor (static) (eV/Ang**3):
siesta:    -0.990652   -0.000013    0.000000
siesta:    -0.000013   -0.990667   -0.000000
siesta:     0.000000    0.000000   -0.007510

siesta: Cell volume =         70.924782 Ang**3

siesta: Pressure (static):
siesta:                Solid            Molecule  Units
siesta:           0.00722029          0.00752766  Ry/Bohr**3
siesta:           0.66294269          0.69116447  eV/Ang**3
siesta:        1062.16276165       1107.37954037  kBar
(Free)E+ p_basis*V_orbitals  =        -202.512942
(Free)Eharris+ p_basis*V_orbitals  =        -202.512943

cite: Please see "LiC12_scf.bib" for an exhaustive BiBTeX file.
cite: Please clearly indicate Siesta version in published work: 4.1.5
cite: This calculation has made use of the following articles
cite: which are encouraged to be cited in a published work.
        Primary SIESTA paper
          DOI: www.doi.org/10.1088/0953-8984/14/11/302

>> End of run:   9-NOV-2022  13:13:31
Job completed
