Siesta Version  : 4.1.5
Architecture    : x86_64-unknown-linux-gnu--unknown
Compiler version: GNU Fortran (GCC) 11.3.0
Compiler flags  : mpif90 -g -O2 -fallow-argument-mismatch
PP flags        : -DMPI -DFC_HAVE_FLUSH -DFC_HAVE_ABORT
Libraries       :  -I/global/software/sl-7.x86_64/modules/intel/2020.4.304/mkl/include  /globall/software/sl-7.x86_64/modules/intel/2020.4.304/mkl/lib/intel64/libmkl_scalapack_lp64.a -Wl,--start-group /global/software/sl-7.x86_64/modules/intel/2020.4.304/mkl/lib/intel64/libmkl_intel_lp64.a /global/software/sl-7.x86_64/modules/intel/2020.4.304/mkl/lib/intel64/libmkl_sequential.a /global/software/sl-7.x86_64/modules/intel/2020.4.304/mkl/lib/intel64/libmkl_core.a /global/software/sl-7.x86_64/modules/intel/2020.4.304/mkl/lib/intel64/libmkl_blacs_openmpi_lp64.a -Wl,--end-group -lpthread -lm -ldl
PARALLEL version

* Running on 12 nodes in parallel
>> Start of run:   9-NOV-2022  13:51:35

                           ***********************       
                           *  WELCOME TO SIESTA  *       
                           ***********************       

reinit: Reading from standard input
reinit: Dumped input in INPUT_TMP.62309
************************** Dump of input data file ****************************
SystemName LiC12_scf
SystemLabel LiC12_scf
NumberOfAtoms   13
NumberOfSpecies 2
%block ChemicalSpeciesLabel
1  3   Li-gga
2  6   C-gga
%endblock ChemicalSpeciesLabel
PAO.BasisSize  SZP
PAO.EnergyShift  10 meV
%block PS.Lmax
C-gga   2
Li-gga  2
%endblock PS.Lmax
LatticeConstant 1.000000 Ang
%block LatticeVectors
	4.2686000000	0.0000000000	0.0000000000
	-2.1343000000	3.6967160386	0.0000000000
	0.0000000000	0.0000000000	8.0061060000
%endblock LatticeVectors
AtomicCoordinatesFormat Ang
%block AtomicCoordinatesAndAtomicSpecies
	0.00000000	0.00000000	0.00000000	2
	1.42144380	0.00000000	2.00152650	1
	2.84715620	0.00000000	6.00457950	1
	-0.71072190	1.23100644	2.00152650	1
	-1.42357810	2.46570960	6.00457950	1
	1.42357810	2.46570960	2.00152650	1
	0.71072190	1.23100644	6.00457950	1
	2.84715620	0.00000000	2.00152650	1
	1.42144380	0.00000000	6.00457950	1
	-1.42357810	2.46570960	2.00152650	1
	-0.71072190	1.23100644	6.00457950	1
	0.71072190	1.23100644	2.00152650	1
	1.42357810	2.46570960	6.00457950	1
%endblock AtomicCoordinatesAndAtomicSpecies
Kgrid_NoTRS  T
%block kgrid_MonkhorstPack
4       0       0       0.0
0       4       0       0.0
0       0       4       0.0
%endblock kgrid_MonkhorstPack
AtomCoorFormatOut Ang
BlockSize 1
#ProcessorY 12
Diag.ParallelOverK   T
Diag.DivideAndConquer F
MeshCutoff   300 Ry
SCF.FreeE.Tolerance 1E-3 eV
SCF.EDM.Tolerance   5E-3 eV
DM.Tolerance  1E-3
DM.Require.Energy.Convergence T
DM.NumberPulay 4
XC.Functional GGA
XC.Authors    PBE
UseSaveData        F
MD.TypeOfRun       CG
MD.VariableCell    F
MD.NumCGsteps      00
MD.MaxCGDispl      0.200000 Bohr
MD.MaxStressTol    1.000000 GPa
MD.MaxForceTol     0.010000 eV/Ang
WriteMDHistory T
WriteCoorStep T
WriteForces T
WriteCoorStep    T
WriteEigenValues T
WriteDM    F
MM.UnitsDistance Ang  # what this program prints out DO NOT CHANGE
MM.UnitsEnergy    eV  # what this program prints out DO NOT CHANGE
MM.Grimme.S6     0.75 # Grimme-paper for PBE (correct for your functional)
MM.Grimme.D     20.   # Grimme-paper (correct for your functional)
%block MM.Potentials
  1   1 Grimme     16.69      1.650 # Li, 10.1002/jcc.20495
  1   2 Grimme     17.40      2.277 # Li / C
  2   2 Grimme     18.14      2.904 # C, 10.1002/jcc.20495
%endblock MM.Potentials
#%block ProjectedDensityOfStates
# -200.0  120.0  0.4  12800  eV
#%endblock ProjectedDensityOfStates
************************** End of input data file *****************************

reinit: -----------------------------------------------------------------------
reinit: System Name: LiC12_scf
reinit: -----------------------------------------------------------------------
reinit: System Label: LiC12_scf
reinit: -----------------------------------------------------------------------
Reading two-body potentials
Grimme - two-body potential between 1 and 1
Grimme - two-body potential between 1 and 2
Grimme - two-body potential between 2 and 2

initatom: Reading input for the pseudopotentials and atomic orbitals ----------
Species number:   1 Atomic number:    3 Label: Li-gga
Species number:   2 Atomic number:    6 Label: C-gga

Ground state valence configuration:   2s01
Reading pseudopotential information in formatted form from Li-gga.psf

Valence configuration for pseudopotential generation:
2s( 1.00) rc: 2.28
2p( 0.00) rc: 2.28
3d( 0.00) rc: 2.59
4f( 0.00) rc: 2.59
Ground state valence configuration:   2s02  2p02
Reading pseudopotential information in formatted form from C-gga.psf

Valence configuration for pseudopotential generation:
2s( 2.00) rc: 1.56
2p( 2.00) rc: 1.56
3d( 0.00) rc: 1.56
4f( 0.00) rc: 1.56
relmxkb: Read Max KB Ang. Momentum=    2 for species C-gga
relmxkb: Read Max KB Ang. Momentum=    2 for species Li-gga

<basis_specs>
===============================================================================
Li-gga               Z=   3    Mass=  6.9400        Charge= 0.17977+309
Lmxo=0 Lmxkb= 2    BasisType=split      Semic=F
L=0  Nsemic=0  Cnfigmx=2
          i=1  nzeta=1  polorb=1  (2s)
            splnorm:   0.15000    
               vcte:    0.0000    
               rinn:    0.0000    
               qcoe:    0.0000    
               qyuk:    0.0000    
               qwid:   0.10000E-01
                rcs:    0.0000    
            lambdas:    1.0000    
-------------------------------------------------------------------------------
L=0  Nkbl=1  erefs: 0.17977+309
L=1  Nkbl=1  erefs: 0.17977+309
L=2  Nkbl=1  erefs: 0.17977+309
===============================================================================
</basis_specs>

atom: Called for Li-gga                (Z =   3)

read_vps: Pseudopotential generation method:
read_vps: ATM 3.2.2 Troullier-Martins                       
Valence charge for ps generation:    1.00000

read_vps: Pseudopotential includes a core correction:
read_vps: Pseudo-core for xc-correction

xc_check: Exchange-correlation functional:
xc_check: GGA Perdew, Burke & Ernzerhof 1996
V l=0 = -2*Zval/r beyond r=  2.2278
V l=1 = -2*Zval/r beyond r=  2.2278
V l=2 = -2*Zval/r beyond r=  2.5245
All V_l potentials equal beyond r=  2.4622
This should be close to max(r_c) in ps generation
All pots = -2*Zval/r beyond r=  2.5245

VLOCAL1: 99.0% of the norm of Vloc inside      7.160 Ry
VLOCAL1: 99.9% of the norm of Vloc inside     16.318 Ry
atom: Maximum radius for 4*pi*r*r*local-pseudopot. charge    2.86079
atom: Maximum radius for r*vlocal+2*Zval:    2.43160
GHOST: No ghost state for L =  0
GHOST: No ghost state for L =  1
GHOST: No ghost state for L =  2

KBgen: Kleinman-Bylander projectors: 
   l= 0   rc=  2.654023   el= -0.211234   Ekb=  1.742119   kbcos=  0.228463
   l= 1   rc=  2.721230   el= -0.080095   Ekb= -1.122375   kbcos= -0.147941
   l= 2   rc=  2.825246   el=  0.002001   Ekb= -0.207076   kbcos= -0.031965

KBgen: Total number of Kleinman-Bylander projectors:    9
atom: -------------------------------------------------------------------------

atom: SANKEY-TYPE ORBITALS:

SPLIT: Orbitals with angular momentum L= 0

SPLIT: Basis orbitals for state 2s

SPLIT: PAO cut-off radius determined from an
SPLIT: energy shift=  0.000735 Ry

   izeta = 1
                 lambda =    1.000000
                     rc =   11.897381
                 energy =   -0.210580
                kinetic =    0.143382
    potential(screened) =   -0.353962
       potential(ionic) =   -0.533453

POLgen: Perturbative polarization orbital with L=  1

POLgen: Polarization orbital for state 2s

   izeta = 1
                     rc =   11.897381
                 energy =   -0.027011
                kinetic =    0.282985
    potential(screened) =   -0.309997
       potential(ionic) =   -0.490997
atom: Total number of Sankey-type orbitals:  4

atm_pop: Valence configuration (for local Pseudopot. screening):
 2s( 1.00)                                                            
Vna: chval, zval:    1.00000   1.00000

Vna:  Cut-off radius for the neutral-atom potential:  11.897381
comcore: Pseudo-core radius Rcore=  3.450946

atom: _________________________________________________________________________

<basis_specs>
===============================================================================
C-gga                Z=   6    Mass=  12.010        Charge= 0.17977+309
Lmxo=1 Lmxkb= 2    BasisType=split      Semic=F
L=0  Nsemic=0  Cnfigmx=2
          i=1  nzeta=1  polorb=0  (2s)
            splnorm:   0.15000    
               vcte:    0.0000    
               rinn:    0.0000    
               qcoe:    0.0000    
               qyuk:    0.0000    
               qwid:   0.10000E-01
                rcs:    0.0000    
            lambdas:    1.0000    
L=1  Nsemic=0  Cnfigmx=2
          i=1  nzeta=1  polorb=1  (2p)
            splnorm:   0.15000    
               vcte:    0.0000    
               rinn:    0.0000    
               qcoe:    0.0000    
               qyuk:    0.0000    
               qwid:   0.10000E-01
                rcs:    0.0000    
            lambdas:    1.0000    
-------------------------------------------------------------------------------
L=0  Nkbl=1  erefs: 0.17977+309
L=1  Nkbl=1  erefs: 0.17977+309
L=2  Nkbl=1  erefs: 0.17977+309
===============================================================================
</basis_specs>

atom: Called for C-gga                 (Z =   6)

read_vps: Pseudopotential generation method:
read_vps: ATM 3.2.2 Troullier-Martins                       
Valence charge for ps generation:    4.00000

xc_check: Exchange-correlation functional:
xc_check: GGA Perdew, Burke & Ernzerhof 1996
V l=0 = -2*Zval/r beyond r=  1.5227
V l=1 = -2*Zval/r beyond r=  1.5227
V l=2 = -2*Zval/r beyond r=  1.5227
All V_l potentials equal beyond r=  1.4851
This should be close to max(r_c) in ps generation
All pots = -2*Zval/r beyond r=  1.5227

VLOCAL1: 99.0% of the norm of Vloc inside     19.682 Ry
VLOCAL1: 99.9% of the norm of Vloc inside     44.856 Ry
atom: Maximum radius for 4*pi*r*r*local-pseudopot. charge    1.79142
atom: Maximum radius for r*vlocal+2*Zval:    1.54183
GHOST: No ghost state for L =  0
GHOST: No ghost state for L =  1
GHOST: No ghost state for L =  2

KBgen: Kleinman-Bylander projectors: 
   l= 0   rc=  1.661951   el= -1.010689   Ekb=  5.289847   kbcos=  0.316429
   l= 1   rc=  1.661951   el= -0.388490   Ekb= -4.102504   kbcos= -0.351025
   l= 2   rc=  1.747182   el=  0.001971   Ekb= -1.006005   kbcos= -0.008530

KBgen: Total number of Kleinman-Bylander projectors:    9
atom: -------------------------------------------------------------------------

atom: SANKEY-TYPE ORBITALS:

SPLIT: Orbitals with angular momentum L= 0

SPLIT: Basis orbitals for state 2s

SPLIT: PAO cut-off radius determined from an
SPLIT: energy shift=  0.000735 Ry

   izeta = 1
                 lambda =    1.000000
                     rc =    5.948690
                 energy =   -1.010099
                kinetic =    0.827121
    potential(screened) =   -1.837220
       potential(ionic) =   -5.392783

SPLIT: Orbitals with angular momentum L= 1

SPLIT: Basis orbitals for state 2p

SPLIT: PAO cut-off radius determined from an
SPLIT: energy shift=  0.000735 Ry

   izeta = 1
                 lambda =    1.000000
                     rc =    7.638387
                 energy =   -0.387843
                kinetic =    2.314739
    potential(screened) =   -2.702582
       potential(ionic) =   -6.092371

POLgen: Perturbative polarization orbital with L=  2

POLgen: Polarization orbital for state 2p

   izeta = 1
                     rc =    7.638387
                 energy =    0.921402
                kinetic =    1.955040
    potential(screened) =   -1.033637
       potential(ionic) =   -3.679558
atom: Total number of Sankey-type orbitals:  9

atm_pop: Valence configuration (for local Pseudopot. screening):
 2s( 2.00)                                                            
 2p( 2.00)                                                            
Vna: chval, zval:    4.00000   4.00000

Vna:  Cut-off radius for the neutral-atom potential:   7.638387

atom: _________________________________________________________________________

prinput: Basis input ----------------------------------------------------------

PAO.BasisType split     

%block ChemicalSpeciesLabel
    1    3 Li-gga                  # Species index, atomic number, species label
    2    6 C-gga                   # Species index, atomic number, species label
%endblock ChemicalSpeciesLabel

%block PAO.Basis                 # Define Basis set
Li-gga                1                    # Species label, number of l-shells
 n=2   0   1 P   1                   # n, l, Nzeta, Polarization, NzetaPol
  11.897   
   1.000   
C-gga                 2                    # Species label, number of l-shells
 n=2   0   1                         # n, l, Nzeta 
   5.949   
   1.000   
 n=2   1   1 P   1                   # n, l, Nzeta, Polarization, NzetaPol
   7.638   
   1.000   
%endblock PAO.Basis

prinput: ----------------------------------------------------------------------

coor:   Atomic-coordinates input format  =     Cartesian coordinates
coor:                                          (in Angstroms)

siesta: Atomic coordinates (Bohr) and species
siesta:      0.00000   0.00000   0.00000  2        1
siesta:      2.68614   0.00000   3.78234  1        2
siesta:      5.38035   0.00000  11.34702  1        3
siesta:     -1.34307   2.32627   3.78234  1        4
siesta:     -2.69017   4.65952  11.34702  1        5
siesta:      2.69017   4.65952   3.78234  1        6
siesta:      1.34307   2.32627  11.34702  1        7
siesta:      5.38035   0.00000   3.78234  1        8
siesta:      2.68614   0.00000  11.34702  1        9
siesta:     -2.69017   4.65952   3.78234  1       10
siesta:     -1.34307   2.32627  11.34702  1       11
siesta:      1.34307   2.32627   3.78234  1       12
siesta:      2.69017   4.65952  11.34702  1       13

siesta: System type = bulk      

initatomlists: Number of atoms, orbitals, and projectors:     13    57   117

siesta: ******************** Simulation parameters ****************************
siesta:
siesta: The following are some of the parameters of the simulation.
siesta: A complete list of the parameters used, including default values,
siesta: can be found in file out.fdf
siesta:
redata: Spin configuration                          = none
redata: Number of spin components                   = 1
redata: Time-Reversal Symmetry                      = T
redata: Spin spiral                                 = F
redata: Long output                                 =   F
redata: Number of Atomic Species                    =        2
redata: Charge density info will appear in .RHO file
redata: Write Mulliken Pop.                         = NO
redata: Matel table size (NRTAB)                    =     1024
redata: Mesh Cutoff                                 =   300.0000 Ry
redata: Net charge of the system                    =     0.0000 |e|
redata: Min. number of SCF Iter                     =        0
redata: Max. number of SCF Iter                     =     1000
redata: SCF convergence failure will abort job
redata: SCF mix quantity                            = Hamiltonian
redata: Mix DM or H after convergence               =   F
redata: Recompute H after scf cycle                 =   F
redata: Mix DM in first SCF step                    =   T
redata: Write Pulay info on disk                    =   F
redata: New DM Occupancy tolerance                  = 0.000000000001
redata: No kicks to SCF
redata: DM Mixing Weight for Kicks                  =     0.5000
redata: Require Harris convergence for SCF          =   F
redata: Harris energy tolerance for SCF             =     0.000100 eV
redata: Require DM convergence for SCF              =   T
redata: DM tolerance for SCF                        =     0.001000
redata: Require EDM convergence for SCF             =   F
redata: EDM tolerance for SCF                       =     0.005000 eV
redata: Require H convergence for SCF               =   T
redata: Hamiltonian tolerance for SCF               =     0.001000 eV
redata: Require (free) Energy convergence for SCF   =   T
redata: (free) Energy tolerance for SCF             =     0.001000 eV
redata: Using Saved Data (generic)                  =   F
redata: Use continuation files for DM               =   F
redata: Neglect nonoverlap interactions             =   F
redata: Method of Calculation                       = Diagonalization
redata: Electronic Temperature                      =   299.9869 K
redata: Fix the spin of the system                  =   F
redata: Dynamics option                             = Single-point calculation
mix.SCF: Pulay mixing                            = Pulay
mix.SCF:    Variant                              = stable
mix.SCF:    History steps                        = 4
mix.SCF:    Linear mixing weight                 =     0.250000
mix.SCF:    Mixing weight                        =     0.250000
mix.SCF:    SVD condition                        = 0.1000E-07
redata: ***********************************************************************

%block SCF.Mixers
  Pulay
%endblock SCF.Mixers

%block SCF.Mixer.Pulay
  # Mixing method
  method pulay
  variant stable

  # Mixing options
  weight 0.2500
  weight.linear 0.2500
  history 4
%endblock SCF.Mixer.Pulay

DM_history_depth set to one: no extrapolation allowed by default for geometry relaxation
Size of DM history Fstack: 1
Total number of electrons:    16.000000
Total ionic charge:    16.000000

* ProcessorY, Blocksize:    3   1


* Orbital distribution balance (max,min):     5     4

k-point displ. along   1 input, could be:     0.00    0.50
k-point displ. along   2 input, could be:     0.00    0.50
k-point displ. along   3 input, could be:     0.00    0.50
 Kpoints in:           48 . Kpoints trimmed:           44

siesta: k-grid: Number of k-points =    44
siesta: k-grid: Cutoff (effective) =     8.537 Ang
siesta: k-grid: Supercell and displacements
siesta: k-grid:    4   0   0      0.000
siesta: k-grid:    0   4   0      0.000
siesta: k-grid:    0   0   4      0.000

diag: Algorithm                                     = Expert
diag: Parallel over k                               =   T
diag: Use parallel 2D distribution                  =   T
diag: Parallel block-size                           = 1
diag: Parallel distribution                         =     3 x     4
diag: Used triangular part                          = Lower
diag: Absolute tolerance                            =  0.100E-15
diag: Orthogonalization factor                      =  0.100E-05
diag: Memory factor                                 =  1.0000

superc: Internal auxiliary supercell:     9 x     9 x     5  =     405
superc: Number of atoms, orbitals, and projectors:   5265  23085  47385


ts: **************************************************************
ts: Save H and S matrices                           =    F
ts: Save DM and EDM matrices                        =    F
ts: Only save the overlap matrix S                  =    F
ts: **************************************************************

************************ Begin: TS CHECKS AND WARNINGS ************************
************************ End: TS CHECKS AND WARNINGS **************************


                     ====================================
                        Single-point calculation
                     ====================================

outcoor: Atomic coordinates (Ang):                          
    0.00000000    0.00000000    0.00000000   2       1  C-gga
    1.42144380    0.00000000    2.00152650   1       2  Li-gga
    2.84715620    0.00000000    6.00457950   1       3  Li-gga
   -0.71072190    1.23100644    2.00152650   1       4  Li-gga
   -1.42357810    2.46570960    6.00457950   1       5  Li-gga
    1.42357810    2.46570960    2.00152650   1       6  Li-gga
    0.71072190    1.23100644    6.00457950   1       7  Li-gga
    2.84715620    0.00000000    2.00152650   1       8  Li-gga
    1.42144380    0.00000000    6.00457950   1       9  Li-gga
   -1.42357810    2.46570960    2.00152650   1      10  Li-gga
   -0.71072190    1.23100644    6.00457950   1      11  Li-gga
    0.71072190    1.23100644    2.00152650   1      12  Li-gga
    1.42357810    2.46570960    6.00457950   1      13  Li-gga

superc: Internal auxiliary supercell:     9 x     9 x     5  =     405
superc: Number of atoms, orbitals, and projectors:   5265  23085  47385

outcell: Unit cell vectors (Ang):
        4.268600    0.000000    0.000000
       -2.134300    3.696716    0.000000
        0.000000    0.000000    8.006106

outcell: Cell vector modules (Ang)   :    4.268600    4.268600    8.006106
outcell: Cell angles (23,13,12) (deg):     90.0000     90.0000    120.0000
outcell: Cell volume (Ang**3)        :    126.3348
<dSpData1D:S at geom step 0
  <sparsity:sparsity for geom step 0
    nrows_g=57 nrows=5 sparsity=7.5165 nnzs=24421, refcount: 7>
  <dData1D:(new from dSpData1D) n=24421, refcount: 1>
refcount: 1>
new_DM -- step:     1
Initializing Density Matrix...
DM filled with atomic data:
<dSpData2D:DM initialized from atoms
  <sparsity:sparsity for geom step 0
    nrows_g=57 nrows=5 sparsity=7.5165 nnzs=24421, refcount: 8>
  <dData2D:DM n=24421 m=1, refcount: 1>
refcount: 1>
No. of atoms with KB's overlaping orbs in proc 0. Max # of overlaps:     340     808
New grid distribution:   1
           1       1:   20    1:    7    1:   12
           2       1:   20    1:    7   13:   23
           3       1:   20    1:    7   24:   34
           4       1:   20    1:    7   35:   45
           5       1:   20    8:   14    1:   12
           6       1:   20    8:   14   13:   23
           7       1:   20    8:   14   24:   34
           8       1:   20    8:   14   35:   45
           9       1:   20   15:   20    1:   12
          10       1:   20   15:   20   13:   23
          11       1:   20   15:   20   24:   34
          12       1:   20   15:   20   35:   45

InitMesh: MESH =    40 x    40 x    90 =      144000
InitMesh: (bp) =    20 x    20 x    45 =       18000
InitMesh: Mesh cutoff (required, used) =   300.000   323.586 Ry
ExtMesh (bp) on 0 =   160 x   147 x   156 =     3669120
New grid distribution:   2
           1       1:   10    8:   20    1:   11
           2      11:   20    8:   20    1:   11
           3       1:   20    1:    7   23:   34
           4       1:   20    1:    7   35:   45
           5       1:   20    1:    7    1:   11
           6      11:   20    8:   20   12:   22
           7       1:   10    8:   20   23:   34
           8      11:   20    8:   20   35:   45
           9       1:   20    1:    7   12:   22
          10       1:   10    8:   20   12:   22
          11      11:   20    8:   20   23:   34
          12       1:   10    8:   20   35:   45
New grid distribution:   3
           1       1:   20    1:    7    1:   12
           2       1:   10    8:   20   35:   45
           3       1:   20    1:    7   24:   34
           4       1:   10    8:   20   13:   23
           5      11:   20    8:   20    1:   12
           6       1:   20    1:    7   35:   45
           7      11:   20    8:   20   24:   34
           8      11:   20    8:   20   13:   23
           9       1:   10    8:   20    1:   12
          10       1:   20    1:    7   13:   23
          11       1:   10    8:   20   24:   34
          12      11:   20    8:   20   35:   45
Setting up quadratic distribution...
ExtMesh (bp) on 0 =   150 x   153 x   155 =     3557250
PhiOnMesh: Number of (b)points on node 0 =                 1430
PhiOnMesh: nlist on node 0 =               626700

stepf: Fermi-Dirac step function

siesta: Program's energy decomposition (eV):
siesta: Ebs     =      -207.920478
siesta: Eions   =       380.620085
siesta: Ena     =       117.224464
siesta: Ekin    =       172.574630
siesta: Enl     =        23.040521
siesta: Eso     =         0.000000
siesta: Edftu   =         0.000000
siesta: DEna    =         7.825641
siesta: DUscf   =         3.738958
siesta: DUext   =         0.000000
siesta: Exc     =      -154.013291
siesta: eta*DQ  =         0.000000
siesta: Emadel  =         0.000000
siesta: Emeta   =         0.000000
siesta: Emolmec =        -5.544006
siesta: Ekinion =         0.000000
siesta: Eharris =      -202.986424
siesta: Etot    =      -215.773169
siesta: FreeEng =      -215.787872

        iscf     Eharris(eV)        E_KS(eV)     FreeEng(eV)     dDmax    Ef(eV) dHmax(eV)
   scf:    1     -202.986424     -215.773169     -215.787872  1.353422-11.541624  3.510955
timer: Routine,Calls,Time,% = IterSCF        1       8.560  52.07
   scf:    2     -177.607380     -205.887613     -205.894886  0.527272-11.401515 13.719140
   scf:    3     -212.355729     -216.802139     -216.819549  0.540015-11.661008  2.705176
   scf:    4     -217.255927     -217.250866     -217.267262  0.092638-11.666554  0.136703
   scf:    5     -217.252876     -217.253149     -217.269464  0.011767-11.671004  0.202642
   scf:    6     -217.255547     -217.254488     -217.270709  0.004853-11.669979  0.099269
   scf:    7     -217.255662     -217.255116     -217.271317  0.007282-11.669881  0.027349
   scf:    8     -217.255233     -217.255187     -217.271357  0.000676-11.669335  0.006921
   scf:    9     -217.255190     -217.255189     -217.271359  0.000216-11.669555  0.007148
   scf:   10     -217.255220     -217.255207     -217.271361  0.000328-11.669687  0.003553
   scf:   11     -217.255196     -217.255202     -217.271362  0.000148-11.669699  0.000406

SCF Convergence by FreeE+DM+H criterion
|FreeE_i-FreeE_(i-1)| (eV) <     0.00100000
max |DM_out - DM_in|         :     0.0001478157
max |H_out - H_in|      (eV) :     0.0004055358
SCF cycle converged after 11 iterations

Using DM_out to compute the final energy and forces
No. of atoms with KB's overlaping orbs in proc 0. Max # of overlaps:     340     808

MM-Stress (kbar):       12.50       12.50       34.29       -0.00        0.00        0.00

siesta: E_KS(eV) =             -217.2552

siesta: E_KS - E_eggbox =      -217.2552

siesta: Atomic forces (eV/Ang):
     1   -0.000000    0.000000    0.000000
     2   -0.022631   -0.000008   -0.545583
     3    0.022631    0.000008    0.545583
     4    0.011309   -0.019603   -0.545583
     5   -0.011309    0.019603    0.545583
     6    0.011282    0.019541   -0.545632
     7   -0.011282   -0.019542    0.545632
     8    0.022631    0.000008   -0.545583
     9   -0.022631   -0.000008    0.545583
    10   -0.011309    0.019603   -0.545583
    11    0.011309   -0.019603    0.545583
    12   -0.011282   -0.019541   -0.545632
    13    0.011282    0.019542    0.545632
----------------------------------------
   Tot   -0.000000    0.000000    0.000000
----------------------------------------
   Max    0.545632
   Res    0.302904    sqrt( Sum f_i^2 / 3N )
----------------------------------------
   Max    0.545632    constrained

Stress tensor Voigt[x,y,z,yz,xz,xy] (kbar):    -1083.75    -1083.75      413.64       -0.00        0.00       -0.01
(Free)E + p*V (eV/cell)     -171.1734
Target enthalpy (eV/cell)     -217.2714

siesta: Eigenvalues (eV):
  ik is       eps
   1  1  -20.7267  -15.4046  -14.0211  -13.1629  -12.9354  -12.3716  -12.1548  -11.6614  -11.5124  -10.5680
          -8.0055   -7.8023   -7.7435   -6.2324   -6.1093   -3.9478   -3.7134   -3.6753   -3.2645   -1.9829
   -0.8260    0.2863    0.7336    1.1686    1.4452    2.1741    2.7211    3.0391    5.7477    6.5643
    8.4882    8.6927   10.3849   10.7621   11.6651   13.9290   16.3096   18.3182   18.6838   18.6849
   19.6414   20.3705   21.3437   21.9818   22.3778   23.5006   23.5484   24.4432   26.0100   34.3502
   38.0029   38.8615   43.4168   46.2858   46.7304   47.8463   48.2238
   2  1  -20.8725  -15.5472  -14.1521  -13.3787  -12.5447  -12.1257  -12.0014  -11.8000  -11.4592  -11.3077
          -8.5819   -6.7220   -6.5743   -6.1139   -4.8346   -4.2993   -3.9105   -3.7092   -3.0964   -2.6051
   -2.2360   -1.7573   -1.4392   -1.3385   -0.2288    2.1697    2.4062    5.1421    8.0414    9.7597
   10.7342   11.1690   11.5953   12.7005   12.7507   16.0102   16.3895   18.4529   19.0115   19.2917
   20.8608   22.7383   24.0484   24.8950   25.1382   25.5166   26.1994   31.7236   34.9468   34.9839
   44.9385   46.3609   47.0511   47.9307   50.1546   52.5911   57.2616
   3  1  -20.8725  -15.5472  -14.1521  -13.3787  -12.5447  -12.1257  -12.0014  -11.8001  -11.4592  -11.3077
          -8.5819   -6.7221   -6.5743   -6.1139   -4.8346   -4.2993   -3.9105   -3.7092   -3.0964   -2.6050
   -2.2360   -1.7573   -1.4392   -1.3385   -0.2287    2.1697    2.4061    5.1421    8.0414    9.7597
   10.7342   11.1691   11.5953   12.7004   12.7508   16.0102   16.3896   18.4528   19.0116   19.2917
   20.8607   22.7383   24.0482   24.8949   25.1387   25.5166   26.1994   31.7237   34.9468   34.9836
   44.9384   46.3608   47.0511   47.9308   50.1546   52.5911   57.2614
   4  1  -20.7267  -15.4046  -14.0211  -13.1630  -12.9353  -12.3716  -12.1548  -11.6613  -11.5125  -10.5680
          -8.0054   -7.8024   -7.7435   -6.2324   -6.1093   -3.9478   -3.7135   -3.6753   -3.2646   -1.9829
   -0.8260    0.2863    0.7336    1.1686    1.4453    2.1740    2.7211    3.0391    5.7477    6.5643
    8.4882    8.6927   10.3849   10.7622   11.6651   13.9290   16.3096   18.3183   18.6838   18.6849
   19.6414   20.3705   21.3437   21.9818   22.3780   23.5006   23.5484   24.4432   26.0096   34.3503
   38.0028   38.8614   43.4167   46.2859   46.7304   47.8464   48.2238
   5  1  -20.8725  -15.5472  -14.1521  -13.3787  -12.5447  -12.1257  -12.0014  -11.8000  -11.4592  -11.3077
          -8.5819   -6.7220   -6.5743   -6.1139   -4.8346   -4.2993   -3.9105   -3.7092   -3.0964   -2.6051
   -2.2360   -1.7573   -1.4392   -1.3385   -0.2288    2.1697    2.4062    5.1421    8.0414    9.7597
   10.7342   11.1690   11.5953   12.7005   12.7507   16.0102   16.3895   18.4529   19.0115   19.2917
   20.8608   22.7383   24.0484   24.8950   25.1382   25.5166   26.1994   31.7236   34.9468   34.9839
   44.9385   46.3609   47.0511   47.9307   50.1546   52.5911   57.2616
   6  1  -20.9304  -15.4663  -14.3551  -12.4865  -12.3526  -11.9850  -11.8880  -11.5976  -11.5974  -11.4801
          -9.0796   -5.3284   -5.1055   -5.1055   -4.5278   -4.5278   -4.1335   -4.1335   -3.5139   -3.5139
   -3.4756   -3.4756    0.8720    0.8720    1.3944    1.3947    1.8951    1.8951    5.7083   12.2725
   12.2726   16.7482   16.7484   18.3884   18.3884   20.6623   20.6624   21.3325   21.3326   23.7247
   24.1322   24.1322   25.2605   31.2165   31.2172   33.1950   33.1951   38.8881   38.8882   39.0717
   40.9059   46.9794   47.2878   48.1040   48.1042   49.2482   49.6756
   7  1  -20.7304  -15.4625  -14.2794  -12.9587  -12.5428  -12.3274  -12.0831  -12.0297  -11.9796  -10.4775
          -8.5027   -7.9458   -7.4339   -6.6377   -5.1476   -4.3120   -3.9415   -2.9632   -2.4223   -1.1449
   -0.8221   -0.2088   -0.0095    0.3887    1.0091    1.4066    1.6636    2.1561    2.3739    4.8381
    9.0754   10.5660   11.1220   11.6563   14.1297   15.2953   16.1430   16.3172   18.1917   18.4567
   18.9396   19.9703   21.0133   21.4308   23.3658   25.2568   25.3712   25.6370   28.0988   32.0361
   44.5366   50.3457   51.4070   54.1596   54.5806   54.7258   54.8173
   8  1  -20.7267  -15.4046  -14.0211  -13.1630  -12.9353  -12.3716  -12.1548  -11.6613  -11.5125  -10.5680
          -8.0054   -7.8024   -7.7435   -6.2324   -6.1093   -3.9478   -3.7135   -3.6753   -3.2646   -1.9829
   -0.8260    0.2863    0.7336    1.1686    1.4453    2.1740    2.7211    3.0391    5.7477    6.5643
    8.4882    8.6927   10.3849   10.7622   11.6651   13.9290   16.3096   18.3183   18.6838   18.6849
   19.6414   20.3705   21.3437   21.9818   22.3780   23.5006   23.5484   24.4432   26.0096   34.3503
   38.0028   38.8614   43.4167   46.2859   46.7304   47.8464   48.2238
   9  1  -20.7267  -15.4046  -14.0211  -13.1630  -12.9353  -12.3716  -12.1548  -11.6613  -11.5125  -10.5680
          -8.0054   -7.8024   -7.7435   -6.2324   -6.1093   -3.9478   -3.7135   -3.6753   -3.2646   -1.9829
   -0.8260    0.2863    0.7336    1.1686    1.4453    2.1740    2.7211    3.0391    5.7477    6.5643
    8.4882    8.6927   10.3849   10.7622   11.6651   13.9290   16.3096   18.3183   18.6838   18.6849
   19.6414   20.3705   21.3437   21.9818   22.3780   23.5006   23.5484   24.4432   26.0096   34.3503
   38.0028   38.8614   43.4167   46.2859   46.7304   47.8464   48.2238
  10  1  -20.7304  -15.4625  -14.2794  -12.9587  -12.5428  -12.3274  -12.0831  -12.0297  -11.9796  -10.4775
          -8.5027   -7.9458   -7.4339   -6.6377   -5.1476   -4.3120   -3.9415   -2.9632   -2.4223   -1.1449
   -0.8221   -0.2088   -0.0095    0.3887    1.0091    1.4066    1.6636    2.1561    2.3739    4.8381
    9.0754   10.5660   11.1220   11.6563   14.1297   15.2953   16.1430   16.3172   18.1917   18.4567
   18.9396   19.9703   21.0133   21.4308   23.3658   25.2568   25.3712   25.6370   28.0988   32.0361
   44.5366   50.3457   51.4070   54.1596   54.5806   54.7258   54.8173
  11  1  -20.7267  -15.4046  -14.0211  -13.1630  -12.9353  -12.3716  -12.1548  -11.6613  -11.5125  -10.5680
          -8.0054   -7.8024   -7.7435   -6.2324   -6.1093   -3.9478   -3.7135   -3.6753   -3.2646   -1.9829
   -0.8260    0.2863    0.7336    1.1686    1.4453    2.1740    2.7211    3.0391    5.7477    6.5643
    8.4882    8.6927   10.3849   10.7622   11.6651   13.9290   16.3096   18.3183   18.6838   18.6849
   19.6414   20.3705   21.3437   21.9818   22.3780   23.5006   23.5484   24.4432   26.0096   34.3503
   38.0028   38.8614   43.4167   46.2859   46.7304   47.8464   48.2238
  12  1  -20.7304  -15.4625  -14.2794  -12.9587  -12.5428  -12.3274  -12.0831  -12.0297  -11.9797  -10.4775
          -8.5027   -7.9458   -7.4337   -6.6377   -5.1477   -4.3120   -3.9415   -2.9632   -2.4224   -1.1449
   -0.8221   -0.2088   -0.0095    0.3887    1.0092    1.4065    1.6636    2.1561    2.3739    4.8381
    9.0753   10.5661   11.1220   11.6564   14.1297   15.2952   16.1430   16.3172   18.1917   18.4567
   18.9396   19.9704   21.0136   21.4308   23.3657   25.2568   25.3711   25.6369   28.0988   32.0356
   44.5365   50.3456   51.4068   54.1596   54.5808   54.7258   54.8174
  13  1  -20.7272  -15.4207  -13.9596  -13.1357  -13.0185  -12.2687  -12.2312  -11.4703  -11.3939  -11.0000
          -8.7382   -7.9988   -7.2778   -6.2499   -5.4853   -4.3403   -3.7936   -3.6070   -2.8056   -2.4457
   -0.3731    0.5165    0.6336    1.1117    1.5294    2.2308    2.8220    2.9156    5.1215    6.4204
    6.4543    8.1896   11.1229   11.5593   12.6839   14.6377   15.4064   17.1038   18.0886   19.0368
   19.7876   20.0471   21.6331   22.0980   22.5647   23.0164   23.2609   24.3761   28.0859   33.8614
   38.1779   39.1569   42.3702   46.4430   46.8598   47.6007   47.9693
  14  1  -20.8762  -15.5476  -14.0048  -13.4687  -12.4232  -12.1025  -12.0136  -11.7965  -11.6841  -11.3125
          -8.3629   -7.3645   -6.1425   -6.0071   -4.6237   -4.4970   -3.8181   -3.7109   -3.4494   -2.7305
   -2.4187   -2.2098   -1.2182   -0.6749   -0.1337    1.2614    2.9084    6.1113    6.3882   10.1382
   10.7660   11.2527   12.6277   12.9257   13.7816   14.4490   17.4087   18.1375   18.7706   20.3061
   21.0667   21.9053   23.6932   25.2033   25.4442   25.5848   26.0659   30.2372   32.5024   38.4340
   43.4926   47.0283   47.8603   49.6391   50.5110   52.2471   57.0416
  15  1  -20.8762  -15.5476  -14.0048  -13.4687  -12.4232  -12.1024  -12.0136  -11.7966  -11.6841  -11.3124
          -8.3628   -7.3645   -6.1425   -6.0071   -4.6237   -4.4969   -3.8181   -3.7109   -3.4494   -2.7305
   -2.4187   -2.2098   -1.2182   -0.6749   -0.1336    1.2614    2.9083    6.1113    6.3882   10.1382
   10.7660   11.2527   12.6277   12.9258   13.7816   14.4489   17.4087   18.1375   18.7705   20.3062
   21.0666   21.9054   23.6931   25.2031   25.4446   25.5848   26.0659   30.2373   32.5023   38.4338
   43.4925   47.0283   47.8604   49.6390   50.5110   52.2471   57.0414
  16  1  -20.7272  -15.4207  -13.9596  -13.1357  -13.0185  -12.2687  -12.2312  -11.4703  -11.3940  -11.0000
          -8.7382   -7.9989   -7.2778   -6.2500   -5.4853   -4.3403   -3.7936   -3.6070   -2.8057   -2.4457
   -0.3730    0.5165    0.6336    1.1117    1.5295    2.2307    2.8220    2.9156    5.1215    6.4204
    6.4543    8.1896   11.1228   11.5593   12.6839   14.6378   15.4064   17.1038   18.0886   19.0367
   19.7877   20.0472   21.6331   22.0983   22.5647   23.0164   23.2609   24.3760   28.0855   33.8615
   38.1778   39.1569   42.3701   46.4430   46.8599   47.6007   47.9693
  17  1  -20.8762  -15.5476  -14.0048  -13.4687  -12.4232  -12.1025  -12.0136  -11.7965  -11.6841  -11.3125
          -8.3629   -7.3645   -6.1425   -6.0071   -4.6237   -4.4970   -3.8181   -3.7109   -3.4494   -2.7305
   -2.4187   -2.2098   -1.2182   -0.6749   -0.1337    1.2614    2.9084    6.1113    6.3882   10.1382
   10.7660   11.2527   12.6277   12.9257   13.7816   14.4490   17.4087   18.1375   18.7706   20.3061
   21.0667   21.9053   23.6932   25.2033   25.4442   25.5848   26.0659   30.2372   32.5024   38.4340
   43.4926   47.0283   47.8603   49.6391   50.5110   52.2471   57.0416
  18  1  -20.9585  -15.3965  -14.3009  -12.6840  -12.1537  -11.9027  -11.8724  -11.5900  -11.5898  -11.5453
          -8.8504   -5.5921   -4.9977   -4.9977   -4.8027   -4.8027   -4.1876   -4.1876   -3.5455   -3.5454
   -2.4761   -2.4761   -0.7382   -0.7382    0.7093    0.7093    2.6859    2.6861    7.0145   14.8127
   14.8128   17.1306   17.1307   19.2141   19.2141   20.9461   20.9462   21.7904   21.7904   23.2322
   23.2323   23.6059   24.6972   31.2149   31.2156   32.8704   32.8705   39.2022   39.2023   40.2089
   40.9150   47.1072   47.4350   47.4860   47.4862   48.6928   49.1030
  19  1  -20.8762  -15.5476  -14.0048  -13.4687  -12.4232  -12.1025  -12.0136  -11.7965  -11.6841  -11.3125
          -8.3629   -7.3645   -6.1425   -6.0071   -4.6237   -4.4970   -3.8181   -3.7109   -3.4494   -2.7305
   -2.4187   -2.2098   -1.2182   -0.6749   -0.1337    1.2614    2.9084    6.1113    6.3882   10.1382
   10.7660   11.2527   12.6277   12.9257   13.7816   14.4490   17.4087   18.1375   18.7706   20.3061
   21.0667   21.9053   23.6932   25.2033   25.4442   25.5848   26.0659   30.2372   32.5024   38.4340
   43.4926   47.0283   47.8603   49.6391   50.5110   52.2471   57.0416
  20  1  -20.7319  -15.4727  -14.2305  -12.9215  -12.7867  -12.1677  -11.9809  -11.9419  -11.8276  -10.9303
          -9.3596   -7.5135   -6.7424   -6.6619   -5.0604   -4.9290   -3.5768   -3.2380   -2.0844   -1.0995
   -0.9667   -0.2822    0.3941    0.5374    0.5628    1.3193    1.3832    1.9135    2.3523    4.1287
   10.2468   11.5327   11.7016   12.8000   13.9641   15.0634   15.1199   17.2341   17.5293   18.1989
   18.6006   19.6673   20.2187   21.5723   24.4478   24.8270   25.6474   25.7789   26.7782   32.0685
   44.7749   51.3581   52.0432   54.0630   54.3888   54.4840   54.6225
  21  1  -20.8762  -15.5476  -14.0048  -13.4687  -12.4232  -12.1024  -12.0136  -11.7966  -11.6841  -11.3124
          -8.3628   -7.3645   -6.1425   -6.0071   -4.6237   -4.4969   -3.8181   -3.7109   -3.4494   -2.7305
   -2.4187   -2.2098   -1.2182   -0.6749   -0.1336    1.2614    2.9083    6.1113    6.3882   10.1382
   10.7660   11.2527   12.6277   12.9258   13.7816   14.4489   17.4087   18.1375   18.7705   20.3062
   21.0666   21.9054   23.6931   25.2031   25.4446   25.5848   26.0659   30.2373   32.5023   38.4338
   43.4925   47.0283   47.8604   49.6390   50.5110   52.2471   57.0414
  22  1  -20.8762  -15.5476  -14.0048  -13.4687  -12.4232  -12.1025  -12.0136  -11.7965  -11.6841  -11.3125
          -8.3629   -7.3645   -6.1425   -6.0071   -4.6237   -4.4970   -3.8181   -3.7109   -3.4494   -2.7305
   -2.4187   -2.2098   -1.2182   -0.6749   -0.1337    1.2614    2.9084    6.1113    6.3882   10.1382
   10.7660   11.2527   12.6277   12.9257   13.7816   14.4490   17.4087   18.1375   18.7706   20.3061
   21.0667   21.9053   23.6932   25.2033   25.4442   25.5848   26.0659   30.2372   32.5024   38.4340
   43.4926   47.0283   47.8603   49.6391   50.5110   52.2471   57.0416
  23  1  -20.7272  -15.4207  -13.9596  -13.1357  -13.0185  -12.2687  -12.2312  -11.4703  -11.3939  -11.0000
          -8.7382   -7.9988   -7.2778   -6.2499   -5.4853   -4.3403   -3.7936   -3.6070   -2.8056   -2.4457
   -0.3731    0.5165    0.6336    1.1117    1.5294    2.2308    2.8220    2.9156    5.1215    6.4204
    6.4543    8.1896   11.1229   11.5593   12.6839   14.6377   15.4064   17.1038   18.0886   19.0368
   19.7876   20.0471   21.6331   22.0980   22.5647   23.0164   23.2609   24.3761   28.0859   33.8614
   38.1779   39.1569   42.3702   46.4430   46.8598   47.6007   47.9693
  24  1  -20.7272  -15.4207  -13.9596  -13.1357  -13.0185  -12.2687  -12.2312  -11.4703  -11.3940  -11.0000
          -8.7382   -7.9989   -7.2778   -6.2500   -5.4853   -4.3403   -3.7936   -3.6070   -2.8057   -2.4457
   -0.3730    0.5165    0.6336    1.1117    1.5295    2.2307    2.8220    2.9156    5.1215    6.4204
    6.4543    8.1896   11.1228   11.5593   12.6839   14.6378   15.4064   17.1038   18.0886   19.0367
   19.7877   20.0472   21.6331   22.0983   22.5647   23.0164   23.2609   24.3760   28.0855   33.8615
   38.1778   39.1569   42.3701   46.4430   46.8599   47.6007   47.9693
  25  1  -20.7272  -15.4207  -13.9596  -13.1357  -13.0185  -12.2687  -12.2312  -11.4703  -11.3940  -11.0000
          -8.7382   -7.9989   -7.2778   -6.2500   -5.4853   -4.3403   -3.7936   -3.6070   -2.8057   -2.4457
   -0.3730    0.5165    0.6336    1.1117    1.5295    2.2307    2.8220    2.9156    5.1215    6.4204
    6.4543    8.1896   11.1228   11.5593   12.6839   14.6378   15.4064   17.1038   18.0886   19.0367
   19.7877   20.0472   21.6331   22.0983   22.5647   23.0164   23.2609   24.3760   28.0855   33.8615
   38.1778   39.1569   42.3701   46.4430   46.8599   47.6007   47.9693
  26  1  -20.7319  -15.4727  -14.2305  -12.9215  -12.7867  -12.1677  -11.9809  -11.9419  -11.8276  -10.9303
          -9.3596   -7.5135   -6.7424   -6.6619   -5.0604   -4.9290   -3.5768   -3.2380   -2.0844   -1.0995
   -0.9667   -0.2822    0.3941    0.5374    0.5628    1.3193    1.3832    1.9135    2.3523    4.1287
   10.2468   11.5327   11.7016   12.8000   13.9641   15.0634   15.1199   17.2341   17.5293   18.1989
   18.6006   19.6673   20.2187   21.5723   24.4478   24.8270   25.6474   25.7789   26.7782   32.0685
   44.7750   51.3581   52.0432   54.0630   54.3888   54.4840   54.6225
  27  1  -20.7272  -15.4207  -13.9596  -13.1357  -13.0185  -12.2687  -12.2312  -11.4703  -11.3940  -11.0000
          -8.7382   -7.9989   -7.2778   -6.2500   -5.4853   -4.3403   -3.7936   -3.6070   -2.8057   -2.4457
   -0.3730    0.5165    0.6336    1.1117    1.5295    2.2307    2.8220    2.9156    5.1215    6.4204
    6.4543    8.1896   11.1228   11.5593   12.6839   14.6378   15.4064   17.1038   18.0886   19.0367
   19.7877   20.0472   21.6331   22.0983   22.5647   23.0164   23.2609   24.3760   28.0855   33.8615
   38.1778   39.1569   42.3701   46.4430   46.8599   47.6007   47.9693
  28  1  -20.7319  -15.4727  -14.2305  -12.9215  -12.7867  -12.1677  -11.9810  -11.9419  -11.8276  -10.9303
          -9.3596   -7.5135   -6.7423   -6.6619   -5.0604   -4.9290   -3.5768   -3.2379   -2.0845   -1.0995
   -0.9667   -0.2822    0.3942    0.5374    0.5628    1.3193    1.3833    1.9135    2.3522    4.1287
   10.2467   11.5328   11.7016   12.8000   13.9640   15.0635   15.1199   17.2342   17.5293   18.1988
   18.6006   19.6673   20.2186   21.5726   24.4477   24.8269   25.6474   25.7789   26.7782   32.0680
   44.7749   51.3580   52.0432   54.0631   54.3889   54.4840   54.6226
  29  1  -20.7274  -15.4362  -13.8927  -13.1145  -13.1042  -12.3660  -11.7954  -11.6526  -11.2937  -11.2725
          -9.1968   -8.1976   -7.0558   -6.2553   -4.9045   -4.5624   -3.6651   -3.5102   -3.1377   -2.4809
    0.0078    0.3960    0.9572    1.2051    1.6983    1.8245    2.7428    3.9399    4.1260    4.3998
    6.9199    7.5592   12.0194   12.1738   13.9958   14.3579   15.5730   15.9302   16.8810   17.3667
   19.7070   20.8179   22.2789   22.4573   22.7751   22.8518   22.8673   24.4079   29.5954   33.2983
   38.3811   40.2903   40.4550   46.8707   47.0873   47.2877   47.4274
  30  1  -20.8783  -15.5493  -13.7890  -13.6120  -12.2134  -12.0927  -12.0596  -11.9451  -11.7929  -11.3293
          -7.9935   -7.8890   -6.1679   -5.5170   -4.9945   -4.3218   -3.9528   -3.7623   -3.3739   -3.0756
   -2.5669   -2.2733   -0.6061   -0.5824   -0.0200    0.5844    3.4518    4.9279    7.5724    9.8926
   10.5223   10.8997   12.3650   12.6038   15.6488   16.0030   16.2074   18.5808   18.6668   20.5878
   21.5751   21.5796   22.8707   25.5671   25.6416   25.6485   25.9492   28.7091   31.6473   40.0895
   42.7133   47.5059   47.6098   51.2926   51.3667   53.7564   55.7959
  31  1  -20.8783  -15.5493  -13.7890  -13.6119  -12.2134  -12.0927  -12.0596  -11.9451  -11.7930  -11.3292
          -7.9934   -7.8890   -6.1679   -5.5170   -4.9944   -4.3218   -3.9528   -3.7623   -3.3739   -3.0757
   -2.5669   -2.2733   -0.6061   -0.5824   -0.0201    0.5845    3.4518    4.9278    7.5723    9.8926
   10.5223   10.8997   12.3650   12.6039   15.6489   16.0031   16.2074   18.5808   18.6666   20.5879
   21.5752   21.5794   22.8706   25.5671   25.6415   25.6490   25.9492   28.7092   31.6473   40.0892
   42.7132   47.5060   47.6098   51.2926   51.3668   53.7563   55.7958
  32  1  -20.7274  -15.4362  -13.8927  -13.1145  -13.1042  -12.3660  -11.7954  -11.6526  -11.2938  -11.2725
          -9.1968   -8.1976   -7.0557   -6.2553   -4.9045   -4.5624   -3.6651   -3.5101   -3.1377   -2.4810
    0.0078    0.3960    0.9572    1.2051    1.6983    1.8244    2.7428    3.9399    4.1261    4.3997
    6.9199    7.5592   12.0193   12.1738   13.9958   14.3578   15.5730   15.9302   16.8810   17.3667
   19.7069   20.8179   22.2794   22.4573   22.7751   22.8518   22.8672   24.4078   29.5950   33.2984
   38.3810   40.2902   40.4549   46.8708   47.0874   47.2878   47.4275
  33  1  -20.8783  -15.5493  -13.7890  -13.6120  -12.2134  -12.0927  -12.0596  -11.9451  -11.7929  -11.3293
          -7.9935   -7.8890   -6.1679   -5.5170   -4.9945   -4.3218   -3.9528   -3.7623   -3.3739   -3.0756
   -2.5669   -2.2733   -0.6061   -0.5824   -0.0200    0.5844    3.4518    4.9279    7.5724    9.8926
   10.5223   10.8997   12.3650   12.6038   15.6488   16.0030   16.2074   18.5808   18.6668   20.5878
   21.5751   21.5796   22.8707   25.5671   25.6416   25.6485   25.9492   28.7091   31.6473   40.0895
   42.7133   47.5059   47.6098   51.2926   51.3667   53.7564   55.7959
  34  1  -20.9811  -15.3496  -14.2221  -12.7878  -12.0517  -11.9061  -11.7251  -11.7057  -11.5823  -11.5822
          -8.6131   -5.8442   -4.9342   -4.9342   -4.7693   -4.7693   -4.5856   -4.5856   -2.7617   -2.7617
   -1.9378   -1.9378   -1.1656   -1.1656   -0.9581   -0.9580    3.2296    3.2299    8.2471   17.4759
   17.4759   17.6423   17.6425   20.6841   20.6842   20.9488   20.9488   21.4299   21.4299   22.2602
   22.2603   23.7630   23.8364   31.2109   31.2117   32.5545   32.5546   39.5306   39.5308   40.7915
   41.0950   46.8549   46.8551   47.6238   47.7434   48.0399   48.0685
  35  1  -20.8783  -15.5493  -13.7890  -13.6120  -12.2134  -12.0927  -12.0596  -11.9451  -11.7929  -11.3293
          -7.9935   -7.8890   -6.1679   -5.5170   -4.9945   -4.3218   -3.9528   -3.7623   -3.3739   -3.0756
   -2.5669   -2.2733   -0.6061   -0.5824   -0.0200    0.5844    3.4518    4.9279    7.5724    9.8926
   10.5223   10.8997   12.3650   12.6038   15.6488   16.0030   16.2074   18.5808   18.6668   20.5878
   21.5751   21.5796   22.8707   25.5671   25.6416   25.6485   25.9492   28.7091   31.6473   40.0895
   42.7133   47.5059   47.6098   51.2926   51.3667   53.7564   55.7959
  36  1  -20.7330  -15.4833  -14.1737  -13.1197  -12.5313  -12.2786  -11.9821  -11.7790  -11.4468  -11.4355
          -9.9780   -6.9265   -6.6848   -6.3634   -5.9092   -4.3623   -4.3511   -1.9811   -1.9183   -1.3874
   -1.2889   -0.6977   -0.0534    0.7652    0.9216    1.1643    1.3160    2.3348    2.6452    2.7975
   12.0153   12.0548   12.2970   13.3282   13.8575   14.8651   15.4786   16.3906   16.6523   17.5135
   19.0467   19.0554   19.9087   21.9770   24.3933   25.4689   25.4840   25.6055   26.0106   32.2449
   44.9026   52.8998   53.1226   53.5039   53.9784   54.1468   54.2565
  37  1  -20.8783  -15.5493  -13.7890  -13.6119  -12.2134  -12.0927  -12.0596  -11.9451  -11.7930  -11.3292
          -7.9934   -7.8890   -6.1679   -5.5170   -4.9944   -4.3218   -3.9528   -3.7623   -3.3739   -3.0757
   -2.5669   -2.2733   -0.6061   -0.5824   -0.0201    0.5845    3.4518    4.9278    7.5723    9.8926
   10.5223   10.8997   12.3650   12.6039   15.6489   16.0031   16.2074   18.5808   18.6666   20.5879
   21.5752   21.5794   22.8706   25.5671   25.6415   25.6490   25.9492   28.7092   31.6473   40.0892
   42.7132   47.5060   47.6098   51.2926   51.3668   53.7563   55.7958
  38  1  -20.8783  -15.5493  -13.7890  -13.6120  -12.2134  -12.0927  -12.0596  -11.9451  -11.7929  -11.3293
          -7.9935   -7.8890   -6.1679   -5.5170   -4.9945   -4.3218   -3.9528   -3.7623   -3.3739   -3.0756
   -2.5669   -2.2733   -0.6061   -0.5824   -0.0200    0.5844    3.4518    4.9279    7.5724    9.8926
   10.5223   10.8997   12.3650   12.6038   15.6488   16.0030   16.2074   18.5808   18.6668   20.5878
   21.5751   21.5796   22.8707   25.5671   25.6416   25.6485   25.9492   28.7091   31.6473   40.0895
   42.7133   47.5059   47.6098   51.2926   51.3667   53.7564   55.7959
  39  1  -20.7274  -15.4362  -13.8927  -13.1145  -13.1042  -12.3660  -11.7954  -11.6526  -11.2937  -11.2725
          -9.1968   -8.1976   -7.0558   -6.2553   -4.9045   -4.5624   -3.6651   -3.5102   -3.1377   -2.4809
    0.0078    0.3960    0.9572    1.2051    1.6983    1.8245    2.7428    3.9399    4.1260    4.3998
    6.9199    7.5592   12.0194   12.1738   13.9958   14.3579   15.5730   15.9302   16.8810   17.3667
   19.7070   20.8179   22.2789   22.4573   22.7751   22.8518   22.8673   24.4079   29.5954   33.2983
   38.3811   40.2903   40.4550   46.8707   47.0873   47.2877   47.4274
  40  1  -20.7274  -15.4362  -13.8927  -13.1145  -13.1042  -12.3660  -11.7954  -11.6526  -11.2938  -11.2725
          -9.1968   -8.1976   -7.0557   -6.2553   -4.9045   -4.5624   -3.6651   -3.5101   -3.1377   -2.4810
    0.0078    0.3960    0.9572    1.2051    1.6983    1.8244    2.7428    3.9399    4.1261    4.3997
    6.9199    7.5592   12.0193   12.1738   13.9958   14.3578   15.5730   15.9302   16.8810   17.3667
   19.7069   20.8179   22.2794   22.4573   22.7751   22.8518   22.8672   24.4078   29.5950   33.2984
   38.3810   40.2902   40.4549   46.8708   47.0874   47.2878   47.4275
  41  1  -20.7274  -15.4362  -13.8927  -13.1145  -13.1042  -12.3660  -11.7954  -11.6526  -11.2938  -11.2725
          -9.1968   -8.1976   -7.0557   -6.2553   -4.9045   -4.5624   -3.6651   -3.5101   -3.1377   -2.4810
    0.0078    0.3960    0.9572    1.2051    1.6983    1.8244    2.7428    3.9399    4.1261    4.3997
    6.9199    7.5592   12.0193   12.1738   13.9958   14.3578   15.5730   15.9302   16.8810   17.3667
   19.7069   20.8179   22.2794   22.4573   22.7751   22.8518   22.8672   24.4078   29.5950   33.2984
   38.3810   40.2902   40.4549   46.8708   47.0874   47.2878   47.4275
  42  1  -20.7330  -15.4833  -14.1737  -13.1197  -12.5313  -12.2786  -11.9821  -11.7790  -11.4468  -11.4355
          -9.9780   -6.9265   -6.6848   -6.3634   -5.9092   -4.3623   -4.3511   -1.9811   -1.9183   -1.3874
   -1.2889   -0.6977   -0.0534    0.7652    0.9216    1.1643    1.3160    2.3348    2.6452    2.7975
   12.0153   12.0548   12.2970   13.3282   13.8575   14.8651   15.4786   16.3906   16.6523   17.5135
   19.0467   19.0554   19.9087   21.9770   24.3933   25.4689   25.4840   25.6055   26.0106   32.2449
   44.9026   52.8998   53.1226   53.5039   53.9784   54.1468   54.2565
  43  1  -20.7274  -15.4362  -13.8927  -13.1145  -13.1042  -12.3660  -11.7954  -11.6526  -11.2938  -11.2725
          -9.1968   -8.1976   -7.0557   -6.2553   -4.9045   -4.5624   -3.6651   -3.5101   -3.1377   -2.4810
    0.0078    0.3960    0.9572    1.2051    1.6983    1.8244    2.7428    3.9399    4.1261    4.3997
    6.9199    7.5592   12.0193   12.1738   13.9958   14.3578   15.5730   15.9302   16.8810   17.3667
   19.7069   20.8179   22.2794   22.4573   22.7751   22.8518   22.8672   24.4078   29.5950   33.2984
   38.3810   40.2902   40.4549   46.8708   47.0874   47.2878   47.4275
  44  1  -20.7330  -15.4833  -14.1737  -13.1197  -12.5313  -12.2786  -11.9822  -11.7790  -11.4468  -11.4355
          -9.9780   -6.9264   -6.6848   -6.3633   -5.9092   -4.3623   -4.3511   -1.9811   -1.9185   -1.3874
   -1.2889   -0.6977   -0.0534    0.7653    0.9216    1.1643    1.3159    2.3348    2.6451    2.7975
   12.0153   12.0547   12.2970   13.3282   13.8575   14.8651   15.4786   16.3906   16.6522   17.5136
   19.0468   19.0554   19.9086   21.9774   24.3933   25.4689   25.4840   25.6055   26.0106   32.2444
   44.9025   52.8998   53.1225   53.5039   53.9784   54.1469   54.2566
siesta: Fermi energy =     -11.669699 eV

siesta: Program's energy decomposition (eV):
siesta: Ebs     =      -224.494290
siesta: Eions   =       380.620085
siesta: Ena     =       117.224464
siesta: Ekin    =       167.982583
siesta: Enl     =        25.276962
siesta: Eso     =         0.000000
siesta: Edftu   =         0.000000
siesta: DEna    =         9.436728
siesta: DUscf   =         1.714530
siesta: DUext   =         0.000000
siesta: Exc     =      -152.726378
siesta: eta*DQ  =         0.000000
siesta: Emadel  =         0.000000
siesta: Emeta   =         0.000000
siesta: Emolmec =        -5.544006
siesta: Ekinion =         0.000000
siesta: Eharris =      -217.255196
siesta: Etot    =      -217.255202
siesta: FreeEng =      -217.271362

siesta: Final energy (eV):
siesta:  Band Struct. =    -224.494290
siesta:       Kinetic =     167.982583
siesta:       Hartree =      70.257291
siesta:       Edftu   =       0.000000
siesta:       Eso     =       0.000000
siesta:    Ext. field =       0.000000
siesta:   Exch.-corr. =    -152.726378
siesta:  Ion-electron =    -374.231464
siesta:       Ion-ion =      77.006773
siesta:       Ekinion =       0.000000
siesta:         Total =    -217.255202
siesta:         Fermi =     -11.669699

siesta: Atomic forces (eV/Ang):
siesta:      1   -0.000000    0.000000    0.000000
siesta:      2   -0.022631   -0.000008   -0.545583
siesta:      3    0.022631    0.000008    0.545583
siesta:      4    0.011309   -0.019603   -0.545583
siesta:      5   -0.011309    0.019603    0.545583
siesta:      6    0.011282    0.019541   -0.545632
siesta:      7   -0.011282   -0.019542    0.545632
siesta:      8    0.022631    0.000008   -0.545583
siesta:      9   -0.022631   -0.000008    0.545583
siesta:     10   -0.011309    0.019603   -0.545583
siesta:     11    0.011309   -0.019603    0.545583
siesta:     12   -0.011282   -0.019541   -0.545632
siesta:     13    0.011282    0.019542    0.545632
siesta: ----------------------------------------
siesta:    Tot   -0.000000    0.000000    0.000000

siesta: Stress tensor (static) (eV/Ang**3):
siesta:    -0.676413   -0.000005    0.000000
siesta:    -0.000005   -0.676419   -0.000000
siesta:     0.000000   -0.000000    0.258170

siesta: Cell volume =        126.334768 Ang**3

siesta: Pressure (static):
siesta:                Solid            Molecule  Units
siesta:           0.00397409          0.00359196  Ry/Bohr**3
siesta:           0.36488746          0.32980138  eV/Ang**3
siesta:         584.62047774        528.40578437  kBar
(Free)E+ p_basis*V_orbitals  =        -185.101241
(Free)Eharris+ p_basis*V_orbitals  =        -185.101235

cite: Please see "LiC12_scf.bib" for an exhaustive BiBTeX file.
cite: Please clearly indicate Siesta version in published work: 4.1.5
cite: This calculation has made use of the following articles
cite: which are encouraged to be cited in a published work.
        Primary SIESTA paper
          DOI: www.doi.org/10.1088/0953-8984/14/11/302

>> End of run:   9-NOV-2022  13:53:07
Job completed
