Siesta Version  : 4.1.5
Architecture    : x86_64-unknown-linux-gnu--unknown
Compiler version: GNU Fortran (GCC) 11.3.0
Compiler flags  : mpif90 -g -O2 -fallow-argument-mismatch
PP flags        : -DMPI -DFC_HAVE_FLUSH -DFC_HAVE_ABORT
Libraries       :  -I/global/software/sl-7.x86_64/modules/intel/2020.4.304/mkl/include  /globall/software/sl-7.x86_64/modules/intel/2020.4.304/mkl/lib/intel64/libmkl_scalapack_lp64.a -Wl,--start-group /global/software/sl-7.x86_64/modules/intel/2020.4.304/mkl/lib/intel64/libmkl_intel_lp64.a /global/software/sl-7.x86_64/modules/intel/2020.4.304/mkl/lib/intel64/libmkl_sequential.a /global/software/sl-7.x86_64/modules/intel/2020.4.304/mkl/lib/intel64/libmkl_core.a /global/software/sl-7.x86_64/modules/intel/2020.4.304/mkl/lib/intel64/libmkl_blacs_openmpi_lp64.a -Wl,--end-group -lpthread -lm -ldl
PARALLEL version

* Running on 12 nodes in parallel
>> Start of run:   9-NOV-2022  12:59:11

                           ***********************       
                           *  WELCOME TO SIESTA  *       
                           ***********************       

reinit: Reading from standard input
reinit: Dumped input in INPUT_TMP.18260
************************** Dump of input data file ****************************
SystemName LiC12_scf
SystemLabel LiC12_scf
NumberOfAtoms   13
NumberOfSpecies 2
%block ChemicalSpeciesLabel
1  3   Li-gga
2  6   C-gga
%endblock ChemicalSpeciesLabel
PAO.BasisSize  SZP
PAO.EnergyShift  10 meV
%block PS.Lmax
C-gga   2
Li-gga  2
%endblock PS.Lmax
LatticeConstant 1.000000 Ang
%block LatticeVectors
	4.2686000000	0.0000000000	0.0000000000
	-2.1343000000	3.6967160386	0.0000000000
	0.0000000000	0.0000000000	5.1969460000
%endblock LatticeVectors
AtomicCoordinatesFormat Ang
%block AtomicCoordinatesAndAtomicSpecies
	0.00000000	0.00000000	0.00000000	2
	1.42144380	0.00000000	1.29923650	1
	2.84715620	0.00000000	3.89770950	1
	-0.71072190	1.23100644	1.29923650	1
	-1.42357810	2.46570960	3.89770950	1
	1.42357810	2.46570960	1.29923650	1
	0.71072190	1.23100644	3.89770950	1
	2.84715620	0.00000000	1.29923650	1
	1.42144380	0.00000000	3.89770950	1
	-1.42357810	2.46570960	1.29923650	1
	-0.71072190	1.23100644	3.89770950	1
	0.71072190	1.23100644	1.29923650	1
	1.42357810	2.46570960	3.89770950	1
%endblock AtomicCoordinatesAndAtomicSpecies
Kgrid_NoTRS  T
%block kgrid_MonkhorstPack
4       0       0       0.0
0       4       0       0.0
0       0       4       0.0
%endblock kgrid_MonkhorstPack
AtomCoorFormatOut Ang
BlockSize 1
#ProcessorY 12
Diag.ParallelOverK   T
Diag.DivideAndConquer F
MeshCutoff   300 Ry
SCF.FreeE.Tolerance 1E-3 eV
SCF.EDM.Tolerance   5E-3 eV
DM.Tolerance  1E-3
DM.Require.Energy.Convergence T
DM.NumberPulay 4
XC.Functional GGA
XC.Authors    PBE
UseSaveData        F
MD.TypeOfRun       CG
MD.VariableCell    F
MD.NumCGsteps      00
MD.MaxCGDispl      0.200000 Bohr
MD.MaxStressTol    1.000000 GPa
MD.MaxForceTol     0.010000 eV/Ang
WriteMDHistory T
WriteCoorStep T
WriteForces T
WriteCoorStep    T
WriteEigenValues T
WriteDM    F
MM.UnitsDistance Ang  # what this program prints out DO NOT CHANGE
MM.UnitsEnergy    eV  # what this program prints out DO NOT CHANGE
MM.Grimme.S6     0.75 # Grimme-paper for PBE (correct for your functional)
MM.Grimme.D     20.   # Grimme-paper (correct for your functional)
%block MM.Potentials
  1   1 Grimme     16.69      1.650 # Li, 10.1002/jcc.20495
  1   2 Grimme     17.40      2.277 # Li / C
  2   2 Grimme     18.14      2.904 # C, 10.1002/jcc.20495
%endblock MM.Potentials
#%block ProjectedDensityOfStates
# -200.0  120.0  0.4  12800  eV
#%endblock ProjectedDensityOfStates
************************** End of input data file *****************************

reinit: -----------------------------------------------------------------------
reinit: System Name: LiC12_scf
reinit: -----------------------------------------------------------------------
reinit: System Label: LiC12_scf
reinit: -----------------------------------------------------------------------
Reading two-body potentials
Grimme - two-body potential between 1 and 1
Grimme - two-body potential between 1 and 2
Grimme - two-body potential between 2 and 2

initatom: Reading input for the pseudopotentials and atomic orbitals ----------
Species number:   1 Atomic number:    3 Label: Li-gga
Species number:   2 Atomic number:    6 Label: C-gga

Ground state valence configuration:   2s01
Reading pseudopotential information in formatted form from Li-gga.psf

Valence configuration for pseudopotential generation:
2s( 1.00) rc: 2.28
2p( 0.00) rc: 2.28
3d( 0.00) rc: 2.59
4f( 0.00) rc: 2.59
Ground state valence configuration:   2s02  2p02
Reading pseudopotential information in formatted form from C-gga.psf

Valence configuration for pseudopotential generation:
2s( 2.00) rc: 1.56
2p( 2.00) rc: 1.56
3d( 0.00) rc: 1.56
4f( 0.00) rc: 1.56
relmxkb: Read Max KB Ang. Momentum=    2 for species C-gga
relmxkb: Read Max KB Ang. Momentum=    2 for species Li-gga

<basis_specs>
===============================================================================
Li-gga               Z=   3    Mass=  6.9400        Charge= 0.17977+309
Lmxo=0 Lmxkb= 2    BasisType=split      Semic=F
L=0  Nsemic=0  Cnfigmx=2
          i=1  nzeta=1  polorb=1  (2s)
            splnorm:   0.15000    
               vcte:    0.0000    
               rinn:    0.0000    
               qcoe:    0.0000    
               qyuk:    0.0000    
               qwid:   0.10000E-01
                rcs:    0.0000    
            lambdas:    1.0000    
-------------------------------------------------------------------------------
L=0  Nkbl=1  erefs: 0.17977+309
L=1  Nkbl=1  erefs: 0.17977+309
L=2  Nkbl=1  erefs: 0.17977+309
===============================================================================
</basis_specs>

atom: Called for Li-gga                (Z =   3)

read_vps: Pseudopotential generation method:
read_vps: ATM 3.2.2 Troullier-Martins                       
Valence charge for ps generation:    1.00000

read_vps: Pseudopotential includes a core correction:
read_vps: Pseudo-core for xc-correction

xc_check: Exchange-correlation functional:
xc_check: GGA Perdew, Burke & Ernzerhof 1996
V l=0 = -2*Zval/r beyond r=  2.2278
V l=1 = -2*Zval/r beyond r=  2.2278
V l=2 = -2*Zval/r beyond r=  2.5245
All V_l potentials equal beyond r=  2.4622
This should be close to max(r_c) in ps generation
All pots = -2*Zval/r beyond r=  2.5245

VLOCAL1: 99.0% of the norm of Vloc inside      7.160 Ry
VLOCAL1: 99.9% of the norm of Vloc inside     16.318 Ry
atom: Maximum radius for 4*pi*r*r*local-pseudopot. charge    2.86079
atom: Maximum radius for r*vlocal+2*Zval:    2.43160
GHOST: No ghost state for L =  0
GHOST: No ghost state for L =  1
GHOST: No ghost state for L =  2

KBgen: Kleinman-Bylander projectors: 
   l= 0   rc=  2.654023   el= -0.211234   Ekb=  1.742119   kbcos=  0.228463
   l= 1   rc=  2.721230   el= -0.080095   Ekb= -1.122375   kbcos= -0.147941
   l= 2   rc=  2.825246   el=  0.002001   Ekb= -0.207076   kbcos= -0.031965

KBgen: Total number of Kleinman-Bylander projectors:    9
atom: -------------------------------------------------------------------------

atom: SANKEY-TYPE ORBITALS:

SPLIT: Orbitals with angular momentum L= 0

SPLIT: Basis orbitals for state 2s

SPLIT: PAO cut-off radius determined from an
SPLIT: energy shift=  0.000735 Ry

   izeta = 1
                 lambda =    1.000000
                     rc =   11.897381
                 energy =   -0.210580
                kinetic =    0.143382
    potential(screened) =   -0.353962
       potential(ionic) =   -0.533453

POLgen: Perturbative polarization orbital with L=  1

POLgen: Polarization orbital for state 2s

   izeta = 1
                     rc =   11.897381
                 energy =   -0.027011
                kinetic =    0.282985
    potential(screened) =   -0.309997
       potential(ionic) =   -0.490997
atom: Total number of Sankey-type orbitals:  4

atm_pop: Valence configuration (for local Pseudopot. screening):
 2s( 1.00)                                                            
Vna: chval, zval:    1.00000   1.00000

Vna:  Cut-off radius for the neutral-atom potential:  11.897381
comcore: Pseudo-core radius Rcore=  3.450946

atom: _________________________________________________________________________

<basis_specs>
===============================================================================
C-gga                Z=   6    Mass=  12.010        Charge= 0.17977+309
Lmxo=1 Lmxkb= 2    BasisType=split      Semic=F
L=0  Nsemic=0  Cnfigmx=2
          i=1  nzeta=1  polorb=0  (2s)
            splnorm:   0.15000    
               vcte:    0.0000    
               rinn:    0.0000    
               qcoe:    0.0000    
               qyuk:    0.0000    
               qwid:   0.10000E-01
                rcs:    0.0000    
            lambdas:    1.0000    
L=1  Nsemic=0  Cnfigmx=2
          i=1  nzeta=1  polorb=1  (2p)
            splnorm:   0.15000    
               vcte:    0.0000    
               rinn:    0.0000    
               qcoe:    0.0000    
               qyuk:    0.0000    
               qwid:   0.10000E-01
                rcs:    0.0000    
            lambdas:    1.0000    
-------------------------------------------------------------------------------
L=0  Nkbl=1  erefs: 0.17977+309
L=1  Nkbl=1  erefs: 0.17977+309
L=2  Nkbl=1  erefs: 0.17977+309
===============================================================================
</basis_specs>

atom: Called for C-gga                 (Z =   6)

read_vps: Pseudopotential generation method:
read_vps: ATM 3.2.2 Troullier-Martins                       
Valence charge for ps generation:    4.00000

xc_check: Exchange-correlation functional:
xc_check: GGA Perdew, Burke & Ernzerhof 1996
V l=0 = -2*Zval/r beyond r=  1.5227
V l=1 = -2*Zval/r beyond r=  1.5227
V l=2 = -2*Zval/r beyond r=  1.5227
All V_l potentials equal beyond r=  1.4851
This should be close to max(r_c) in ps generation
All pots = -2*Zval/r beyond r=  1.5227

VLOCAL1: 99.0% of the norm of Vloc inside     19.682 Ry
VLOCAL1: 99.9% of the norm of Vloc inside     44.856 Ry
atom: Maximum radius for 4*pi*r*r*local-pseudopot. charge    1.79142
atom: Maximum radius for r*vlocal+2*Zval:    1.54183
GHOST: No ghost state for L =  0
GHOST: No ghost state for L =  1
GHOST: No ghost state for L =  2

KBgen: Kleinman-Bylander projectors: 
   l= 0   rc=  1.661951   el= -1.010689   Ekb=  5.289847   kbcos=  0.316429
   l= 1   rc=  1.661951   el= -0.388490   Ekb= -4.102504   kbcos= -0.351025
   l= 2   rc=  1.747182   el=  0.001971   Ekb= -1.006005   kbcos= -0.008530

KBgen: Total number of Kleinman-Bylander projectors:    9
atom: -------------------------------------------------------------------------

atom: SANKEY-TYPE ORBITALS:

SPLIT: Orbitals with angular momentum L= 0

SPLIT: Basis orbitals for state 2s

SPLIT: PAO cut-off radius determined from an
SPLIT: energy shift=  0.000735 Ry

   izeta = 1
                 lambda =    1.000000
                     rc =    5.948690
                 energy =   -1.010099
                kinetic =    0.827121
    potential(screened) =   -1.837220
       potential(ionic) =   -5.392783

SPLIT: Orbitals with angular momentum L= 1

SPLIT: Basis orbitals for state 2p

SPLIT: PAO cut-off radius determined from an
SPLIT: energy shift=  0.000735 Ry

   izeta = 1
                 lambda =    1.000000
                     rc =    7.638387
                 energy =   -0.387843
                kinetic =    2.314739
    potential(screened) =   -2.702582
       potential(ionic) =   -6.092371

POLgen: Perturbative polarization orbital with L=  2

POLgen: Polarization orbital for state 2p

   izeta = 1
                     rc =    7.638387
                 energy =    0.921402
                kinetic =    1.955040
    potential(screened) =   -1.033637
       potential(ionic) =   -3.679558
atom: Total number of Sankey-type orbitals:  9

atm_pop: Valence configuration (for local Pseudopot. screening):
 2s( 2.00)                                                            
 2p( 2.00)                                                            
Vna: chval, zval:    4.00000   4.00000

Vna:  Cut-off radius for the neutral-atom potential:   7.638387

atom: _________________________________________________________________________

prinput: Basis input ----------------------------------------------------------

PAO.BasisType split     

%block ChemicalSpeciesLabel
    1    3 Li-gga                  # Species index, atomic number, species label
    2    6 C-gga                   # Species index, atomic number, species label
%endblock ChemicalSpeciesLabel

%block PAO.Basis                 # Define Basis set
Li-gga                1                    # Species label, number of l-shells
 n=2   0   1 P   1                   # n, l, Nzeta, Polarization, NzetaPol
  11.897   
   1.000   
C-gga                 2                    # Species label, number of l-shells
 n=2   0   1                         # n, l, Nzeta 
   5.949   
   1.000   
 n=2   1   1 P   1                   # n, l, Nzeta, Polarization, NzetaPol
   7.638   
   1.000   
%endblock PAO.Basis

prinput: ----------------------------------------------------------------------

coor:   Atomic-coordinates input format  =     Cartesian coordinates
coor:                                          (in Angstroms)

siesta: Atomic coordinates (Bohr) and species
siesta:      0.00000   0.00000   0.00000  2        1
siesta:      2.68614   0.00000   2.45520  1        2
siesta:      5.38035   0.00000   7.36561  1        3
siesta:     -1.34307   2.32627   2.45520  1        4
siesta:     -2.69017   4.65952   7.36561  1        5
siesta:      2.69017   4.65952   2.45520  1        6
siesta:      1.34307   2.32627   7.36561  1        7
siesta:      5.38035   0.00000   2.45520  1        8
siesta:      2.68614   0.00000   7.36561  1        9
siesta:     -2.69017   4.65952   2.45520  1       10
siesta:     -1.34307   2.32627   7.36561  1       11
siesta:      1.34307   2.32627   2.45520  1       12
siesta:      2.69017   4.65952   7.36561  1       13

siesta: System type = bulk      

initatomlists: Number of atoms, orbitals, and projectors:     13    57   117

siesta: ******************** Simulation parameters ****************************
siesta:
siesta: The following are some of the parameters of the simulation.
siesta: A complete list of the parameters used, including default values,
siesta: can be found in file out.fdf
siesta:
redata: Spin configuration                          = none
redata: Number of spin components                   = 1
redata: Time-Reversal Symmetry                      = T
redata: Spin spiral                                 = F
redata: Long output                                 =   F
redata: Number of Atomic Species                    =        2
redata: Charge density info will appear in .RHO file
redata: Write Mulliken Pop.                         = NO
redata: Matel table size (NRTAB)                    =     1024
redata: Mesh Cutoff                                 =   300.0000 Ry
redata: Net charge of the system                    =     0.0000 |e|
redata: Min. number of SCF Iter                     =        0
redata: Max. number of SCF Iter                     =     1000
redata: SCF convergence failure will abort job
redata: SCF mix quantity                            = Hamiltonian
redata: Mix DM or H after convergence               =   F
redata: Recompute H after scf cycle                 =   F
redata: Mix DM in first SCF step                    =   T
redata: Write Pulay info on disk                    =   F
redata: New DM Occupancy tolerance                  = 0.000000000001
redata: No kicks to SCF
redata: DM Mixing Weight for Kicks                  =     0.5000
redata: Require Harris convergence for SCF          =   F
redata: Harris energy tolerance for SCF             =     0.000100 eV
redata: Require DM convergence for SCF              =   T
redata: DM tolerance for SCF                        =     0.001000
redata: Require EDM convergence for SCF             =   F
redata: EDM tolerance for SCF                       =     0.005000 eV
redata: Require H convergence for SCF               =   T
redata: Hamiltonian tolerance for SCF               =     0.001000 eV
redata: Require (free) Energy convergence for SCF   =   T
redata: (free) Energy tolerance for SCF             =     0.001000 eV
redata: Using Saved Data (generic)                  =   F
redata: Use continuation files for DM               =   F
redata: Neglect nonoverlap interactions             =   F
redata: Method of Calculation                       = Diagonalization
redata: Electronic Temperature                      =   299.9869 K
redata: Fix the spin of the system                  =   F
redata: Dynamics option                             = Single-point calculation
mix.SCF: Pulay mixing                            = Pulay
mix.SCF:    Variant                              = stable
mix.SCF:    History steps                        = 4
mix.SCF:    Linear mixing weight                 =     0.250000
mix.SCF:    Mixing weight                        =     0.250000
mix.SCF:    SVD condition                        = 0.1000E-07
redata: ***********************************************************************

%block SCF.Mixers
  Pulay
%endblock SCF.Mixers

%block SCF.Mixer.Pulay
  # Mixing method
  method pulay
  variant stable

  # Mixing options
  weight 0.2500
  weight.linear 0.2500
  history 4
%endblock SCF.Mixer.Pulay

DM_history_depth set to one: no extrapolation allowed by default for geometry relaxation
Size of DM history Fstack: 1
Total number of electrons:    16.000000
Total ionic charge:    16.000000

* ProcessorY, Blocksize:    3   1


* Orbital distribution balance (max,min):     5     4

k-point displ. along   1 input, could be:     0.00    0.50
k-point displ. along   2 input, could be:     0.00    0.50
k-point displ. along   3 input, could be:     0.00    0.50
 Kpoints in:           48 . Kpoints trimmed:           44

siesta: k-grid: Number of k-points =    44
siesta: k-grid: Cutoff (effective) =     8.537 Ang
siesta: k-grid: Supercell and displacements
siesta: k-grid:    4   0   0      0.000
siesta: k-grid:    0   4   0      0.000
siesta: k-grid:    0   0   4      0.000

diag: Algorithm                                     = Expert
diag: Parallel over k                               =   T
diag: Use parallel 2D distribution                  =   T
diag: Parallel block-size                           = 1
diag: Parallel distribution                         =     3 x     4
diag: Used triangular part                          = Lower
diag: Absolute tolerance                            =  0.100E-15
diag: Orthogonalization factor                      =  0.100E-05
diag: Memory factor                                 =  1.0000

superc: Internal auxiliary supercell:     9 x     9 x     7  =     567
superc: Number of atoms, orbitals, and projectors:   7371  32319  66339


ts: **************************************************************
ts: Save H and S matrices                           =    F
ts: Save DM and EDM matrices                        =    F
ts: Only save the overlap matrix S                  =    F
ts: **************************************************************

************************ Begin: TS CHECKS AND WARNINGS ************************
************************ End: TS CHECKS AND WARNINGS **************************


                     ====================================
                        Single-point calculation
                     ====================================

outcoor: Atomic coordinates (Ang):                          
    0.00000000    0.00000000    0.00000000   2       1  C-gga
    1.42144380    0.00000000    1.29923650   1       2  Li-gga
    2.84715620    0.00000000    3.89770950   1       3  Li-gga
   -0.71072190    1.23100644    1.29923650   1       4  Li-gga
   -1.42357810    2.46570960    3.89770950   1       5  Li-gga
    1.42357810    2.46570960    1.29923650   1       6  Li-gga
    0.71072190    1.23100644    3.89770950   1       7  Li-gga
    2.84715620    0.00000000    1.29923650   1       8  Li-gga
    1.42144380    0.00000000    3.89770950   1       9  Li-gga
   -1.42357810    2.46570960    1.29923650   1      10  Li-gga
   -0.71072190    1.23100644    3.89770950   1      11  Li-gga
    0.71072190    1.23100644    1.29923650   1      12  Li-gga
    1.42357810    2.46570960    3.89770950   1      13  Li-gga

superc: Internal auxiliary supercell:     9 x     9 x     7  =     567
superc: Number of atoms, orbitals, and projectors:   7371  32319  66339

outcell: Unit cell vectors (Ang):
        4.268600    0.000000    0.000000
       -2.134300    3.696716    0.000000
        0.000000    0.000000    5.196946

outcell: Cell vector modules (Ang)   :    4.268600    4.268600    5.196946
outcell: Cell angles (23,13,12) (deg):     90.0000     90.0000    120.0000
outcell: Cell volume (Ang**3)        :     82.0068
<dSpData1D:S at geom step 0
  <sparsity:sparsity for geom step 0
    nrows_g=57 nrows=5 sparsity=11.4161 nnzs=37091, refcount: 7>
  <dData1D:(new from dSpData1D) n=37091, refcount: 1>
refcount: 1>
new_DM -- step:     1
Initializing Density Matrix...
DM filled with atomic data:
<dSpData2D:DM initialized from atoms
  <sparsity:sparsity for geom step 0
    nrows_g=57 nrows=5 sparsity=11.4161 nnzs=37091, refcount: 8>
  <dData2D:DM n=37091 m=1, refcount: 1>
refcount: 1>
No. of atoms with KB's overlaping orbs in proc 0. Max # of overlaps:     466    1185
New grid distribution:   1
           1       1:   20    1:    7    1:    8
           2       1:   20    1:    7    9:   16
           3       1:   20    1:    7   17:   23
           4       1:   20    1:    7   24:   30
           5       1:   20    8:   14    1:    8
           6       1:   20    8:   14    9:   16
           7       1:   20    8:   14   17:   23
           8       1:   20    8:   14   24:   30
           9       1:   20   15:   20    1:    8
          10       1:   20   15:   20    9:   16
          11       1:   20   15:   20   17:   23
          12       1:   20   15:   20   24:   30

InitMesh: MESH =    40 x    40 x    60 =       96000
InitMesh: (bp) =    20 x    20 x    30 =       12000
InitMesh: Mesh cutoff (required, used) =   300.000   323.586 Ry
ExtMesh (bp) on 0 =   160 x   147 x   156 =     3669120
New grid distribution:   2
           1       1:    7    1:   10    1:   15
           2       8:   20   11:   20    1:    8
           3       1:    7    1:   10   16:   30
           4       8:   20   11:   20    9:   15
           5       8:   20    1:   10    1:    8
           6       8:   20   11:   20   16:   22
           7       1:    7   11:   20   16:   30
           8       8:   20    1:   10    9:   15
           9       1:    7   11:   20    1:   15
          10       8:   20    1:   10   23:   30
          11       8:   20    1:   10   16:   22
          12       8:   20   11:   20   23:   30
New grid distribution:   3
           1       1:    7    1:   10    1:   15
           2       8:   20   11:   20    1:    8
           3       1:    7    1:   10   16:   30
           4       8:   20    1:   10    9:   15
           5       8:   20    1:   10    1:    8
           6       8:   20   11:   20    9:   15
           7       1:    7   11:   20   16:   30
           8       8:   20   11:   20   24:   30
           9       1:    7   11:   20    1:   15
          10       8:   20    1:   10   16:   23
          11       8:   20   11:   20   16:   23
          12       8:   20    1:   10   24:   30
Setting up quadratic distribution...
ExtMesh (bp) on 0 =   147 x   150 x   163 =     3594150
PhiOnMesh: Number of (b)points on node 0 =                 1050
PhiOnMesh: nlist on node 0 =               693915

stepf: Fermi-Dirac step function

siesta: Program's energy decomposition (eV):
siesta: Ebs     =      -239.778972
siesta: Eions   =       380.620085
siesta: Ena     =        90.809187
siesta: Ekin    =       263.337632
siesta: Enl     =        -6.129835
siesta: Eso     =         0.000000
siesta: Edftu   =         0.000000
siesta: DEna    =       -22.689728
siesta: DUscf   =        21.733529
siesta: DUext   =         0.000000
siesta: Exc     =      -180.348428
siesta: eta*DQ  =         0.000000
siesta: Emadel  =         0.000000
siesta: Emeta   =         0.000000
siesta: Emolmec =        -7.035637
siesta: Ekinion =         0.000000
siesta: Eharris =      -182.149533
siesta: Etot    =      -220.943364
siesta: FreeEng =      -220.949088

        iscf     Eharris(eV)        E_KS(eV)     FreeEng(eV)     dDmax    Ef(eV) dHmax(eV)
   scf:    1     -182.149533     -220.943364     -220.949088  1.295942-15.358643 14.956994
timer: Routine,Calls,Time,% = IterSCF        1      14.100  55.27
   scf:    2     -237.870462     -232.535542     -232.541894  0.692123-14.821423  2.258145
   scf:    3     -233.000765     -232.851415     -232.858419  0.099522-14.712380  0.245950
   scf:    4     -232.888005     -232.874334     -232.884035  0.038040-14.729969  0.057883
   scf:    5     -232.875907     -232.875884     -232.887138  0.038745-14.737684  0.047100
   scf:    6     -232.878462     -232.877592     -232.887864  0.009978-14.732878  0.016199
   scf:    7     -232.877207     -232.877421     -232.887933  0.002016-14.733494  0.003349
   scf:    8     -232.877433     -232.877427     -232.887936  0.000718-14.732872  0.001911
   scf:    9     -232.877428     -232.877428     -232.887937  0.000503-14.732358  0.000808

SCF Convergence by FreeE+DM+H criterion
|FreeE_i-FreeE_(i-1)| (eV) <     0.00100000
max |DM_out - DM_in|         :     0.0005030043
max |H_out - H_in|      (eV) :     0.0008083164
SCF cycle converged after 9 iterations

Using DM_out to compute the final energy and forces
No. of atoms with KB's overlaping orbs in proc 0. Max # of overlaps:     466    1185

MM-Stress (kbar):       48.60       48.60      169.68       -0.00       -0.00       -0.00

siesta: E_KS(eV) =             -232.8774

siesta: E_KS - E_eggbox =      -232.8774

siesta: Atomic forces (eV/Ang):
     1    0.000000    0.000000    0.000000
     2    0.378891   -0.000007    0.174662
     3   -0.378891    0.000007   -0.174662
     4   -0.189451    0.328126    0.174662
     5    0.189451   -0.328126   -0.174662
     6   -0.189444   -0.328126    0.174620
     7    0.189444    0.328126   -0.174620
     8   -0.378891    0.000007    0.174662
     9    0.378891   -0.000007   -0.174662
    10    0.189451   -0.328126    0.174662
    11   -0.189451    0.328126   -0.174662
    12    0.189444    0.328126    0.174620
    13   -0.189444   -0.328126   -0.174620
----------------------------------------
   Tot    0.000000    0.000000   -0.000000
----------------------------------------
   Max    0.378891
   Res    0.231423    sqrt( Sum f_i^2 / 3N )
----------------------------------------
   Max    0.378891    constrained

Stress tensor Voigt[x,y,z,yz,xz,xy] (kbar):    -1426.99    -1427.01      457.41        0.00        0.00       -0.01
(Free)E + p*V (eV/cell)     -191.9989
Target enthalpy (eV/cell)     -232.8879

siesta: Eigenvalues (eV):
  ik is       eps
   1  1  -26.2427  -20.1892  -19.6716  -19.3992  -19.3083  -18.0407  -17.7594  -14.4286  -14.1294  -13.8284
         -13.6657   -9.7368   -8.5966   -8.1362   -7.1385   -5.9513   -4.5565   -3.8870   -3.5156   -2.4191
   -1.2620   -0.0164    0.0353    0.3238    1.2154    1.7313    2.5678    4.9114    6.9485    7.1648
    8.7152    9.9195   13.5457   14.2427   17.9094   18.0494   18.1353   18.4703   18.9340   21.0754
   22.0686   22.8738   23.4476   27.3807   30.2978   32.4059   33.3053   34.5995   34.6918   37.3289
   41.0562   42.7392   43.2209   43.3665   45.6191   46.5869   49.7654
   2  1  -26.3756  -20.6845  -19.9136  -19.4947  -18.1126  -17.8306  -17.2254  -14.7189  -13.7467  -13.6955
         -12.7959  -12.1406  -10.1113   -9.4227   -8.1069   -7.2378   -5.3810   -4.5226   -3.4910   -2.4754
   -1.7485   -1.2349   -1.1730   -0.4225    4.6535    4.7029    6.1581    6.4959    7.9542    8.9407
   11.5456   15.9325   17.8089   18.2228   18.5910   18.6660   20.2848   20.5324   21.3914   21.5875
   22.6439   24.1409   25.3703   27.7401   28.0176   29.6519   31.3063   35.3285   36.4206   41.1284
   43.9551   44.6381   45.2708   47.2771   50.3570   52.2956   64.5969
   3  1  -26.3756  -20.6845  -19.9136  -19.4947  -18.1126  -17.8307  -17.2253  -14.7189  -13.7467  -13.6955
         -12.7959  -12.1406  -10.1113   -9.4227   -8.1069   -7.2379   -5.3809   -4.5226   -3.4910   -2.4754
   -1.7485   -1.2349   -1.1730   -0.4227    4.6535    4.7029    6.1582    6.4956    7.9542    8.9407
   11.5456   15.9326   17.8087   18.2225   18.5910   18.6663   20.2851   20.5323   21.3913   21.5876
   22.6439   24.1408   25.3703   27.7401   28.0176   29.6519   31.3063   35.3284   36.4200   41.1284
   43.9552   44.6382   45.2708   47.2771   50.3570   52.2953   64.5967
   4  1  -26.2427  -20.1891  -19.6716  -19.3992  -19.3084  -18.0407  -17.7594  -14.4286  -14.1295  -13.8284
         -13.6656   -9.7368   -8.5966   -8.1362   -7.1385   -5.9513   -4.5566   -3.8870   -3.5156   -2.4191
   -1.2621   -0.0164    0.0355    0.3238    1.2154    1.7314    2.5678    4.9114    6.9482    7.1648
    8.7152    9.9196   13.5457   14.2428   17.9098   18.0494   18.1353   18.4703   18.9339   21.0754
   22.0687   22.8738   23.4476   27.3801   30.2979   32.4058   33.3053   34.5995   34.6918   37.3289
   41.0561   42.7392   43.2209   43.3666   45.6191   46.5870   49.7653
   5  1  -26.3756  -20.6845  -19.9136  -19.4947  -18.1126  -17.8306  -17.2254  -14.7189  -13.7467  -13.6955
         -12.7959  -12.1406  -10.1113   -9.4227   -8.1069   -7.2378   -5.3810   -4.5226   -3.4910   -2.4754
   -1.7485   -1.2349   -1.1730   -0.4225    4.6535    4.7029    6.1581    6.4959    7.9542    8.9407
   11.5456   15.9325   17.8089   18.2228   18.5910   18.6660   20.2848   20.5324   21.3914   21.5875
   22.6439   24.1409   25.3703   27.7401   28.0176   29.6519   31.3063   35.3285   36.4206   41.1284
   43.9551   44.6381   45.2709   47.2771   50.3570   52.2956   64.5969
   6  1  -26.2937  -20.7877  -19.4101  -18.8606  -17.5998  -17.5894  -17.5892  -14.8318  -13.2017  -11.3673
         -11.3673  -11.0834  -11.0834  -10.6235  -10.6235   -9.2732   -8.7407   -4.2296   -4.2296   -3.5015
   -3.5015    0.7372    1.4610    1.4616    7.1481    7.1481    7.8091    7.8092    9.4913    9.4913
   11.7023   19.3073   19.3073   19.9734   19.9735   20.2746   21.6149   26.9608   26.9620   28.8942
   28.8943   30.7806   30.7811   31.7298   31.7299   39.3169   41.6158   41.6160   42.6275   42.9886
   43.2644   43.4080   45.0763   45.0764   51.1707   78.8238   78.8240
   7  1  -26.2602  -20.4776  -19.3956  -19.2400  -19.2116  -18.1896  -18.0392  -14.4210  -13.8324  -13.3431
         -12.8555  -12.8213   -7.9848   -7.7930   -7.0647   -5.4607   -4.5619   -4.2209   -3.3446   -0.9393
   -0.3403    0.0187    1.0791    1.1160    1.1710    2.2552    2.3580    3.1626    4.1931    4.2006
    8.7089   11.4636   12.6763   13.8815   15.7621   17.1926   19.5582   20.1598   21.4649   22.3017
   22.4490   24.8794   25.5315   27.2434   30.9539   32.2228   35.0942   36.7521   40.8732   44.7940
   45.5860   47.0622   48.1933   50.7920   57.2184   58.5320   59.0087
   8  1  -26.2427  -20.1891  -19.6716  -19.3992  -19.3084  -18.0407  -17.7594  -14.4286  -14.1295  -13.8284
         -13.6656   -9.7368   -8.5966   -8.1362   -7.1385   -5.9513   -4.5566   -3.8870   -3.5156   -2.4191
   -1.2621   -0.0164    0.0355    0.3238    1.2154    1.7314    2.5678    4.9114    6.9482    7.1648
    8.7152    9.9196   13.5457   14.2428   17.9098   18.0494   18.1353   18.4703   18.9339   21.0754
   22.0687   22.8738   23.4476   27.3801   30.2979   32.4058   33.3053   34.5995   34.6918   37.3289
   41.0561   42.7392   43.2209   43.3666   45.6191   46.5870   49.7653
   9  1  -26.2427  -20.1891  -19.6716  -19.3992  -19.3084  -18.0407  -17.7594  -14.4286  -14.1295  -13.8284
         -13.6656   -9.7368   -8.5966   -8.1362   -7.1385   -5.9513   -4.5566   -3.8870   -3.5156   -2.4191
   -1.2621   -0.0164    0.0355    0.3238    1.2154    1.7314    2.5678    4.9114    6.9482    7.1648
    8.7152    9.9196   13.5457   14.2428   17.9098   18.0494   18.1353   18.4703   18.9339   21.0754
   22.0687   22.8738   23.4476   27.3801   30.2979   32.4058   33.3053   34.5995   34.6918   37.3289
   41.0561   42.7392   43.2209   43.3666   45.6191   46.5870   49.7653
  10  1  -26.2602  -20.4776  -19.3956  -19.2400  -19.2116  -18.1896  -18.0392  -14.4210  -13.8324  -13.3431
         -12.8555  -12.8213   -7.9848   -7.7930   -7.0647   -5.4607   -4.5619   -4.2209   -3.3446   -0.9393
   -0.3403    0.0187    1.0791    1.1160    1.1710    2.2552    2.3580    3.1626    4.1931    4.2006
    8.7089   11.4636   12.6763   13.8815   15.7621   17.1926   19.5582   20.1598   21.4649   22.3017
   22.4490   24.8794   25.5315   27.2434   30.9539   32.2228   35.0942   36.7521   40.8732   44.7940
   45.5860   47.0622   48.1933   50.7920   57.2184   58.5320   59.0087
  11  1  -26.2427  -20.1891  -19.6716  -19.3992  -19.3084  -18.0407  -17.7594  -14.4286  -14.1295  -13.8284
         -13.6656   -9.7368   -8.5966   -8.1362   -7.1385   -5.9513   -4.5566   -3.8870   -3.5156   -2.4191
   -1.2621   -0.0164    0.0355    0.3238    1.2154    1.7314    2.5678    4.9114    6.9482    7.1648
    8.7152    9.9196   13.5457   14.2428   17.9098   18.0494   18.1353   18.4703   18.9339   21.0754
   22.0687   22.8738   23.4476   27.3801   30.2979   32.4058   33.3053   34.5995   34.6918   37.3289
   41.0561   42.7392   43.2209   43.3666   45.6191   46.5870   49.7653
  12  1  -26.2602  -20.4776  -19.3956  -19.2400  -19.2116  -18.1896  -18.0393  -14.4209  -13.8324  -13.3431
         -12.8555  -12.8211   -7.9848   -7.7931   -7.0647   -5.4607   -4.5619   -4.2209   -3.3446   -0.9395
   -0.3403    0.0187    1.0791    1.1160    1.1710    2.2555    2.3580    3.1626    4.1931    4.2006
    8.7089   11.4633   12.6763   13.8819   15.7621   17.1925   19.5584   20.1599   21.4648   22.3016
   22.4491   24.8792   25.5314   27.2434   30.9530   32.2229   35.0941   36.7522   40.8731   44.7940
   45.5859   47.0622   48.1933   50.7920   57.2186   58.5321   59.0087
  13  1  -26.2363  -20.1563  -20.0524  -19.3033  -19.2162  -18.0138  -17.0459  -15.4717  -14.6934  -12.9116
         -12.6480  -10.2564   -8.8217   -8.5315   -7.7488   -5.7836   -5.1323   -4.5133   -3.1967   -2.7820
   -2.5301   -2.1283   -1.2921   -0.7723    0.0921    2.6098    3.5487    4.3898    4.9446    8.1495
   10.9837   11.3870   12.0583   15.5905   16.9519   17.2474   17.8338   18.3603   19.7440   20.1568
   21.4673   21.5565   23.1872   25.6971   28.6756   31.8564   32.1212   34.8929   35.0794   36.4530
   39.2694   41.3062   41.9452   44.0796   45.3286   46.0390   46.9634
  14  1  -26.3828  -20.7209  -19.8557  -19.5137  -17.8195  -17.7835  -16.9056  -15.5042  -14.5071  -12.6528
         -12.5217  -10.7127   -9.9309   -9.5626   -9.1897   -7.8672   -6.6014   -3.7503   -3.4861   -3.3902
   -1.4991   -1.1165    0.5191    1.3886    2.5379    3.8853    6.2503    6.5454    8.6300   10.1662
   10.9367   14.1466   14.2952   18.5488   18.8425   19.9509   20.8295   21.1047   21.8061   22.6192
   23.6043   23.9508   25.6929   26.5553   28.0474   28.2797   33.7261   34.3496   36.1948   37.4912
   42.1198   42.7390   45.5140   46.1324   50.4808   52.9109   56.5225
  15  1  -26.3828  -20.7209  -19.8557  -19.5137  -17.8195  -17.7836  -16.9056  -15.5042  -14.5071  -12.6528
         -12.5216  -10.7127   -9.9310   -9.5626   -9.1896   -7.8672   -6.6014   -3.7503   -3.4861   -3.3902
   -1.4989   -1.1167    0.5191    1.3886    2.5379    3.8853    6.2504    6.5453    8.6300   10.1661
   10.9367   14.1465   14.2953   18.5491   18.8426   19.9507   20.8296   21.1046   21.8060   22.6194
   23.6043   23.9506   25.6929   26.5553   28.0478   28.2797   33.7261   34.3496   36.1949   37.4907
   42.1198   42.7390   45.5140   46.1324   50.4808   52.9107   56.5223
  16  1  -26.2363  -20.1562  -20.0524  -19.3033  -19.2162  -18.0138  -17.0458  -15.4718  -14.6933  -12.9116
         -12.6480  -10.2564   -8.8217   -8.5315   -7.7488   -5.7836   -5.1323   -4.5133   -3.1966   -2.7821
   -2.5301   -2.1283   -1.2921   -0.7723    0.0921    2.6098    3.5489    4.3898    4.9446    8.1492
   10.9837   11.3872   12.0581   15.5905   16.9519   17.2474   17.8338   18.3602   19.7440   20.1568
   21.4672   21.5565   23.1872   25.6974   28.6756   31.8564   32.1209   34.8929   35.0794   36.4530
   39.2694   41.3061   41.9452   44.0796   45.3287   46.0391   46.9634
  17  1  -26.3828  -20.7209  -19.8557  -19.5137  -17.8195  -17.7835  -16.9056  -15.5042  -14.5071  -12.6528
         -12.5217  -10.7127   -9.9309   -9.5626   -9.1897   -7.8672   -6.6014   -3.7503   -3.4861   -3.3902
   -1.4991   -1.1165    0.5191    1.3886    2.5379    3.8853    6.2503    6.5454    8.6300   10.1662
   10.9367   14.1466   14.2952   18.5488   18.8425   19.9509   20.8295   21.1047   21.8061   22.6192
   23.6043   23.9508   25.6929   26.5553   28.0474   28.2797   33.7261   34.3496   36.1948   37.4912
   42.1199   42.7390   45.5140   46.1324   50.4808   52.9109   56.5225
  18  1  -26.3104  -20.7187  -19.4688  -18.6743  -17.5297  -17.5295  -17.2261  -15.3728  -13.6171  -11.1677
         -11.1677  -10.9429  -10.9429  -10.5232  -10.5232  -10.4341   -7.2325   -2.9751   -2.9751   -1.8526
   -1.8526   -1.1661    1.4153    1.4158    8.2561    8.2562    8.8070    8.8070   10.0269   10.0270
   16.0422   19.2428   19.2430   20.7448   21.1874   21.9894   21.9894   24.1282   24.1282   28.3870
   28.3872   31.3678   31.3680   31.5573   31.5574   35.3993   42.2113   42.2126   43.9350   44.2109
   44.2111   44.2473   44.8660   45.0279   45.8716   57.0317   57.0321
  19  1  -26.3828  -20.7209  -19.8557  -19.5137  -17.8195  -17.7835  -16.9056  -15.5042  -14.5071  -12.6528
         -12.5217  -10.7127   -9.9309   -9.5626   -9.1897   -7.8672   -6.6014   -3.7503   -3.4861   -3.3902
   -1.4991   -1.1165    0.5191    1.3886    2.5379    3.8853    6.2503    6.5454    8.6300   10.1662
   10.9367   14.1466   14.2952   18.5488   18.8425   19.9509   20.8295   21.1047   21.8061   22.6192
   23.6043   23.9508   25.6929   26.5553   28.0474   28.2797   33.7261   34.3496   36.1948   37.4912
   42.1199   42.7390   45.5140   46.1324   50.4808   52.9109   56.5225
  20  1  -26.2494  -20.4446  -20.0086  -19.2354  -18.7125  -18.0022  -17.7608  -15.3079  -14.2154  -13.2327
         -12.1178  -11.0480   -9.7338   -7.8092   -6.3792   -6.3445   -5.3230   -4.0559   -3.9852   -3.3026
   -2.4380   -2.2840   -2.0571   -0.9775   -0.0933    2.4748    2.5793    3.8313    4.1615    8.1428
    9.4055   13.2631   15.0160   15.9850   16.4147   17.3225   19.5649   20.2436   21.1873   22.8358
   23.0974   24.3840   25.4307   25.5297   26.2977   27.9454   28.9509   30.2513   35.4357   39.2243
   45.5034   47.4789   48.2164   50.3886   53.7312   54.1922   56.7535
  21  1  -26.3828  -20.7209  -19.8557  -19.5137  -17.8195  -17.7836  -16.9056  -15.5042  -14.5071  -12.6528
         -12.5216  -10.7127   -9.9310   -9.5626   -9.1896   -7.8672   -6.6014   -3.7503   -3.4861   -3.3902
   -1.4989   -1.1167    0.5191    1.3886    2.5379    3.8853    6.2504    6.5453    8.6300   10.1661
   10.9367   14.1465   14.2953   18.5491   18.8426   19.9507   20.8296   21.1046   21.8060   22.6194
   23.6043   23.9506   25.6929   26.5553   28.0478   28.2797   33.7261   34.3496   36.1949   37.4907
   42.1198   42.7390   45.5140   46.1324   50.4808   52.9107   56.5223
  22  1  -26.3828  -20.7209  -19.8557  -19.5137  -17.8195  -17.7835  -16.9056  -15.5042  -14.5071  -12.6528
         -12.5217  -10.7127   -9.9309   -9.5626   -9.1897   -7.8672   -6.6014   -3.7503   -3.4861   -3.3902
   -1.4991   -1.1165    0.5191    1.3886    2.5379    3.8853    6.2503    6.5454    8.6300   10.1662
   10.9367   14.1466   14.2952   18.5488   18.8425   19.9509   20.8295   21.1047   21.8061   22.6192
   23.6043   23.9508   25.6929   26.5553   28.0474   28.2797   33.7261   34.3496   36.1948   37.4912
   42.1198   42.7390   45.5140   46.1324   50.4808   52.9109   56.5225
  23  1  -26.2363  -20.1563  -20.0524  -19.3033  -19.2162  -18.0138  -17.0459  -15.4717  -14.6934  -12.9116
         -12.6480  -10.2564   -8.8217   -8.5315   -7.7488   -5.7836   -5.1323   -4.5133   -3.1967   -2.7820
   -2.5301   -2.1283   -1.2921   -0.7723    0.0921    2.6098    3.5487    4.3898    4.9446    8.1495
   10.9837   11.3870   12.0583   15.5905   16.9519   17.2474   17.8338   18.3603   19.7440   20.1568
   21.4673   21.5565   23.1872   25.6971   28.6756   31.8564   32.1212   34.8929   35.0794   36.4530
   39.2694   41.3062   41.9452   44.0796   45.3286   46.0390   46.9634
  24  1  -26.2363  -20.1562  -20.0524  -19.3033  -19.2162  -18.0138  -17.0458  -15.4718  -14.6933  -12.9116
         -12.6480  -10.2564   -8.8217   -8.5315   -7.7488   -5.7836   -5.1323   -4.5133   -3.1966   -2.7821
   -2.5301   -2.1283   -1.2921   -0.7723    0.0921    2.6098    3.5489    4.3898    4.9446    8.1492
   10.9837   11.3872   12.0581   15.5905   16.9519   17.2474   17.8338   18.3602   19.7440   20.1568
   21.4672   21.5565   23.1872   25.6974   28.6756   31.8564   32.1209   34.8929   35.0794   36.4530
   39.2694   41.3061   41.9452   44.0796   45.3287   46.0391   46.9634
  25  1  -26.2363  -20.1562  -20.0524  -19.3033  -19.2162  -18.0138  -17.0458  -15.4718  -14.6933  -12.9116
         -12.6480  -10.2564   -8.8217   -8.5315   -7.7488   -5.7836   -5.1323   -4.5133   -3.1966   -2.7821
   -2.5301   -2.1283   -1.2921   -0.7723    0.0921    2.6098    3.5489    4.3898    4.9446    8.1492
   10.9837   11.3872   12.0581   15.5905   16.9519   17.2474   17.8338   18.3602   19.7440   20.1568
   21.4672   21.5565   23.1872   25.6974   28.6756   31.8564   32.1209   34.8929   35.0794   36.4530
   39.2694   41.3061   41.9452   44.0795   45.3287   46.0391   46.9634
  26  1  -26.2494  -20.4446  -20.0086  -19.2354  -18.7125  -18.0022  -17.7608  -15.3079  -14.2154  -13.2327
         -12.1178  -11.0480   -9.7338   -7.8092   -6.3792   -6.3445   -5.3230   -4.0559   -3.9852   -3.3026
   -2.4380   -2.2840   -2.0571   -0.9775   -0.0933    2.4748    2.5793    3.8313    4.1615    8.1428
    9.4055   13.2631   15.0160   15.9850   16.4147   17.3225   19.5649   20.2436   21.1873   22.8358
   23.0974   24.3840   25.4307   25.5297   26.2977   27.9454   28.9509   30.2513   35.4357   39.2243
   45.5034   47.4789   48.2164   50.3886   53.7312   54.1922   56.7535
  27  1  -26.2363  -20.1562  -20.0524  -19.3033  -19.2162  -18.0138  -17.0458  -15.4718  -14.6933  -12.9116
         -12.6480  -10.2564   -8.8217   -8.5315   -7.7488   -5.7836   -5.1323   -4.5133   -3.1966   -2.7821
   -2.5301   -2.1283   -1.2921   -0.7723    0.0921    2.6098    3.5489    4.3898    4.9446    8.1492
   10.9837   11.3872   12.0581   15.5905   16.9519   17.2474   17.8338   18.3602   19.7440   20.1568
   21.4672   21.5565   23.1872   25.6974   28.6756   31.8564   32.1209   34.8929   35.0794   36.4530
   39.2694   41.3061   41.9452   44.0795   45.3287   46.0391   46.9634
  28  1  -26.2494  -20.4445  -20.0086  -19.2354  -18.7125  -18.0023  -17.7608  -15.3079  -14.2154  -13.2327
         -12.1178  -11.0480   -9.7338   -7.8093   -6.3792   -6.3445   -5.3230   -4.0559   -3.9852   -3.3026
   -2.4380   -2.2840   -2.0571   -0.9775   -0.0933    2.4748    2.5793    3.8311    4.1618    8.1428
    9.4054   13.2629   15.0161   15.9853   16.4147   17.3225   19.5653   20.2435   21.1872   22.8357
   23.0972   24.3840   25.4308   25.5295   26.2976   27.9455   28.9509   30.2514   35.4356   39.2238
   45.5033   47.4789   48.2164   50.3886   53.7314   54.1923   56.7534
  29  1  -26.2262  -20.3012  -20.0941  -19.2910  -19.0901  -17.9925  -16.1149  -15.9633  -15.2666  -12.1766
         -11.7392  -11.7332   -8.2952   -8.0931   -7.7941   -7.6968   -6.3517   -4.7136   -4.2663   -4.0858
   -3.7243   -2.9938   -1.7899    0.8316    1.8500    2.1896    4.3719    4.5931    4.8301    7.6408
    9.0368    9.9762   12.4922   14.4600   17.5567   17.7814   18.1073   18.6014   19.6465   20.3422
   22.2441   24.5249   24.6882   25.1501   27.0152   30.6889   31.0859   34.4399   35.3918   36.5048
   36.7405   41.2750   42.0067   44.0889   45.2390   45.5921   46.3121
  30  1  -26.3799  -20.7484  -19.7304  -19.6298  -17.7228  -17.1236  -17.1182  -15.8459  -14.7633  -12.4839
         -11.5803  -11.3890   -9.6579   -9.1491   -8.2776   -7.8621   -6.5374   -5.9531   -2.2578   -2.1131
   -1.7359   -1.2442   -0.8518    1.0916    3.2518    3.9758    4.6960    6.0699    6.1380    7.8386
   11.2475   13.4880   18.5073   18.9724   19.3244   20.2063   20.7984   21.8210   21.9816   23.2204
   23.4069   24.4224   26.6356   28.7400   29.4203   30.3686   31.8799   33.0161   33.2366   39.4647
   42.5156   44.1591   44.1960   48.1464   48.1837   49.1480   54.6526
  31  1  -26.3799  -20.7484  -19.7304  -19.6298  -17.7230  -17.1236  -17.1182  -15.8458  -14.7633  -12.4839
         -11.5803  -11.3890   -9.6579   -9.1491   -8.2777   -7.8621   -6.5374   -5.9531   -2.2578   -2.1130
   -1.7361   -1.2439   -0.8519    1.0916    3.2518    3.9758    4.6960    6.0698    6.1380    7.8386
   11.2477   13.4877   18.5075   18.9724   19.3246   20.2064   20.7984   21.8206   21.9817   23.2201
   23.4068   24.4224   26.6358   28.7400   29.4201   30.3691   31.8799   33.0161   33.2366   39.4644
   42.5154   44.1591   44.1960   48.1463   48.1837   49.1478   54.6525
  32  1  -26.2262  -20.3012  -20.0940  -19.2910  -19.0902  -17.9925  -16.1149  -15.9633  -15.2666  -12.1766
         -11.7392  -11.7332   -8.2951   -8.0932   -7.7941   -7.6968   -6.3517   -4.7136   -4.2663   -4.0858
   -3.7243   -2.9938   -1.7900    0.8316    1.8500    2.1896    4.3719    4.5931    4.8304    7.6408
    9.0368    9.9761   12.4921   14.4600   17.5567   17.7814   18.1073   18.6013   19.6464   20.3423
   22.2440   24.5250   24.6882   25.1505   27.0152   30.6889   31.0859   34.4400   35.3919   36.5043
   36.7404   41.2750   42.0066   44.0890   45.2391   45.5921   46.3120
  33  1  -26.3799  -20.7484  -19.7304  -19.6298  -17.7228  -17.1236  -17.1182  -15.8459  -14.7633  -12.4839
         -11.5803  -11.3890   -9.6579   -9.1491   -8.2776   -7.8621   -6.5374   -5.9531   -2.2578   -2.1131
   -1.7359   -1.2442   -0.8518    1.0916    3.2518    3.9758    4.6960    6.0699    6.1380    7.8386
   11.2475   13.4880   18.5073   18.9724   19.3244   20.2063   20.7984   21.8210   21.9816   23.2204
   23.4069   24.4224   26.6356   28.7400   29.4203   30.3686   31.8799   33.0161   33.2366   39.4647
   42.5156   44.1591   44.1960   48.1464   48.1837   49.1480   54.6526
  34  1  -26.3110  -20.6391  -19.5248  -18.4921  -17.4654  -17.4652  -16.3978  -16.2573  -13.8486  -11.4391
         -10.8325  -10.8325  -10.7318  -10.7318  -10.6775  -10.6775   -4.2508   -4.1850   -0.4316   -0.4312
    1.3351    1.3351    3.9379    3.9380    4.4933    4.4933    7.5409    7.5412   11.6576   11.6577
   14.4815   14.4815   18.6201   20.8018   20.9062   24.0399   24.0400   29.2668   29.2669   29.3279
   29.3282   31.2926   31.2927   31.5654   31.5655   35.2309   35.3051   45.7349   45.7364   45.7939
   46.0300   46.0800   46.1855   46.2053   46.2061   47.2003   47.2005
  35  1  -26.3799  -20.7484  -19.7304  -19.6298  -17.7228  -17.1236  -17.1182  -15.8459  -14.7633  -12.4839
         -11.5803  -11.3890   -9.6579   -9.1491   -8.2776   -7.8621   -6.5374   -5.9531   -2.2578   -2.1131
   -1.7359   -1.2442   -0.8518    1.0916    3.2518    3.9758    4.6960    6.0699    6.1380    7.8386
   11.2475   13.4880   18.5073   18.9724   19.3244   20.2063   20.7984   21.8210   21.9816   23.2204
   23.4069   24.4224   26.6356   28.7400   29.4203   30.3686   31.8799   33.0161   33.2366   39.4647
   42.5156   44.1591   44.1960   48.1464   48.1837   49.1480   54.6526
  36  1  -26.2383  -20.4109  -20.3036  -19.2365  -18.4523  -17.9430  -17.5950  -15.4525  -14.4967  -13.0990
         -11.5587  -11.2089   -8.4523   -7.6810   -7.4258   -7.0145   -4.6080   -4.3423   -4.3381   -4.2787
   -4.0356   -3.4863   -3.3061   -3.2707   -1.6629   -0.9284    4.2590    4.3051    5.1146    5.5348
   12.5834   12.6725   14.4911   15.4549   16.1146   18.2730   18.9105   20.2744   20.4114   21.3704
   21.6624   22.1770   22.5140   22.7624   25.1805   25.3255   29.6848   30.7447   33.3301   37.3424
   46.0196   48.2323   48.3187   48.8449   49.7739   51.1026   60.8780
  37  1  -26.3799  -20.7484  -19.7304  -19.6298  -17.7230  -17.1236  -17.1182  -15.8458  -14.7633  -12.4839
         -11.5803  -11.3890   -9.6579   -9.1491   -8.2777   -7.8621   -6.5374   -5.9531   -2.2578   -2.1130
   -1.7361   -1.2439   -0.8519    1.0916    3.2518    3.9758    4.6960    6.0698    6.1380    7.8386
   11.2477   13.4877   18.5075   18.9724   19.3246   20.2064   20.7984   21.8206   21.9817   23.2201
   23.4068   24.4224   26.6358   28.7400   29.4201   30.3691   31.8799   33.0161   33.2366   39.4644
   42.5154   44.1591   44.1960   48.1463   48.1837   49.1478   54.6525
  38  1  -26.3799  -20.7484  -19.7304  -19.6298  -17.7228  -17.1236  -17.1182  -15.8459  -14.7633  -12.4839
         -11.5803  -11.3890   -9.6579   -9.1491   -8.2776   -7.8621   -6.5374   -5.9531   -2.2578   -2.1131
   -1.7359   -1.2442   -0.8518    1.0916    3.2518    3.9758    4.6960    6.0699    6.1380    7.8386
   11.2475   13.4880   18.5073   18.9724   19.3244   20.2063   20.7984   21.8210   21.9816   23.2204
   23.4069   24.4224   26.6356   28.7400   29.4203   30.3686   31.8799   33.0161   33.2366   39.4647
   42.5156   44.1591   44.1960   48.1464   48.1837   49.1480   54.6526
  39  1  -26.2262  -20.3012  -20.0941  -19.2910  -19.0901  -17.9925  -16.1149  -15.9633  -15.2666  -12.1766
         -11.7392  -11.7332   -8.2952   -8.0931   -7.7941   -7.6968   -6.3517   -4.7136   -4.2663   -4.0858
   -3.7243   -2.9938   -1.7899    0.8316    1.8500    2.1896    4.3719    4.5931    4.8301    7.6408
    9.0368    9.9762   12.4922   14.4600   17.5567   17.7814   18.1073   18.6014   19.6465   20.3422
   22.2441   24.5249   24.6882   25.1501   27.0152   30.6889   31.0859   34.4399   35.3918   36.5048
   36.7405   41.2750   42.0067   44.0889   45.2390   45.5921   46.3121
  40  1  -26.2262  -20.3012  -20.0940  -19.2910  -19.0902  -17.9925  -16.1149  -15.9633  -15.2666  -12.1766
         -11.7392  -11.7332   -8.2951   -8.0932   -7.7941   -7.6968   -6.3517   -4.7136   -4.2663   -4.0858
   -3.7243   -2.9938   -1.7900    0.8316    1.8500    2.1896    4.3719    4.5931    4.8304    7.6408
    9.0368    9.9761   12.4921   14.4600   17.5567   17.7814   18.1073   18.6013   19.6464   20.3423
   22.2440   24.5250   24.6882   25.1505   27.0152   30.6889   31.0859   34.4400   35.3919   36.5043
   36.7404   41.2750   42.0066   44.0890   45.2391   45.5921   46.3120
  41  1  -26.2262  -20.3012  -20.0940  -19.2910  -19.0902  -17.9925  -16.1149  -15.9633  -15.2666  -12.1766
         -11.7392  -11.7332   -8.2951   -8.0932   -7.7941   -7.6968   -6.3517   -4.7136   -4.2663   -4.0858
   -3.7243   -2.9938   -1.7900    0.8316    1.8500    2.1896    4.3719    4.5931    4.8304    7.6408
    9.0368    9.9761   12.4921   14.4600   17.5567   17.7814   18.1073   18.6013   19.6464   20.3423
   22.2440   24.5250   24.6882   25.1505   27.0152   30.6889   31.0859   34.4400   35.3918   36.5043
   36.7404   41.2750   42.0066   44.0890   45.2391   45.5921   46.3120
  42  1  -26.2383  -20.4109  -20.3036  -19.2365  -18.4523  -17.9430  -17.5950  -15.4525  -14.4967  -13.0990
         -11.5587  -11.2089   -8.4523   -7.6810   -7.4258   -7.0145   -4.6080   -4.3423   -4.3381   -4.2787
   -4.0356   -3.4863   -3.3061   -3.2707   -1.6629   -0.9284    4.2590    4.3051    5.1146    5.5348
   12.5834   12.6725   14.4911   15.4549   16.1146   18.2730   18.9105   20.2744   20.4114   21.3704
   21.6624   22.1770   22.5140   22.7624   25.1805   25.3255   29.6848   30.7447   33.3301   37.3424
   46.0196   48.2323   48.3187   48.8449   49.7739   51.1026   60.8780
  43  1  -26.2262  -20.3012  -20.0940  -19.2910  -19.0902  -17.9925  -16.1149  -15.9633  -15.2666  -12.1766
         -11.7392  -11.7332   -8.2951   -8.0932   -7.7941   -7.6968   -6.3517   -4.7136   -4.2663   -4.0858
   -3.7243   -2.9938   -1.7900    0.8316    1.8500    2.1896    4.3719    4.5931    4.8304    7.6408
    9.0368    9.9761   12.4921   14.4600   17.5567   17.7814   18.1073   18.6013   19.6464   20.3423
   22.2440   24.5250   24.6882   25.1505   27.0152   30.6889   31.0859   34.4400   35.3918   36.5043
   36.7404   41.2750   42.0066   44.0890   45.2391   45.5921   46.3120
  44  1  -26.2383  -20.4108  -20.3036  -19.2365  -18.4523  -17.9431  -17.5950  -15.4525  -14.4966  -13.0990
         -11.5587  -11.2089   -8.4522   -7.6811   -7.4258   -7.0145   -4.6080   -4.3423   -4.3381   -4.2787
   -4.0356   -3.4863   -3.3061   -3.2707   -1.6629   -0.9284    4.2590    4.3052    5.1142    5.5352
   12.5832   12.6725   14.4913   15.4549   16.1146   18.2729   18.9110   20.2744   20.4114   21.3703
   21.6624   22.1771   22.5140   22.7625   25.1805   25.3253   29.6849   30.7447   33.3300   37.3415
   46.0195   48.2324   48.3187   48.8451   49.7739   51.1025   60.8779
siesta: Fermi energy =     -14.732358 eV

siesta: Program's energy decomposition (eV):
siesta: Ebs     =      -309.886648
siesta: Eions   =       380.620085
siesta: Ena     =        90.809187
siesta: Ekin    =       214.506376
siesta: Enl     =         8.393308
siesta: Eso     =         0.000000
siesta: Edftu   =         0.000000
siesta: DEna    =         7.237925
siesta: DUscf   =         4.263665
siesta: DUext   =         0.000000
siesta: Exc     =      -170.432166
siesta: eta*DQ  =         0.000000
siesta: Emadel  =         0.000000
siesta: Emeta   =         0.000000
siesta: Emolmec =        -7.035637
siesta: Ekinion =         0.000000
siesta: Eharris =      -232.877428
siesta: Etot    =      -232.877428
siesta: FreeEng =      -232.887937

siesta: Final energy (eV):
siesta:  Band Struct. =    -309.886648
siesta:       Kinetic =     214.506376
siesta:       Hartree =      75.865795
siesta:       Edftu   =       0.000000
siesta:       Eso     =       0.000000
siesta:    Ext. field =       0.000000
siesta:   Exch.-corr. =    -170.432166
siesta:  Ion-electron =    -494.159676
siesta:       Ion-ion =     148.377880
siesta:       Ekinion =       0.000000
siesta:         Total =    -232.877428
siesta:         Fermi =     -14.732358

siesta: Atomic forces (eV/Ang):
siesta:      1    0.000000    0.000000    0.000000
siesta:      2    0.378891   -0.000007    0.174662
siesta:      3   -0.378891    0.000007   -0.174662
siesta:      4   -0.189451    0.328126    0.174662
siesta:      5    0.189451   -0.328126   -0.174662
siesta:      6   -0.189444   -0.328126    0.174620
siesta:      7    0.189444    0.328126   -0.174620
siesta:      8   -0.378891    0.000007    0.174662
siesta:      9    0.378891   -0.000007   -0.174662
siesta:     10    0.189451   -0.328126    0.174662
siesta:     11   -0.189451    0.328126   -0.174662
siesta:     12    0.189444    0.328126    0.174620
siesta:     13   -0.189444   -0.328126   -0.174620
siesta: ----------------------------------------
siesta:    Tot    0.000000    0.000000   -0.000000

siesta: Stress tensor (static) (eV/Ang**3):
siesta:    -0.890647   -0.000009    0.000000
siesta:    -0.000009   -0.890658    0.000000
siesta:     0.000000    0.000000    0.285487

siesta: Cell volume =         82.006779 Ang**3

siesta: Pressure (static):
siesta:                Solid            Molecule  Units
siesta:           0.00543045          0.00569448  Ry/Bohr**3
siesta:           0.49860586          0.52284792  eV/Ang**3
siesta:         798.86328735        837.70377458  kBar
(Free)E+ p_basis*V_orbitals  =        -200.717816
(Free)Eharris+ p_basis*V_orbitals  =        -200.717816

cite: Please see "LiC12_scf.bib" for an exhaustive BiBTeX file.
cite: Please clearly indicate Siesta version in published work: 4.1.5
cite: This calculation has made use of the following articles
cite: which are encouraged to be cited in a published work.
        Primary SIESTA paper
          DOI: www.doi.org/10.1088/0953-8984/14/11/302

>> End of run:   9-NOV-2022  13:01:24
Job completed
