Siesta Version  : 4.1.5
Architecture    : x86_64-unknown-linux-gnu--unknown
Compiler version: GNU Fortran (GCC) 11.3.0
Compiler flags  : mpif90 -g -O2 -fallow-argument-mismatch
PP flags        : -DMPI -DFC_HAVE_FLUSH -DFC_HAVE_ABORT
Libraries       :  -I/global/software/sl-7.x86_64/modules/intel/2020.4.304/mkl/include  /globall/software/sl-7.x86_64/modules/intel/2020.4.304/mkl/lib/intel64/libmkl_scalapack_lp64.a -Wl,--start-group /global/software/sl-7.x86_64/modules/intel/2020.4.304/mkl/lib/intel64/libmkl_intel_lp64.a /global/software/sl-7.x86_64/modules/intel/2020.4.304/mkl/lib/intel64/libmkl_sequential.a /global/software/sl-7.x86_64/modules/intel/2020.4.304/mkl/lib/intel64/libmkl_core.a /global/software/sl-7.x86_64/modules/intel/2020.4.304/mkl/lib/intel64/libmkl_blacs_openmpi_lp64.a -Wl,--end-group -lpthread -lm -ldl
PARALLEL version

* Running on 12 nodes in parallel
>> Start of run:   9-NOV-2022  13:59:28

                           ***********************       
                           *  WELCOME TO SIESTA  *       
                           ***********************       

reinit: Reading from standard input
reinit: Dumped input in INPUT_TMP.35676
************************** Dump of input data file ****************************
SystemName LiC12_scf
SystemLabel LiC12_scf
NumberOfAtoms   13
NumberOfSpecies 2
%block ChemicalSpeciesLabel
1  3   Li-gga
2  6   C-gga
%endblock ChemicalSpeciesLabel
PAO.BasisSize  SZP
PAO.EnergyShift  10 meV
%block PS.Lmax
C-gga   2
Li-gga  2
%endblock PS.Lmax
LatticeConstant 1.000000 Ang
%block LatticeVectors
	4.2686000000	0.0000000000	0.0000000000
	-2.1343000000	3.6967160386	0.0000000000
	0.0000000000	0.0000000000	8.7083960000
%endblock LatticeVectors
AtomicCoordinatesFormat Ang
%block AtomicCoordinatesAndAtomicSpecies
	0.00000000	0.00000000	0.00000000	2
	1.42144380	0.00000000	2.17709900	1
	2.84715620	0.00000000	6.53129700	1
	-0.71072190	1.23100644	2.17709900	1
	-1.42357810	2.46570960	6.53129700	1
	1.42357810	2.46570960	2.17709900	1
	0.71072190	1.23100644	6.53129700	1
	2.84715620	0.00000000	2.17709900	1
	1.42144380	0.00000000	6.53129700	1
	-1.42357810	2.46570960	2.17709900	1
	-0.71072190	1.23100644	6.53129700	1
	0.71072190	1.23100644	2.17709900	1
	1.42357810	2.46570960	6.53129700	1
%endblock AtomicCoordinatesAndAtomicSpecies
Kgrid_NoTRS  T
%block kgrid_MonkhorstPack
4       0       0       0.0
0       4       0       0.0
0       0       4       0.0
%endblock kgrid_MonkhorstPack
AtomCoorFormatOut Ang
BlockSize 1
#ProcessorY 12
Diag.ParallelOverK   T
Diag.DivideAndConquer F
MeshCutoff   300 Ry
SCF.FreeE.Tolerance 1E-3 eV
SCF.EDM.Tolerance   5E-3 eV
DM.Tolerance  1E-3
DM.Require.Energy.Convergence T
DM.NumberPulay 4
XC.Functional GGA
XC.Authors    PBE
UseSaveData        F
MD.TypeOfRun       CG
MD.VariableCell    F
MD.NumCGsteps      00
MD.MaxCGDispl      0.200000 Bohr
MD.MaxStressTol    1.000000 GPa
MD.MaxForceTol     0.010000 eV/Ang
WriteMDHistory T
WriteCoorStep T
WriteForces T
WriteCoorStep    T
WriteEigenValues T
WriteDM    F
MM.UnitsDistance Ang  # what this program prints out DO NOT CHANGE
MM.UnitsEnergy    eV  # what this program prints out DO NOT CHANGE
MM.Grimme.S6     0.75 # Grimme-paper for PBE (correct for your functional)
MM.Grimme.D     20.   # Grimme-paper (correct for your functional)
%block MM.Potentials
  1   1 Grimme     16.69      1.650 # Li, 10.1002/jcc.20495
  1   2 Grimme     17.40      2.277 # Li / C
  2   2 Grimme     18.14      2.904 # C, 10.1002/jcc.20495
%endblock MM.Potentials
#%block ProjectedDensityOfStates
# -200.0  120.0  0.4  12800  eV
#%endblock ProjectedDensityOfStates
************************** End of input data file *****************************

reinit: -----------------------------------------------------------------------
reinit: System Name: LiC12_scf
reinit: -----------------------------------------------------------------------
reinit: System Label: LiC12_scf
reinit: -----------------------------------------------------------------------
Reading two-body potentials
Grimme - two-body potential between 1 and 1
Grimme - two-body potential between 1 and 2
Grimme - two-body potential between 2 and 2

initatom: Reading input for the pseudopotentials and atomic orbitals ----------
Species number:   1 Atomic number:    3 Label: Li-gga
Species number:   2 Atomic number:    6 Label: C-gga

Ground state valence configuration:   2s01
Reading pseudopotential information in formatted form from Li-gga.psf

Valence configuration for pseudopotential generation:
2s( 1.00) rc: 2.28
2p( 0.00) rc: 2.28
3d( 0.00) rc: 2.59
4f( 0.00) rc: 2.59
Ground state valence configuration:   2s02  2p02
Reading pseudopotential information in formatted form from C-gga.psf

Valence configuration for pseudopotential generation:
2s( 2.00) rc: 1.56
2p( 2.00) rc: 1.56
3d( 0.00) rc: 1.56
4f( 0.00) rc: 1.56
relmxkb: Read Max KB Ang. Momentum=    2 for species C-gga
relmxkb: Read Max KB Ang. Momentum=    2 for species Li-gga

<basis_specs>
===============================================================================
Li-gga               Z=   3    Mass=  6.9400        Charge= 0.17977+309
Lmxo=0 Lmxkb= 2    BasisType=split      Semic=F
L=0  Nsemic=0  Cnfigmx=2
          i=1  nzeta=1  polorb=1  (2s)
            splnorm:   0.15000    
               vcte:    0.0000    
               rinn:    0.0000    
               qcoe:    0.0000    
               qyuk:    0.0000    
               qwid:   0.10000E-01
                rcs:    0.0000    
            lambdas:    1.0000    
-------------------------------------------------------------------------------
L=0  Nkbl=1  erefs: 0.17977+309
L=1  Nkbl=1  erefs: 0.17977+309
L=2  Nkbl=1  erefs: 0.17977+309
===============================================================================
</basis_specs>

atom: Called for Li-gga                (Z =   3)

read_vps: Pseudopotential generation method:
read_vps: ATM 3.2.2 Troullier-Martins                       
Valence charge for ps generation:    1.00000

read_vps: Pseudopotential includes a core correction:
read_vps: Pseudo-core for xc-correction

xc_check: Exchange-correlation functional:
xc_check: GGA Perdew, Burke & Ernzerhof 1996
V l=0 = -2*Zval/r beyond r=  2.2278
V l=1 = -2*Zval/r beyond r=  2.2278
V l=2 = -2*Zval/r beyond r=  2.5245
All V_l potentials equal beyond r=  2.4622
This should be close to max(r_c) in ps generation
All pots = -2*Zval/r beyond r=  2.5245

VLOCAL1: 99.0% of the norm of Vloc inside      7.160 Ry
VLOCAL1: 99.9% of the norm of Vloc inside     16.318 Ry
atom: Maximum radius for 4*pi*r*r*local-pseudopot. charge    2.86079
atom: Maximum radius for r*vlocal+2*Zval:    2.43160
GHOST: No ghost state for L =  0
GHOST: No ghost state for L =  1
GHOST: No ghost state for L =  2

KBgen: Kleinman-Bylander projectors: 
   l= 0   rc=  2.654023   el= -0.211234   Ekb=  1.742119   kbcos=  0.228463
   l= 1   rc=  2.721230   el= -0.080095   Ekb= -1.122375   kbcos= -0.147941
   l= 2   rc=  2.825246   el=  0.002001   Ekb= -0.207076   kbcos= -0.031965

KBgen: Total number of Kleinman-Bylander projectors:    9
atom: -------------------------------------------------------------------------

atom: SANKEY-TYPE ORBITALS:

SPLIT: Orbitals with angular momentum L= 0

SPLIT: Basis orbitals for state 2s

SPLIT: PAO cut-off radius determined from an
SPLIT: energy shift=  0.000735 Ry

   izeta = 1
                 lambda =    1.000000
                     rc =   11.897381
                 energy =   -0.210580
                kinetic =    0.143382
    potential(screened) =   -0.353962
       potential(ionic) =   -0.533453

POLgen: Perturbative polarization orbital with L=  1

POLgen: Polarization orbital for state 2s

   izeta = 1
                     rc =   11.897381
                 energy =   -0.027011
                kinetic =    0.282985
    potential(screened) =   -0.309997
       potential(ionic) =   -0.490997
atom: Total number of Sankey-type orbitals:  4

atm_pop: Valence configuration (for local Pseudopot. screening):
 2s( 1.00)                                                            
Vna: chval, zval:    1.00000   1.00000

Vna:  Cut-off radius for the neutral-atom potential:  11.897381
comcore: Pseudo-core radius Rcore=  3.450946

atom: _________________________________________________________________________

<basis_specs>
===============================================================================
C-gga                Z=   6    Mass=  12.010        Charge= 0.17977+309
Lmxo=1 Lmxkb= 2    BasisType=split      Semic=F
L=0  Nsemic=0  Cnfigmx=2
          i=1  nzeta=1  polorb=0  (2s)
            splnorm:   0.15000    
               vcte:    0.0000    
               rinn:    0.0000    
               qcoe:    0.0000    
               qyuk:    0.0000    
               qwid:   0.10000E-01
                rcs:    0.0000    
            lambdas:    1.0000    
L=1  Nsemic=0  Cnfigmx=2
          i=1  nzeta=1  polorb=1  (2p)
            splnorm:   0.15000    
               vcte:    0.0000    
               rinn:    0.0000    
               qcoe:    0.0000    
               qyuk:    0.0000    
               qwid:   0.10000E-01
                rcs:    0.0000    
            lambdas:    1.0000    
-------------------------------------------------------------------------------
L=0  Nkbl=1  erefs: 0.17977+309
L=1  Nkbl=1  erefs: 0.17977+309
L=2  Nkbl=1  erefs: 0.17977+309
===============================================================================
</basis_specs>

atom: Called for C-gga                 (Z =   6)

read_vps: Pseudopotential generation method:
read_vps: ATM 3.2.2 Troullier-Martins                       
Valence charge for ps generation:    4.00000

xc_check: Exchange-correlation functional:
xc_check: GGA Perdew, Burke & Ernzerhof 1996
V l=0 = -2*Zval/r beyond r=  1.5227
V l=1 = -2*Zval/r beyond r=  1.5227
V l=2 = -2*Zval/r beyond r=  1.5227
All V_l potentials equal beyond r=  1.4851
This should be close to max(r_c) in ps generation
All pots = -2*Zval/r beyond r=  1.5227

VLOCAL1: 99.0% of the norm of Vloc inside     19.682 Ry
VLOCAL1: 99.9% of the norm of Vloc inside     44.856 Ry
atom: Maximum radius for 4*pi*r*r*local-pseudopot. charge    1.79142
atom: Maximum radius for r*vlocal+2*Zval:    1.54183
GHOST: No ghost state for L =  0
GHOST: No ghost state for L =  1
GHOST: No ghost state for L =  2

KBgen: Kleinman-Bylander projectors: 
   l= 0   rc=  1.661951   el= -1.010689   Ekb=  5.289847   kbcos=  0.316429
   l= 1   rc=  1.661951   el= -0.388490   Ekb= -4.102504   kbcos= -0.351025
   l= 2   rc=  1.747182   el=  0.001971   Ekb= -1.006005   kbcos= -0.008530

KBgen: Total number of Kleinman-Bylander projectors:    9
atom: -------------------------------------------------------------------------

atom: SANKEY-TYPE ORBITALS:

SPLIT: Orbitals with angular momentum L= 0

SPLIT: Basis orbitals for state 2s

SPLIT: PAO cut-off radius determined from an
SPLIT: energy shift=  0.000735 Ry

   izeta = 1
                 lambda =    1.000000
                     rc =    5.948690
                 energy =   -1.010099
                kinetic =    0.827121
    potential(screened) =   -1.837220
       potential(ionic) =   -5.392783

SPLIT: Orbitals with angular momentum L= 1

SPLIT: Basis orbitals for state 2p

SPLIT: PAO cut-off radius determined from an
SPLIT: energy shift=  0.000735 Ry

   izeta = 1
                 lambda =    1.000000
                     rc =    7.638387
                 energy =   -0.387843
                kinetic =    2.314739
    potential(screened) =   -2.702582
       potential(ionic) =   -6.092371

POLgen: Perturbative polarization orbital with L=  2

POLgen: Polarization orbital for state 2p

   izeta = 1
                     rc =    7.638387
                 energy =    0.921402
                kinetic =    1.955040
    potential(screened) =   -1.033637
       potential(ionic) =   -3.679558
atom: Total number of Sankey-type orbitals:  9

atm_pop: Valence configuration (for local Pseudopot. screening):
 2s( 2.00)                                                            
 2p( 2.00)                                                            
Vna: chval, zval:    4.00000   4.00000

Vna:  Cut-off radius for the neutral-atom potential:   7.638387

atom: _________________________________________________________________________

prinput: Basis input ----------------------------------------------------------

PAO.BasisType split     

%block ChemicalSpeciesLabel
    1    3 Li-gga                  # Species index, atomic number, species label
    2    6 C-gga                   # Species index, atomic number, species label
%endblock ChemicalSpeciesLabel

%block PAO.Basis                 # Define Basis set
Li-gga                1                    # Species label, number of l-shells
 n=2   0   1 P   1                   # n, l, Nzeta, Polarization, NzetaPol
  11.897   
   1.000   
C-gga                 2                    # Species label, number of l-shells
 n=2   0   1                         # n, l, Nzeta 
   5.949   
   1.000   
 n=2   1   1 P   1                   # n, l, Nzeta, Polarization, NzetaPol
   7.638   
   1.000   
%endblock PAO.Basis

prinput: ----------------------------------------------------------------------

coor:   Atomic-coordinates input format  =     Cartesian coordinates
coor:                                          (in Angstroms)

siesta: Atomic coordinates (Bohr) and species
siesta:      0.00000   0.00000   0.00000  2        1
siesta:      2.68614   0.00000   4.11412  1        2
siesta:      5.38035   0.00000  12.34237  1        3
siesta:     -1.34307   2.32627   4.11412  1        4
siesta:     -2.69017   4.65952  12.34237  1        5
siesta:      2.69017   4.65952   4.11412  1        6
siesta:      1.34307   2.32627  12.34237  1        7
siesta:      5.38035   0.00000   4.11412  1        8
siesta:      2.68614   0.00000  12.34237  1        9
siesta:     -2.69017   4.65952   4.11412  1       10
siesta:     -1.34307   2.32627  12.34237  1       11
siesta:      1.34307   2.32627   4.11412  1       12
siesta:      2.69017   4.65952  12.34237  1       13

siesta: System type = bulk      

initatomlists: Number of atoms, orbitals, and projectors:     13    57   117

siesta: ******************** Simulation parameters ****************************
siesta:
siesta: The following are some of the parameters of the simulation.
siesta: A complete list of the parameters used, including default values,
siesta: can be found in file out.fdf
siesta:
redata: Spin configuration                          = none
redata: Number of spin components                   = 1
redata: Time-Reversal Symmetry                      = T
redata: Spin spiral                                 = F
redata: Long output                                 =   F
redata: Number of Atomic Species                    =        2
redata: Charge density info will appear in .RHO file
redata: Write Mulliken Pop.                         = NO
redata: Matel table size (NRTAB)                    =     1024
redata: Mesh Cutoff                                 =   300.0000 Ry
redata: Net charge of the system                    =     0.0000 |e|
redata: Min. number of SCF Iter                     =        0
redata: Max. number of SCF Iter                     =     1000
redata: SCF convergence failure will abort job
redata: SCF mix quantity                            = Hamiltonian
redata: Mix DM or H after convergence               =   F
redata: Recompute H after scf cycle                 =   F
redata: Mix DM in first SCF step                    =   T
redata: Write Pulay info on disk                    =   F
redata: New DM Occupancy tolerance                  = 0.000000000001
redata: No kicks to SCF
redata: DM Mixing Weight for Kicks                  =     0.5000
redata: Require Harris convergence for SCF          =   F
redata: Harris energy tolerance for SCF             =     0.000100 eV
redata: Require DM convergence for SCF              =   T
redata: DM tolerance for SCF                        =     0.001000
redata: Require EDM convergence for SCF             =   F
redata: EDM tolerance for SCF                       =     0.005000 eV
redata: Require H convergence for SCF               =   T
redata: Hamiltonian tolerance for SCF               =     0.001000 eV
redata: Require (free) Energy convergence for SCF   =   T
redata: (free) Energy tolerance for SCF             =     0.001000 eV
redata: Using Saved Data (generic)                  =   F
redata: Use continuation files for DM               =   F
redata: Neglect nonoverlap interactions             =   F
redata: Method of Calculation                       = Diagonalization
redata: Electronic Temperature                      =   299.9869 K
redata: Fix the spin of the system                  =   F
redata: Dynamics option                             = Single-point calculation
mix.SCF: Pulay mixing                            = Pulay
mix.SCF:    Variant                              = stable
mix.SCF:    History steps                        = 4
mix.SCF:    Linear mixing weight                 =     0.250000
mix.SCF:    Mixing weight                        =     0.250000
mix.SCF:    SVD condition                        = 0.1000E-07
redata: ***********************************************************************

%block SCF.Mixers
  Pulay
%endblock SCF.Mixers

%block SCF.Mixer.Pulay
  # Mixing method
  method pulay
  variant stable

  # Mixing options
  weight 0.2500
  weight.linear 0.2500
  history 4
%endblock SCF.Mixer.Pulay

DM_history_depth set to one: no extrapolation allowed by default for geometry relaxation
Size of DM history Fstack: 1
Total number of electrons:    16.000000
Total ionic charge:    16.000000

* ProcessorY, Blocksize:    3   1


* Orbital distribution balance (max,min):     5     4

k-point displ. along   1 input, could be:     0.00    0.50
k-point displ. along   2 input, could be:     0.00    0.50
k-point displ. along   3 input, could be:     0.00    0.50
 Kpoints in:           48 . Kpoints trimmed:           44

siesta: k-grid: Number of k-points =    44
siesta: k-grid: Cutoff (effective) =     8.537 Ang
siesta: k-grid: Supercell and displacements
siesta: k-grid:    4   0   0      0.000
siesta: k-grid:    0   4   0      0.000
siesta: k-grid:    0   0   4      0.000

diag: Algorithm                                     = Expert
diag: Parallel over k                               =   T
diag: Use parallel 2D distribution                  =   T
diag: Parallel block-size                           = 1
diag: Parallel distribution                         =     3 x     4
diag: Used triangular part                          = Lower
diag: Absolute tolerance                            =  0.100E-15
diag: Orthogonalization factor                      =  0.100E-05
diag: Memory factor                                 =  1.0000

superc: Internal auxiliary supercell:     9 x     9 x     3  =     243
superc: Number of atoms, orbitals, and projectors:   3159  13851  28431


ts: **************************************************************
ts: Save H and S matrices                           =    F
ts: Save DM and EDM matrices                        =    F
ts: Only save the overlap matrix S                  =    F
ts: **************************************************************

************************ Begin: TS CHECKS AND WARNINGS ************************
************************ End: TS CHECKS AND WARNINGS **************************


                     ====================================
                        Single-point calculation
                     ====================================

outcoor: Atomic coordinates (Ang):                          
    0.00000000    0.00000000    0.00000000   2       1  C-gga
    1.42144380    0.00000000    2.17709900   1       2  Li-gga
    2.84715620    0.00000000    6.53129700   1       3  Li-gga
   -0.71072190    1.23100644    2.17709900   1       4  Li-gga
   -1.42357810    2.46570960    6.53129700   1       5  Li-gga
    1.42357810    2.46570960    2.17709900   1       6  Li-gga
    0.71072190    1.23100644    6.53129700   1       7  Li-gga
    2.84715620    0.00000000    2.17709900   1       8  Li-gga
    1.42144380    0.00000000    6.53129700   1       9  Li-gga
   -1.42357810    2.46570960    2.17709900   1      10  Li-gga
   -0.71072190    1.23100644    6.53129700   1      11  Li-gga
    0.71072190    1.23100644    2.17709900   1      12  Li-gga
    1.42357810    2.46570960    6.53129700   1      13  Li-gga

superc: Internal auxiliary supercell:     9 x     9 x     3  =     243
superc: Number of atoms, orbitals, and projectors:   3159  13851  28431

outcell: Unit cell vectors (Ang):
        4.268600    0.000000    0.000000
       -2.134300    3.696716    0.000000
        0.000000    0.000000    8.708396

outcell: Cell vector modules (Ang)   :    4.268600    4.268600    8.708396
outcell: Cell angles (23,13,12) (deg):     90.0000     90.0000    120.0000
outcell: Cell volume (Ang**3)        :    137.4168
<dSpData1D:S at geom step 0
  <sparsity:sparsity for geom step 0
    nrows_g=57 nrows=5 sparsity=6.4441 nnzs=20937, refcount: 7>
  <dData1D:(new from dSpData1D) n=20937, refcount: 1>
refcount: 1>
new_DM -- step:     1
Initializing Density Matrix...
DM filled with atomic data:
<dSpData2D:DM initialized from atoms
  <sparsity:sparsity for geom step 0
    nrows_g=57 nrows=5 sparsity=6.4441 nnzs=20937, refcount: 8>
  <dData2D:DM n=20937 m=1, refcount: 1>
refcount: 1>
No. of atoms with KB's overlaping orbs in proc 0. Max # of overlaps:     306     696
New grid distribution:   1
           1       1:   20    1:    7    1:   12
           2       1:   20    1:    7   13:   24
           3       1:   20    1:    7   25:   36
           4       1:   20    1:    7   37:   48
           5       1:   20    8:   14    1:   12
           6       1:   20    8:   14   13:   24
           7       1:   20    8:   14   25:   36
           8       1:   20    8:   14   37:   48
           9       1:   20   15:   20    1:   12
          10       1:   20   15:   20   13:   24
          11       1:   20   15:   20   25:   36
          12       1:   20   15:   20   37:   48

InitMesh: MESH =    40 x    40 x    96 =      153600
InitMesh: (bp) =    20 x    20 x    48 =       19200
InitMesh: Mesh cutoff (required, used) =   300.000   323.586 Ry
ExtMesh (bp) on 0 =   160 x   147 x   152 =     3575040
New grid distribution:   2
           1       1:   20    1:    7    1:   12
           2       1:   10    8:   20   13:   24
           3       1:   20    1:    7   25:   36
           4      11:   20    8:   20    1:   12
           5       1:   20    1:    7   13:   24
           6       1:   10    8:   20    1:   12
           7      11:   20    8:   20   25:   36
           8      11:   20    8:   20   37:   48
           9       1:   20    1:    7   37:   48
          10      11:   20    8:   20   13:   24
          11       1:   10    8:   20   25:   36
          12       1:   10    8:   20   37:   48
New grid distribution:   3
           1       1:   20    1:    7    1:   12
           2       1:   10    8:   20   13:   24
           3       1:   20    1:    7   25:   36
           4      11:   20    8:   20    1:   12
           5       1:   20    1:    7   13:   24
           6       1:   10    8:   20    1:   12
           7      11:   20    8:   20   25:   36
           8      11:   20    8:   20   37:   48
           9       1:   20    1:    7   37:   48
          10      11:   20    8:   20   13:   24
          11       1:   10    8:   20   25:   36
          12       1:   10    8:   20   37:   48
Setting up quadratic distribution...
ExtMesh (bp) on 0 =   160 x   147 x   152 =     3575040
PhiOnMesh: Number of (b)points on node 0 =                 1680
PhiOnMesh: nlist on node 0 =               676851

stepf: Fermi-Dirac step function

siesta: Program's energy decomposition (eV):
siesta: Ebs     =      -238.889212
siesta: Eions   =       380.620085
siesta: Ena     =       120.767756
siesta: Ekin    =       140.615567
siesta: Enl     =        35.665888
siesta: Eso     =         0.000000
siesta: Edftu   =         0.000000
siesta: DEna    =        16.984974
siesta: DUscf   =         9.991597
siesta: DUext   =         0.000000
siesta: Exc     =      -146.653526
siesta: eta*DQ  =         0.000000
siesta: Emadel  =         0.000000
siesta: Emeta   =         0.000000
siesta: Emolmec =        -5.298620
siesta: Ekinion =         0.000000
siesta: Eharris =      -187.623524
siesta: Etot    =      -208.546449
siesta: FreeEng =      -208.559544

        iscf     Eharris(eV)        E_KS(eV)     FreeEng(eV)     dDmax    Ef(eV) dHmax(eV)
   scf:    1     -187.623524     -208.546449     -208.559544  1.425164-10.755503 10.956556
timer: Routine,Calls,Time,% = IterSCF        1       7.730  55.60
   scf:    2     -118.439840     -189.043403     -189.073684  1.051193-11.302219 21.837861
   scf:    3     -224.066706     -211.492213     -211.505737  0.440995-11.296187  7.360802
   scf:    4     -197.695209     -210.985717     -211.005256  0.472201-10.983577  8.011317
   scf:    5     -215.902761     -214.348627     -214.369444  0.190879-11.072672  2.223416
   scf:    6     -214.584515     -214.480785     -214.502380  0.036518-11.100118  1.543871
   scf:    7     -214.680348     -214.641656     -214.659898  0.045419-11.137236  0.140495
   scf:    8     -214.637816     -214.641774     -214.659470  0.012015-11.132682  0.229057
   scf:    9     -214.630630     -214.642829     -214.659894  0.022526-11.141844  0.260330
   scf:   10     -214.646882     -214.645917     -214.663329  0.007725-11.136362  0.055759
   scf:   11     -214.645992     -214.646002     -214.663488  0.001074-11.135287  0.014003
   scf:   12     -214.646001     -214.646002     -214.663495  0.000216-11.135128  0.007616
   scf:   13     -214.645992     -214.645998     -214.663498  0.000410-11.134861  0.000702

SCF Convergence by FreeE+DM+H criterion
|FreeE_i-FreeE_(i-1)| (eV) <     0.00100000
max |DM_out - DM_in|         :     0.0004102761
max |H_out - H_in|      (eV) :     0.0007017921
SCF cycle converged after 13 iterations

Using DM_out to compute the final energy and forces
No. of atoms with KB's overlaping orbs in proc 0. Max # of overlaps:     306     696

MM-Stress (kbar):       10.84       10.84       34.36        0.00       -0.00        0.00

siesta: E_KS(eV) =             -214.6460

siesta: E_KS - E_eggbox =      -214.6460

siesta: Atomic forces (eV/Ang):
     1    0.000000   -0.000000   -0.000000
     2    0.021871   -0.000010   -0.539645
     3   -0.021872    0.000010    0.539645
     4   -0.010945    0.018936   -0.539645
     5    0.010945   -0.018936    0.539645
     6   -0.010975   -0.019010   -0.539705
     7    0.010976    0.019010    0.539705
     8   -0.021871    0.000010   -0.539645
     9    0.021872   -0.000010    0.539645
    10    0.010945   -0.018936   -0.539645
    11   -0.010945    0.018936    0.539645
    12    0.010975    0.019010   -0.539705
    13   -0.010976   -0.019010    0.539705
----------------------------------------
   Tot    0.000000    0.000000    0.000000
----------------------------------------
   Max    0.539705
   Res    0.299599    sqrt( Sum f_i^2 / 3N )
----------------------------------------
   Max    0.539705    constrained

Stress tensor Voigt[x,y,z,yz,xz,xy] (kbar):     -995.21     -995.22      345.46       -0.00        0.00       -0.01
(Free)E + p*V (eV/cell)     -167.6346
Target enthalpy (eV/cell)     -214.6635

siesta: Eigenvalues (eV):
  ik is       eps
   1  1  -20.0558  -14.6641  -13.2547  -12.4560  -12.0992  -12.0861  -11.7882  -11.0419  -10.8648  -10.5046
          -7.9707   -7.7098   -7.0354   -6.5091   -5.9564   -3.8521   -3.6729   -3.3752   -3.1227   -2.8754
    0.2645    0.6660    0.9220    1.0873    1.7150    2.1929    3.1029    3.3743    5.3175    5.8833
    7.3242    9.8166   11.1027   12.1464   12.6166   13.8715   14.4360   16.1961   17.6437   17.6551
   17.8070   20.2397   21.0715   21.9055   22.4687   23.1871   23.6001   24.4028   25.1462   31.8529
   35.0545   40.3744   41.6149   46.5804   46.9493   48.2669   48.5914
   2  1  -20.1973  -14.8404  -13.2961  -12.5314  -12.2527  -11.7024  -11.4990  -11.3175  -11.1469  -10.8238
          -8.6088   -7.1282   -5.8008   -5.2597   -4.7167   -3.8131   -3.7612   -3.7207   -3.0377   -2.4140
   -1.9971   -1.7765   -1.1224   -1.0849   -0.4715    0.9727    2.3289    5.3408    7.5480    9.9506
   11.2886   11.5981   12.1700   12.6623   12.7341   13.7416   16.1518   17.1686   17.4231   18.1123
   19.0046   22.0861   24.3300   24.6493   24.6786   25.9085   26.4990   29.8738   32.6464   36.0866
   40.4063   47.0957   48.5122   48.8886   50.9278   53.1161   54.3413
   3  1  -20.1973  -14.8404  -13.2961  -12.5314  -12.2527  -11.7024  -11.4990  -11.3174  -11.1470  -10.8238
          -8.6088   -7.1282   -5.8007   -5.2597   -4.7167   -3.8131   -3.7612   -3.7207   -3.0377   -2.4140
   -1.9971   -1.7765   -1.1225   -1.0849   -0.4714    0.9727    2.3289    5.3408    7.5480    9.9505
   11.2887   11.5981   12.1700   12.6622   12.7341   13.7416   16.1518   17.1687   17.4231   18.1122
   19.0046   22.0861   24.3300   24.6496   24.6784   25.9085   26.4990   29.8739   32.6464   36.0864
   40.4063   47.0958   48.5123   48.8885   50.9278   53.1162   54.3411
   4  1  -20.0558  -14.6641  -13.2547  -12.4560  -12.0992  -12.0861  -11.7882  -11.0419  -10.8648  -10.5046
          -7.9707   -7.7097   -7.0354   -6.5091   -5.9564   -3.8521   -3.6729   -3.3752   -3.1227   -2.8754
    0.2645    0.6660    0.9220    1.0873    1.7150    2.1928    3.1029    3.3743    5.3175    5.8833
    7.3242    9.8166   11.1026   12.1464   12.6167   13.8715   14.4360   16.1961   17.6438   17.6551
   17.8070   20.2396   21.0715   21.9055   22.4688   23.1871   23.6002   24.4028   25.1459   31.8529
   35.0545   40.3743   41.6148   46.5805   46.9493   48.2669   48.5914
   5  1  -20.1973  -14.8404  -13.2961  -12.5314  -12.2527  -11.7024  -11.4990  -11.3175  -11.1469  -10.8238
          -8.6088   -7.1282   -5.8008   -5.2597   -4.7167   -3.8131   -3.7612   -3.7207   -3.0377   -2.4140
   -1.9971   -1.7765   -1.1224   -1.0849   -0.4715    0.9727    2.3289    5.3408    7.5480    9.9506
   11.2886   11.5981   12.1700   12.6623   12.7341   13.7416   16.1518   17.1686   17.4231   18.1123
   19.0046   22.0861   24.3300   24.6493   24.6786   25.9085   26.4990   29.8738   32.6464   36.0866
   40.4063   47.0957   48.5122   48.8886   50.9278   53.1161   54.3413
   6  1  -20.2792  -14.8042  -13.4179  -12.1225  -11.8741  -11.6711  -11.4866  -11.1050  -10.9662  -10.9661
          -9.3812   -6.1281   -4.3973   -4.3973   -3.9266   -3.9266   -3.7423   -3.7423   -3.3868   -3.3868
   -2.5750   -2.5749    0.4400    0.4400    0.7969    0.7971    1.2761    1.2761    5.4160   11.8124
   11.8126   16.9093   16.9094   19.9101   19.9101   19.9857   19.9858   22.2298   22.2298   23.0527
   23.0528   24.3503   25.4241   28.4287   28.4292   32.6610   32.6611   37.7798   38.2073   38.2073
   44.9033   44.9034   47.6129   47.9359   49.0431   49.3942   51.1285
   7  1  -20.0583  -14.7188  -13.4917  -12.3010  -12.2149  -11.6668  -11.5085  -11.4839  -11.3096  -10.3978
          -8.6523   -7.7538   -7.1257   -5.7399   -5.0741   -5.0567   -3.4926   -3.3038   -2.3066   -0.7341
   -0.5641   -0.3430    0.3510    0.5350    1.1062    1.4239    1.9863    2.0067    2.1725    5.0812
    9.3582   10.5815   11.5735   13.5854   13.9785   14.4927   14.7711   16.1257   16.1880   17.6033
   19.4361   19.9525   20.0307   20.4376   22.8856   25.2533   25.4987   25.7180   26.4379   29.9383
   39.9910   52.8693   53.1296   53.7198   53.7576   53.8646   57.5344
   8  1  -20.0558  -14.6641  -13.2547  -12.4560  -12.0992  -12.0861  -11.7882  -11.0419  -10.8648  -10.5046
          -7.9707   -7.7097   -7.0354   -6.5091   -5.9564   -3.8521   -3.6729   -3.3752   -3.1227   -2.8754
    0.2645    0.6660    0.9220    1.0873    1.7150    2.1928    3.1029    3.3743    5.3175    5.8833
    7.3242    9.8166   11.1026   12.1464   12.6167   13.8715   14.4360   16.1961   17.6438   17.6551
   17.8070   20.2396   21.0715   21.9055   22.4688   23.1871   23.6002   24.4028   25.1459   31.8529
   35.0545   40.3743   41.6148   46.5805   46.9493   48.2669   48.5914
   9  1  -20.0558  -14.6641  -13.2547  -12.4560  -12.0992  -12.0861  -11.7882  -11.0419  -10.8648  -10.5046
          -7.9707   -7.7097   -7.0354   -6.5091   -5.9564   -3.8521   -3.6729   -3.3752   -3.1227   -2.8754
    0.2645    0.6660    0.9220    1.0873    1.7150    2.1928    3.1029    3.3743    5.3175    5.8833
    7.3242    9.8166   11.1026   12.1464   12.6167   13.8715   14.4360   16.1961   17.6438   17.6551
   17.8070   20.2396   21.0715   21.9055   22.4688   23.1871   23.6002   24.4028   25.1459   31.8529
   35.0545   40.3743   41.6148   46.5805   46.9493   48.2669   48.5914
  10  1  -20.0583  -14.7188  -13.4917  -12.3010  -12.2149  -11.6668  -11.5085  -11.4839  -11.3096  -10.3978
          -8.6523   -7.7538   -7.1257   -5.7399   -5.0741   -5.0567   -3.4926   -3.3038   -2.3066   -0.7341
   -0.5641   -0.3430    0.3510    0.5350    1.1062    1.4239    1.9863    2.0067    2.1725    5.0812
    9.3582   10.5815   11.5735   13.5854   13.9785   14.4927   14.7711   16.1257   16.1880   17.6033
   19.4361   19.9525   20.0307   20.4376   22.8856   25.2533   25.4987   25.7180   26.4379   29.9383
   39.9910   52.8693   53.1296   53.7198   53.7576   53.8646   57.5344
  11  1  -20.0558  -14.6641  -13.2547  -12.4560  -12.0992  -12.0861  -11.7882  -11.0419  -10.8648  -10.5046
          -7.9707   -7.7097   -7.0354   -6.5091   -5.9564   -3.8521   -3.6729   -3.3752   -3.1227   -2.8754
    0.2645    0.6660    0.9220    1.0873    1.7150    2.1928    3.1029    3.3743    5.3175    5.8833
    7.3242    9.8166   11.1026   12.1464   12.6167   13.8715   14.4360   16.1961   17.6438   17.6551
   17.8070   20.2396   21.0715   21.9055   22.4688   23.1871   23.6002   24.4028   25.1459   31.8529
   35.0545   40.3743   41.6148   46.5805   46.9493   48.2669   48.5914
  12  1  -20.0583  -14.7188  -13.4917  -12.3010  -12.2149  -11.6668  -11.5085  -11.4839  -11.3097  -10.3978
          -8.6523   -7.7538   -7.1256   -5.7399   -5.0741   -5.0567   -3.4926   -3.3038   -2.3067   -0.7341
   -0.5641   -0.3430    0.3510    0.5351    1.1063    1.4238    1.9863    2.0067    2.1725    5.0812
    9.3581   10.5817   11.5734   13.5854   13.9785   14.4927   14.7711   16.1257   16.1880   17.6033
   19.4361   19.9525   20.0308   20.4379   22.8854   25.2532   25.4986   25.7180   26.4379   29.9380
   39.9909   52.8695   53.1295   53.7197   53.7576   53.8646   57.5345
  13  1  -20.0559  -14.6719  -13.2136  -12.4503  -12.3221  -11.8150  -11.8101  -11.0101  -10.8479  -10.7099
          -8.4274   -7.3692   -7.2627   -6.2016   -5.4788   -4.0430   -3.8548   -3.3888   -3.3058   -2.7396
    0.4704    0.5626    1.2077    1.3580    1.7014    2.2474    3.0615    3.1219    4.8254    5.6777
    6.0374    9.1253   11.7914   12.1921   13.1119   13.1972   14.9812   15.1038   17.1117   18.2231
   18.8072   19.2145   21.5153   21.6210   22.7039   23.0155   23.2264   24.3975   26.3924   31.7098
   34.9985   40.6800   41.5468   46.8804   47.2428   48.0805   48.4221
  14  1  -20.1981  -14.8498  -13.1709  -12.6835  -12.0924  -11.6678  -11.5309  -11.4184  -11.1473  -10.8710
          -8.3595   -7.3435   -5.5696   -5.3481   -4.4817   -4.2577   -3.8036   -3.4367   -3.2575   -2.5621
   -1.9769   -1.8852   -0.9623   -0.7852   -0.4647    0.4321    2.7786    6.0738    6.2821   10.1970
   11.3435   11.6467   12.1384   12.4902   13.3628   13.8127   16.1060   16.7780   17.3492   18.6199
   20.1075   21.1780   23.2723   24.9201   25.2722   25.9724   26.5172   28.9270   32.0731   37.2135
   40.0965   47.3822   48.3780   49.6850   51.0794   52.6158   53.5177
  15  1  -20.1981  -14.8498  -13.1709  -12.6835  -12.0924  -11.6678  -11.5309  -11.4184  -11.1474  -10.8710
          -8.3594   -7.3435   -5.5696   -5.3481   -4.4817   -4.2576   -3.8036   -3.4367   -3.2576   -2.5621
   -1.9769   -1.8852   -0.9623   -0.7853   -0.4647    0.4321    2.7786    6.0738    6.2821   10.1970
   11.3435   11.6467   12.1384   12.4903   13.3628   13.8126   16.1060   16.7779   17.3492   18.6200
   20.1073   21.1781   23.2722   24.9204   25.2721   25.9724   26.5172   28.9271   32.0731   37.2134
   40.0965   47.3823   48.3781   49.6849   51.0793   52.6159   53.5175
  16  1  -20.0559  -14.6719  -13.2136  -12.4503  -12.3221  -11.8150  -11.8101  -11.0100  -10.8479  -10.7099
          -8.4274   -7.3692   -7.2626   -6.2016   -5.4788   -4.0430   -3.8548   -3.3888   -3.3058   -2.7396
    0.4704    0.5626    1.2077    1.3580    1.7014    2.2474    3.0615    3.1219    4.8254    5.6777
    6.0374    9.1253   11.7913   12.1921   13.1119   13.1972   14.9812   15.1038   17.1117   18.2231
   18.8072   19.2146   21.5153   21.6211   22.7040   23.0155   23.2264   24.3975   26.3921   31.7099
   34.9984   40.6799   41.5467   46.8805   47.2429   48.0806   48.4222
  17  1  -20.1981  -14.8498  -13.1709  -12.6835  -12.0924  -11.6678  -11.5309  -11.4184  -11.1473  -10.8710
          -8.3595   -7.3435   -5.5696   -5.3481   -4.4817   -4.2577   -3.8036   -3.4367   -3.2575   -2.5621
   -1.9769   -1.8852   -0.9623   -0.7852   -0.4647    0.4321    2.7786    6.0738    6.2821   10.1970
   11.3435   11.6467   12.1384   12.4902   13.3628   13.8127   16.1060   16.7780   17.3492   18.6199
   20.1075   21.1780   23.2723   24.9201   25.2722   25.9724   26.5172   28.9270   32.0731   37.2135
   40.0965   47.3822   48.3780   49.6850   51.0794   52.6158   53.5177
  18  1  -20.2943  -14.7526  -13.3139  -12.2097  -11.8416  -11.5743  -11.4195  -11.1504  -10.9624  -10.9623
          -9.1454   -6.2668   -4.3102   -4.3102   -4.1824   -4.1824   -3.6515   -3.6515   -3.2742   -3.2742
   -2.0692   -2.0692   -0.7893   -0.7893    0.4439    0.4439    1.8489    1.8490    6.1932   13.5899
   13.5901   16.4686   16.4687   20.2063   20.2064   20.5957   20.5957   21.8006   21.8007   22.2095
   22.2095   24.3526   25.0759   28.6271   28.6276   32.4235   32.4236   38.7198   38.7620   38.7621
   44.7960   44.7961   46.8217   47.8981   48.2201   48.9081   49.2533
  19  1  -20.1981  -14.8498  -13.1709  -12.6835  -12.0924  -11.6678  -11.5309  -11.4184  -11.1473  -10.8710
          -8.3595   -7.3435   -5.5696   -5.3481   -4.4817   -4.2577   -3.8036   -3.4367   -3.2575   -2.5621
   -1.9769   -1.8852   -0.9623   -0.7852   -0.4647    0.4321    2.7786    6.0738    6.2821   10.1970
   11.3435   11.6467   12.1384   12.4902   13.3628   13.8127   16.1060   16.7780   17.3492   18.6199
   20.1075   21.1780   23.2723   24.9201   25.2722   25.9724   26.5172   28.9270   32.0731   37.2135
   40.0965   47.3822   48.3780   49.6850   51.0794   52.6158   53.5177
  20  1  -20.0586  -14.7220  -13.4606  -12.4247  -12.1131  -11.7146  -11.4994  -11.3144  -11.3060  -10.6132
          -9.1140   -7.3921   -6.6385   -5.8142   -5.4934   -4.8353   -3.7126   -3.0815   -2.0737   -0.8411
   -0.7857   -0.3811    0.1263    0.6339    1.4316    1.6015    1.7871    1.9904    2.2255    4.4550
   10.4862   11.5305   12.2676   12.7891   13.4721   14.0401   14.5729   15.7410   17.5458   17.6950
   17.9180   18.5975   19.6609   20.6780   24.1792   24.8441   25.7257   25.8403   25.8979   29.7076
   40.1026   53.0873   53.1042   53.5208   53.5863   53.7944   56.5968
  21  1  -20.1981  -14.8498  -13.1709  -12.6835  -12.0924  -11.6678  -11.5309  -11.4184  -11.1474  -10.8710
          -8.3594   -7.3435   -5.5696   -5.3481   -4.4817   -4.2576   -3.8036   -3.4367   -3.2576   -2.5621
   -1.9769   -1.8852   -0.9623   -0.7853   -0.4647    0.4321    2.7786    6.0738    6.2821   10.1970
   11.3435   11.6467   12.1384   12.4903   13.3628   13.8126   16.1060   16.7779   17.3492   18.6200
   20.1073   21.1781   23.2722   24.9204   25.2721   25.9724   26.5172   28.9271   32.0731   37.2134
   40.0965   47.3823   48.3781   49.6849   51.0793   52.6159   53.5175
  22  1  -20.1981  -14.8498  -13.1709  -12.6835  -12.0924  -11.6678  -11.5309  -11.4184  -11.1473  -10.8710
          -8.3595   -7.3435   -5.5696   -5.3481   -4.4817   -4.2577   -3.8036   -3.4367   -3.2575   -2.5621
   -1.9769   -1.8852   -0.9623   -0.7852   -0.4647    0.4321    2.7786    6.0738    6.2821   10.1970
   11.3435   11.6467   12.1384   12.4902   13.3628   13.8127   16.1060   16.7780   17.3492   18.6199
   20.1075   21.1780   23.2723   24.9201   25.2722   25.9724   26.5172   28.9270   32.0731   37.2135
   40.0965   47.3822   48.3780   49.6850   51.0794   52.6158   53.5177
  23  1  -20.0559  -14.6719  -13.2136  -12.4503  -12.3221  -11.8150  -11.8101  -11.0101  -10.8479  -10.7099
          -8.4274   -7.3692   -7.2627   -6.2016   -5.4788   -4.0430   -3.8548   -3.3888   -3.3058   -2.7396
    0.4704    0.5626    1.2077    1.3580    1.7014    2.2474    3.0615    3.1219    4.8254    5.6777
    6.0374    9.1253   11.7914   12.1921   13.1119   13.1972   14.9812   15.1038   17.1117   18.2231
   18.8072   19.2145   21.5153   21.6210   22.7039   23.0155   23.2264   24.3975   26.3924   31.7098
   34.9985   40.6800   41.5468   46.8804   47.2428   48.0805   48.4221
  24  1  -20.0559  -14.6719  -13.2136  -12.4503  -12.3221  -11.8150  -11.8101  -11.0100  -10.8479  -10.7099
          -8.4274   -7.3692   -7.2626   -6.2016   -5.4788   -4.0430   -3.8548   -3.3888   -3.3058   -2.7396
    0.4704    0.5626    1.2077    1.3580    1.7014    2.2474    3.0615    3.1219    4.8254    5.6777
    6.0374    9.1253   11.7913   12.1921   13.1119   13.1972   14.9812   15.1038   17.1117   18.2231
   18.8072   19.2146   21.5153   21.6211   22.7040   23.0155   23.2264   24.3975   26.3921   31.7099
   34.9984   40.6799   41.5467   46.8805   47.2429   48.0806   48.4222
  25  1  -20.0559  -14.6719  -13.2136  -12.4503  -12.3221  -11.8150  -11.8101  -11.0100  -10.8479  -10.7099
          -8.4274   -7.3692   -7.2626   -6.2016   -5.4788   -4.0430   -3.8548   -3.3888   -3.3058   -2.7396
    0.4704    0.5626    1.2077    1.3580    1.7014    2.2474    3.0615    3.1219    4.8254    5.6777
    6.0374    9.1253   11.7913   12.1921   13.1119   13.1972   14.9812   15.1038   17.1117   18.2231
   18.8072   19.2146   21.5153   21.6211   22.7040   23.0155   23.2264   24.3975   26.3921   31.7099
   34.9984   40.6799   41.5467   46.8805   47.2429   48.0806   48.4222
  26  1  -20.0586  -14.7220  -13.4606  -12.4247  -12.1131  -11.7146  -11.4994  -11.3144  -11.3060  -10.6132
          -9.1140   -7.3921   -6.6385   -5.8142   -5.4934   -4.8353   -3.7126   -3.0815   -2.0737   -0.8411
   -0.7857   -0.3811    0.1263    0.6339    1.4316    1.6015    1.7871    1.9904    2.2255    4.4550
   10.4862   11.5305   12.2676   12.7891   13.4721   14.0401   14.5729   15.7410   17.5458   17.6950
   17.9180   18.5975   19.6609   20.6780   24.1792   24.8441   25.7257   25.8403   25.8979   29.7076
   40.1026   53.0873   53.1042   53.5208   53.5863   53.7944   56.5968
  27  1  -20.0559  -14.6719  -13.2136  -12.4503  -12.3221  -11.8150  -11.8101  -11.0100  -10.8479  -10.7099
          -8.4274   -7.3692   -7.2626   -6.2016   -5.4788   -4.0430   -3.8548   -3.3888   -3.3058   -2.7396
    0.4704    0.5626    1.2077    1.3580    1.7014    2.2474    3.0615    3.1219    4.8254    5.6777
    6.0374    9.1253   11.7913   12.1921   13.1119   13.1972   14.9812   15.1038   17.1117   18.2231
   18.8072   19.2146   21.5153   21.6211   22.7040   23.0155   23.2264   24.3975   26.3921   31.7099
   34.9984   40.6799   41.5467   46.8805   47.2429   48.0806   48.4222
  28  1  -20.0586  -14.7220  -13.4606  -12.4247  -12.1131  -11.7146  -11.4994  -11.3145  -11.3060  -10.6132
          -9.1140   -7.3921   -6.6384   -5.8142   -5.4934   -4.8353   -3.7126   -3.0815   -2.0738   -0.8411
   -0.7857   -0.3811    0.1263    0.6340    1.4316    1.6015    1.7871    1.9904    2.2255    4.4550
   10.4861   11.5306   12.2676   12.7891   13.4721   14.0401   14.5729   15.7411   17.5458   17.6950
   17.9180   18.5974   19.6609   20.6783   24.1791   24.8441   25.7257   25.8402   25.8979   29.7073
   40.1026   53.0873   53.1043   53.5208   53.5863   53.7944   56.5969
  29  1  -20.0557  -14.6795  -13.1704  -12.4450  -12.4168  -11.8303  -11.6399  -10.9735  -10.9353  -10.8338
          -8.6785   -7.5818   -7.0020   -6.0010   -4.7807   -4.3433   -4.2121   -3.5260   -3.3176   -2.6282
    0.4444    0.7506    1.5132    1.7014    1.7629    2.0426    2.9138    3.7155    3.7197    4.1121
    7.3840    7.7264   11.5737   12.3223   13.0361   13.7840   14.5453   15.3684   16.4955   17.0856
   18.7250   20.7009   20.9903   22.3757   22.5476   22.8991   23.0487   24.3461   27.3174   31.5534
   34.9465   41.2110   41.2547   47.4568   47.6174   47.8582   47.9277
  30  1  -20.1983  -14.8594  -12.9633  -12.8504  -12.0198  -11.5998  -11.5946  -11.4832  -11.1477  -10.9517
          -8.0740   -7.5822   -5.4097   -5.2877   -4.6685   -4.1450   -3.7928   -3.6348   -3.3089   -2.6433
   -1.9692   -1.9423   -0.5772   -0.5633   -0.4612   -0.2239    3.5758    4.5101    7.4851   10.0422
   10.7472   10.8517   12.6046   12.9590   14.3853   14.6021   14.6451   17.0190   17.2106   19.9310
   19.9322   21.0608   22.2195   25.0930   25.5526   26.0076   26.5761   27.9482   31.6530   38.3039
   39.7226   47.8899   48.0185   51.0563   51.5644   51.7071   52.1841
  31  1  -20.1983  -14.8594  -12.9633  -12.8504  -12.0198  -11.5998  -11.5947  -11.4831  -11.1478  -10.9516
          -8.0739   -7.5822   -5.4097   -5.2877   -4.6685   -4.1451   -3.7928   -3.6348   -3.3089   -2.6433
   -1.9692   -1.9423   -0.5772   -0.5632   -0.4613   -0.2239    3.5758    4.5100    7.4851   10.0422
   10.7472   10.8517   12.6046   12.9590   14.3854   14.6022   14.6451   17.0189   17.2106   19.9311
   19.9323   21.0606   22.2195   25.0933   25.5525   26.0076   26.5761   27.9482   31.6530   38.3037
   39.7226   47.8899   48.0185   51.0562   51.5644   51.7071   52.1840
  32  1  -20.0557  -14.6795  -13.1704  -12.4450  -12.4168  -11.8303  -11.6399  -10.9735  -10.9353  -10.8338
          -8.6785   -7.5818   -7.0019   -6.0010   -4.7807   -4.3433   -4.2120   -3.5260   -3.3176   -2.6283
    0.4444    0.7506    1.5132    1.7014    1.7629    2.0426    2.9139    3.7155    3.7197    4.1121
    7.3840    7.7264   11.5737   12.3223   13.0361   13.7839   14.5453   15.3684   16.4955   17.0856
   18.7250   20.7009   20.9906   22.3757   22.5476   22.8991   23.0487   24.3460   27.3171   31.5534
   34.9464   41.2109   41.2547   47.4569   47.6175   47.8583   47.9277
  33  1  -20.1983  -14.8594  -12.9633  -12.8504  -12.0198  -11.5998  -11.5946  -11.4832  -11.1477  -10.9517
          -8.0740   -7.5822   -5.4097   -5.2877   -4.6685   -4.1450   -3.7928   -3.6348   -3.3089   -2.6433
   -1.9692   -1.9423   -0.5772   -0.5633   -0.4612   -0.2239    3.5758    4.5101    7.4851   10.0422
   10.7472   10.8517   12.6046   12.9590   14.3853   14.6021   14.6451   17.0190   17.2106   19.9310
   19.9322   21.0608   22.2195   25.0930   25.5526   26.0076   26.5761   27.9482   31.6530   38.3039
   39.7226   47.8899   48.0185   51.0563   51.5644   51.7071   52.1841
  34  1  -20.3052  -14.7236  -13.1856  -12.2877  -11.8714  -11.5196  -11.2783  -11.2701  -10.9586  -10.9584
          -8.9038   -6.4100   -4.2939   -4.2938   -4.1461   -4.1461   -3.9199   -3.9199   -2.7875   -2.7875
   -1.6120   -1.6120   -1.0802   -1.0802   -0.8581   -0.8581    2.3310    2.3312    6.8372   16.1126
   16.1128   16.1406   16.1406   19.3298   19.3298   21.1453   21.1453   21.1813   21.1814   21.8876
   21.8876   24.5408   24.5624   28.7920   28.7925   32.2012   32.2013   39.2865   39.2866   41.3460
   41.8034   44.6797   44.6798   48.4721   48.4754   48.8060   48.8103
  35  1  -20.1983  -14.8594  -12.9633  -12.8504  -12.0198  -11.5998  -11.5946  -11.4832  -11.1477  -10.9517
          -8.0740   -7.5822   -5.4097   -5.2877   -4.6685   -4.1450   -3.7928   -3.6348   -3.3089   -2.6433
   -1.9692   -1.9423   -0.5772   -0.5633   -0.4612   -0.2239    3.5758    4.5101    7.4851   10.0422
   10.7472   10.8517   12.6046   12.9590   14.3853   14.6021   14.6451   17.0190   17.2106   19.9310
   19.9322   21.0608   22.2195   25.0930   25.5526   26.0076   26.5761   27.9482   31.6530   38.3039
   39.7226   47.8899   48.0185   51.0563   51.5644   51.7071   52.1841
  36  1  -20.0586  -14.7257  -13.4260  -12.5303  -11.9308  -11.8302  -11.4964  -11.3192  -11.1306  -10.8026
          -9.4470   -6.9544   -6.3016   -5.9889   -5.8707   -4.3664   -4.3068   -2.1614   -1.9256   -1.9165
   -0.8389   -0.3529    0.1610    0.7045    1.4506    1.6909    1.8205    2.3628    2.8654    3.0931
   11.4251   12.1469   12.1679   12.7191   13.7310   14.4953   15.5344   15.5974   15.7212   15.8386
   18.6580   18.6732   18.7799   20.9513   24.5179   25.1592   25.3969   25.6274   26.0116   29.4495
   40.2323   53.0044   53.1377   53.2109   53.6205   54.7325   54.8021
  37  1  -20.1983  -14.8594  -12.9633  -12.8504  -12.0198  -11.5998  -11.5947  -11.4831  -11.1478  -10.9516
          -8.0739   -7.5822   -5.4097   -5.2877   -4.6685   -4.1451   -3.7928   -3.6348   -3.3089   -2.6433
   -1.9692   -1.9423   -0.5772   -0.5632   -0.4613   -0.2239    3.5758    4.5100    7.4851   10.0422
   10.7472   10.8517   12.6046   12.9590   14.3854   14.6022   14.6451   17.0189   17.2106   19.9311
   19.9323   21.0606   22.2195   25.0933   25.5525   26.0076   26.5761   27.9482   31.6530   38.3037
   39.7226   47.8899   48.0185   51.0562   51.5644   51.7071   52.1840
  38  1  -20.1983  -14.8594  -12.9633  -12.8504  -12.0198  -11.5998  -11.5946  -11.4832  -11.1477  -10.9517
          -8.0740   -7.5822   -5.4097   -5.2877   -4.6685   -4.1450   -3.7928   -3.6348   -3.3089   -2.6433
   -1.9692   -1.9423   -0.5772   -0.5633   -0.4612   -0.2239    3.5758    4.5101    7.4851   10.0422
   10.7472   10.8517   12.6046   12.9590   14.3853   14.6021   14.6451   17.0190   17.2106   19.9310
   19.9322   21.0608   22.2195   25.0930   25.5526   26.0076   26.5761   27.9482   31.6530   38.3039
   39.7226   47.8899   48.0185   51.0563   51.5644   51.7071   52.1841
  39  1  -20.0557  -14.6795  -13.1704  -12.4450  -12.4168  -11.8303  -11.6399  -10.9735  -10.9353  -10.8338
          -8.6785   -7.5818   -7.0020   -6.0010   -4.7807   -4.3433   -4.2121   -3.5260   -3.3176   -2.6282
    0.4444    0.7506    1.5132    1.7014    1.7629    2.0426    2.9138    3.7155    3.7197    4.1121
    7.3840    7.7264   11.5737   12.3223   13.0361   13.7840   14.5453   15.3684   16.4955   17.0856
   18.7250   20.7009   20.9903   22.3757   22.5476   22.8991   23.0487   24.3461   27.3174   31.5534
   34.9465   41.2110   41.2547   47.4568   47.6174   47.8582   47.9277
  40  1  -20.0557  -14.6795  -13.1704  -12.4450  -12.4168  -11.8303  -11.6399  -10.9735  -10.9353  -10.8338
          -8.6785   -7.5818   -7.0019   -6.0010   -4.7807   -4.3433   -4.2120   -3.5260   -3.3176   -2.6283
    0.4444    0.7506    1.5132    1.7014    1.7629    2.0426    2.9139    3.7155    3.7197    4.1121
    7.3840    7.7264   11.5737   12.3223   13.0361   13.7839   14.5453   15.3684   16.4955   17.0856
   18.7250   20.7009   20.9906   22.3757   22.5476   22.8991   23.0487   24.3460   27.3171   31.5534
   34.9464   41.2109   41.2547   47.4569   47.6175   47.8583   47.9277
  41  1  -20.0557  -14.6795  -13.1704  -12.4450  -12.4168  -11.8303  -11.6399  -10.9735  -10.9353  -10.8338
          -8.6785   -7.5818   -7.0019   -6.0010   -4.7807   -4.3433   -4.2120   -3.5260   -3.3176   -2.6283
    0.4444    0.7506    1.5132    1.7014    1.7629    2.0426    2.9139    3.7155    3.7197    4.1121
    7.3840    7.7264   11.5737   12.3223   13.0361   13.7839   14.5453   15.3684   16.4955   17.0856
   18.7250   20.7009   20.9906   22.3757   22.5476   22.8991   23.0487   24.3460   27.3171   31.5534
   34.9464   41.2109   41.2547   47.4569   47.6175   47.8583   47.9277
  42  1  -20.0586  -14.7257  -13.4260  -12.5303  -11.9308  -11.8302  -11.4964  -11.3192  -11.1306  -10.8026
          -9.4470   -6.9544   -6.3016   -5.9889   -5.8707   -4.3664   -4.3068   -2.1614   -1.9256   -1.9165
   -0.8389   -0.3529    0.1610    0.7045    1.4506    1.6909    1.8205    2.3628    2.8654    3.0931
   11.4251   12.1469   12.1679   12.7191   13.7310   14.4953   15.5344   15.5974   15.7212   15.8386
   18.6580   18.6732   18.7799   20.9513   24.5179   25.1592   25.3969   25.6274   26.0116   29.4495
   40.2323   53.0044   53.1377   53.2109   53.6206   54.7325   54.8021
  43  1  -20.0557  -14.6795  -13.1704  -12.4450  -12.4168  -11.8303  -11.6399  -10.9735  -10.9353  -10.8338
          -8.6785   -7.5818   -7.0019   -6.0010   -4.7807   -4.3433   -4.2120   -3.5260   -3.3176   -2.6283
    0.4444    0.7506    1.5132    1.7014    1.7629    2.0426    2.9139    3.7155    3.7197    4.1121
    7.3840    7.7264   11.5737   12.3223   13.0361   13.7839   14.5453   15.3684   16.4955   17.0856
   18.7250   20.7009   20.9906   22.3757   22.5476   22.8991   23.0487   24.3460   27.3171   31.5534
   34.9464   41.2109   41.2547   47.4569   47.6175   47.8583   47.9277
  44  1  -20.0586  -14.7257  -13.4260  -12.5304  -11.9308  -11.8302  -11.4963  -11.3192  -11.1306  -10.8026
          -9.4470   -6.9543   -6.3015   -5.9889   -5.8707   -4.3665   -4.3068   -2.1614   -1.9257   -1.9164
   -0.8389   -0.3529    0.1610    0.7046    1.4506    1.6908    1.8205    2.3627    2.8654    3.0931
   11.4251   12.1468   12.1680   12.7191   13.7311   14.4953   15.5344   15.5973   15.7211   15.8387
   18.6579   18.6733   18.7800   20.9515   24.5178   25.1591   25.3969   25.6274   26.0116   29.4492
   40.2323   53.0043   53.1376   53.2109   53.6205   54.7327   54.8023
siesta: Fermi energy =     -11.134861 eV

siesta: Program's energy decomposition (eV):
siesta: Ebs     =      -214.935063
siesta: Eions   =       380.620085
siesta: Ena     =       120.767756
siesta: Ekin    =       162.936509
siesta: Enl     =        27.568778
siesta: Eso     =         0.000000
siesta: Edftu   =         0.000000
siesta: DEna    =         8.446031
siesta: DUscf   =         1.924184
siesta: DUext   =         0.000000
siesta: Exc     =      -150.370552
siesta: eta*DQ  =         0.000000
siesta: Emadel  =         0.000000
siesta: Emeta   =         0.000000
siesta: Emolmec =        -5.298620
siesta: Ekinion =         0.000000
siesta: Eharris =      -214.645992
siesta: Etot    =      -214.645998
siesta: FreeEng =      -214.663498

siesta: Final energy (eV):
siesta:  Band Struct. =    -214.935063
siesta:       Kinetic =     162.936509
siesta:       Hartree =      70.987604
siesta:       Edftu   =       0.000000
siesta:       Eso     =       0.000000
siesta:    Ext. field =       0.000000
siesta:   Exch.-corr. =    -150.370552
siesta:  Ion-electron =    -364.254171
siesta:       Ion-ion =      71.353231
siesta:       Ekinion =       0.000000
siesta:         Total =    -214.645998
siesta:         Fermi =     -11.134861

siesta: Atomic forces (eV/Ang):
siesta:      1    0.000000   -0.000000   -0.000000
siesta:      2    0.021871   -0.000010   -0.539645
siesta:      3   -0.021872    0.000010    0.539645
siesta:      4   -0.010945    0.018936   -0.539645
siesta:      5    0.010945   -0.018936    0.539645
siesta:      6   -0.010975   -0.019010   -0.539705
siesta:      7    0.010976    0.019010    0.539705
siesta:      8   -0.021871    0.000010   -0.539645
siesta:      9    0.021872   -0.000010    0.539645
siesta:     10    0.010945   -0.018936   -0.539645
siesta:     11   -0.010945    0.018936    0.539645
siesta:     12    0.010975    0.019010   -0.539705
siesta:     13   -0.010976   -0.019010    0.539705
siesta: ----------------------------------------
siesta:    Tot    0.000000    0.000000    0.000000

siesta: Stress tensor (static) (eV/Ang**3):
siesta:    -0.621157   -0.000006    0.000000
siesta:    -0.000006   -0.621164   -0.000000
siesta:     0.000000   -0.000000    0.215615

siesta: Cell volume =        137.416765 Ang**3

siesta: Pressure (static):
siesta:                Solid            Molecule  Units
siesta:           0.00372738          0.00335985  Ry/Bohr**3
siesta:           0.34223528          0.30848993  eV/Ang**3
siesta:         548.32729978        494.26070139  kBar
(Free)E+ p_basis*V_orbitals  =        -182.493377
(Free)Eharris+ p_basis*V_orbitals  =        -182.493370

cite: Please see "LiC12_scf.bib" for an exhaustive BiBTeX file.
cite: Please clearly indicate Siesta version in published work: 4.1.5
cite: This calculation has made use of the following articles
cite: which are encouraged to be cited in a published work.
        Primary SIESTA paper
          DOI: www.doi.org/10.1088/0953-8984/14/11/302

>> End of run:   9-NOV-2022  14:00:55
Job completed
