Siesta Version  : 4.1.5
Architecture    : x86_64-unknown-linux-gnu--unknown
Compiler version: GNU Fortran (GCC) 11.3.0
Compiler flags  : mpif90 -g -O2 -fallow-argument-mismatch
PP flags        : -DMPI -DFC_HAVE_FLUSH -DFC_HAVE_ABORT
Libraries       :  -I/global/software/sl-7.x86_64/modules/intel/2020.4.304/mkl/include  /globall/software/sl-7.x86_64/modules/intel/2020.4.304/mkl/lib/intel64/libmkl_scalapack_lp64.a -Wl,--start-group /global/software/sl-7.x86_64/modules/intel/2020.4.304/mkl/lib/intel64/libmkl_intel_lp64.a /global/software/sl-7.x86_64/modules/intel/2020.4.304/mkl/lib/intel64/libmkl_sequential.a /global/software/sl-7.x86_64/modules/intel/2020.4.304/mkl/lib/intel64/libmkl_core.a /global/software/sl-7.x86_64/modules/intel/2020.4.304/mkl/lib/intel64/libmkl_blacs_openmpi_lp64.a -Wl,--end-group -lpthread -lm -ldl
PARALLEL version

* Running on 12 nodes in parallel
>> Start of run:   9-NOV-2022  13:03:37

                           ***********************       
                           *  WELCOME TO SIESTA  *       
                           ***********************       

reinit: Reading from standard input
reinit: Dumped input in INPUT_TMP.84354
************************** Dump of input data file ****************************
SystemName LiC12_scf
SystemLabel LiC12_scf
NumberOfAtoms   13
NumberOfSpecies 2
%block ChemicalSpeciesLabel
1  3   Li-gga
2  6   C-gga
%endblock ChemicalSpeciesLabel
PAO.BasisSize  SZP
PAO.EnergyShift  10 meV
%block PS.Lmax
C-gga   2
Li-gga  2
%endblock PS.Lmax
LatticeConstant 1.000000 Ang
%block LatticeVectors
	4.2686000000	0.0000000000	0.0000000000
	-2.1343000000	3.6967160386	0.0000000000
	0.0000000000	0.0000000000	5.6183200000
%endblock LatticeVectors
AtomicCoordinatesFormat Ang
%block AtomicCoordinatesAndAtomicSpecies
	0.00000000	0.00000000	0.00000000	2
	1.42144380	0.00000000	1.40458000	1
	2.84715620	0.00000000	4.21374000	1
	-0.71072190	1.23100644	1.40458000	1
	-1.42357810	2.46570960	4.21374000	1
	1.42357810	2.46570960	1.40458000	1
	0.71072190	1.23100644	4.21374000	1
	2.84715620	0.00000000	1.40458000	1
	1.42144380	0.00000000	4.21374000	1
	-1.42357810	2.46570960	1.40458000	1
	-0.71072190	1.23100644	4.21374000	1
	0.71072190	1.23100644	1.40458000	1
	1.42357810	2.46570960	4.21374000	1
%endblock AtomicCoordinatesAndAtomicSpecies
Kgrid_NoTRS  T
%block kgrid_MonkhorstPack
4       0       0       0.0
0       4       0       0.0
0       0       4       0.0
%endblock kgrid_MonkhorstPack
AtomCoorFormatOut Ang
BlockSize 1
#ProcessorY 12
Diag.ParallelOverK   T
Diag.DivideAndConquer F
MeshCutoff   300 Ry
SCF.FreeE.Tolerance 1E-3 eV
SCF.EDM.Tolerance   5E-3 eV
DM.Tolerance  1E-3
DM.Require.Energy.Convergence T
DM.NumberPulay 4
XC.Functional GGA
XC.Authors    PBE
UseSaveData        F
MD.TypeOfRun       CG
MD.VariableCell    F
MD.NumCGsteps      00
MD.MaxCGDispl      0.200000 Bohr
MD.MaxStressTol    1.000000 GPa
MD.MaxForceTol     0.010000 eV/Ang
WriteMDHistory T
WriteCoorStep T
WriteForces T
WriteCoorStep    T
WriteEigenValues T
WriteDM    F
MM.UnitsDistance Ang  # what this program prints out DO NOT CHANGE
MM.UnitsEnergy    eV  # what this program prints out DO NOT CHANGE
MM.Grimme.S6     0.75 # Grimme-paper for PBE (correct for your functional)
MM.Grimme.D     20.   # Grimme-paper (correct for your functional)
%block MM.Potentials
  1   1 Grimme     16.69      1.650 # Li, 10.1002/jcc.20495
  1   2 Grimme     17.40      2.277 # Li / C
  2   2 Grimme     18.14      2.904 # C, 10.1002/jcc.20495
%endblock MM.Potentials
#%block ProjectedDensityOfStates
# -200.0  120.0  0.4  12800  eV
#%endblock ProjectedDensityOfStates
************************** End of input data file *****************************

reinit: -----------------------------------------------------------------------
reinit: System Name: LiC12_scf
reinit: -----------------------------------------------------------------------
reinit: System Label: LiC12_scf
reinit: -----------------------------------------------------------------------
Reading two-body potentials
Grimme - two-body potential between 1 and 1
Grimme - two-body potential between 1 and 2
Grimme - two-body potential between 2 and 2

initatom: Reading input for the pseudopotentials and atomic orbitals ----------
Species number:   1 Atomic number:    3 Label: Li-gga
Species number:   2 Atomic number:    6 Label: C-gga

Ground state valence configuration:   2s01
Reading pseudopotential information in formatted form from Li-gga.psf

Valence configuration for pseudopotential generation:
2s( 1.00) rc: 2.28
2p( 0.00) rc: 2.28
3d( 0.00) rc: 2.59
4f( 0.00) rc: 2.59
Ground state valence configuration:   2s02  2p02
Reading pseudopotential information in formatted form from C-gga.psf

Valence configuration for pseudopotential generation:
2s( 2.00) rc: 1.56
2p( 2.00) rc: 1.56
3d( 0.00) rc: 1.56
4f( 0.00) rc: 1.56
relmxkb: Read Max KB Ang. Momentum=    2 for species C-gga
relmxkb: Read Max KB Ang. Momentum=    2 for species Li-gga

<basis_specs>
===============================================================================
Li-gga               Z=   3    Mass=  6.9400        Charge= 0.17977+309
Lmxo=0 Lmxkb= 2    BasisType=split      Semic=F
L=0  Nsemic=0  Cnfigmx=2
          i=1  nzeta=1  polorb=1  (2s)
            splnorm:   0.15000    
               vcte:    0.0000    
               rinn:    0.0000    
               qcoe:    0.0000    
               qyuk:    0.0000    
               qwid:   0.10000E-01
                rcs:    0.0000    
            lambdas:    1.0000    
-------------------------------------------------------------------------------
L=0  Nkbl=1  erefs: 0.17977+309
L=1  Nkbl=1  erefs: 0.17977+309
L=2  Nkbl=1  erefs: 0.17977+309
===============================================================================
</basis_specs>

atom: Called for Li-gga                (Z =   3)

read_vps: Pseudopotential generation method:
read_vps: ATM 3.2.2 Troullier-Martins                       
Valence charge for ps generation:    1.00000

read_vps: Pseudopotential includes a core correction:
read_vps: Pseudo-core for xc-correction

xc_check: Exchange-correlation functional:
xc_check: GGA Perdew, Burke & Ernzerhof 1996
V l=0 = -2*Zval/r beyond r=  2.2278
V l=1 = -2*Zval/r beyond r=  2.2278
V l=2 = -2*Zval/r beyond r=  2.5245
All V_l potentials equal beyond r=  2.4622
This should be close to max(r_c) in ps generation
All pots = -2*Zval/r beyond r=  2.5245

VLOCAL1: 99.0% of the norm of Vloc inside      7.160 Ry
VLOCAL1: 99.9% of the norm of Vloc inside     16.318 Ry
atom: Maximum radius for 4*pi*r*r*local-pseudopot. charge    2.86079
atom: Maximum radius for r*vlocal+2*Zval:    2.43160
GHOST: No ghost state for L =  0
GHOST: No ghost state for L =  1
GHOST: No ghost state for L =  2

KBgen: Kleinman-Bylander projectors: 
   l= 0   rc=  2.654023   el= -0.211234   Ekb=  1.742119   kbcos=  0.228463
   l= 1   rc=  2.721230   el= -0.080095   Ekb= -1.122375   kbcos= -0.147941
   l= 2   rc=  2.825246   el=  0.002001   Ekb= -0.207076   kbcos= -0.031965

KBgen: Total number of Kleinman-Bylander projectors:    9
atom: -------------------------------------------------------------------------

atom: SANKEY-TYPE ORBITALS:

SPLIT: Orbitals with angular momentum L= 0

SPLIT: Basis orbitals for state 2s

SPLIT: PAO cut-off radius determined from an
SPLIT: energy shift=  0.000735 Ry

   izeta = 1
                 lambda =    1.000000
                     rc =   11.897381
                 energy =   -0.210580
                kinetic =    0.143382
    potential(screened) =   -0.353962
       potential(ionic) =   -0.533453

POLgen: Perturbative polarization orbital with L=  1

POLgen: Polarization orbital for state 2s

   izeta = 1
                     rc =   11.897381
                 energy =   -0.027011
                kinetic =    0.282985
    potential(screened) =   -0.309997
       potential(ionic) =   -0.490997
atom: Total number of Sankey-type orbitals:  4

atm_pop: Valence configuration (for local Pseudopot. screening):
 2s( 1.00)                                                            
Vna: chval, zval:    1.00000   1.00000

Vna:  Cut-off radius for the neutral-atom potential:  11.897381
comcore: Pseudo-core radius Rcore=  3.450946

atom: _________________________________________________________________________

<basis_specs>
===============================================================================
C-gga                Z=   6    Mass=  12.010        Charge= 0.17977+309
Lmxo=1 Lmxkb= 2    BasisType=split      Semic=F
L=0  Nsemic=0  Cnfigmx=2
          i=1  nzeta=1  polorb=0  (2s)
            splnorm:   0.15000    
               vcte:    0.0000    
               rinn:    0.0000    
               qcoe:    0.0000    
               qyuk:    0.0000    
               qwid:   0.10000E-01
                rcs:    0.0000    
            lambdas:    1.0000    
L=1  Nsemic=0  Cnfigmx=2
          i=1  nzeta=1  polorb=1  (2p)
            splnorm:   0.15000    
               vcte:    0.0000    
               rinn:    0.0000    
               qcoe:    0.0000    
               qyuk:    0.0000    
               qwid:   0.10000E-01
                rcs:    0.0000    
            lambdas:    1.0000    
-------------------------------------------------------------------------------
L=0  Nkbl=1  erefs: 0.17977+309
L=1  Nkbl=1  erefs: 0.17977+309
L=2  Nkbl=1  erefs: 0.17977+309
===============================================================================
</basis_specs>

atom: Called for C-gga                 (Z =   6)

read_vps: Pseudopotential generation method:
read_vps: ATM 3.2.2 Troullier-Martins                       
Valence charge for ps generation:    4.00000

xc_check: Exchange-correlation functional:
xc_check: GGA Perdew, Burke & Ernzerhof 1996
V l=0 = -2*Zval/r beyond r=  1.5227
V l=1 = -2*Zval/r beyond r=  1.5227
V l=2 = -2*Zval/r beyond r=  1.5227
All V_l potentials equal beyond r=  1.4851
This should be close to max(r_c) in ps generation
All pots = -2*Zval/r beyond r=  1.5227

VLOCAL1: 99.0% of the norm of Vloc inside     19.682 Ry
VLOCAL1: 99.9% of the norm of Vloc inside     44.856 Ry
atom: Maximum radius for 4*pi*r*r*local-pseudopot. charge    1.79142
atom: Maximum radius for r*vlocal+2*Zval:    1.54183
GHOST: No ghost state for L =  0
GHOST: No ghost state for L =  1
GHOST: No ghost state for L =  2

KBgen: Kleinman-Bylander projectors: 
   l= 0   rc=  1.661951   el= -1.010689   Ekb=  5.289847   kbcos=  0.316429
   l= 1   rc=  1.661951   el= -0.388490   Ekb= -4.102504   kbcos= -0.351025
   l= 2   rc=  1.747182   el=  0.001971   Ekb= -1.006005   kbcos= -0.008530

KBgen: Total number of Kleinman-Bylander projectors:    9
atom: -------------------------------------------------------------------------

atom: SANKEY-TYPE ORBITALS:

SPLIT: Orbitals with angular momentum L= 0

SPLIT: Basis orbitals for state 2s

SPLIT: PAO cut-off radius determined from an
SPLIT: energy shift=  0.000735 Ry

   izeta = 1
                 lambda =    1.000000
                     rc =    5.948690
                 energy =   -1.010099
                kinetic =    0.827121
    potential(screened) =   -1.837220
       potential(ionic) =   -5.392783

SPLIT: Orbitals with angular momentum L= 1

SPLIT: Basis orbitals for state 2p

SPLIT: PAO cut-off radius determined from an
SPLIT: energy shift=  0.000735 Ry

   izeta = 1
                 lambda =    1.000000
                     rc =    7.638387
                 energy =   -0.387843
                kinetic =    2.314739
    potential(screened) =   -2.702582
       potential(ionic) =   -6.092371

POLgen: Perturbative polarization orbital with L=  2

POLgen: Polarization orbital for state 2p

   izeta = 1
                     rc =    7.638387
                 energy =    0.921402
                kinetic =    1.955040
    potential(screened) =   -1.033637
       potential(ionic) =   -3.679558
atom: Total number of Sankey-type orbitals:  9

atm_pop: Valence configuration (for local Pseudopot. screening):
 2s( 2.00)                                                            
 2p( 2.00)                                                            
Vna: chval, zval:    4.00000   4.00000

Vna:  Cut-off radius for the neutral-atom potential:   7.638387

atom: _________________________________________________________________________

prinput: Basis input ----------------------------------------------------------

PAO.BasisType split     

%block ChemicalSpeciesLabel
    1    3 Li-gga                  # Species index, atomic number, species label
    2    6 C-gga                   # Species index, atomic number, species label
%endblock ChemicalSpeciesLabel

%block PAO.Basis                 # Define Basis set
Li-gga                1                    # Species label, number of l-shells
 n=2   0   1 P   1                   # n, l, Nzeta, Polarization, NzetaPol
  11.897   
   1.000   
C-gga                 2                    # Species label, number of l-shells
 n=2   0   1                         # n, l, Nzeta 
   5.949   
   1.000   
 n=2   1   1 P   1                   # n, l, Nzeta, Polarization, NzetaPol
   7.638   
   1.000   
%endblock PAO.Basis

prinput: ----------------------------------------------------------------------

coor:   Atomic-coordinates input format  =     Cartesian coordinates
coor:                                          (in Angstroms)

siesta: Atomic coordinates (Bohr) and species
siesta:      0.00000   0.00000   0.00000  2        1
siesta:      2.68614   0.00000   2.65427  1        2
siesta:      5.38035   0.00000   7.96282  1        3
siesta:     -1.34307   2.32627   2.65427  1        4
siesta:     -2.69017   4.65952   7.96282  1        5
siesta:      2.69017   4.65952   2.65427  1        6
siesta:      1.34307   2.32627   7.96282  1        7
siesta:      5.38035   0.00000   2.65427  1        8
siesta:      2.68614   0.00000   7.96282  1        9
siesta:     -2.69017   4.65952   2.65427  1       10
siesta:     -1.34307   2.32627   7.96282  1       11
siesta:      1.34307   2.32627   2.65427  1       12
siesta:      2.69017   4.65952   7.96282  1       13

siesta: System type = bulk      

initatomlists: Number of atoms, orbitals, and projectors:     13    57   117

siesta: ******************** Simulation parameters ****************************
siesta:
siesta: The following are some of the parameters of the simulation.
siesta: A complete list of the parameters used, including default values,
siesta: can be found in file out.fdf
siesta:
redata: Spin configuration                          = none
redata: Number of spin components                   = 1
redata: Time-Reversal Symmetry                      = T
redata: Spin spiral                                 = F
redata: Long output                                 =   F
redata: Number of Atomic Species                    =        2
redata: Charge density info will appear in .RHO file
redata: Write Mulliken Pop.                         = NO
redata: Matel table size (NRTAB)                    =     1024
redata: Mesh Cutoff                                 =   300.0000 Ry
redata: Net charge of the system                    =     0.0000 |e|
redata: Min. number of SCF Iter                     =        0
redata: Max. number of SCF Iter                     =     1000
redata: SCF convergence failure will abort job
redata: SCF mix quantity                            = Hamiltonian
redata: Mix DM or H after convergence               =   F
redata: Recompute H after scf cycle                 =   F
redata: Mix DM in first SCF step                    =   T
redata: Write Pulay info on disk                    =   F
redata: New DM Occupancy tolerance                  = 0.000000000001
redata: No kicks to SCF
redata: DM Mixing Weight for Kicks                  =     0.5000
redata: Require Harris convergence for SCF          =   F
redata: Harris energy tolerance for SCF             =     0.000100 eV
redata: Require DM convergence for SCF              =   T
redata: DM tolerance for SCF                        =     0.001000
redata: Require EDM convergence for SCF             =   F
redata: EDM tolerance for SCF                       =     0.005000 eV
redata: Require H convergence for SCF               =   T
redata: Hamiltonian tolerance for SCF               =     0.001000 eV
redata: Require (free) Energy convergence for SCF   =   T
redata: (free) Energy tolerance for SCF             =     0.001000 eV
redata: Using Saved Data (generic)                  =   F
redata: Use continuation files for DM               =   F
redata: Neglect nonoverlap interactions             =   F
redata: Method of Calculation                       = Diagonalization
redata: Electronic Temperature                      =   299.9869 K
redata: Fix the spin of the system                  =   F
redata: Dynamics option                             = Single-point calculation
mix.SCF: Pulay mixing                            = Pulay
mix.SCF:    Variant                              = stable
mix.SCF:    History steps                        = 4
mix.SCF:    Linear mixing weight                 =     0.250000
mix.SCF:    Mixing weight                        =     0.250000
mix.SCF:    SVD condition                        = 0.1000E-07
redata: ***********************************************************************

%block SCF.Mixers
  Pulay
%endblock SCF.Mixers

%block SCF.Mixer.Pulay
  # Mixing method
  method pulay
  variant stable

  # Mixing options
  weight 0.2500
  weight.linear 0.2500
  history 4
%endblock SCF.Mixer.Pulay

DM_history_depth set to one: no extrapolation allowed by default for geometry relaxation
Size of DM history Fstack: 1
Total number of electrons:    16.000000
Total ionic charge:    16.000000

* ProcessorY, Blocksize:    3   1


* Orbital distribution balance (max,min):     5     4

k-point displ. along   1 input, could be:     0.00    0.50
k-point displ. along   2 input, could be:     0.00    0.50
k-point displ. along   3 input, could be:     0.00    0.50
 Kpoints in:           48 . Kpoints trimmed:           44

siesta: k-grid: Number of k-points =    44
siesta: k-grid: Cutoff (effective) =     8.537 Ang
siesta: k-grid: Supercell and displacements
siesta: k-grid:    4   0   0      0.000
siesta: k-grid:    0   4   0      0.000
siesta: k-grid:    0   0   4      0.000

diag: Algorithm                                     = Expert
diag: Parallel over k                               =   T
diag: Use parallel 2D distribution                  =   T
diag: Parallel block-size                           = 1
diag: Parallel distribution                         =     3 x     4
diag: Used triangular part                          = Lower
diag: Absolute tolerance                            =  0.100E-15
diag: Orthogonalization factor                      =  0.100E-05
diag: Memory factor                                 =  1.0000

superc: Internal auxiliary supercell:     9 x     9 x     7  =     567
superc: Number of atoms, orbitals, and projectors:   7371  32319  66339


ts: **************************************************************
ts: Save H and S matrices                           =    F
ts: Save DM and EDM matrices                        =    F
ts: Only save the overlap matrix S                  =    F
ts: **************************************************************

************************ Begin: TS CHECKS AND WARNINGS ************************
************************ End: TS CHECKS AND WARNINGS **************************


                     ====================================
                        Single-point calculation
                     ====================================

outcoor: Atomic coordinates (Ang):                          
    0.00000000    0.00000000    0.00000000   2       1  C-gga
    1.42144380    0.00000000    1.40458000   1       2  Li-gga
    2.84715620    0.00000000    4.21374000   1       3  Li-gga
   -0.71072190    1.23100644    1.40458000   1       4  Li-gga
   -1.42357810    2.46570960    4.21374000   1       5  Li-gga
    1.42357810    2.46570960    1.40458000   1       6  Li-gga
    0.71072190    1.23100644    4.21374000   1       7  Li-gga
    2.84715620    0.00000000    1.40458000   1       8  Li-gga
    1.42144380    0.00000000    4.21374000   1       9  Li-gga
   -1.42357810    2.46570960    1.40458000   1      10  Li-gga
   -0.71072190    1.23100644    4.21374000   1      11  Li-gga
    0.71072190    1.23100644    1.40458000   1      12  Li-gga
    1.42357810    2.46570960    4.21374000   1      13  Li-gga

superc: Internal auxiliary supercell:     9 x     9 x     7  =     567
superc: Number of atoms, orbitals, and projectors:   7371  32319  66339

outcell: Unit cell vectors (Ang):
        4.268600    0.000000    0.000000
       -2.134300    3.696716    0.000000
        0.000000    0.000000    5.618320

outcell: Cell vector modules (Ang)   :    4.268600    4.268600    5.618320
outcell: Cell angles (23,13,12) (deg):     90.0000     90.0000    120.0000
outcell: Cell volume (Ang**3)        :     88.6560
<dSpData1D:S at geom step 0
  <sparsity:sparsity for geom step 0
    nrows_g=57 nrows=5 sparsity=10.8954 nnzs=35399, refcount: 7>
  <dData1D:(new from dSpData1D) n=35399, refcount: 1>
refcount: 1>
new_DM -- step:     1
Initializing Density Matrix...
DM filled with atomic data:
<dSpData2D:DM initialized from atoms
  <sparsity:sparsity for geom step 0
    nrows_g=57 nrows=5 sparsity=10.8954 nnzs=35399, refcount: 8>
  <dData2D:DM n=35399 m=1, refcount: 1>
refcount: 1>
No. of atoms with KB's overlaping orbs in proc 0. Max # of overlaps:     454    1145
New grid distribution:   1
           1       1:   20    1:    7    1:    8
           2       1:   20    1:    7    9:   16
           3       1:   20    1:    7   17:   23
           4       1:   20    1:    7   24:   30
           5       1:   20    8:   14    1:    8
           6       1:   20    8:   14    9:   16
           7       1:   20    8:   14   17:   23
           8       1:   20    8:   14   24:   30
           9       1:   20   15:   20    1:    8
          10       1:   20   15:   20    9:   16
          11       1:   20   15:   20   17:   23
          12       1:   20   15:   20   24:   30

InitMesh: MESH =    40 x    40 x    60 =       96000
InitMesh: (bp) =    20 x    20 x    30 =       12000
InitMesh: Mesh cutoff (required, used) =   300.000   315.204 Ry
ExtMesh (bp) on 0 =   160 x   147 x   144 =     3386880
New grid distribution:   2
           1       1:    7    1:   10    1:   15
           2       8:   20   11:   20    1:    8
           3       1:    7    1:   10   16:   30
           4       8:   20   11:   20    9:   15
           5       8:   20    1:   10    1:    8
           6       8:   20   11:   20   16:   22
           7       1:    7   11:   20   16:   30
           8       8:   20    1:   10    9:   15
           9       1:    7   11:   20    1:   15
          10       8:   20    1:   10   23:   30
          11       8:   20    1:   10   16:   22
          12       8:   20   11:   20   23:   30
New grid distribution:   3
           1       1:    7    1:   10    1:   15
           2       8:   20   11:   20    1:    8
           3       1:    7    1:   10   16:   30
           4       8:   20    1:   10    9:   15
           5       8:   20    1:   10    1:    8
           6       8:   20   11:   20    9:   15
           7       1:    7   11:   20   16:   30
           8       8:   20   11:   20   24:   30
           9       1:    7   11:   20    1:   15
          10       8:   20    1:   10   16:   23
          11       8:   20   11:   20   16:   23
          12       8:   20    1:   10   24:   30
Setting up quadratic distribution...
ExtMesh (bp) on 0 =   147 x   150 x   151 =     3329550
PhiOnMesh: Number of (b)points on node 0 =                 1050
PhiOnMesh: nlist on node 0 =               642393

stepf: Fermi-Dirac step function

siesta: Program's energy decomposition (eV):
siesta: Ebs     =      -226.582691
siesta: Eions   =       380.620085
siesta: Ena     =        95.917444
siesta: Ekin    =       248.634242
siesta: Enl     =        -3.706423
siesta: Eso     =         0.000000
siesta: Edftu   =         0.000000
siesta: DEna    =       -16.577738
siesta: DUscf   =        17.946667
siesta: DUext   =         0.000000
siesta: Exc     =      -175.719918
siesta: eta*DQ  =         0.000000
siesta: Emadel  =         0.000000
siesta: Emeta   =         0.000000
siesta: Emolmec =        -6.473056
siesta: Ekinion =         0.000000
siesta: Eharris =      -185.355721
siesta: Etot    =      -220.598866
siesta: FreeEng =      -220.604747

        iscf     Eharris(eV)        E_KS(eV)     FreeEng(eV)     dDmax    Ef(eV) dHmax(eV)
   scf:    1     -185.355721     -220.598866     -220.604747  1.144719-14.247752 13.859924
timer: Routine,Calls,Time,% = IterSCF        1      12.228  53.98
   scf:    2     -234.204838     -230.494899     -230.500041  0.624516-14.051617  1.237198
   scf:    3     -230.730998     -230.646967     -230.651228  0.060481-14.051343  0.196916
   scf:    4     -230.685399     -230.671394     -230.676351  0.040441-14.081253  0.176556
   scf:    5     -230.665393     -230.671631     -230.677891  0.030095-14.067885  0.228939
   scf:    6     -230.676773     -230.675299     -230.681340  0.016167-14.078421  0.011290
   scf:    7     -230.675340     -230.675322     -230.681351  0.001097-14.078644  0.003821
   scf:    8     -230.675303     -230.675313     -230.681354  0.001128-14.077848  0.000105
   scf:    9     -230.675317     -230.675315     -230.681354  0.000062-14.077783  0.000096

SCF Convergence by FreeE+DM+H criterion
|FreeE_i-FreeE_(i-1)| (eV) <     0.00100000
max |DM_out - DM_in|         :     0.0000617074
max |H_out - H_in|      (eV) :     0.0000962652
SCF cycle converged after 9 iterations

Using DM_out to compute the final energy and forces
No. of atoms with KB's overlaping orbs in proc 0. Max # of overlaps:     454    1145

MM-Stress (kbar):       31.31       31.31      105.35       -0.00        0.00        0.00

siesta: E_KS(eV) =             -230.6753

siesta: E_KS - E_eggbox =      -230.6753

siesta: Atomic forces (eV/Ang):
     1    0.000000    0.000000    0.000000
     2    0.415542   -0.000007    0.146479
     3   -0.415542    0.000007   -0.146479
     4   -0.207777    0.359867    0.146479
     5    0.207777   -0.359867   -0.146479
     6   -0.207770   -0.359868    0.146430
     7    0.207770    0.359868   -0.146430
     8   -0.415542    0.000007    0.146479
     9    0.415542   -0.000007   -0.146479
    10    0.207777   -0.359867    0.146479
    11   -0.207777    0.359867   -0.146479
    12    0.207770    0.359868    0.146430
    13   -0.207770   -0.359868   -0.146430
----------------------------------------
   Tot    0.000000    0.000000    0.000000
----------------------------------------
   Max    0.415542
   Res    0.244399    sqrt( Sum f_i^2 / 3N )
----------------------------------------
   Max    0.415542    constrained

Stress tensor Voigt[x,y,z,yz,xz,xy] (kbar):    -1374.17    -1374.18      588.97       -0.00        0.00       -0.01
(Free)E + p*V (eV/cell)     -190.8521
Target enthalpy (eV/cell)     -230.6814

siesta: Eigenvalues (eV):
  ik is       eps
   1  1  -25.0140  -18.8471  -18.5819  -18.1549  -17.9323  -16.4679  -16.2460  -14.0028  -13.5677  -12.7017
         -12.3053   -8.4999   -8.3015   -7.4204   -6.9398   -4.6905   -4.1216   -4.1115   -3.6327   -3.1128
   -1.5572   -0.2310    0.1191    0.1309    0.4890    1.4572    1.6666    4.5284    4.5663    7.7152
    7.8150    9.5161   12.5242   13.3738   15.4081   18.5036   18.5411   19.0249   19.3005   19.5062
   20.8074   21.6940   22.8490   24.5295   26.1786   27.4988   31.7438   33.0064   33.3325   34.6292
   43.7057   43.7779   43.8148   46.1592   46.1945   46.3952   49.7606
   2  1  -25.1574  -19.2181  -18.6585  -18.5178  -16.6058  -16.4340  -15.7122  -14.2352  -13.5092  -12.2384
         -11.1880  -10.7009   -9.3222   -8.6718   -8.0911   -5.7939   -4.7390   -4.6441   -3.7345   -2.7567
   -2.6121   -1.9980   -0.0110    0.8675    3.1152    3.4484    5.0699    7.1998    9.4443    9.8550
   10.8800   12.7235   14.6089   14.9855   17.1120   18.4594   18.6574   21.1175   21.3006   21.6907
   22.4199   22.7656   24.5208   25.5551   25.7251   29.7084   30.8210   33.1495   36.1207   42.7869
   43.8360   45.2085   46.8597   47.2063   50.7491   51.1713   55.0454
   3  1  -25.1574  -19.2181  -18.6585  -18.5178  -16.6058  -16.4341  -15.7122  -14.2351  -13.5092  -12.2383
         -11.1880  -10.7009   -9.3222   -8.6718   -8.0911   -5.7939   -4.7389   -4.6441   -3.7344   -2.7567
   -2.6121   -1.9980   -0.0109    0.8673    3.1152    3.4484    5.0700    7.1996    9.4444    9.8550
   10.8800   12.7235   14.6089   14.9855   17.1119   18.4591   18.6574   21.1182   21.3005   21.6908
   22.4200   22.7655   24.5207   25.5551   25.7249   29.7085   30.8210   33.1494   36.1201   42.7869
   43.8362   45.2085   46.8598   47.2063   50.7488   51.1713   55.0452
   4  1  -25.0140  -18.8470  -18.5819  -18.1549  -17.9324  -16.4679  -16.2460  -14.0028  -13.5677  -12.7017
         -12.3052   -8.4999   -8.3015   -7.4205   -6.9398   -4.6905   -4.1216   -4.1115   -3.6327   -3.1128
   -1.5572   -0.2310    0.1192    0.1307    0.4890    1.4574    1.6666    4.5284    4.5663    7.7152
    7.8147    9.5161   12.5242   13.3738   15.4081   18.5040   18.5411   19.0249   19.3005   19.5061
   20.8074   21.6941   22.8490   24.5294   26.1780   27.4989   31.7438   33.0063   33.3325   34.6292
   43.7058   43.7780   43.8148   46.1592   46.1944   46.3953   49.7604
   5  1  -25.1574  -19.2181  -18.6585  -18.5178  -16.6058  -16.4340  -15.7122  -14.2352  -13.5092  -12.2384
         -11.1880  -10.7009   -9.3222   -8.6718   -8.0911   -5.7939   -4.7390   -4.6441   -3.7345   -2.7567
   -2.6121   -1.9980   -0.0110    0.8675    3.1152    3.4484    5.0699    7.1998    9.4443    9.8550
   10.8800   12.7235   14.6089   14.9855   17.1120   18.4594   18.6574   21.1175   21.3006   21.6907
   22.4199   22.7656   24.5208   25.5551   25.7251   29.7084   30.8210   33.1495   36.1207   42.7869
   43.8360   45.2085   46.8597   47.2063   50.7491   51.1713   55.0454
   6  1  -25.0963  -19.4061  -18.5630  -17.4175  -16.1927  -16.1925  -16.0553  -14.2616  -13.0766  -10.0066
         -10.0066   -9.8360   -9.4714   -9.4714   -8.8879   -8.7649   -8.7649   -4.2730   -4.2730   -3.5702
   -3.5701   -0.6854    2.3375    2.3381    5.4971    5.4971    7.5832    7.5833   10.2709   12.3910
   12.3911   18.0791   18.0792   19.4384   19.4385   21.1892   22.1692   28.2056   28.2057   29.1701
   29.1712   30.5022   30.5023   31.9539   33.5044   33.5044   34.2712   34.2716   39.1441   39.1443
   42.4576   45.4086   45.8261   46.4291   46.5547   69.0588   69.0590
   7  1  -25.0293  -19.1472  -18.5914  -17.7495  -17.6766  -16.6701  -16.6469  -14.0118  -13.6059  -11.7652
         -11.5313  -11.4056   -8.2040   -6.7287   -6.3891   -5.1481   -4.7580   -4.1812   -3.0037   -0.9339
   -0.5111   -0.4204    0.2882    0.3540    0.4889    1.3801    1.8556    2.8247    3.0719    3.2536
    8.4081   10.2976   10.4214   15.0762   15.1755   16.7795   18.1824   18.4288   20.7587   21.9431
   22.7848   24.5124   25.1095   26.1639   29.8784   30.3817   32.5408   33.5729   36.8325   45.3172
   45.6495   46.9399   47.0799   57.4051   58.3982   58.5164   63.8474
   8  1  -25.0140  -18.8470  -18.5819  -18.1549  -17.9324  -16.4679  -16.2460  -14.0028  -13.5677  -12.7017
         -12.3052   -8.4999   -8.3015   -7.4205   -6.9398   -4.6905   -4.1216   -4.1115   -3.6327   -3.1128
   -1.5572   -0.2310    0.1192    0.1307    0.4890    1.4574    1.6666    4.5284    4.5663    7.7152
    7.8147    9.5161   12.5242   13.3738   15.4081   18.5040   18.5411   19.0249   19.3005   19.5061
   20.8074   21.6941   22.8490   24.5294   26.1780   27.4989   31.7438   33.0063   33.3325   34.6292
   43.7058   43.7780   43.8148   46.1592   46.1944   46.3953   49.7604
   9  1  -25.0140  -18.8470  -18.5819  -18.1549  -17.9324  -16.4679  -16.2460  -14.0028  -13.5677  -12.7017
         -12.3052   -8.4999   -8.3015   -7.4205   -6.9398   -4.6905   -4.1216   -4.1115   -3.6327   -3.1128
   -1.5572   -0.2310    0.1192    0.1307    0.4890    1.4574    1.6666    4.5284    4.5663    7.7152
    7.8147    9.5161   12.5242   13.3738   15.4081   18.5040   18.5411   19.0249   19.3005   19.5061
   20.8074   21.6941   22.8490   24.5294   26.1780   27.4989   31.7438   33.0063   33.3325   34.6292
   43.7058   43.7780   43.8149   46.1592   46.1944   46.3953   49.7604
  10  1  -25.0293  -19.1472  -18.5914  -17.7495  -17.6766  -16.6701  -16.6469  -14.0118  -13.6059  -11.7652
         -11.5313  -11.4056   -8.2040   -6.7287   -6.3891   -5.1481   -4.7580   -4.1812   -3.0037   -0.9339
   -0.5111   -0.4204    0.2882    0.3540    0.4889    1.3801    1.8556    2.8247    3.0719    3.2536
    8.4081   10.2976   10.4214   15.0762   15.1755   16.7795   18.1824   18.4288   20.7587   21.9431
   22.7848   24.5124   25.1095   26.1639   29.8784   30.3817   32.5408   33.5729   36.8325   45.3173
   45.6495   46.9399   47.0799   57.4051   58.3982   58.5164   63.8474
  11  1  -25.0140  -18.8470  -18.5819  -18.1549  -17.9324  -16.4679  -16.2460  -14.0028  -13.5677  -12.7017
         -12.3052   -8.4999   -8.3015   -7.4205   -6.9398   -4.6905   -4.1216   -4.1115   -3.6327   -3.1128
   -1.5572   -0.2310    0.1192    0.1307    0.4890    1.4574    1.6666    4.5284    4.5663    7.7152
    7.8147    9.5161   12.5242   13.3738   15.4081   18.5040   18.5411   19.0249   19.3005   19.5061
   20.8074   21.6941   22.8490   24.5294   26.1780   27.4989   31.7438   33.0063   33.3325   34.6292
   43.7058   43.7780   43.8149   46.1592   46.1944   46.3953   49.7604
  12  1  -25.0293  -19.1472  -18.5914  -17.7495  -17.6766  -16.6701  -16.6470  -14.0118  -13.6059  -11.7652
         -11.5313  -11.4054   -8.2040   -6.7287   -6.3892   -5.1481   -4.7580   -4.1812   -3.0036   -0.9339
   -0.5111   -0.4205    0.2883    0.3540    0.4889    1.3801    1.8556    2.8249    3.0719    3.2536
    8.4080   10.2973   10.4214   15.0762   15.1759   16.7794   18.1824   18.4289   20.7590   21.9431
   22.7847   24.5122   25.1095   26.1639   29.8784   30.3808   32.5407   33.5730   36.8324   45.3173
   45.6494   46.9399   47.0798   57.4054   58.3982   58.5164   63.8473
  13  1  -25.0168  -18.9136  -18.8203  -17.9968  -17.8680  -16.5484  -15.8331  -14.4483  -13.8035  -11.9639
         -11.8943  -10.2399   -7.9407   -7.5038   -7.0338   -5.9190   -4.7535   -4.1005   -3.2342   -2.7712
   -2.0604   -1.6576   -1.2366   -0.3247    0.3767    2.5514    3.5144    3.6819    3.9072    8.0233
   11.6257   11.9418   12.4314   15.4428   16.1017   16.2086   18.7780   18.9451   19.2655   20.6275
   20.9205   21.1434   23.4821   24.4849   25.4595   28.4120   29.9289   32.8202   34.3907   34.7919
   40.4608   43.3368   43.7310   44.6982   45.6988   46.0581   47.6683
  14  1  -25.1732  -19.3153  -18.5974  -18.4354  -16.4225  -16.3879  -15.5777  -14.5772  -13.8527  -11.6808
         -11.1812  -10.5082   -9.5310   -8.4849   -7.9893   -6.2315   -5.7712   -4.5696   -4.1375   -3.4402
   -1.3063   -1.0787    0.3330    0.4541    0.6735    2.3677    6.7512    6.7521    8.0340    9.6639
   10.0916   12.3724   12.4888   17.7347   19.7412   19.9942   21.2506   21.5460   22.1213   22.3932
   23.1798   23.7656   24.9417   25.4450   26.2823   26.5424   31.0867   34.4340   34.6581   37.8125
   42.8813   43.9063   46.7359   47.6166   49.7809   50.1496   54.5207
  15  1  -25.1732  -19.3153  -18.5974  -18.4354  -16.4226  -16.3879  -15.5776  -14.5771  -13.8526  -11.6808
         -11.1812  -10.5082   -9.5310   -8.4849   -7.9892   -6.2315   -5.7712   -4.5696   -4.1375   -3.4402
   -1.3061   -1.0788    0.3330    0.4541    0.6734    2.3676    6.7512    6.7520    8.0341    9.6638
   10.0917   12.3725   12.4887   17.7347   19.7411   19.9944   21.2504   21.5462   22.1214   22.3931
   23.1800   23.7655   24.9416   25.4453   26.2822   26.5425   31.0866   34.4338   34.6582   37.8122
   42.8813   43.9062   46.7360   47.6166   49.7806   50.1496   54.5205
  16  1  -25.0168  -18.9136  -18.8203  -17.9968  -17.8680  -16.5484  -15.8331  -14.4483  -13.8035  -11.9639
         -11.8942  -10.2399   -7.9406   -7.5039   -7.0338   -5.9190   -4.7535   -4.1005   -3.2342   -2.7712
   -2.0604   -1.6576   -1.2366   -0.3247    0.3767    2.5514    3.5144    3.6820    3.9074    8.0230
   11.6258   11.9417   12.4315   15.4428   16.1017   16.2086   18.7780   18.9451   19.2655   20.6275
   20.9204   21.1434   23.4822   24.4853   25.4595   28.4119   29.9289   32.8202   34.3907   34.7915
   40.4608   43.3368   43.7310   44.6982   45.6989   46.0581   47.6682
  17  1  -25.1732  -19.3153  -18.5974  -18.4354  -16.4225  -16.3879  -15.5777  -14.5772  -13.8527  -11.6808
         -11.1812  -10.5082   -9.5310   -8.4849   -7.9893   -6.2315   -5.7712   -4.5696   -4.1375   -3.4402
   -1.3063   -1.0787    0.3330    0.4541    0.6735    2.3677    6.7512    6.7521    8.0340    9.6639
   10.0916   12.3724   12.4888   17.7347   19.7412   19.9942   21.2506   21.5460   22.1213   22.3932
   23.1798   23.7656   24.9417   25.4450   26.2823   26.5424   31.0867   34.4340   34.6581   37.8125
   42.8813   43.9063   46.7359   47.6166   49.7809   50.1496   54.5207
  18  1  -25.1576  -19.4422  -18.4956  -17.3253  -16.1636  -16.1634  -15.7874  -14.5495  -13.3051  -10.8346
          -9.8508   -9.8508   -9.4414   -9.4414   -8.8743   -8.8743   -7.5328   -3.5142   -3.5142   -2.5821
   -2.5820   -2.2460    1.7236    1.7240    5.8581    5.8583    6.2914    6.2915   12.1442   12.1443
   14.8021   19.3006   19.3007   20.7950   20.7951   21.4712   21.4712   21.6519   21.8901   27.8513
   27.8514   29.7533   29.7534   32.8187   32.8189   34.2464   38.5609   38.5621   40.8606   40.8610
   44.5958   44.9783   45.5706   45.8836   46.0159   56.8556   56.8560
  19  1  -25.1732  -19.3153  -18.5974  -18.4354  -16.4225  -16.3879  -15.5777  -14.5772  -13.8527  -11.6808
         -11.1812  -10.5082   -9.5310   -8.4849   -7.9893   -6.2315   -5.7712   -4.5696   -4.1375   -3.4402
   -1.3063   -1.0787    0.3330    0.4541    0.6735    2.3677    6.7512    6.7521    8.0340    9.6639
   10.0916   12.3724   12.4888   17.7347   19.7412   19.9942   21.2506   21.5460   22.1213   22.3932
   23.1798   23.7656   24.9417   25.4450   26.2823   26.5424   31.0867   34.4340   34.6581   37.8125
   42.8813   43.9063   46.7359   47.6166   49.7809   50.1496   54.5207
  20  1  -25.0303  -19.1282  -18.9198  -17.7522  -17.4151  -16.6467  -16.4314  -14.4985  -13.5197  -11.7714
         -11.3017  -10.4407   -9.9808   -6.9659   -6.2978   -5.5862   -4.3641   -3.7576   -3.2987   -2.1022
   -1.8662   -1.3564   -1.2445   -1.0733   -0.6112    0.5857    1.5368    3.5399    4.0068    7.8064
    8.7595   12.6532   13.6556   15.3916   16.4279   17.0757   18.2846   20.5575   21.1493   21.9661
   22.9857   23.0779   24.3274   24.4546   25.5161   26.6536   26.7008   28.0125   32.0182   40.8742
   45.4979   46.7462   48.0704   53.4132   54.9097   56.3508   56.5825
  21  1  -25.1732  -19.3153  -18.5974  -18.4354  -16.4226  -16.3879  -15.5776  -14.5771  -13.8526  -11.6808
         -11.1812  -10.5082   -9.5310   -8.4849   -7.9892   -6.2315   -5.7712   -4.5696   -4.1375   -3.4402
   -1.3061   -1.0788    0.3330    0.4541    0.6734    2.3676    6.7512    6.7520    8.0341    9.6638
   10.0917   12.3725   12.4887   17.7347   19.7411   19.9944   21.2504   21.5462   22.1214   22.3931
   23.1800   23.7655   24.9416   25.4453   26.2822   26.5425   31.0866   34.4338   34.6582   37.8122
   42.8813   43.9062   46.7360   47.6166   49.7806   50.1496   54.5205
  22  1  -25.1732  -19.3153  -18.5974  -18.4354  -16.4225  -16.3879  -15.5777  -14.5772  -13.8527  -11.6808
         -11.1812  -10.5082   -9.5310   -8.4849   -7.9893   -6.2315   -5.7712   -4.5696   -4.1375   -3.4402
   -1.3063   -1.0787    0.3330    0.4541    0.6735    2.3677    6.7512    6.7521    8.0340    9.6639
   10.0916   12.3724   12.4888   17.7347   19.7412   19.9942   21.2506   21.5460   22.1213   22.3932
   23.1798   23.7656   24.9417   25.4450   26.2823   26.5424   31.0867   34.4340   34.6581   37.8125
   42.8813   43.9063   46.7359   47.6166   49.7809   50.1496   54.5207
  23  1  -25.0168  -18.9136  -18.8203  -17.9968  -17.8680  -16.5484  -15.8331  -14.4483  -13.8035  -11.9639
         -11.8943  -10.2399   -7.9407   -7.5038   -7.0338   -5.9190   -4.7535   -4.1005   -3.2342   -2.7712
   -2.0604   -1.6576   -1.2366   -0.3247    0.3767    2.5514    3.5144    3.6819    3.9072    8.0233
   11.6257   11.9418   12.4314   15.4428   16.1017   16.2086   18.7780   18.9451   19.2655   20.6275
   20.9205   21.1434   23.4821   24.4849   25.4595   28.4120   29.9289   32.8202   34.3907   34.7919
   40.4608   43.3368   43.7310   44.6982   45.6988   46.0581   47.6683
  24  1  -25.0168  -18.9136  -18.8203  -17.9968  -17.8680  -16.5484  -15.8331  -14.4483  -13.8035  -11.9639
         -11.8942  -10.2399   -7.9406   -7.5039   -7.0338   -5.9190   -4.7535   -4.1005   -3.2342   -2.7712
   -2.0604   -1.6576   -1.2366   -0.3247    0.3767    2.5514    3.5144    3.6820    3.9074    8.0230
   11.6258   11.9417   12.4315   15.4428   16.1017   16.2086   18.7780   18.9451   19.2655   20.6275
   20.9204   21.1434   23.4822   24.4853   25.4595   28.4119   29.9289   32.8202   34.3907   34.7915
   40.4608   43.3368   43.7310   44.6982   45.6989   46.0581   47.6682
  25  1  -25.0168  -18.9136  -18.8203  -17.9968  -17.8680  -16.5484  -15.8331  -14.4483  -13.8035  -11.9639
         -11.8942  -10.2399   -7.9406   -7.5039   -7.0338   -5.9190   -4.7535   -4.1005   -3.2342   -2.7712
   -2.0604   -1.6576   -1.2366   -0.3247    0.3767    2.5514    3.5144    3.6820    3.9074    8.0230
   11.6258   11.9417   12.4315   15.4428   16.1017   16.2086   18.7780   18.9451   19.2655   20.6275
   20.9204   21.1434   23.4822   24.4853   25.4595   28.4119   29.9289   32.8202   34.3907   34.7916
   40.4608   43.3368   43.7310   44.6982   45.6989   46.0581   47.6682
  26  1  -25.0303  -19.1282  -18.9198  -17.7522  -17.4151  -16.6467  -16.4314  -14.4985  -13.5197  -11.7714
         -11.3017  -10.4407   -9.9808   -6.9659   -6.2978   -5.5862   -4.3641   -3.7576   -3.2987   -2.1022
   -1.8662   -1.3564   -1.2445   -1.0733   -0.6112    0.5857    1.5368    3.5399    4.0068    7.8064
    8.7595   12.6532   13.6556   15.3916   16.4279   17.0757   18.2846   20.5575   21.1493   21.9661
   22.9857   23.0779   24.3274   24.4546   25.5161   26.6536   26.7008   28.0125   32.0182   40.8742
   45.4978   46.7462   48.0704   53.4132   54.9097   56.3508   56.5824
  27  1  -25.0168  -18.9136  -18.8203  -17.9968  -17.8680  -16.5484  -15.8331  -14.4483  -13.8035  -11.9639
         -11.8942  -10.2399   -7.9406   -7.5039   -7.0338   -5.9190   -4.7535   -4.1005   -3.2342   -2.7712
   -2.0604   -1.6576   -1.2366   -0.3247    0.3767    2.5514    3.5144    3.6820    3.9074    8.0230
   11.6258   11.9417   12.4315   15.4428   16.1017   16.2086   18.7780   18.9451   19.2655   20.6275
   20.9204   21.1434   23.4822   24.4853   25.4595   28.4119   29.9289   32.8202   34.3907   34.7916
   40.4608   43.3368   43.7310   44.6982   45.6989   46.0581   47.6682
  28  1  -25.0303  -19.1281  -18.9198  -17.7522  -17.4151  -16.6468  -16.4314  -14.4985  -13.5197  -11.7714
         -11.3016  -10.4407   -9.9808   -6.9659   -6.2979   -5.5862   -4.3641   -3.7576   -3.2987   -2.1022
   -1.8662   -1.3564   -1.2445   -1.0733   -0.6112    0.5857    1.5369    3.5397    4.0071    7.8065
    8.7595   12.6530   13.6556   15.3917   16.4282   17.0758   18.2845   20.5579   21.1492   21.9661
   22.9857   23.0777   24.3275   24.4544   25.5160   26.6537   26.7008   28.0125   32.0182   40.8736
   45.4978   46.7462   48.0704   53.4131   54.9097   56.3507   56.5827
  29  1  -25.0174  -19.1050  -18.7822  -17.9603  -17.7933  -16.6197  -15.2326  -14.7194  -14.0741  -11.6231
         -11.2589  -11.2433   -8.1085   -7.8179   -7.1429   -7.0479   -6.1224   -3.3423   -3.3379   -3.0886
   -2.2268   -1.7040   -0.4845    0.7567    0.9139    2.2347    4.1930    4.6159    4.7203    8.2346
    8.6539   10.0408   14.0284   16.2398   16.4855   18.3800   18.6259   18.6823   19.6839   20.3086
   21.9130   22.5195   23.2742   24.2144   25.1190   26.7656   29.0678   32.6565   35.8986   37.0455
   37.8283   40.2665   41.6308   44.5768   45.3942   45.7788   46.7910
  30  1  -25.1828  -19.3915  -18.5350  -18.4137  -16.4118  -15.8796  -15.8439  -14.6082  -14.1537  -11.6731
         -11.1759  -10.8486   -8.2424   -8.0551   -7.3557   -7.0437   -6.7088   -5.6722   -3.2927   -3.0778
   -2.4516   -2.0939   -0.5114    0.4465    2.2854    3.1789    5.7223    5.9651    6.5560    6.8233
   10.3895   12.6724   16.3719   19.3050   20.6266   21.2841   21.7501   22.0253   22.1463   22.8878
   23.3771   23.8006   24.7050   26.9399   27.0903   27.9762   28.6925   29.6892   31.2891   42.8302
   42.9356   44.7151   44.9984   48.5921   48.7087   49.1609   55.2292
  31  1  -25.1828  -19.3915  -18.5350  -18.4136  -16.4119  -15.8796  -15.8439  -14.6082  -14.1537  -11.6731
         -11.1759  -10.8486   -8.2425   -8.0551   -7.3556   -7.0437   -6.7088   -5.6722   -3.2927   -3.0778
   -2.4517   -2.0939   -0.5112    0.4463    2.2854    3.1789    5.7223    5.9651    6.5560    6.8233
   10.3897   12.6721   16.3719   19.3050   20.6270   21.2842   21.7501   22.0253   22.1463   22.8876
   23.3771   23.8004   24.7051   26.9398   27.0902   27.9767   28.6924   29.6893   31.2890   42.8299
   42.9355   44.7151   44.9984   48.5921   48.7086   49.1607   55.2290
  32  1  -25.0174  -19.1050  -18.7822  -17.9603  -17.7934  -16.6197  -15.2326  -14.7195  -14.0740  -11.6231
         -11.2589  -11.2433   -8.1084   -7.8180   -7.1429   -7.0479   -6.1224   -3.3423   -3.3380   -3.0886
   -2.2268   -1.7040   -0.4846    0.7567    0.9139    2.2347    4.1930    4.6159    4.7207    8.2345
    8.6539   10.0406   14.0283   16.2397   16.4855   18.3800   18.6260   18.6824   19.6840   20.3085
   21.9128   22.5194   23.2742   24.2146   25.1191   26.7655   29.0680   32.6564   35.8987   37.0454
   37.8280   40.2665   41.6307   44.5769   45.3942   45.7788   46.7909
  33  1  -25.1828  -19.3915  -18.5350  -18.4137  -16.4118  -15.8796  -15.8439  -14.6082  -14.1537  -11.6731
         -11.1759  -10.8486   -8.2424   -8.0551   -7.3557   -7.0437   -6.7088   -5.6722   -3.2927   -3.0778
   -2.4516   -2.0939   -0.5114    0.4465    2.2854    3.1789    5.7223    5.9651    6.5560    6.8233
   10.3895   12.6724   16.3719   19.3050   20.6266   21.2841   21.7501   22.0253   22.1463   22.8878
   23.3771   23.8006   24.7050   26.9399   27.0903   27.9762   28.6925   29.6892   31.2891   42.8302
   42.9357   44.7151   44.9984   48.5921   48.7087   49.1609   55.2292
  34  1  -25.1878  -19.4338  -18.4519  -17.2175  -16.1310  -16.1308  -15.2089  -15.1255  -13.4579  -11.5672
          -9.4393   -9.4393   -9.3879   -9.3879   -9.3341   -9.3341   -5.5230   -4.3436   -0.9829   -0.9827
   -0.6613   -0.6613    1.0618    1.0618    1.3652    1.3652    5.2857    5.2861   11.8281   11.8282
   14.1998   14.1998   17.8229   22.0505   22.1066   22.8401   22.8401   27.1228   27.1229   27.3756
   27.3757   27.5372   27.5373   30.9211   30.9211   41.2580   41.2596   44.5492   44.7207   44.8085
   44.8788   44.9474   44.9476   45.6448   45.6560   45.8041   45.8049
  35  1  -25.1828  -19.3915  -18.5350  -18.4137  -16.4118  -15.8796  -15.8439  -14.6082  -14.1537  -11.6731
         -11.1759  -10.8486   -8.2424   -8.0551   -7.3557   -7.0437   -6.7088   -5.6722   -3.2927   -3.0778
   -2.4516   -2.0939   -0.5114    0.4465    2.2854    3.1789    5.7223    5.9651    6.5560    6.8233
   10.3895   12.6724   16.3719   19.3050   20.6266   21.2841   21.7501   22.0253   22.1463   22.8878
   23.3771   23.8006   24.7050   26.9399   27.0903   27.9762   28.6925   29.6892   31.2891   42.8302
   42.9357   44.7151   44.9984   48.5921   48.7087   49.1609   55.2292
  36  1  -25.0294  -19.1359  -19.1055  -17.8206  -17.1919  -16.6422  -16.2909  -14.6389  -13.4359  -11.7820
         -11.5330  -11.0766   -8.2469   -7.6084   -6.8553   -6.1500   -3.7132   -3.4542   -3.3860   -2.8790
   -2.8642   -2.3815   -2.2197   -2.1758   -1.8098   -1.5518    3.2399    4.1405    4.9005    4.9389
   13.4807   14.2375   14.3475   16.5506   17.6858   17.8669   19.7914   20.6643   21.1161   21.3408
   22.4374   22.8841   23.0774   23.5595   24.9004   25.1640   25.5157   27.0759   27.5374   40.3952
   46.0635   49.3000   50.5095   52.0275   52.3601   52.6252   55.7692
  37  1  -25.1828  -19.3915  -18.5350  -18.4136  -16.4119  -15.8796  -15.8439  -14.6082  -14.1537  -11.6731
         -11.1759  -10.8486   -8.2425   -8.0551   -7.3556   -7.0437   -6.7088   -5.6722   -3.2927   -3.0778
   -2.4517   -2.0939   -0.5112    0.4463    2.2854    3.1789    5.7223    5.9651    6.5560    6.8233
   10.3897   12.6721   16.3719   19.3050   20.6270   21.2842   21.7501   22.0253   22.1463   22.8876
   23.3771   23.8004   24.7051   26.9398   27.0902   27.9767   28.6924   29.6893   31.2890   42.8299
   42.9355   44.7151   44.9984   48.5921   48.7086   49.1607   55.2290
  38  1  -25.1828  -19.3915  -18.5350  -18.4137  -16.4118  -15.8796  -15.8439  -14.6082  -14.1537  -11.6731
         -11.1759  -10.8486   -8.2424   -8.0551   -7.3557   -7.0437   -6.7088   -5.6722   -3.2927   -3.0778
   -2.4516   -2.0939   -0.5114    0.4465    2.2854    3.1789    5.7223    5.9651    6.5560    6.8233
   10.3895   12.6724   16.3719   19.3050   20.6266   21.2841   21.7501   22.0253   22.1463   22.8878
   23.3771   23.8006   24.7050   26.9399   27.0903   27.9762   28.6925   29.6892   31.2891   42.8302
   42.9356   44.7151   44.9984   48.5921   48.7087   49.1609   55.2292
  39  1  -25.0174  -19.1050  -18.7822  -17.9603  -17.7933  -16.6197  -15.2326  -14.7194  -14.0741  -11.6231
         -11.2589  -11.2433   -8.1085   -7.8179   -7.1429   -7.0479   -6.1224   -3.3423   -3.3379   -3.0886
   -2.2268   -1.7040   -0.4845    0.7567    0.9139    2.2347    4.1930    4.6159    4.7203    8.2346
    8.6539   10.0408   14.0284   16.2398   16.4855   18.3800   18.6259   18.6823   19.6839   20.3086
   21.9130   22.5195   23.2742   24.2144   25.1190   26.7656   29.0678   32.6565   35.8986   37.0455
   37.8283   40.2665   41.6308   44.5768   45.3942   45.7788   46.7910
  40  1  -25.0174  -19.1050  -18.7822  -17.9603  -17.7934  -16.6197  -15.2326  -14.7195  -14.0740  -11.6231
         -11.2589  -11.2433   -8.1084   -7.8180   -7.1429   -7.0479   -6.1224   -3.3423   -3.3380   -3.0886
   -2.2268   -1.7040   -0.4846    0.7567    0.9139    2.2347    4.1930    4.6159    4.7207    8.2345
    8.6539   10.0406   14.0283   16.2397   16.4855   18.3800   18.6260   18.6824   19.6840   20.3085
   21.9128   22.5194   23.2742   24.2146   25.1191   26.7655   29.0680   32.6564   35.8987   37.0454
   37.8280   40.2665   41.6307   44.5769   45.3942   45.7788   46.7909
  41  1  -25.0174  -19.1050  -18.7822  -17.9603  -17.7934  -16.6197  -15.2326  -14.7195  -14.0740  -11.6231
         -11.2589  -11.2433   -8.1084   -7.8180   -7.1429   -7.0479   -6.1224   -3.3423   -3.3380   -3.0886
   -2.2268   -1.7040   -0.4846    0.7567    0.9139    2.2347    4.1930    4.6159    4.7207    8.2345
    8.6539   10.0406   14.0283   16.2397   16.4855   18.3800   18.6260   18.6824   19.6840   20.3085
   21.9128   22.5194   23.2742   24.2146   25.1191   26.7655   29.0680   32.6564   35.8987   37.0454
   37.8280   40.2665   41.6307   44.5769   45.3943   45.7788   46.7909
  42  1  -25.0294  -19.1359  -19.1055  -17.8206  -17.1919  -16.6422  -16.2909  -14.6389  -13.4359  -11.7820
         -11.5330  -11.0766   -8.2469   -7.6084   -6.8553   -6.1500   -3.7132   -3.4542   -3.3860   -2.8790
   -2.8642   -2.3815   -2.2197   -2.1758   -1.8098   -1.5518    3.2399    4.1405    4.9005    4.9389
   13.4807   14.2375   14.3475   16.5506   17.6858   17.8669   19.7914   20.6643   21.1161   21.3408
   22.4374   22.8841   23.0774   23.5595   24.9004   25.1640   25.5157   27.0759   27.5374   40.3952
   46.0635   49.3000   50.5096   52.0275   52.3601   52.6252   55.7692
  43  1  -25.0174  -19.1050  -18.7822  -17.9603  -17.7934  -16.6197  -15.2326  -14.7195  -14.0740  -11.6231
         -11.2589  -11.2433   -8.1084   -7.8180   -7.1429   -7.0479   -6.1224   -3.3423   -3.3380   -3.0886
   -2.2268   -1.7040   -0.4846    0.7567    0.9139    2.2347    4.1930    4.6159    4.7207    8.2345
    8.6539   10.0406   14.0283   16.2397   16.4855   18.3800   18.6260   18.6824   19.6840   20.3085
   21.9128   22.5194   23.2742   24.2146   25.1191   26.7655   29.0680   32.6564   35.8987   37.0454
   37.8280   40.2665   41.6307   44.5769   45.3943   45.7788   46.7909
  44  1  -25.0294  -19.1359  -19.1054  -17.8206  -17.1919  -16.6424  -16.2909  -14.6389  -13.4358  -11.7820
         -11.5330  -11.0766   -8.2468   -7.6083   -6.8553   -6.1501   -3.7132   -3.4542   -3.3860   -2.8790
   -2.8642   -2.3815   -2.2197   -2.1758   -1.8098   -1.5518    3.2399    4.1405    4.9009    4.9386
   13.4805   14.2375   14.3475   16.5507   17.6858   17.8671   19.7915   20.6647   21.1160   21.3409
   22.4374   22.8842   23.0773   23.5595   24.9003   25.1639   25.5156   27.0760   27.5372   40.3945
   46.0634   49.3000   50.5095   52.0274   52.3603   52.6253   55.7691
siesta: Fermi energy =     -14.077783 eV

siesta: Program's energy decomposition (eV):
siesta: Ebs     =      -289.913281
siesta: Eions   =       380.620085
siesta: Ena     =        95.917444
siesta: Ekin    =       205.442780
siesta: Enl     =         9.049883
siesta: Eso     =         0.000000
siesta: Edftu   =         0.000000
siesta: DEna    =         9.233460
siesta: DUscf   =         3.578926
siesta: DUext   =         0.000000
siesta: Exc     =      -166.804667
siesta: eta*DQ  =         0.000000
siesta: Emadel  =         0.000000
siesta: Emeta   =         0.000000
siesta: Emolmec =        -6.473056
siesta: Ekinion =         0.000000
siesta: Eharris =      -230.675317
siesta: Etot    =      -230.675315
siesta: FreeEng =      -230.681354

siesta: Final energy (eV):
siesta:  Band Struct. =    -289.913281
siesta:       Kinetic =     205.442780
siesta:       Hartree =      74.962267
siesta:       Edftu   =       0.000000
siesta:       Eso     =       0.000000
siesta:    Ext. field =       0.000000
siesta:   Exch.-corr. =    -166.804667
siesta:  Ion-electron =    -467.881774
siesta:       Ion-ion =     130.079135
siesta:       Ekinion =       0.000000
siesta:         Total =    -230.675315
siesta:         Fermi =     -14.077783

siesta: Atomic forces (eV/Ang):
siesta:      1    0.000000    0.000000    0.000000
siesta:      2    0.415542   -0.000007    0.146479
siesta:      3   -0.415542    0.000007   -0.146479
siesta:      4   -0.207777    0.359867    0.146479
siesta:      5    0.207777   -0.359867   -0.146479
siesta:      6   -0.207770   -0.359868    0.146430
siesta:      7    0.207770    0.359868   -0.146430
siesta:      8   -0.415542    0.000007    0.146479
siesta:      9    0.415542   -0.000007   -0.146479
siesta:     10    0.207777   -0.359867    0.146479
siesta:     11   -0.207777    0.359867   -0.146479
siesta:     12    0.207770    0.359868    0.146430
siesta:     13   -0.207770   -0.359868   -0.146430
siesta: ----------------------------------------
siesta:    Tot    0.000000    0.000000    0.000000

siesta: Stress tensor (static) (eV/Ang**3):
siesta:    -0.857680   -0.000008    0.000000
siesta:    -0.000008   -0.857689   -0.000000
siesta:     0.000000   -0.000000    0.367599

siesta: Cell volume =         88.655978 Ang**3

siesta: Pressure (static):
siesta:                Solid            Molecule  Units
siesta:           0.00489298          0.00513963  Ry/Bohr**3
siesta:           0.44925657          0.47190321  eV/Ang**3
siesta:         719.79615647        756.08046679  kBar
(Free)E+ p_basis*V_orbitals  =        -198.511233
(Free)Eharris+ p_basis*V_orbitals  =        -198.511235

cite: Please see "LiC12_scf.bib" for an exhaustive BiBTeX file.
cite: Please clearly indicate Siesta version in published work: 4.1.5
cite: This calculation has made use of the following articles
cite: which are encouraged to be cited in a published work.
        Primary SIESTA paper
          DOI: www.doi.org/10.1088/0953-8984/14/11/302

>> End of run:   9-NOV-2022  13:05:33
Job completed
