Siesta Version  : 4.1.5
Architecture    : x86_64-unknown-linux-gnu--unknown
Compiler version: GNU Fortran (GCC) 11.3.0
Compiler flags  : mpif90 -g -O2 -fallow-argument-mismatch
PP flags        : -DMPI -DFC_HAVE_FLUSH -DFC_HAVE_ABORT
Libraries       :  -I/global/software/sl-7.x86_64/modules/intel/2020.4.304/mkl/include  /globall/software/sl-7.x86_64/modules/intel/2020.4.304/mkl/lib/intel64/libmkl_scalapack_lp64.a -Wl,--start-group /global/software/sl-7.x86_64/modules/intel/2020.4.304/mkl/lib/intel64/libmkl_intel_lp64.a /global/software/sl-7.x86_64/modules/intel/2020.4.304/mkl/lib/intel64/libmkl_sequential.a /global/software/sl-7.x86_64/modules/intel/2020.4.304/mkl/lib/intel64/libmkl_core.a /global/software/sl-7.x86_64/modules/intel/2020.4.304/mkl/lib/intel64/libmkl_blacs_openmpi_lp64.a -Wl,--end-group -lpthread -lm -ldl
PARALLEL version

* Running on 12 nodes in parallel
>> Start of run:   9-NOV-2022  13:25:35

                           ***********************       
                           *  WELCOME TO SIESTA  *       
                           ***********************       

reinit: Reading from standard input
reinit: Dumped input in INPUT_TMP.02866
************************** Dump of input data file ****************************
SystemName LiC12_scf
SystemLabel LiC12_scf
NumberOfAtoms   13
NumberOfSpecies 2
%block ChemicalSpeciesLabel
1  3   Li-gga
2  6   C-gga
%endblock ChemicalSpeciesLabel
PAO.BasisSize  SZP
PAO.EnergyShift  10 meV
%block PS.Lmax
C-gga   2
Li-gga  2
%endblock PS.Lmax
LatticeConstant 1.000000 Ang
%block LatticeVectors
	4.2686000000	0.0000000000	0.0000000000
	-2.1343000000	3.6967160386	0.0000000000
	0.0000000000	0.0000000000	3.7923660000
%endblock LatticeVectors
AtomicCoordinatesFormat Ang
%block AtomicCoordinatesAndAtomicSpecies
	0.00000000	0.00000000	0.00000000	2
	1.42144380	0.00000000	0.94809150	1
	2.84715620	0.00000000	2.84427450	1
	-0.71072190	1.23100644	0.94809150	1
	-1.42357810	2.46570960	2.84427450	1
	1.42357810	2.46570960	0.94809150	1
	0.71072190	1.23100644	2.84427450	1
	2.84715620	0.00000000	0.94809150	1
	1.42144380	0.00000000	2.84427450	1
	-1.42357810	2.46570960	0.94809150	1
	-0.71072190	1.23100644	2.84427450	1
	0.71072190	1.23100644	0.94809150	1
	1.42357810	2.46570960	2.84427450	1
%endblock AtomicCoordinatesAndAtomicSpecies
Kgrid_NoTRS  T
%block kgrid_MonkhorstPack
4       0       0       0.0
0       4       0       0.0
0       0       4       0.0
%endblock kgrid_MonkhorstPack
AtomCoorFormatOut Ang
BlockSize 1
#ProcessorY 12
Diag.ParallelOverK   T
Diag.DivideAndConquer F
MeshCutoff   300 Ry
SCF.FreeE.Tolerance 1E-3 eV
SCF.EDM.Tolerance   5E-3 eV
DM.Tolerance  1E-3
DM.Require.Energy.Convergence T
DM.NumberPulay 4
XC.Functional GGA
XC.Authors    PBE
UseSaveData        F
MD.TypeOfRun       CG
MD.VariableCell    F
MD.NumCGsteps      00
MD.MaxCGDispl      0.200000 Bohr
MD.MaxStressTol    1.000000 GPa
MD.MaxForceTol     0.010000 eV/Ang
WriteMDHistory T
WriteCoorStep T
WriteForces T
WriteCoorStep    T
WriteEigenValues T
WriteDM    F
MM.UnitsDistance Ang  # what this program prints out DO NOT CHANGE
MM.UnitsEnergy    eV  # what this program prints out DO NOT CHANGE
MM.Grimme.S6     0.75 # Grimme-paper for PBE (correct for your functional)
MM.Grimme.D     20.   # Grimme-paper (correct for your functional)
%block MM.Potentials
  1   1 Grimme     16.69      1.650 # Li, 10.1002/jcc.20495
  1   2 Grimme     17.40      2.277 # Li / C
  2   2 Grimme     18.14      2.904 # C, 10.1002/jcc.20495
%endblock MM.Potentials
#%block ProjectedDensityOfStates
# -200.0  120.0  0.4  12800  eV
#%endblock ProjectedDensityOfStates
************************** End of input data file *****************************

reinit: -----------------------------------------------------------------------
reinit: System Name: LiC12_scf
reinit: -----------------------------------------------------------------------
reinit: System Label: LiC12_scf
reinit: -----------------------------------------------------------------------
Reading two-body potentials
Grimme - two-body potential between 1 and 1
Grimme - two-body potential between 1 and 2
Grimme - two-body potential between 2 and 2

initatom: Reading input for the pseudopotentials and atomic orbitals ----------
Species number:   1 Atomic number:    3 Label: Li-gga
Species number:   2 Atomic number:    6 Label: C-gga

Ground state valence configuration:   2s01
Reading pseudopotential information in formatted form from Li-gga.psf

Valence configuration for pseudopotential generation:
2s( 1.00) rc: 2.28
2p( 0.00) rc: 2.28
3d( 0.00) rc: 2.59
4f( 0.00) rc: 2.59
Ground state valence configuration:   2s02  2p02
Reading pseudopotential information in formatted form from C-gga.psf

Valence configuration for pseudopotential generation:
2s( 2.00) rc: 1.56
2p( 2.00) rc: 1.56
3d( 0.00) rc: 1.56
4f( 0.00) rc: 1.56
relmxkb: Read Max KB Ang. Momentum=    2 for species C-gga
relmxkb: Read Max KB Ang. Momentum=    2 for species Li-gga

<basis_specs>
===============================================================================
Li-gga               Z=   3    Mass=  6.9400        Charge= 0.17977+309
Lmxo=0 Lmxkb= 2    BasisType=split      Semic=F
L=0  Nsemic=0  Cnfigmx=2
          i=1  nzeta=1  polorb=1  (2s)
            splnorm:   0.15000    
               vcte:    0.0000    
               rinn:    0.0000    
               qcoe:    0.0000    
               qyuk:    0.0000    
               qwid:   0.10000E-01
                rcs:    0.0000    
            lambdas:    1.0000    
-------------------------------------------------------------------------------
L=0  Nkbl=1  erefs: 0.17977+309
L=1  Nkbl=1  erefs: 0.17977+309
L=2  Nkbl=1  erefs: 0.17977+309
===============================================================================
</basis_specs>

atom: Called for Li-gga                (Z =   3)

read_vps: Pseudopotential generation method:
read_vps: ATM 3.2.2 Troullier-Martins                       
Valence charge for ps generation:    1.00000

read_vps: Pseudopotential includes a core correction:
read_vps: Pseudo-core for xc-correction

xc_check: Exchange-correlation functional:
xc_check: GGA Perdew, Burke & Ernzerhof 1996
V l=0 = -2*Zval/r beyond r=  2.2278
V l=1 = -2*Zval/r beyond r=  2.2278
V l=2 = -2*Zval/r beyond r=  2.5245
All V_l potentials equal beyond r=  2.4622
This should be close to max(r_c) in ps generation
All pots = -2*Zval/r beyond r=  2.5245

VLOCAL1: 99.0% of the norm of Vloc inside      7.160 Ry
VLOCAL1: 99.9% of the norm of Vloc inside     16.318 Ry
atom: Maximum radius for 4*pi*r*r*local-pseudopot. charge    2.86079
atom: Maximum radius for r*vlocal+2*Zval:    2.43160
GHOST: No ghost state for L =  0
GHOST: No ghost state for L =  1
GHOST: No ghost state for L =  2

KBgen: Kleinman-Bylander projectors: 
   l= 0   rc=  2.654023   el= -0.211234   Ekb=  1.742119   kbcos=  0.228463
   l= 1   rc=  2.721230   el= -0.080095   Ekb= -1.122375   kbcos= -0.147941
   l= 2   rc=  2.825246   el=  0.002001   Ekb= -0.207076   kbcos= -0.031965

KBgen: Total number of Kleinman-Bylander projectors:    9
atom: -------------------------------------------------------------------------

atom: SANKEY-TYPE ORBITALS:

SPLIT: Orbitals with angular momentum L= 0

SPLIT: Basis orbitals for state 2s

SPLIT: PAO cut-off radius determined from an
SPLIT: energy shift=  0.000735 Ry

   izeta = 1
                 lambda =    1.000000
                     rc =   11.897381
                 energy =   -0.210580
                kinetic =    0.143382
    potential(screened) =   -0.353962
       potential(ionic) =   -0.533453

POLgen: Perturbative polarization orbital with L=  1

POLgen: Polarization orbital for state 2s

   izeta = 1
                     rc =   11.897381
                 energy =   -0.027011
                kinetic =    0.282985
    potential(screened) =   -0.309997
       potential(ionic) =   -0.490997
atom: Total number of Sankey-type orbitals:  4

atm_pop: Valence configuration (for local Pseudopot. screening):
 2s( 1.00)                                                            
Vna: chval, zval:    1.00000   1.00000

Vna:  Cut-off radius for the neutral-atom potential:  11.897381
comcore: Pseudo-core radius Rcore=  3.450946

atom: _________________________________________________________________________

<basis_specs>
===============================================================================
C-gga                Z=   6    Mass=  12.010        Charge= 0.17977+309
Lmxo=1 Lmxkb= 2    BasisType=split      Semic=F
L=0  Nsemic=0  Cnfigmx=2
          i=1  nzeta=1  polorb=0  (2s)
            splnorm:   0.15000    
               vcte:    0.0000    
               rinn:    0.0000    
               qcoe:    0.0000    
               qyuk:    0.0000    
               qwid:   0.10000E-01
                rcs:    0.0000    
            lambdas:    1.0000    
L=1  Nsemic=0  Cnfigmx=2
          i=1  nzeta=1  polorb=1  (2p)
            splnorm:   0.15000    
               vcte:    0.0000    
               rinn:    0.0000    
               qcoe:    0.0000    
               qyuk:    0.0000    
               qwid:   0.10000E-01
                rcs:    0.0000    
            lambdas:    1.0000    
-------------------------------------------------------------------------------
L=0  Nkbl=1  erefs: 0.17977+309
L=1  Nkbl=1  erefs: 0.17977+309
L=2  Nkbl=1  erefs: 0.17977+309
===============================================================================
</basis_specs>

atom: Called for C-gga                 (Z =   6)

read_vps: Pseudopotential generation method:
read_vps: ATM 3.2.2 Troullier-Martins                       
Valence charge for ps generation:    4.00000

xc_check: Exchange-correlation functional:
xc_check: GGA Perdew, Burke & Ernzerhof 1996
V l=0 = -2*Zval/r beyond r=  1.5227
V l=1 = -2*Zval/r beyond r=  1.5227
V l=2 = -2*Zval/r beyond r=  1.5227
All V_l potentials equal beyond r=  1.4851
This should be close to max(r_c) in ps generation
All pots = -2*Zval/r beyond r=  1.5227

VLOCAL1: 99.0% of the norm of Vloc inside     19.682 Ry
VLOCAL1: 99.9% of the norm of Vloc inside     44.856 Ry
atom: Maximum radius for 4*pi*r*r*local-pseudopot. charge    1.79142
atom: Maximum radius for r*vlocal+2*Zval:    1.54183
GHOST: No ghost state for L =  0
GHOST: No ghost state for L =  1
GHOST: No ghost state for L =  2

KBgen: Kleinman-Bylander projectors: 
   l= 0   rc=  1.661951   el= -1.010689   Ekb=  5.289847   kbcos=  0.316429
   l= 1   rc=  1.661951   el= -0.388490   Ekb= -4.102504   kbcos= -0.351025
   l= 2   rc=  1.747182   el=  0.001971   Ekb= -1.006005   kbcos= -0.008530

KBgen: Total number of Kleinman-Bylander projectors:    9
atom: -------------------------------------------------------------------------

atom: SANKEY-TYPE ORBITALS:

SPLIT: Orbitals with angular momentum L= 0

SPLIT: Basis orbitals for state 2s

SPLIT: PAO cut-off radius determined from an
SPLIT: energy shift=  0.000735 Ry

   izeta = 1
                 lambda =    1.000000
                     rc =    5.948690
                 energy =   -1.010099
                kinetic =    0.827121
    potential(screened) =   -1.837220
       potential(ionic) =   -5.392783

SPLIT: Orbitals with angular momentum L= 1

SPLIT: Basis orbitals for state 2p

SPLIT: PAO cut-off radius determined from an
SPLIT: energy shift=  0.000735 Ry

   izeta = 1
                 lambda =    1.000000
                     rc =    7.638387
                 energy =   -0.387843
                kinetic =    2.314739
    potential(screened) =   -2.702582
       potential(ionic) =   -6.092371

POLgen: Perturbative polarization orbital with L=  2

POLgen: Polarization orbital for state 2p

   izeta = 1
                     rc =    7.638387
                 energy =    0.921402
                kinetic =    1.955040
    potential(screened) =   -1.033637
       potential(ionic) =   -3.679558
atom: Total number of Sankey-type orbitals:  9

atm_pop: Valence configuration (for local Pseudopot. screening):
 2s( 2.00)                                                            
 2p( 2.00)                                                            
Vna: chval, zval:    4.00000   4.00000

Vna:  Cut-off radius for the neutral-atom potential:   7.638387

atom: _________________________________________________________________________

prinput: Basis input ----------------------------------------------------------

PAO.BasisType split     

%block ChemicalSpeciesLabel
    1    3 Li-gga                  # Species index, atomic number, species label
    2    6 C-gga                   # Species index, atomic number, species label
%endblock ChemicalSpeciesLabel

%block PAO.Basis                 # Define Basis set
Li-gga                1                    # Species label, number of l-shells
 n=2   0   1 P   1                   # n, l, Nzeta, Polarization, NzetaPol
  11.897   
   1.000   
C-gga                 2                    # Species label, number of l-shells
 n=2   0   1                         # n, l, Nzeta 
   5.949   
   1.000   
 n=2   1   1 P   1                   # n, l, Nzeta, Polarization, NzetaPol
   7.638   
   1.000   
%endblock PAO.Basis

prinput: ----------------------------------------------------------------------

coor:   Atomic-coordinates input format  =     Cartesian coordinates
coor:                                          (in Angstroms)

siesta: Atomic coordinates (Bohr) and species
siesta:      0.00000   0.00000   0.00000  2        1
siesta:      2.68614   0.00000   1.79163  1        2
siesta:      5.38035   0.00000   5.37490  1        3
siesta:     -1.34307   2.32627   1.79163  1        4
siesta:     -2.69017   4.65952   5.37490  1        5
siesta:      2.69017   4.65952   1.79163  1        6
siesta:      1.34307   2.32627   5.37490  1        7
siesta:      5.38035   0.00000   1.79163  1        8
siesta:      2.68614   0.00000   5.37490  1        9
siesta:     -2.69017   4.65952   1.79163  1       10
siesta:     -1.34307   2.32627   5.37490  1       11
siesta:      1.34307   2.32627   1.79163  1       12
siesta:      2.69017   4.65952   5.37490  1       13

siesta: System type = bulk      

initatomlists: Number of atoms, orbitals, and projectors:     13    57   117

siesta: ******************** Simulation parameters ****************************
siesta:
siesta: The following are some of the parameters of the simulation.
siesta: A complete list of the parameters used, including default values,
siesta: can be found in file out.fdf
siesta:
redata: Spin configuration                          = none
redata: Number of spin components                   = 1
redata: Time-Reversal Symmetry                      = T
redata: Spin spiral                                 = F
redata: Long output                                 =   F
redata: Number of Atomic Species                    =        2
redata: Charge density info will appear in .RHO file
redata: Write Mulliken Pop.                         = NO
redata: Matel table size (NRTAB)                    =     1024
redata: Mesh Cutoff                                 =   300.0000 Ry
redata: Net charge of the system                    =     0.0000 |e|
redata: Min. number of SCF Iter                     =        0
redata: Max. number of SCF Iter                     =     1000
redata: SCF convergence failure will abort job
redata: SCF mix quantity                            = Hamiltonian
redata: Mix DM or H after convergence               =   F
redata: Recompute H after scf cycle                 =   F
redata: Mix DM in first SCF step                    =   T
redata: Write Pulay info on disk                    =   F
redata: New DM Occupancy tolerance                  = 0.000000000001
redata: No kicks to SCF
redata: DM Mixing Weight for Kicks                  =     0.5000
redata: Require Harris convergence for SCF          =   F
redata: Harris energy tolerance for SCF             =     0.000100 eV
redata: Require DM convergence for SCF              =   T
redata: DM tolerance for SCF                        =     0.001000
redata: Require EDM convergence for SCF             =   F
redata: EDM tolerance for SCF                       =     0.005000 eV
redata: Require H convergence for SCF               =   T
redata: Hamiltonian tolerance for SCF               =     0.001000 eV
redata: Require (free) Energy convergence for SCF   =   T
redata: (free) Energy tolerance for SCF             =     0.001000 eV
redata: Using Saved Data (generic)                  =   F
redata: Use continuation files for DM               =   F
redata: Neglect nonoverlap interactions             =   F
redata: Method of Calculation                       = Diagonalization
redata: Electronic Temperature                      =   299.9869 K
redata: Fix the spin of the system                  =   F
redata: Dynamics option                             = Single-point calculation
mix.SCF: Pulay mixing                            = Pulay
mix.SCF:    Variant                              = stable
mix.SCF:    History steps                        = 4
mix.SCF:    Linear mixing weight                 =     0.250000
mix.SCF:    Mixing weight                        =     0.250000
mix.SCF:    SVD condition                        = 0.1000E-07
redata: ***********************************************************************

%block SCF.Mixers
  Pulay
%endblock SCF.Mixers

%block SCF.Mixer.Pulay
  # Mixing method
  method pulay
  variant stable

  # Mixing options
  weight 0.2500
  weight.linear 0.2500
  history 4
%endblock SCF.Mixer.Pulay

DM_history_depth set to one: no extrapolation allowed by default for geometry relaxation
Size of DM history Fstack: 1
Total number of electrons:    16.000000
Total ionic charge:    16.000000

* ProcessorY, Blocksize:    3   1


* Orbital distribution balance (max,min):     5     4

k-point displ. along   1 input, could be:     0.00    0.50
k-point displ. along   2 input, could be:     0.00    0.50
k-point displ. along   3 input, could be:     0.00    0.50
 Kpoints in:           48 . Kpoints trimmed:           44

siesta: k-grid: Number of k-points =    44
siesta: k-grid: Cutoff (effective) =     7.585 Ang
siesta: k-grid: Supercell and displacements
siesta: k-grid:    4   0   0      0.000
siesta: k-grid:    0   4   0      0.000
siesta: k-grid:    0   0   4      0.000

diag: Algorithm                                     = Expert
diag: Parallel over k                               =   T
diag: Use parallel 2D distribution                  =   T
diag: Parallel block-size                           = 1
diag: Parallel distribution                         =     3 x     4
diag: Used triangular part                          = Lower
diag: Absolute tolerance                            =  0.100E-15
diag: Orthogonalization factor                      =  0.100E-05
diag: Memory factor                                 =  1.0000

superc: Internal auxiliary supercell:     9 x     9 x     9  =     729
superc: Number of atoms, orbitals, and projectors:   9477  41553  85293


ts: **************************************************************
ts: Save H and S matrices                           =    F
ts: Save DM and EDM matrices                        =    F
ts: Only save the overlap matrix S                  =    F
ts: **************************************************************

************************ Begin: TS CHECKS AND WARNINGS ************************
************************ End: TS CHECKS AND WARNINGS **************************


                     ====================================
                        Single-point calculation
                     ====================================

outcoor: Atomic coordinates (Ang):                          
    0.00000000    0.00000000    0.00000000   2       1  C-gga
    1.42144380    0.00000000    0.94809150   1       2  Li-gga
    2.84715620    0.00000000    2.84427450   1       3  Li-gga
   -0.71072190    1.23100644    0.94809150   1       4  Li-gga
   -1.42357810    2.46570960    2.84427450   1       5  Li-gga
    1.42357810    2.46570960    0.94809150   1       6  Li-gga
    0.71072190    1.23100644    2.84427450   1       7  Li-gga
    2.84715620    0.00000000    0.94809150   1       8  Li-gga
    1.42144380    0.00000000    2.84427450   1       9  Li-gga
   -1.42357810    2.46570960    0.94809150   1      10  Li-gga
   -0.71072190    1.23100644    2.84427450   1      11  Li-gga
    0.71072190    1.23100644    0.94809150   1      12  Li-gga
    1.42357810    2.46570960    2.84427450   1      13  Li-gga

superc: Internal auxiliary supercell:     9 x     9 x     9  =     729
superc: Number of atoms, orbitals, and projectors:   9477  41553  85293

outcell: Unit cell vectors (Ang):
        4.268600    0.000000    0.000000
       -2.134300    3.696716    0.000000
        0.000000    0.000000    3.792366

outcell: Cell vector modules (Ang)   :    4.268600    4.268600    3.792366
outcell: Cell angles (23,13,12) (deg):     90.0000     90.0000    120.0000
outcell: Cell volume (Ang**3)        :     59.8428
<dSpData1D:S at geom step 0
  <sparsity:sparsity for geom step 0
    nrows_g=57 nrows=5 sparsity=17.6427 nnzs=57321, refcount: 7>
  <dData1D:(new from dSpData1D) n=57321, refcount: 1>
refcount: 1>
new_DM -- step:     1
Initializing Density Matrix...
DM filled with atomic data:
<dSpData2D:DM initialized from atoms
  <sparsity:sparsity for geom step 0
    nrows_g=57 nrows=5 sparsity=17.6427 nnzs=57321, refcount: 8>
  <dData2D:DM n=57321 m=1, refcount: 1>
refcount: 1>
No. of atoms with KB's overlaping orbs in proc 0. Max # of overlaps:     676    1770
New grid distribution:   1
           1       1:   20    1:    7    1:    5
           2       1:   20    1:    7    6:   10
           3       1:   20    1:    7   11:   15
           4       1:   20    1:    7   16:   20
           5       1:   20    8:   14    1:    5
           6       1:   20    8:   14    6:   10
           7       1:   20    8:   14   11:   15
           8       1:   20    8:   14   16:   20
           9       1:   20   15:   20    1:    5
          10       1:   20   15:   20    6:   10
          11       1:   20   15:   20   11:   15
          12       1:   20   15:   20   16:   20

InitMesh: MESH =    40 x    40 x    40 =       64000
InitMesh: (bp) =    20 x    20 x    20 =        8000
InitMesh: Mesh cutoff (required, used) =   300.000   307.469 Ry
ExtMesh (bp) on 0 =   160 x   147 x   141 =     3316320
New grid distribution:   2
           1       1:    7    1:   10    1:   10
           2       8:   20   11:   20   11:   15
           3       1:    7    1:   10   11:   20
           4       8:   20    1:   10    1:    5
           5       8:   20   11:   20    1:    5
           6       8:   20    1:   10    6:   10
           7       1:    7   11:   20   11:   20
           8       8:   20    1:   10   16:   20
           9       1:    7   11:   20    1:   10
          10       8:   20    1:   10   11:   15
          11       8:   20   11:   20    6:   10
          12       8:   20   11:   20   16:   20
New grid distribution:   3
           1       1:    7    1:   10    1:   10
           2       8:   20   11:   20   11:   15
           3       1:    7    1:   10   11:   20
           4       8:   20    1:   10    1:    5
           5       8:   20   11:   20    1:    5
           6       8:   20    1:   10    6:   10
           7       1:    7   11:   20   11:   20
           8       8:   20    1:   10   16:   20
           9       1:    7   11:   20    1:   10
          10       8:   20    1:   10   11:   15
          11       8:   20   11:   20    6:   10
          12       8:   20   11:   20   16:   20
Setting up quadratic distribution...
ExtMesh (bp) on 0 =   147 x   150 x   146 =     3219300
PhiOnMesh: Number of (b)points on node 0 =                  700
PhiOnMesh: nlist on node 0 =               634586

stepf: Fermi-Dirac step function

siesta: Program's energy decomposition (eV):
siesta: Ebs     =      -335.130148
siesta: Eions   =       380.620085
siesta: Ena     =        74.737979
siesta: Ekin    =       314.036999
siesta: Enl     =        -8.250664
siesta: Eso     =         0.000000
siesta: Edftu   =         0.000000
siesta: DEna    =       -38.287318
siesta: DUscf   =        29.096061
siesta: DUext   =         0.000000
siesta: Exc     =      -196.606507
siesta: eta*DQ  =         0.000000
siesta: Emadel  =         0.000000
siesta: Emeta   =         0.000000
siesta: Emolmec =       -12.913146
siesta: Ekinion =         0.000000
siesta: Eharris =      -185.008891
siesta: Etot    =      -218.806680
siesta: FreeEng =      -218.812132

        iscf     Eharris(eV)        E_KS(eV)     FreeEng(eV)     dDmax    Ef(eV) dHmax(eV)
   scf:    1     -185.008891     -218.806680     -218.812132  5.137421-20.748104 15.535401
timer: Routine,Calls,Time,% = IterSCF        1      22.014  56.55
   scf:    2     -238.048544     -229.988994     -230.001253  0.944864-20.899382  5.894271
   scf:    3     -232.314052     -231.971971     -231.980723  0.529763-20.360967  0.745034
   scf:    4     -231.674761     -231.912955     -231.919291  0.280645-20.595465  1.397666
   scf:    5     -232.077956     -232.018202     -232.026210  0.092978-20.484752  0.304648
   scf:    6     -232.024451     -232.022665     -232.031015  0.026636-20.443210  0.047273
   scf:    7     -232.022716     -232.022913     -232.031848  0.020056-20.442301  0.013241
   scf:    8     -232.023066     -232.022994     -232.031862  0.001367-20.443686  0.001771
   scf:    9     -232.022997     -232.022995     -232.031863  0.000332-20.443624  0.001777
   scf:   10     -232.023009     -232.023002     -232.031863  0.000371-20.443744  0.001174
   scf:   11     -232.023024     -232.023013     -232.031864  0.001187-20.444017  0.000036
   scf:   12     -232.023013     -232.023013     -232.031864  0.000007-20.444020  0.000022

SCF Convergence by FreeE+DM+H criterion
|FreeE_i-FreeE_(i-1)| (eV) <     0.00100000
max |DM_out - DM_in|         :     0.0000074537
max |H_out - H_in|      (eV) :     0.0000222714
SCF cycle converged after 12 iterations

Using DM_out to compute the final energy and forces
No. of atoms with KB's overlaping orbs in proc 0. Max # of overlaps:     676    1770

MM-Stress (kbar):      210.25      210.25      838.88        0.00       -0.00        0.00

siesta: E_KS(eV) =             -232.0230

siesta: E_KS - E_eggbox =      -232.0230

siesta: Atomic forces (eV/Ang):
     1   -0.000000    0.000000    0.000000
     2    1.688831    0.000021   -0.172463
     3   -1.688831   -0.000021    0.172463
     4   -0.844397    1.462581   -0.172463
     5    0.844397   -1.462581    0.172463
     6   -0.844445   -1.462622   -0.172597
     7    0.844445    1.462622    0.172597
     8   -1.688831   -0.000021   -0.172463
     9    1.688831    0.000021    0.172463
    10    0.844397   -1.462581   -0.172463
    11   -0.844397    1.462581    0.172463
    12    0.844445    1.462622   -0.172597
    13   -0.844445   -1.462622    0.172597
----------------------------------------
   Tot   -0.000000    0.000000    0.000000
----------------------------------------
   Max    1.688831
   Res    0.941680    sqrt( Sum f_i^2 / 3N )
----------------------------------------
   Max    1.688831    constrained

Stress tensor Voigt[x,y,z,yz,xz,xy] (kbar):    -1857.09    -1857.13     -827.78       -0.00       -0.00       -0.03
(Free)E + p*V (eV/cell)     -175.4832
Target enthalpy (eV/cell)     -232.0319

siesta: Eigenvalues (eV):
  ik is       eps
   1  1  -32.2151  -26.3666  -26.0165  -25.7980  -24.8687  -24.5470  -23.3616  -20.7862  -20.5443  -16.6135
         -15.1503  -14.9035  -14.4817  -14.2145  -12.9781  -12.9012  -10.2541   -5.5289   -2.3778   -2.3718
   -1.9024    0.5506    1.5456    2.3340    2.8546    3.9235    6.5546    7.4835    8.4646    9.3090
   12.8515   13.3853   14.4207   15.3493   15.5705   16.3569   19.0083   20.2864   20.3948   20.5925
   22.5862   24.3236   26.8268   26.9859   27.0845   30.0245   35.6795   36.5299   37.1493   39.9540
   40.3586   41.0269   41.5473   42.1645   43.5144   68.6070   71.8777
   2  1  -32.2504  -27.1339  -25.9433  -25.5904  -24.0595  -24.0502  -23.4389  -20.3357  -19.3914  -17.3293
         -16.9863  -16.5311  -15.4742  -14.1753  -12.7122  -10.3555   -8.3853   -7.6249   -3.7000   -1.8142
    1.0766    1.2311    1.7483    1.9492    3.3745    9.6533   10.5198   10.8245   11.0478   13.5147
   13.8847   15.2353   16.1460   16.9317   17.5915   20.4388   20.7275   21.3676   23.2932   25.0426
   25.8970   28.2694   28.5347   28.6505   31.9864   33.8238   36.0615   36.4297   39.0265   39.2216
   40.9220   42.3043   43.5696   48.1713   52.3721   59.8780   97.3598
   3  1  -32.2504  -27.1339  -25.9433  -25.5904  -24.0596  -24.0501  -23.4389  -20.3357  -19.3914  -17.3293
         -16.9863  -16.5311  -15.4742  -14.1753  -12.7123  -10.3553   -8.3853   -7.6248   -3.7000   -1.8142
    1.0766    1.2315    1.7478    1.9492    3.3745    9.6539   10.5194   10.8245   11.0478   13.5147
   13.8849   15.2350   16.1459   16.9317   17.5914   20.4389   20.7276   21.3678   23.2932   25.0429
   25.8969   28.2694   28.5347   28.6504   31.9864   33.8231   36.0617   36.4297   39.0266   39.2216
   40.9217   42.3043   43.5695   48.1715   52.3719   59.8779   97.3596
   4  1  -32.2151  -26.3666  -26.0165  -25.7980  -24.8688  -24.5470  -23.3616  -20.7862  -20.5442  -16.6134
         -15.1503  -14.9035  -14.4817  -14.2145  -12.9781  -12.9012  -10.2541   -5.5286   -2.3778   -2.3718
   -1.9024    0.5506    1.5452    2.3340    2.8546    3.9235    6.5547    7.4836    8.4644    9.3090
   12.8515   13.3853   14.4207   15.3493   15.5706   16.3570   19.0084   20.2864   20.3952   20.5925
   22.5862   24.3236   26.8268   26.9859   27.0840   30.0245   35.6795   36.5299   37.1492   39.9540
   40.3586   41.0270   41.5473   42.1647   43.5141   68.6068   71.8779
   5  1  -32.2504  -27.1339  -25.9433  -25.5904  -24.0595  -24.0502  -23.4389  -20.3357  -19.3914  -17.3293
         -16.9863  -16.5311  -15.4742  -14.1753  -12.7122  -10.3555   -8.3853   -7.6249   -3.7000   -1.8142
    1.0766    1.2311    1.7483    1.9492    3.3745    9.6533   10.5198   10.8245   11.0478   13.5147
   13.8847   15.2353   16.1460   16.9317   17.5915   20.4388   20.7275   21.3676   23.2932   25.0426
   25.8970   28.2694   28.5347   28.6505   31.9864   33.8238   36.0615   36.4297   39.0265   39.2216
   40.9220   42.3043   43.5696   48.1713   52.3721   59.8780   97.3598
   6  1  -32.1530  -27.2643  -25.3632  -25.2792  -23.8367  -23.8365  -23.3770  -17.8755  -17.8755  -17.6894
         -17.6894  -16.8833  -16.8833  -15.8479  -14.0496  -11.9449   -3.8553   -3.8547   -3.4115   -3.4115
   -1.4548   -1.4548   -1.4031   -1.4030    3.7066    5.7572    5.7575   11.6786   12.4199   14.1536
   14.1537   15.1979   15.2818   15.2821   16.3631   16.3636   20.1867   24.2214   24.7904   24.7910
   26.1679   26.4566   26.4567   28.6334   28.6346   29.2361   29.2361   38.2928   38.3811   38.3812
   38.7164   39.2231   39.2232   45.0516   45.4056   70.3075   70.3078
   7  1  -32.2463  -26.1533  -26.1392  -25.9389  -25.2670  -24.2659  -23.2876  -20.4607  -19.8121  -18.3002
         -15.5112  -15.1089  -15.0571  -14.1869  -13.8478  -13.7132   -6.8044   -3.6057   -3.4089   -3.0203
   -2.7579   -0.8517    0.3512    2.9264    4.1856    4.8525    6.3297    7.5277    8.1791    9.6094
   11.3710   12.3881   12.4964   13.3080   19.1175   19.3933   19.4667   19.5254   20.5362   24.1260
   24.6207   26.9673   27.2905   27.8853   31.7224   31.8238   32.2282   37.7919   40.5124   45.3938
   45.5678   46.5546   47.1273   47.5179   52.1541   52.5998   71.6570
   8  1  -32.2151  -26.3666  -26.0165  -25.7980  -24.8688  -24.5470  -23.3616  -20.7862  -20.5442  -16.6134
         -15.1503  -14.9035  -14.4817  -14.2145  -12.9781  -12.9012  -10.2541   -5.5286   -2.3778   -2.3718
   -1.9024    0.5506    1.5452    2.3340    2.8546    3.9235    6.5547    7.4836    8.4644    9.3090
   12.8515   13.3853   14.4207   15.3493   15.5706   16.3570   19.0084   20.2864   20.3952   20.5925
   22.5862   24.3236   26.8268   26.9859   27.0840   30.0245   35.6795   36.5299   37.1492   39.9540
   40.3586   41.0270   41.5473   42.1647   43.5141   68.6068   71.8779
   9  1  -32.2151  -26.3666  -26.0165  -25.7980  -24.8688  -24.5470  -23.3616  -20.7862  -20.5442  -16.6134
         -15.1503  -14.9035  -14.4817  -14.2145  -12.9781  -12.9012  -10.2541   -5.5286   -2.3778   -2.3718
   -1.9024    0.5506    1.5452    2.3340    2.8546    3.9235    6.5547    7.4836    8.4644    9.3090
   12.8515   13.3853   14.4207   15.3493   15.5706   16.3570   19.0084   20.2864   20.3951   20.5925
   22.5862   24.3236   26.8268   26.9859   27.0840   30.0245   35.6795   36.5299   37.1492   39.9540
   40.3586   41.0270   41.5473   42.1647   43.5141   68.6068   71.8779
  10  1  -32.2463  -26.1533  -26.1392  -25.9389  -25.2670  -24.2659  -23.2876  -20.4607  -19.8121  -18.3002
         -15.5112  -15.1089  -15.0571  -14.1869  -13.8478  -13.7132   -6.8044   -3.6057   -3.4089   -3.0203
   -2.7579   -0.8517    0.3512    2.9264    4.1856    4.8525    6.3297    7.5277    8.1791    9.6094
   11.3710   12.3881   12.4964   13.3080   19.1175   19.3933   19.4667   19.5254   20.5362   24.1260
   24.6207   26.9673   27.2905   27.8853   31.7224   31.8238   32.2282   37.7919   40.5124   45.3938
   45.5678   46.5546   47.1273   47.5179   52.1541   52.5997   71.6570
  11  1  -32.2151  -26.3666  -26.0165  -25.7980  -24.8688  -24.5470  -23.3616  -20.7862  -20.5442  -16.6134
         -15.1503  -14.9035  -14.4817  -14.2145  -12.9781  -12.9012  -10.2541   -5.5286   -2.3778   -2.3718
   -1.9024    0.5506    1.5452    2.3340    2.8546    3.9235    6.5547    7.4836    8.4644    9.3090
   12.8515   13.3853   14.4207   15.3493   15.5706   16.3570   19.0084   20.2864   20.3951   20.5925
   22.5862   24.3236   26.8268   26.9859   27.0840   30.0245   35.6795   36.5299   37.1492   39.9540
   40.3586   41.0270   41.5473   42.1647   43.5141   68.6068   71.8779
  12  1  -32.2463  -26.1532  -26.1392  -25.9389  -25.2670  -24.2660  -23.2876  -20.4606  -19.8121  -18.3002
         -15.5112  -15.1089  -15.0570  -14.1869  -13.8478  -13.7132   -6.8046   -3.6051   -3.4090   -3.0203
   -2.7579   -0.8516    0.3513    2.9264    4.1857    4.8528    6.3297    7.5273    8.1791    9.6094
   11.3715   12.3879   12.4965   13.3080   19.1175   19.3933   19.4666   19.5254   20.5358   24.1253
   24.6207   26.9671   27.2907   27.8852   31.7225   31.8238   32.2282   37.7920   40.5124   45.3937
   45.5679   46.5545   47.1273   47.5180   52.1544   52.5997   71.6567
  13  1  -32.0843  -26.4588  -25.8898  -25.4347  -25.4280  -24.6870  -21.8310  -21.3349  -20.4272  -17.3183
         -16.5277  -15.2688  -13.5769  -13.5130  -11.8513  -11.0000   -9.1876   -7.6380   -6.2273   -3.7644
   -1.5107   -0.9311    0.7258    0.9602    2.0766    4.8876    4.8887    6.4517   10.1159   10.6194
   11.8490   12.6808   13.4447   13.8898   15.2619   16.6905   18.2135   19.1800   20.1786   21.4440
   24.2430   25.2495   27.9522   28.8261   29.9641   31.0998   31.2885   33.4328   37.5524   38.6315
   40.0648   42.4397   42.4677   45.1564   48.7453   49.6378   58.0471
  14  1  -32.1568  -27.1179  -25.8875  -25.0411  -24.9407  -23.9604  -22.8794  -20.8246  -19.1779  -18.8426
         -16.6801  -16.2995  -15.1264  -14.5719  -13.3852   -9.6282   -8.4867   -8.3772   -1.2871   -1.2726
   -0.9448   -0.7102    0.7554    2.5588    3.9250    6.0307    7.2088    9.7825   11.5703   12.8611
   13.4139   13.6015   15.1858   15.6506   17.0292   17.5492   17.7174   18.7388   20.7452   22.1070
   23.4638   27.4641   30.6702   30.9821   32.8926   33.8852   33.9699   37.3396   39.8646   40.4687
   42.7400   44.2092   44.7236   50.8981   52.0798   53.8194   71.2478
  15  1  -32.1568  -27.1179  -25.8875  -25.0410  -24.9407  -23.9605  -22.8793  -20.8246  -19.1779  -18.8426
         -16.6801  -16.2995  -15.1264  -14.5719  -13.3852   -9.6282   -8.4866   -8.3773   -1.2870   -1.2728
   -0.9447   -0.7103    0.7554    2.5590    3.9247    6.0309    7.2085    9.7826   11.5705   12.8611
   13.4140   13.6012   15.1858   15.6507   17.0291   17.5490   17.7175   18.7390   20.7451   22.1071
   23.4637   27.4642   30.6705   30.9820   32.8923   33.8855   33.9699   37.3395   39.8647   40.4685
   42.7399   44.2092   44.7235   50.8982   52.0797   53.8192   71.2477
  16  1  -32.0843  -26.4588  -25.8898  -25.4347  -25.4280  -24.6871  -21.8309  -21.3349  -20.4271  -17.3183
         -16.5277  -15.2688  -13.5769  -13.5130  -11.8513  -11.0001   -9.1876   -7.6379   -6.2274   -3.7644
   -1.5107   -0.9311    0.7257    0.9602    2.0767    4.8877    4.8885    6.4519   10.1161   10.6191
   11.8490   12.6808   13.4447   13.8898   15.2618   16.6905   18.2137   19.1798   20.1787   21.4439
   24.2430   25.2494   27.9523   28.8259   29.9641   31.0998   31.2883   33.4328   37.5525   38.6316
   40.0649   42.4400   42.4677   45.1562   48.7452   49.6379   58.0470
  17  1  -32.1568  -27.1179  -25.8875  -25.0411  -24.9407  -23.9604  -22.8794  -20.8246  -19.1779  -18.8426
         -16.6801  -16.2995  -15.1264  -14.5719  -13.3852   -9.6282   -8.4867   -8.3772   -1.2871   -1.2726
   -0.9448   -0.7102    0.7554    2.5588    3.9250    6.0307    7.2088    9.7825   11.5703   12.8611
   13.4139   13.6015   15.1858   15.6506   17.0292   17.5492   17.7174   18.7388   20.7452   22.1070
   23.4638   27.4641   30.6702   30.9821   32.8926   33.8852   33.9699   37.3396   39.8646   40.4687
   42.7400   44.2092   44.7236   50.8981   52.0799   53.8194   71.2478
  18  1  -31.8803  -25.6652  -25.4132  -24.6821  -23.8578  -23.8093  -23.8092  -19.3937  -17.8277  -17.8277
         -17.7600  -17.7600  -16.9638  -16.9638  -15.3827   -4.1664   -4.1659   -3.3712   -3.3711   -2.7235
    0.5512    0.5513    1.1608    3.5126    3.5127    9.0993   10.6727   10.6727   13.3020   14.6724
   14.6731   16.1550   16.1551   16.2848   18.2712   18.2715   22.1372   22.1374   24.4234   24.4235
   25.5547   31.1939   31.1941   34.0777   35.7353   36.1867   37.4667   38.4858   38.4866   42.5918
   43.0433   44.4097   44.4103   47.4497   47.4499   64.6172   64.6177
  19  1  -32.1568  -27.1179  -25.8875  -25.0411  -24.9407  -23.9604  -22.8794  -20.8246  -19.1779  -18.8426
         -16.6801  -16.2995  -15.1264  -14.5719  -13.3852   -9.6282   -8.4867   -8.3772   -1.2871   -1.2726
   -0.9448   -0.7102    0.7554    2.5588    3.9250    6.0307    7.2088    9.7825   11.5703   12.8611
   13.4139   13.6015   15.1858   15.6506   17.0292   17.5492   17.7174   18.7388   20.7452   22.1070
   23.4638   27.4641   30.6702   30.9821   32.8926   33.8852   33.9699   37.3396   39.8646   40.4687
   42.7400   44.2092   44.7236   50.8981   52.0799   53.8194   71.2478
  20  1  -32.0866  -26.2558  -26.0462  -25.8720  -25.3066  -24.0850  -22.8731  -20.5718  -19.6129  -19.1407
         -14.9724  -14.8196  -14.0556  -12.8747  -12.7515  -11.2909   -9.4106   -7.6164   -7.3793   -4.2419
   -1.7876   -0.8273   -0.5428    3.0585    3.8045    4.7087    6.8769    9.4190   10.3185   11.8341
   11.9295   12.1388   13.8869   15.2002   16.9515   18.3993   19.5342   21.0859   21.8508   23.5029
   23.6205   25.2481   26.4048   31.5351   33.5698   34.8539   36.6577   40.2586   42.2452   46.0021
   47.4155   49.2226   49.5337   50.3806   51.3929   55.5202   71.6271
  21  1  -32.1568  -27.1179  -25.8875  -25.0410  -24.9407  -23.9605  -22.8793  -20.8246  -19.1779  -18.8426
         -16.6801  -16.2995  -15.1264  -14.5719  -13.3852   -9.6282   -8.4866   -8.3773   -1.2870   -1.2728
   -0.9447   -0.7103    0.7554    2.5590    3.9247    6.0309    7.2085    9.7826   11.5705   12.8611
   13.4140   13.6012   15.1858   15.6507   17.0291   17.5490   17.7175   18.7390   20.7451   22.1071
   23.4637   27.4642   30.6705   30.9820   32.8923   33.8855   33.9699   37.3395   39.8647   40.4685
   42.7399   44.2092   44.7235   50.8982   52.0797   53.8192   71.2477
  22  1  -32.1568  -27.1179  -25.8875  -25.0411  -24.9407  -23.9604  -22.8794  -20.8246  -19.1779  -18.8426
         -16.6801  -16.2995  -15.1264  -14.5719  -13.3852   -9.6282   -8.4867   -8.3772   -1.2871   -1.2726
   -0.9448   -0.7102    0.7554    2.5588    3.9250    6.0307    7.2088    9.7825   11.5703   12.8611
   13.4139   13.6015   15.1858   15.6506   17.0292   17.5492   17.7174   18.7388   20.7452   22.1070
   23.4638   27.4641   30.6702   30.9821   32.8926   33.8852   33.9699   37.3396   39.8646   40.4687
   42.7400   44.2092   44.7236   50.8981   52.0798   53.8194   71.2478
  23  1  -32.0843  -26.4588  -25.8898  -25.4347  -25.4280  -24.6870  -21.8310  -21.3349  -20.4272  -17.3183
         -16.5277  -15.2688  -13.5769  -13.5130  -11.8513  -11.0000   -9.1876   -7.6380   -6.2273   -3.7644
   -1.5107   -0.9311    0.7258    0.9602    2.0766    4.8876    4.8887    6.4517   10.1159   10.6194
   11.8490   12.6808   13.4447   13.8898   15.2619   16.6905   18.2135   19.1800   20.1786   21.4440
   24.2430   25.2495   27.9522   28.8261   29.9641   31.0998   31.2885   33.4328   37.5524   38.6315
   40.0648   42.4397   42.4677   45.1564   48.7453   49.6378   58.0471
  24  1  -32.0843  -26.4588  -25.8898  -25.4347  -25.4280  -24.6871  -21.8309  -21.3349  -20.4271  -17.3183
         -16.5277  -15.2688  -13.5769  -13.5130  -11.8513  -11.0001   -9.1876   -7.6379   -6.2274   -3.7644
   -1.5107   -0.9311    0.7257    0.9602    2.0767    4.8877    4.8885    6.4519   10.1161   10.6191
   11.8490   12.6808   13.4447   13.8898   15.2618   16.6905   18.2137   19.1798   20.1787   21.4439
   24.2430   25.2494   27.9523   28.8259   29.9641   31.0998   31.2883   33.4328   37.5525   38.6316
   40.0649   42.4400   42.4677   45.1562   48.7452   49.6379   58.0470
  25  1  -32.0843  -26.4588  -25.8898  -25.4347  -25.4280  -24.6871  -21.8309  -21.3349  -20.4271  -17.3183
         -16.5277  -15.2688  -13.5769  -13.5130  -11.8513  -11.0001   -9.1876   -7.6379   -6.2274   -3.7644
   -1.5107   -0.9311    0.7257    0.9602    2.0767    4.8877    4.8885    6.4519   10.1161   10.6191
   11.8490   12.6808   13.4447   13.8898   15.2618   16.6905   18.2137   19.1798   20.1787   21.4439
   24.2430   25.2494   27.9523   28.8259   29.9641   31.0998   31.2883   33.4328   37.5525   38.6316
   40.0649   42.4400   42.4676   45.1561   48.7452   49.6379   58.0470
  26  1  -32.0866  -26.2558  -26.0462  -25.8720  -25.3066  -24.0850  -22.8731  -20.5718  -19.6129  -19.1407
         -14.9724  -14.8196  -14.0556  -12.8747  -12.7515  -11.2909   -9.4106   -7.6164   -7.3793   -4.2419
   -1.7876   -0.8273   -0.5428    3.0585    3.8045    4.7087    6.8769    9.4190   10.3185   11.8341
   11.9295   12.1388   13.8869   15.2002   16.9515   18.3993   19.5342   21.0859   21.8508   23.5029
   23.6205   25.2481   26.4048   31.5350   33.5698   34.8539   36.6577   40.2586   42.2452   46.0021
   47.4155   49.2226   49.5337   50.3806   51.3929   55.5202   71.6271
  27  1  -32.0843  -26.4588  -25.8898  -25.4347  -25.4280  -24.6871  -21.8309  -21.3349  -20.4271  -17.3183
         -16.5277  -15.2688  -13.5769  -13.5130  -11.8513  -11.0001   -9.1876   -7.6379   -6.2274   -3.7644
   -1.5107   -0.9311    0.7257    0.9602    2.0767    4.8877    4.8885    6.4519   10.1161   10.6191
   11.8490   12.6808   13.4447   13.8898   15.2618   16.6905   18.2137   19.1798   20.1787   21.4439
   24.2430   25.2494   27.9523   28.8259   29.9641   31.0998   31.2883   33.4328   37.5525   38.6316
   40.0649   42.4400   42.4676   45.1561   48.7452   49.6379   58.0470
  28  1  -32.0866  -26.2558  -26.0462  -25.8720  -25.3066  -24.0851  -22.8731  -20.5717  -19.6129  -19.1407
         -14.9725  -14.8196  -14.0556  -12.8747  -12.7515  -11.2909   -9.4106   -7.6163   -7.3793   -4.2419
   -1.7875   -0.8274   -0.5428    3.0587    3.8040    4.7092    6.8771    9.4192   10.3184   11.8341
   11.9291   12.1388   13.8869   15.2001   16.9515   18.3993   19.5342   21.0855   21.8505   23.5030
   23.6208   25.2481   26.4047   31.5351   33.5704   34.8536   36.6578   40.2586   42.2451   46.0024
   47.4155   49.2225   49.5336   50.3806   51.3927   55.5201   71.6269
  29  1  -31.8905  -26.8415  -25.6421  -25.4081  -24.8203  -24.4932  -22.2471  -21.5554  -19.4290  -17.6731
         -15.7437  -15.5474  -12.1555  -12.1334  -11.8330  -10.7214   -9.6741   -8.0388   -5.9234   -3.5465
   -1.3982   -0.8531    0.6552    0.8442    1.2190    6.8437    6.9069    7.5161    7.6705    8.4887
    9.6052    9.7764   11.8238   12.5198   14.0601   14.9495   18.2337   19.0465   20.6820   22.2664
   23.0980   23.1212   23.2707   28.7327   29.5522   29.6549   30.5645   35.4328   38.2296   39.6844
   40.7501   43.5944   50.3199   51.0058   51.8797   52.8360   57.5948
  30  1  -31.9524  -27.0626  -25.6682  -25.4394  -23.8783  -23.6660  -23.2332  -22.2762  -18.9782  -18.5044
         -16.2245  -15.6871  -15.3415  -15.1960  -13.8537  -10.3205   -7.4461   -5.3959   -4.3093   -3.5488
   -0.0135    0.1322    3.6146    4.7550    5.6972    6.0683    6.3186    9.0508    9.9562   10.6579
   12.1564   13.2014   13.6860   13.9694   14.1421   16.4866   17.0289   19.0850   20.3704   21.6021
   22.6811   23.9580   24.2949   26.3853   26.6834   35.6132   37.6300   38.6375   42.9576   43.1772
   51.6160   52.0006   53.6468   54.2340   55.9040   67.4207   68.1039
  31  1  -31.9524  -27.0626  -25.6682  -25.4394  -23.8784  -23.6660  -23.2332  -22.2761  -18.9782  -18.5044
         -16.2245  -15.6871  -15.3415  -15.1960  -13.8537  -10.3205   -7.4462   -5.3959   -4.3092   -3.5488
   -0.0135    0.1323    3.6141    4.7549    5.6975    6.0683    6.3189    9.0510    9.9561   10.6581
   12.1564   13.2014   13.6857   13.9694   14.1421   16.4866   17.0288   19.0849   20.3706   21.6017
   22.6810   23.9581   24.2951   26.3846   26.6844   35.6132   37.6300   38.6375   42.9576   43.1771
   51.6160   52.0005   53.6467   54.2340   55.9039   67.4205   68.1037
  32  1  -31.8905  -26.8415  -25.6420  -25.4081  -24.8204  -24.4932  -22.2472  -21.5552  -19.4290  -17.6731
         -15.7437  -15.5474  -12.1556  -12.1335  -11.8330  -10.7214   -9.6741   -8.0388   -5.9234   -3.5465
   -1.3982   -0.8530    0.6553    0.8443    1.2190    6.8439    6.9067    7.5160    7.6705    8.4881
    9.6057    9.7764   11.8238   12.5199   14.0601   14.9494   18.2341   19.0464   20.6820   22.2659
   23.0980   23.1212   23.2704   28.7329   29.5523   29.6549   30.5644   35.4330   38.2297   39.6844
   40.7503   43.5941   50.3198   51.0058   51.8797   52.8359   57.5948
  33  1  -31.9524  -27.0626  -25.6682  -25.4394  -23.8783  -23.6660  -23.2332  -22.2762  -18.9782  -18.5044
         -16.2245  -15.6871  -15.3415  -15.1960  -13.8537  -10.3205   -7.4461   -5.3959   -4.3093   -3.5488
   -0.0135    0.1322    3.6146    4.7550    5.6972    6.0683    6.3186    9.0508    9.9562   10.6579
   12.1564   13.2014   13.6860   13.9694   14.1421   16.4866   17.0289   19.0850   20.3704   21.6021
   22.6811   23.9580   24.2949   26.3853   26.6834   35.6132   37.6300   38.6375   42.9576   43.1772
   51.6160   52.0006   53.6468   54.2340   55.9040   67.4207   68.1039
  34  1  -31.7079  -26.5169  -25.0587  -24.1099  -23.7904  -23.7902  -22.9742  -22.3929  -17.7955  -17.7955
         -17.7471  -17.7471  -16.9818  -16.9818  -13.0826   -3.6075   -3.6067   -1.9640    0.4553    0.4554
    2.4169    2.4169    4.7069    4.7069    5.8557   12.5672   12.5673   12.5686   12.5687   13.1174
   13.4854   13.4854   14.6215   14.7442   19.7922   19.7923   24.1541   30.1059   30.1060   31.3073
   31.3089   36.0519   36.2296   36.5712   36.7917   43.7425   43.7426   44.5106   44.5107   46.0338
   46.0342   50.4361   50.4370   50.4524   50.4525   64.9204   65.0208
  35  1  -31.9524  -27.0626  -25.6682  -25.4394  -23.8783  -23.6660  -23.2332  -22.2762  -18.9782  -18.5044
         -16.2245  -15.6871  -15.3415  -15.1960  -13.8537  -10.3205   -7.4461   -5.3959   -4.3093   -3.5488
   -0.0135    0.1322    3.6146    4.7550    5.6972    6.0683    6.3186    9.0508    9.9562   10.6579
   12.1564   13.2014   13.6860   13.9694   14.1421   16.4866   17.0289   19.0850   20.3704   21.6021
   22.6811   23.9580   24.2949   26.3853   26.6834   35.6132   37.6300   38.6375   42.9576   43.1772
   51.6160   52.0006   53.6468   54.2340   55.9040   67.4207   68.1039
  36  1  -31.8965  -26.8509  -25.8450  -25.4665  -24.4644  -23.9274  -23.6447  -20.9017  -19.4048  -18.1976
         -14.3320  -14.3251  -14.2710  -11.3080  -11.0156  -10.9606  -10.2781  -10.0873   -9.4515   -3.2662
   -0.5445    0.0800    0.4565    2.1476    2.8666    4.0004    4.5724    8.5935    8.5965    9.1459
    9.5792   12.4478   12.6523   13.9151   14.8327   14.9318   19.8197   20.0781   20.1121   20.7227
   22.4510   22.5644   23.6475   31.8082   36.6519   37.0036   37.2548   38.6699   46.8874   47.7496
   48.3249   49.5857   52.2799   52.6202   52.9320   55.5583   56.3308
  37  1  -31.9524  -27.0626  -25.6682  -25.4394  -23.8784  -23.6660  -23.2332  -22.2761  -18.9782  -18.5044
         -16.2245  -15.6871  -15.3415  -15.1960  -13.8537  -10.3205   -7.4462   -5.3959   -4.3092   -3.5488
   -0.0135    0.1323    3.6141    4.7549    5.6975    6.0683    6.3189    9.0510    9.9561   10.6581
   12.1564   13.2014   13.6857   13.9694   14.1421   16.4866   17.0288   19.0849   20.3706   21.6017
   22.6810   23.9581   24.2951   26.3846   26.6844   35.6132   37.6300   38.6375   42.9576   43.1771
   51.6160   52.0005   53.6467   54.2340   55.9039   67.4205   68.1037
  38  1  -31.9524  -27.0626  -25.6682  -25.4394  -23.8783  -23.6660  -23.2332  -22.2762  -18.9782  -18.5044
         -16.2245  -15.6871  -15.3415  -15.1960  -13.8537  -10.3205   -7.4461   -5.3959   -4.3093   -3.5488
   -0.0135    0.1322    3.6146    4.7550    5.6972    6.0683    6.3186    9.0508    9.9562   10.6579
   12.1564   13.2014   13.6860   13.9694   14.1421   16.4866   17.0289   19.0850   20.3704   21.6021
   22.6811   23.9580   24.2949   26.3853   26.6834   35.6132   37.6300   38.6375   42.9576   43.1772
   51.6160   52.0006   53.6468   54.2340   55.9040   67.4207   68.1039
  39  1  -31.8905  -26.8415  -25.6421  -25.4081  -24.8203  -24.4932  -22.2471  -21.5554  -19.4290  -17.6731
         -15.7437  -15.5474  -12.1555  -12.1334  -11.8330  -10.7214   -9.6741   -8.0388   -5.9234   -3.5465
   -1.3982   -0.8531    0.6552    0.8442    1.2190    6.8437    6.9069    7.5161    7.6705    8.4887
    9.6052    9.7764   11.8238   12.5198   14.0601   14.9495   18.2337   19.0465   20.6820   22.2664
   23.0980   23.1212   23.2707   28.7327   29.5522   29.6549   30.5645   35.4328   38.2296   39.6844
   40.7501   43.5944   50.3199   51.0058   51.8797   52.8360   57.5948
  40  1  -31.8905  -26.8415  -25.6420  -25.4081  -24.8204  -24.4932  -22.2472  -21.5552  -19.4290  -17.6731
         -15.7437  -15.5474  -12.1556  -12.1335  -11.8330  -10.7214   -9.6741   -8.0388   -5.9234   -3.5465
   -1.3982   -0.8530    0.6553    0.8443    1.2190    6.8439    6.9067    7.5160    7.6705    8.4881
    9.6057    9.7764   11.8238   12.5199   14.0601   14.9494   18.2341   19.0464   20.6820   22.2659
   23.0980   23.1212   23.2704   28.7329   29.5523   29.6549   30.5644   35.4330   38.2297   39.6844
   40.7503   43.5941   50.3198   51.0058   51.8797   52.8359   57.5948
  41  1  -31.8905  -26.8415  -25.6420  -25.4081  -24.8204  -24.4932  -22.2472  -21.5552  -19.4290  -17.6731
         -15.7437  -15.5474  -12.1556  -12.1335  -11.8330  -10.7214   -9.6741   -8.0388   -5.9234   -3.5465
   -1.3982   -0.8530    0.6553    0.8443    1.2190    6.8439    6.9067    7.5160    7.6705    8.4881
    9.6057    9.7764   11.8238   12.5199   14.0601   14.9494   18.2341   19.0464   20.6820   22.2659
   23.0980   23.1212   23.2704   28.7329   29.5523   29.6549   30.5644   35.4330   38.2297   39.6844
   40.7504   43.5941   50.3198   51.0058   51.8797   52.8359   57.5948
  42  1  -31.8965  -26.8509  -25.8450  -25.4665  -24.4644  -23.9274  -23.6447  -20.9017  -19.4048  -18.1976
         -14.3320  -14.3251  -14.2710  -11.3080  -11.0156  -10.9606  -10.2781  -10.0873   -9.4515   -3.2662
   -0.5445    0.0800    0.4565    2.1476    2.8666    4.0004    4.5724    8.5935    8.5965    9.1459
    9.5792   12.4478   12.6523   13.9151   14.8327   14.9318   19.8197   20.0781   20.1121   20.7227
   22.4510   22.5645   23.6475   31.8082   36.6519   37.0036   37.2548   38.6699   46.8874   47.7496
   48.3249   49.5857   52.2799   52.6202   52.9320   55.5584   56.3308
  43  1  -31.8905  -26.8415  -25.6420  -25.4081  -24.8204  -24.4932  -22.2472  -21.5552  -19.4290  -17.6731
         -15.7437  -15.5474  -12.1556  -12.1335  -11.8330  -10.7214   -9.6741   -8.0388   -5.9234   -3.5465
   -1.3982   -0.8530    0.6553    0.8443    1.2190    6.8439    6.9067    7.5160    7.6705    8.4881
    9.6057    9.7764   11.8238   12.5199   14.0601   14.9494   18.2341   19.0464   20.6820   22.2659
   23.0980   23.1212   23.2704   28.7329   29.5523   29.6549   30.5644   35.4330   38.2297   39.6844
   40.7504   43.5941   50.3198   51.0058   51.8797   52.8359   57.5948
  44  1  -31.8965  -26.8509  -25.8450  -25.4665  -24.4644  -23.9275  -23.6447  -20.9016  -19.4048  -18.1976
         -14.3320  -14.3252  -14.2710  -11.3080  -11.0156  -10.9606  -10.2780  -10.0873   -9.4515   -3.2662
   -0.5444    0.0800    0.4566    2.1476    2.8661    4.0004    4.5724    8.5938    8.5964    9.1464
    9.5793   12.4474   12.6523   13.9152   14.8327   14.9317   19.8197   20.0780   20.1114   20.7223
   22.4511   22.5651   23.6479   31.8082   36.6519   37.0036   37.2548   38.6699   46.8874   47.7496
   48.3248   49.5856   52.2797   52.6201   52.9319   55.5582   56.3309
siesta: Fermi energy =     -20.444020 eV

siesta: Program's energy decomposition (eV):
siesta: Ebs     =      -405.922380
siesta: Eions   =       380.620085
siesta: Ena     =        74.737979
siesta: Ekin    =       256.984604
siesta: Enl     =        11.261214
siesta: Eso     =         0.000000
siesta: Edftu   =         0.000000
siesta: DEna    =        -2.748496
siesta: DUscf   =         7.460973
siesta: DUext   =         0.000000
siesta: Exc     =      -186.186055
siesta: eta*DQ  =         0.000000
siesta: Emadel  =         0.000000
siesta: Emeta   =         0.000000
siesta: Emolmec =       -12.913146
siesta: Ekinion =         0.000000
siesta: Eharris =      -232.023013
siesta: Etot    =      -232.023013
siesta: FreeEng =      -232.031864

siesta: Final energy (eV):
siesta:  Band Struct. =    -405.922380
siesta:       Kinetic =     256.984604
siesta:       Hartree =      78.194201
siesta:       Edftu   =       0.000000
siesta:       Eso     =       0.000000
siesta:    Ext. field =       0.000000
siesta:   Exch.-corr. =    -186.186055
siesta:  Ion-electron =    -618.421240
siesta:       Ion-ion =     250.318624
siesta:       Ekinion =       0.000000
siesta:         Total =    -232.023013
siesta:         Fermi =     -20.444020

siesta: Atomic forces (eV/Ang):
siesta:      1   -0.000000    0.000000    0.000000
siesta:      2    1.688831    0.000021   -0.172463
siesta:      3   -1.688831   -0.000021    0.172463
siesta:      4   -0.844397    1.462581   -0.172463
siesta:      5    0.844397   -1.462581    0.172463
siesta:      6   -0.844445   -1.462622   -0.172597
siesta:      7    0.844445    1.462622    0.172597
siesta:      8   -1.688831   -0.000021   -0.172463
siesta:      9    1.688831    0.000021    0.172463
siesta:     10    0.844397   -1.462581   -0.172463
siesta:     11   -0.844397    1.462581    0.172463
siesta:     12    0.844445    1.462622   -0.172597
siesta:     13   -0.844445   -1.462622    0.172597
siesta: ----------------------------------------
siesta:    Tot   -0.000000    0.000000    0.000000

siesta: Stress tensor (static) (eV/Ang**3):
siesta:    -1.159093   -0.000020   -0.000000
siesta:    -0.000020   -1.159116   -0.000000
siesta:    -0.000000   -0.000000   -0.516655

siesta: Cell volume =         59.842785 Ang**3

siesta: Pressure (static):
siesta:                Solid            Molecule  Units
siesta:           0.01029176          0.01104913  Ry/Bohr**3
siesta:           0.94495451          1.01449368  eV/Ang**3
siesta:        1514.00039355       1625.41563557  kBar
(Free)E+ p_basis*V_orbitals  =        -199.861743
(Free)Eharris+ p_basis*V_orbitals  =        -199.861743

cite: Please see "LiC12_scf.bib" for an exhaustive BiBTeX file.
cite: Please clearly indicate Siesta version in published work: 4.1.5
cite: This calculation has made use of the following articles
cite: which are encouraged to be cited in a published work.
        Primary SIESTA paper
          DOI: www.doi.org/10.1088/0953-8984/14/11/302

>> End of run:   9-NOV-2022  13:29:48
Job completed
