Siesta Version  : 4.1.5
Architecture    : x86_64-unknown-linux-gnu--unknown
Compiler version: GNU Fortran (GCC) 11.3.0
Compiler flags  : mpif90 -g -O2 -fallow-argument-mismatch
PP flags        : -DMPI -DFC_HAVE_FLUSH -DFC_HAVE_ABORT
Libraries       :  -I/global/software/sl-7.x86_64/modules/intel/2020.4.304/mkl/include  /globall/software/sl-7.x86_64/modules/intel/2020.4.304/mkl/lib/intel64/libmkl_scalapack_lp64.a -Wl,--start-group /global/software/sl-7.x86_64/modules/intel/2020.4.304/mkl/lib/intel64/libmkl_intel_lp64.a /global/software/sl-7.x86_64/modules/intel/2020.4.304/mkl/lib/intel64/libmkl_sequential.a /global/software/sl-7.x86_64/modules/intel/2020.4.304/mkl/lib/intel64/libmkl_core.a /global/software/sl-7.x86_64/modules/intel/2020.4.304/mkl/lib/intel64/libmkl_blacs_openmpi_lp64.a -Wl,--end-group -lpthread -lm -ldl
PARALLEL version

* Running on 12 nodes in parallel
>> Start of run:   9-NOV-2022  13:46:33

                           ***********************       
                           *  WELCOME TO SIESTA  *       
                           ***********************       

reinit: Reading from standard input
reinit: Dumped input in INPUT_TMP.60932
************************** Dump of input data file ****************************
SystemName LiC12_scf
SystemLabel LiC12_scf
NumberOfAtoms   13
NumberOfSpecies 2
%block ChemicalSpeciesLabel
1  3   Li-gga
2  6   C-gga
%endblock ChemicalSpeciesLabel
PAO.BasisSize  SZP
PAO.EnergyShift  10 meV
%block PS.Lmax
C-gga   2
Li-gga  2
%endblock PS.Lmax
LatticeConstant 1.000000 Ang
%block LatticeVectors
	4.2686000000	0.0000000000	0.0000000000
	-2.1343000000	3.6967160386	0.0000000000
	0.0000000000	0.0000000000	7.5847320000
%endblock LatticeVectors
AtomicCoordinatesFormat Ang
%block AtomicCoordinatesAndAtomicSpecies
	0.00000000	0.00000000	0.00000000	2
	1.42144380	0.00000000	1.89618300	1
	2.84715620	0.00000000	5.68854900	1
	-0.71072190	1.23100644	1.89618300	1
	-1.42357810	2.46570960	5.68854900	1
	1.42357810	2.46570960	1.89618300	1
	0.71072190	1.23100644	5.68854900	1
	2.84715620	0.00000000	1.89618300	1
	1.42144380	0.00000000	5.68854900	1
	-1.42357810	2.46570960	1.89618300	1
	-0.71072190	1.23100644	5.68854900	1
	0.71072190	1.23100644	1.89618300	1
	1.42357810	2.46570960	5.68854900	1
%endblock AtomicCoordinatesAndAtomicSpecies
Kgrid_NoTRS  T
%block kgrid_MonkhorstPack
4       0       0       0.0
0       4       0       0.0
0       0       4       0.0
%endblock kgrid_MonkhorstPack
AtomCoorFormatOut Ang
BlockSize 1
#ProcessorY 12
Diag.ParallelOverK   T
Diag.DivideAndConquer F
MeshCutoff   300 Ry
SCF.FreeE.Tolerance 1E-3 eV
SCF.EDM.Tolerance   5E-3 eV
DM.Tolerance  1E-3
DM.Require.Energy.Convergence T
DM.NumberPulay 4
XC.Functional GGA
XC.Authors    PBE
UseSaveData        F
MD.TypeOfRun       CG
MD.VariableCell    F
MD.NumCGsteps      00
MD.MaxCGDispl      0.200000 Bohr
MD.MaxStressTol    1.000000 GPa
MD.MaxForceTol     0.010000 eV/Ang
WriteMDHistory T
WriteCoorStep T
WriteForces T
WriteCoorStep    T
WriteEigenValues T
WriteDM    F
MM.UnitsDistance Ang  # what this program prints out DO NOT CHANGE
MM.UnitsEnergy    eV  # what this program prints out DO NOT CHANGE
MM.Grimme.S6     0.75 # Grimme-paper for PBE (correct for your functional)
MM.Grimme.D     20.   # Grimme-paper (correct for your functional)
%block MM.Potentials
  1   1 Grimme     16.69      1.650 # Li, 10.1002/jcc.20495
  1   2 Grimme     17.40      2.277 # Li / C
  2   2 Grimme     18.14      2.904 # C, 10.1002/jcc.20495
%endblock MM.Potentials
#%block ProjectedDensityOfStates
# -200.0  120.0  0.4  12800  eV
#%endblock ProjectedDensityOfStates
************************** End of input data file *****************************

reinit: -----------------------------------------------------------------------
reinit: System Name: LiC12_scf
reinit: -----------------------------------------------------------------------
reinit: System Label: LiC12_scf
reinit: -----------------------------------------------------------------------
Reading two-body potentials
Grimme - two-body potential between 1 and 1
Grimme - two-body potential between 1 and 2
Grimme - two-body potential between 2 and 2

initatom: Reading input for the pseudopotentials and atomic orbitals ----------
Species number:   1 Atomic number:    3 Label: Li-gga
Species number:   2 Atomic number:    6 Label: C-gga

Ground state valence configuration:   2s01
Reading pseudopotential information in formatted form from Li-gga.psf

Valence configuration for pseudopotential generation:
2s( 1.00) rc: 2.28
2p( 0.00) rc: 2.28
3d( 0.00) rc: 2.59
4f( 0.00) rc: 2.59
Ground state valence configuration:   2s02  2p02
Reading pseudopotential information in formatted form from C-gga.psf

Valence configuration for pseudopotential generation:
2s( 2.00) rc: 1.56
2p( 2.00) rc: 1.56
3d( 0.00) rc: 1.56
4f( 0.00) rc: 1.56
relmxkb: Read Max KB Ang. Momentum=    2 for species C-gga
relmxkb: Read Max KB Ang. Momentum=    2 for species Li-gga

<basis_specs>
===============================================================================
Li-gga               Z=   3    Mass=  6.9400        Charge= 0.17977+309
Lmxo=0 Lmxkb= 2    BasisType=split      Semic=F
L=0  Nsemic=0  Cnfigmx=2
          i=1  nzeta=1  polorb=1  (2s)
            splnorm:   0.15000    
               vcte:    0.0000    
               rinn:    0.0000    
               qcoe:    0.0000    
               qyuk:    0.0000    
               qwid:   0.10000E-01
                rcs:    0.0000    
            lambdas:    1.0000    
-------------------------------------------------------------------------------
L=0  Nkbl=1  erefs: 0.17977+309
L=1  Nkbl=1  erefs: 0.17977+309
L=2  Nkbl=1  erefs: 0.17977+309
===============================================================================
</basis_specs>

atom: Called for Li-gga                (Z =   3)

read_vps: Pseudopotential generation method:
read_vps: ATM 3.2.2 Troullier-Martins                       
Valence charge for ps generation:    1.00000

read_vps: Pseudopotential includes a core correction:
read_vps: Pseudo-core for xc-correction

xc_check: Exchange-correlation functional:
xc_check: GGA Perdew, Burke & Ernzerhof 1996
V l=0 = -2*Zval/r beyond r=  2.2278
V l=1 = -2*Zval/r beyond r=  2.2278
V l=2 = -2*Zval/r beyond r=  2.5245
All V_l potentials equal beyond r=  2.4622
This should be close to max(r_c) in ps generation
All pots = -2*Zval/r beyond r=  2.5245

VLOCAL1: 99.0% of the norm of Vloc inside      7.160 Ry
VLOCAL1: 99.9% of the norm of Vloc inside     16.318 Ry
atom: Maximum radius for 4*pi*r*r*local-pseudopot. charge    2.86079
atom: Maximum radius for r*vlocal+2*Zval:    2.43160
GHOST: No ghost state for L =  0
GHOST: No ghost state for L =  1
GHOST: No ghost state for L =  2

KBgen: Kleinman-Bylander projectors: 
   l= 0   rc=  2.654023   el= -0.211234   Ekb=  1.742119   kbcos=  0.228463
   l= 1   rc=  2.721230   el= -0.080095   Ekb= -1.122375   kbcos= -0.147941
   l= 2   rc=  2.825246   el=  0.002001   Ekb= -0.207076   kbcos= -0.031965

KBgen: Total number of Kleinman-Bylander projectors:    9
atom: -------------------------------------------------------------------------

atom: SANKEY-TYPE ORBITALS:

SPLIT: Orbitals with angular momentum L= 0

SPLIT: Basis orbitals for state 2s

SPLIT: PAO cut-off radius determined from an
SPLIT: energy shift=  0.000735 Ry

   izeta = 1
                 lambda =    1.000000
                     rc =   11.897381
                 energy =   -0.210580
                kinetic =    0.143382
    potential(screened) =   -0.353962
       potential(ionic) =   -0.533453

POLgen: Perturbative polarization orbital with L=  1

POLgen: Polarization orbital for state 2s

   izeta = 1
                     rc =   11.897381
                 energy =   -0.027011
                kinetic =    0.282985
    potential(screened) =   -0.309997
       potential(ionic) =   -0.490997
atom: Total number of Sankey-type orbitals:  4

atm_pop: Valence configuration (for local Pseudopot. screening):
 2s( 1.00)                                                            
Vna: chval, zval:    1.00000   1.00000

Vna:  Cut-off radius for the neutral-atom potential:  11.897381
comcore: Pseudo-core radius Rcore=  3.450946

atom: _________________________________________________________________________

<basis_specs>
===============================================================================
C-gga                Z=   6    Mass=  12.010        Charge= 0.17977+309
Lmxo=1 Lmxkb= 2    BasisType=split      Semic=F
L=0  Nsemic=0  Cnfigmx=2
          i=1  nzeta=1  polorb=0  (2s)
            splnorm:   0.15000    
               vcte:    0.0000    
               rinn:    0.0000    
               qcoe:    0.0000    
               qyuk:    0.0000    
               qwid:   0.10000E-01
                rcs:    0.0000    
            lambdas:    1.0000    
L=1  Nsemic=0  Cnfigmx=2
          i=1  nzeta=1  polorb=1  (2p)
            splnorm:   0.15000    
               vcte:    0.0000    
               rinn:    0.0000    
               qcoe:    0.0000    
               qyuk:    0.0000    
               qwid:   0.10000E-01
                rcs:    0.0000    
            lambdas:    1.0000    
-------------------------------------------------------------------------------
L=0  Nkbl=1  erefs: 0.17977+309
L=1  Nkbl=1  erefs: 0.17977+309
L=2  Nkbl=1  erefs: 0.17977+309
===============================================================================
</basis_specs>

atom: Called for C-gga                 (Z =   6)

read_vps: Pseudopotential generation method:
read_vps: ATM 3.2.2 Troullier-Martins                       
Valence charge for ps generation:    4.00000

xc_check: Exchange-correlation functional:
xc_check: GGA Perdew, Burke & Ernzerhof 1996
V l=0 = -2*Zval/r beyond r=  1.5227
V l=1 = -2*Zval/r beyond r=  1.5227
V l=2 = -2*Zval/r beyond r=  1.5227
All V_l potentials equal beyond r=  1.4851
This should be close to max(r_c) in ps generation
All pots = -2*Zval/r beyond r=  1.5227

VLOCAL1: 99.0% of the norm of Vloc inside     19.682 Ry
VLOCAL1: 99.9% of the norm of Vloc inside     44.856 Ry
atom: Maximum radius for 4*pi*r*r*local-pseudopot. charge    1.79142
atom: Maximum radius for r*vlocal+2*Zval:    1.54183
GHOST: No ghost state for L =  0
GHOST: No ghost state for L =  1
GHOST: No ghost state for L =  2

KBgen: Kleinman-Bylander projectors: 
   l= 0   rc=  1.661951   el= -1.010689   Ekb=  5.289847   kbcos=  0.316429
   l= 1   rc=  1.661951   el= -0.388490   Ekb= -4.102504   kbcos= -0.351025
   l= 2   rc=  1.747182   el=  0.001971   Ekb= -1.006005   kbcos= -0.008530

KBgen: Total number of Kleinman-Bylander projectors:    9
atom: -------------------------------------------------------------------------

atom: SANKEY-TYPE ORBITALS:

SPLIT: Orbitals with angular momentum L= 0

SPLIT: Basis orbitals for state 2s

SPLIT: PAO cut-off radius determined from an
SPLIT: energy shift=  0.000735 Ry

   izeta = 1
                 lambda =    1.000000
                     rc =    5.948690
                 energy =   -1.010099
                kinetic =    0.827121
    potential(screened) =   -1.837220
       potential(ionic) =   -5.392783

SPLIT: Orbitals with angular momentum L= 1

SPLIT: Basis orbitals for state 2p

SPLIT: PAO cut-off radius determined from an
SPLIT: energy shift=  0.000735 Ry

   izeta = 1
                 lambda =    1.000000
                     rc =    7.638387
                 energy =   -0.387843
                kinetic =    2.314739
    potential(screened) =   -2.702582
       potential(ionic) =   -6.092371

POLgen: Perturbative polarization orbital with L=  2

POLgen: Polarization orbital for state 2p

   izeta = 1
                     rc =    7.638387
                 energy =    0.921402
                kinetic =    1.955040
    potential(screened) =   -1.033637
       potential(ionic) =   -3.679558
atom: Total number of Sankey-type orbitals:  9

atm_pop: Valence configuration (for local Pseudopot. screening):
 2s( 2.00)                                                            
 2p( 2.00)                                                            
Vna: chval, zval:    4.00000   4.00000

Vna:  Cut-off radius for the neutral-atom potential:   7.638387

atom: _________________________________________________________________________

prinput: Basis input ----------------------------------------------------------

PAO.BasisType split     

%block ChemicalSpeciesLabel
    1    3 Li-gga                  # Species index, atomic number, species label
    2    6 C-gga                   # Species index, atomic number, species label
%endblock ChemicalSpeciesLabel

%block PAO.Basis                 # Define Basis set
Li-gga                1                    # Species label, number of l-shells
 n=2   0   1 P   1                   # n, l, Nzeta, Polarization, NzetaPol
  11.897   
   1.000   
C-gga                 2                    # Species label, number of l-shells
 n=2   0   1                         # n, l, Nzeta 
   5.949   
   1.000   
 n=2   1   1 P   1                   # n, l, Nzeta, Polarization, NzetaPol
   7.638   
   1.000   
%endblock PAO.Basis

prinput: ----------------------------------------------------------------------

coor:   Atomic-coordinates input format  =     Cartesian coordinates
coor:                                          (in Angstroms)

siesta: Atomic coordinates (Bohr) and species
siesta:      0.00000   0.00000   0.00000  2        1
siesta:      2.68614   0.00000   3.58327  1        2
siesta:      5.38035   0.00000  10.74980  1        3
siesta:     -1.34307   2.32627   3.58327  1        4
siesta:     -2.69017   4.65952  10.74980  1        5
siesta:      2.69017   4.65952   3.58327  1        6
siesta:      1.34307   2.32627  10.74980  1        7
siesta:      5.38035   0.00000   3.58327  1        8
siesta:      2.68614   0.00000  10.74980  1        9
siesta:     -2.69017   4.65952   3.58327  1       10
siesta:     -1.34307   2.32627  10.74980  1       11
siesta:      1.34307   2.32627   3.58327  1       12
siesta:      2.69017   4.65952  10.74980  1       13

siesta: System type = bulk      

initatomlists: Number of atoms, orbitals, and projectors:     13    57   117

siesta: ******************** Simulation parameters ****************************
siesta:
siesta: The following are some of the parameters of the simulation.
siesta: A complete list of the parameters used, including default values,
siesta: can be found in file out.fdf
siesta:
redata: Spin configuration                          = none
redata: Number of spin components                   = 1
redata: Time-Reversal Symmetry                      = T
redata: Spin spiral                                 = F
redata: Long output                                 =   F
redata: Number of Atomic Species                    =        2
redata: Charge density info will appear in .RHO file
redata: Write Mulliken Pop.                         = NO
redata: Matel table size (NRTAB)                    =     1024
redata: Mesh Cutoff                                 =   300.0000 Ry
redata: Net charge of the system                    =     0.0000 |e|
redata: Min. number of SCF Iter                     =        0
redata: Max. number of SCF Iter                     =     1000
redata: SCF convergence failure will abort job
redata: SCF mix quantity                            = Hamiltonian
redata: Mix DM or H after convergence               =   F
redata: Recompute H after scf cycle                 =   F
redata: Mix DM in first SCF step                    =   T
redata: Write Pulay info on disk                    =   F
redata: New DM Occupancy tolerance                  = 0.000000000001
redata: No kicks to SCF
redata: DM Mixing Weight for Kicks                  =     0.5000
redata: Require Harris convergence for SCF          =   F
redata: Harris energy tolerance for SCF             =     0.000100 eV
redata: Require DM convergence for SCF              =   T
redata: DM tolerance for SCF                        =     0.001000
redata: Require EDM convergence for SCF             =   F
redata: EDM tolerance for SCF                       =     0.005000 eV
redata: Require H convergence for SCF               =   T
redata: Hamiltonian tolerance for SCF               =     0.001000 eV
redata: Require (free) Energy convergence for SCF   =   T
redata: (free) Energy tolerance for SCF             =     0.001000 eV
redata: Using Saved Data (generic)                  =   F
redata: Use continuation files for DM               =   F
redata: Neglect nonoverlap interactions             =   F
redata: Method of Calculation                       = Diagonalization
redata: Electronic Temperature                      =   299.9869 K
redata: Fix the spin of the system                  =   F
redata: Dynamics option                             = Single-point calculation
mix.SCF: Pulay mixing                            = Pulay
mix.SCF:    Variant                              = stable
mix.SCF:    History steps                        = 4
mix.SCF:    Linear mixing weight                 =     0.250000
mix.SCF:    Mixing weight                        =     0.250000
mix.SCF:    SVD condition                        = 0.1000E-07
redata: ***********************************************************************

%block SCF.Mixers
  Pulay
%endblock SCF.Mixers

%block SCF.Mixer.Pulay
  # Mixing method
  method pulay
  variant stable

  # Mixing options
  weight 0.2500
  weight.linear 0.2500
  history 4
%endblock SCF.Mixer.Pulay

DM_history_depth set to one: no extrapolation allowed by default for geometry relaxation
Size of DM history Fstack: 1
Total number of electrons:    16.000000
Total ionic charge:    16.000000

* ProcessorY, Blocksize:    3   1


* Orbital distribution balance (max,min):     5     4

k-point displ. along   1 input, could be:     0.00    0.50
k-point displ. along   2 input, could be:     0.00    0.50
k-point displ. along   3 input, could be:     0.00    0.50
 Kpoints in:           48 . Kpoints trimmed:           44

siesta: k-grid: Number of k-points =    44
siesta: k-grid: Cutoff (effective) =     8.537 Ang
siesta: k-grid: Supercell and displacements
siesta: k-grid:    4   0   0      0.000
siesta: k-grid:    0   4   0      0.000
siesta: k-grid:    0   0   4      0.000

diag: Algorithm                                     = Expert
diag: Parallel over k                               =   T
diag: Use parallel 2D distribution                  =   T
diag: Parallel block-size                           = 1
diag: Parallel distribution                         =     3 x     4
diag: Used triangular part                          = Lower
diag: Absolute tolerance                            =  0.100E-15
diag: Orthogonalization factor                      =  0.100E-05
diag: Memory factor                                 =  1.0000

superc: Internal auxiliary supercell:     9 x     9 x     5  =     405
superc: Number of atoms, orbitals, and projectors:   5265  23085  47385


ts: **************************************************************
ts: Save H and S matrices                           =    F
ts: Save DM and EDM matrices                        =    F
ts: Only save the overlap matrix S                  =    F
ts: **************************************************************

************************ Begin: TS CHECKS AND WARNINGS ************************
************************ End: TS CHECKS AND WARNINGS **************************


                     ====================================
                        Single-point calculation
                     ====================================

outcoor: Atomic coordinates (Ang):                          
    0.00000000    0.00000000    0.00000000   2       1  C-gga
    1.42144380    0.00000000    1.89618300   1       2  Li-gga
    2.84715620    0.00000000    5.68854900   1       3  Li-gga
   -0.71072190    1.23100644    1.89618300   1       4  Li-gga
   -1.42357810    2.46570960    5.68854900   1       5  Li-gga
    1.42357810    2.46570960    1.89618300   1       6  Li-gga
    0.71072190    1.23100644    5.68854900   1       7  Li-gga
    2.84715620    0.00000000    1.89618300   1       8  Li-gga
    1.42144380    0.00000000    5.68854900   1       9  Li-gga
   -1.42357810    2.46570960    1.89618300   1      10  Li-gga
   -0.71072190    1.23100644    5.68854900   1      11  Li-gga
    0.71072190    1.23100644    1.89618300   1      12  Li-gga
    1.42357810    2.46570960    5.68854900   1      13  Li-gga

superc: Internal auxiliary supercell:     9 x     9 x     5  =     405
superc: Number of atoms, orbitals, and projectors:   5265  23085  47385

outcell: Unit cell vectors (Ang):
        4.268600    0.000000    0.000000
       -2.134300    3.696716    0.000000
        0.000000    0.000000    7.584732

outcell: Cell vector modules (Ang)   :    4.268600    4.268600    7.584732
outcell: Cell angles (23,13,12) (deg):     90.0000     90.0000    120.0000
outcell: Cell volume (Ang**3)        :    119.6856
<dSpData1D:S at geom step 0
  <sparsity:sparsity for geom step 0
    nrows_g=57 nrows=5 sparsity=8.1887 nnzs=26605, refcount: 7>
  <dData1D:(new from dSpData1D) n=26605, refcount: 1>
refcount: 1>
new_DM -- step:     1
Initializing Density Matrix...
DM filled with atomic data:
<dSpData2D:DM initialized from atoms
  <sparsity:sparsity for geom step 0
    nrows_g=57 nrows=5 sparsity=8.1887 nnzs=26605, refcount: 8>
  <dData2D:DM n=26605 m=1, refcount: 1>
refcount: 1>
No. of atoms with KB's overlaping orbs in proc 0. Max # of overlaps:     352     840
New grid distribution:   1
           1       1:   20    1:    7    1:   10
           2       1:   20    1:    7   11:   20
           3       1:   20    1:    7   21:   30
           4       1:   20    1:    7   31:   40
           5       1:   20    8:   14    1:   10
           6       1:   20    8:   14   11:   20
           7       1:   20    8:   14   21:   30
           8       1:   20    8:   14   31:   40
           9       1:   20   15:   20    1:   10
          10       1:   20   15:   20   11:   20
          11       1:   20   15:   20   21:   30
          12       1:   20   15:   20   31:   40

InitMesh: MESH =    40 x    40 x    80 =      128000
InitMesh: (bp) =    20 x    20 x    40 =       16000
InitMesh: Mesh cutoff (required, used) =   300.000   307.469 Ry
ExtMesh (bp) on 0 =   160 x   147 x   146 =     3433920
New grid distribution:   2
           1       1:   20    1:    7    1:   10
           2       1:   10    8:   20   11:   20
           3       1:   20    1:    7   21:   30
           4      11:   20    8:   20    1:   10
           5       1:   20    1:    7   11:   20
           6       1:   10    8:   20    1:   10
           7      11:   20    8:   20   21:   30
           8      11:   20    8:   20   31:   40
           9       1:   20    1:    7   31:   40
          10      11:   20    8:   20   11:   20
          11       1:   10    8:   20   21:   30
          12       1:   10    8:   20   31:   40
New grid distribution:   3
           1       1:   20    1:    7    1:   10
           2       1:   10    8:   20   11:   20
           3       1:   20    1:    7   21:   30
           4      11:   20    8:   20    1:   10
           5       1:   20    1:    7   11:   20
           6       1:   10    8:   20    1:   10
           7      11:   20    8:   20   21:   30
           8      11:   20    8:   20   31:   40
           9       1:   20    1:    7   31:   40
          10      11:   20    8:   20   11:   20
          11       1:   10    8:   20   21:   30
          12       1:   10    8:   20   31:   40
Setting up quadratic distribution...
ExtMesh (bp) on 0 =   160 x   147 x   146 =     3433920
PhiOnMesh: Number of (b)points on node 0 =                 1400
PhiOnMesh: nlist on node 0 =               645180

stepf: Fermi-Dirac step function

siesta: Program's energy decomposition (eV):
siesta: Ebs     =      -202.889973
siesta: Eions   =       380.620085
siesta: Ena     =       114.558133
siesta: Ekin    =       185.362434
siesta: Enl     =        17.571097
siesta: Eso     =         0.000000
siesta: Edftu   =         0.000000
siesta: DEna    =         4.425703
siesta: DUscf   =         5.816127
siesta: DUext   =         0.000000
siesta: Exc     =      -157.605178
siesta: eta*DQ  =         0.000000
siesta: Emadel  =         0.000000
siesta: Emeta   =         0.000000
siesta: Emolmec =        -5.674153
siesta: Ekinion =         0.000000
siesta: Eharris =      -199.154615
siesta: Etot    =      -216.165923
siesta: FreeEng =      -216.180932

        iscf     Eharris(eV)        E_KS(eV)     FreeEng(eV)     dDmax    Ef(eV) dHmax(eV)
   scf:    1     -199.154615     -216.165923     -216.180932  1.361133-11.987212  6.419366
timer: Routine,Calls,Time,% = IterSCF        1       8.938  53.70
   scf:    2     -174.036615     -207.047132     -207.058568  0.622232-11.736997 13.685350
   scf:    3     -214.342234     -218.682807     -218.687440  0.537453-12.008135  2.849136
   scf:    4     -219.311872     -219.064807     -219.071179  0.046897-11.996167  1.154047
   scf:    5     -218.621751     -219.024371     -219.038602  0.082452-11.954775  1.359390
   scf:    6     -218.811532     -219.083843     -219.091449  0.085911-11.998073  1.054871
   scf:    7     -219.138389     -219.143463     -219.156295  0.035210-11.981671  0.051726
   scf:    8     -219.138112     -219.141301     -219.154622  0.003262-11.983016  0.170906
   scf:    9     -219.143492     -219.143976     -219.156370  0.009163-11.987846  0.057559
   scf:   10     -219.143601     -219.143908     -219.156568  0.002310-11.986773  0.006801
   scf:   11     -219.143983     -219.143947     -219.156571  0.000272-11.986800  0.000582

SCF Convergence by FreeE+DM+H criterion
|FreeE_i-FreeE_(i-1)| (eV) <     0.00100000
max |DM_out - DM_in|         :     0.0002716172
max |H_out - H_in|      (eV) :     0.0005820402
SCF cycle converged after 11 iterations

Using DM_out to compute the final energy and forces
No. of atoms with KB's overlaping orbs in proc 0. Max # of overlaps:     352     840

MM-Stress (kbar):       11.42       11.42       27.39        0.00       -0.00       -0.00

siesta: E_KS(eV) =             -219.1439

siesta: E_KS - E_eggbox =      -219.1439

siesta: Atomic forces (eV/Ang):
     1   -0.000000   -0.000000    0.000000
     2   -0.014121    0.000004   -0.414406
     3    0.014121   -0.000004    0.414406
     4    0.007064   -0.012227   -0.414406
     5   -0.007064    0.012227    0.414406
     6    0.007024    0.012166   -0.414468
     7   -0.007024   -0.012166    0.414468
     8    0.014121   -0.000004   -0.414406
     9   -0.014121    0.000004    0.414406
    10   -0.007064    0.012227   -0.414406
    11    0.007064   -0.012227    0.414406
    12   -0.007024   -0.012166   -0.414468
    13    0.007024    0.012166    0.414468
----------------------------------------
   Tot    0.000000    0.000000    0.000000
----------------------------------------
   Max    0.414468
   Res    0.230015    sqrt( Sum f_i^2 / 3N )
----------------------------------------
   Max    0.414468    constrained

Stress tensor Voigt[x,y,z,yz,xz,xy] (kbar):    -1153.98    -1154.00      496.22        0.00        0.00       -0.01
(Free)E + p*V (eV/cell)     -174.0431
Target enthalpy (eV/cell)     -219.1566

siesta: Eigenvalues (eV):
  ik is       eps
   1  1  -21.1836  -15.9096  -14.5343  -13.6463  -13.6090  -12.5237  -12.3699  -12.1962  -12.0092  -10.5721
          -8.3707   -8.3593   -7.5167   -6.1379   -5.9898   -3.9800   -3.8890   -3.7112   -3.6350   -1.4651
   -1.2123    0.0603    0.5759    1.3680    1.4556    2.1858    2.2522    2.5615    6.2311    7.0286
    7.6914    9.5726    9.7291    9.9497   11.1047   13.7425   17.8003   18.7622   18.9403   19.8089
   20.4238   20.5265   21.4821   22.1994   22.2337   23.5436   23.9378   24.7093   26.1993   36.2965
   36.6139   40.2768   44.5037   46.2063   46.6970   47.5211   47.9550
   2  1  -21.3292  -16.0334  -14.7824  -13.9752  -12.6954  -12.4024  -12.3687  -12.2385  -11.7542  -11.4630
          -8.6779   -7.0910   -6.7593   -6.4315   -4.8684   -4.6404   -4.2003   -3.9295   -3.0194   -2.6387
   -2.2575   -1.7483   -1.7029   -1.4666    0.0227    2.5600    2.9697    4.8366    8.2156    9.5389
    9.6521   11.0744   11.2421   12.9217   12.9371   16.6651   18.0289   18.7227   19.9109   20.4039
   21.8864   23.0387   23.8738   25.1941   25.2640   25.2993   25.9109   32.7419   35.7246   35.7543
   46.2418   47.2540   47.3771   48.0357   49.8710   51.6137   58.4679
   3  1  -21.3292  -16.0334  -14.7824  -13.9752  -12.6954  -12.4024  -12.3687  -12.2386  -11.7542  -11.4630
          -8.6778   -7.0910   -6.7593   -6.4315   -4.8684   -4.6403   -4.2004   -3.9295   -3.0194   -2.6387
   -2.2575   -1.7484   -1.7029   -1.4666    0.0228    2.5598    2.9697    4.8365    8.2156    9.5388
    9.6521   11.0745   11.2421   12.9216   12.9372   16.6652   18.0289   18.7226   19.9110   20.4039
   21.8864   23.0387   23.8736   25.1947   25.2639   25.2993   25.9109   32.7420   35.7246   35.7540
   46.2416   47.2540   47.3771   48.0356   49.8710   51.6136   58.4677
   4  1  -21.1836  -15.9096  -14.5342  -13.6463  -13.6090  -12.5237  -12.3699  -12.1962  -12.0092  -10.5721
          -8.3707   -8.3592   -7.5167   -6.1379   -5.9898   -3.9800   -3.8890   -3.7112   -3.6351   -1.4651
   -1.2123    0.0603    0.5759    1.3680    1.4557    2.1857    2.2522    2.5616    6.2311    7.0286
    7.6914    9.5726    9.7291    9.9496   11.1046   13.7425   17.8003   18.7622   18.9405   19.8089
   20.4238   20.5265   21.4821   22.1997   22.2337   23.5436   23.9378   24.7093   26.1988   36.2966
   36.6139   40.2767   44.5036   46.2064   46.6971   47.5212   47.9550
   5  1  -21.3292  -16.0334  -14.7824  -13.9752  -12.6954  -12.4024  -12.3687  -12.2385  -11.7542  -11.4630
          -8.6779   -7.0910   -6.7593   -6.4315   -4.8684   -4.6404   -4.2003   -3.9295   -3.0194   -2.6387
   -2.2575   -1.7483   -1.7029   -1.4666    0.0227    2.5600    2.9697    4.8366    8.2156    9.5389
    9.6521   11.0744   11.2421   12.9217   12.9371   16.6651   18.0289   18.7227   19.9109   20.4039
   21.8864   23.0387   23.8738   25.1941   25.2640   25.2993   25.9109   32.7419   35.7246   35.7543
   46.2418   47.2540   47.3771   48.0357   49.8710   51.6137   58.4679
   6  1  -21.3652  -15.9227  -15.0427  -13.0132  -12.4697  -12.2480  -12.0199  -12.0198  -11.8948  -11.8174
          -8.9080   -5.6343   -5.6343   -5.1473   -5.1472   -4.7066   -4.2246   -4.2246   -4.0016   -4.0016
   -3.5175   -3.5174    0.7813    0.7813    1.9122    1.9125    1.9229    1.9229    6.0601   12.7563
   12.7565   16.8314   16.8315   16.9028   16.9028   20.1873   20.1874   22.2567   22.2567   23.5303
   24.6998   24.6999   24.8345   32.2645   32.2653   33.0615   33.0615   34.8789   37.8524   37.8526
   43.5433   45.3775   45.7217   49.7490   50.0328   50.0330   50.2674
   7  1  -21.1887  -15.9712  -14.8009  -13.5743  -12.9513  -12.6750  -12.4746  -12.4308  -12.3330  -10.5038
          -8.2810   -8.1723   -7.7298   -7.3144   -5.1660   -4.1271   -3.7808   -2.8068   -2.6116   -1.4819
   -0.8344   -0.2653   -0.1878   -0.1223    1.2432    1.3258    2.2327    2.4772    2.8053    3.9529
    8.5854   10.0416   10.2363   10.8109   14.3079   15.1958   16.6482   17.8347   18.2815   18.9902
   19.9047   20.7277   21.2740   22.5089   23.2503   25.2853   25.3833   25.6759   28.7862   32.2895
   48.2412   48.9194   50.2632   51.1651   55.2784   55.8568   56.2805
   8  1  -21.1836  -15.9096  -14.5342  -13.6463  -13.6090  -12.5237  -12.3699  -12.1962  -12.0092  -10.5721
          -8.3707   -8.3592   -7.5167   -6.1379   -5.9898   -3.9800   -3.8890   -3.7112   -3.6351   -1.4651
   -1.2123    0.0603    0.5759    1.3680    1.4557    2.1857    2.2522    2.5616    6.2311    7.0286
    7.6914    9.5726    9.7291    9.9496   11.1046   13.7425   17.8003   18.7622   18.9405   19.8089
   20.4238   20.5265   21.4821   22.1997   22.2337   23.5436   23.9378   24.7093   26.1988   36.2966
   36.6139   40.2767   44.5036   46.2064   46.6971   47.5212   47.9550
   9  1  -21.1836  -15.9096  -14.5342  -13.6463  -13.6090  -12.5237  -12.3699  -12.1962  -12.0092  -10.5721
          -8.3707   -8.3592   -7.5167   -6.1379   -5.9898   -3.9800   -3.8890   -3.7112   -3.6351   -1.4651
   -1.2123    0.0603    0.5759    1.3680    1.4557    2.1857    2.2522    2.5616    6.2311    7.0286
    7.6914    9.5726    9.7291    9.9496   11.1046   13.7425   17.8003   18.7622   18.9405   19.8089
   20.4238   20.5265   21.4821   22.1997   22.2337   23.5436   23.9378   24.7093   26.1988   36.2966
   36.6139   40.2767   44.5036   46.2064   46.6971   47.5212   47.9550
  10  1  -21.1887  -15.9712  -14.8009  -13.5743  -12.9513  -12.6750  -12.4746  -12.4308  -12.3330  -10.5038
          -8.2810   -8.1723   -7.7298   -7.3144   -5.1660   -4.1271   -3.7808   -2.8068   -2.6116   -1.4819
   -0.8344   -0.2653   -0.1878   -0.1223    1.2432    1.3258    2.2327    2.4772    2.8053    3.9529
    8.5854   10.0416   10.2363   10.8109   14.3079   15.1958   16.6482   17.8347   18.2815   18.9902
   19.9047   20.7277   21.2740   22.5089   23.2503   25.2853   25.3833   25.6759   28.7862   32.2895
   48.2412   48.9194   50.2632   51.1651   55.2784   55.8568   56.2805
  11  1  -21.1836  -15.9096  -14.5342  -13.6463  -13.6090  -12.5237  -12.3699  -12.1962  -12.0092  -10.5721
          -8.3707   -8.3592   -7.5167   -6.1379   -5.9898   -3.9800   -3.8890   -3.7112   -3.6351   -1.4651
   -1.2123    0.0603    0.5759    1.3680    1.4557    2.1857    2.2522    2.5616    6.2311    7.0286
    7.6914    9.5726    9.7291    9.9496   11.1046   13.7425   17.8003   18.7622   18.9405   19.8089
   20.4238   20.5265   21.4821   22.1997   22.2337   23.5436   23.9378   24.7093   26.1988   36.2966
   36.6139   40.2767   44.5036   46.2064   46.6971   47.5212   47.9550
  12  1  -21.1887  -15.9712  -14.8009  -13.5743  -12.9513  -12.6750  -12.4746  -12.4309  -12.3330  -10.5038
          -8.2811   -8.1722   -7.7297   -7.3144   -5.1660   -4.1271   -3.7807   -2.8068   -2.6117   -1.4819
   -0.8344   -0.2653   -0.1878   -0.1223    1.2430    1.3259    2.2327    2.4772    2.8053    3.9529
    8.5854   10.0417   10.2363   10.8108   14.3079   15.1956   16.6482   17.8347   18.2815   18.9903
   19.9047   20.7277   21.2744   22.5088   23.2502   25.2853   25.3832   25.6759   28.7862   32.2889
   48.2411   48.9193   50.2630   51.1653   55.2784   55.8567   56.2807
  13  1  -21.1841  -15.9382  -14.4677  -13.6187  -13.6094  -12.6138  -12.5511  -11.8245  -11.7601  -11.1270
          -8.9839   -8.4614   -7.2798   -6.1990   -5.5357   -4.5776   -3.8790   -3.6356   -2.8567   -1.8325
   -0.8105    0.3831    0.4170    0.9683    1.6258    2.1901    2.5037    2.7202    5.4067    6.9320
    7.1951    7.3730   10.7519   11.3682   12.6814   15.0174   16.5278   18.4807   18.5616   19.4849
   20.3202   20.6060   21.6103   22.3300   22.7009   22.8875   23.3855   24.3671   29.2888   35.2957
   37.6768   40.4501   43.1502   46.1717   46.6063   47.1575   47.5708
  14  1  -21.3353  -16.0355  -14.6395  -14.0261  -12.6271  -12.4120  -12.3715  -12.2332  -11.7785  -11.6723
          -8.5005   -7.4454   -6.7756   -6.1788   -4.7548   -4.6930   -4.0739   -3.8406   -3.3618   -2.9472
   -2.5472   -2.2471   -1.4001   -0.6242    0.1418    1.8498    3.1125    6.0566    6.4892    9.9144
   10.0005   10.8382   12.6756   13.4503   14.9721   15.0521   18.1286   19.1861   19.3261   21.3358
   21.8172   22.2827   23.8193   25.0911   25.5535   25.5793   25.7214   30.8681   32.3139   39.3364
   44.6728   47.0004   47.2367   50.1818   50.5374   51.6909   58.3239
  15  1  -21.3353  -16.0355  -14.6395  -14.0261  -12.6271  -12.4120  -12.3715  -12.2333  -11.7785  -11.6723
          -8.5005   -7.4453   -6.7756   -6.1787   -4.7547   -4.6930   -4.0739   -3.8406   -3.3618   -2.9472
   -2.5472   -2.2471   -1.4001   -0.6243    0.1419    1.8498    3.1124    6.0566    6.4891    9.9144
   10.0005   10.8382   12.6756   13.4504   14.9721   15.0520   18.1287   19.1862   19.3259   21.3358
   21.8171   22.2828   23.8191   25.0910   25.5534   25.5798   25.7213   30.8682   32.3138   39.3361
   44.6727   47.0004   47.2367   50.1817   50.5373   51.6909   58.3237
  16  1  -21.1841  -15.9382  -14.4677  -13.6187  -13.6095  -12.6138  -12.5511  -11.8245  -11.7601  -11.1270
          -8.9839   -8.4614   -7.2797   -6.1990   -5.5357   -4.5776   -3.8790   -3.6356   -2.8568   -1.8325
   -0.8105    0.3832    0.4170    0.9683    1.6258    2.1900    2.5037    2.7202    5.4067    6.9320
    7.1951    7.3730   10.7519   11.3681   12.6813   15.0174   16.5277   18.4807   18.5617   19.4848
   20.3203   20.6060   21.6103   22.3304   22.7010   22.8875   23.3855   24.3670   29.2884   35.2958
   37.6767   40.4501   43.1502   46.1718   46.6064   47.1576   47.5709
  17  1  -21.3353  -16.0355  -14.6395  -14.0261  -12.6271  -12.4120  -12.3715  -12.2332  -11.7785  -11.6723
          -8.5005   -7.4454   -6.7756   -6.1788   -4.7548   -4.6930   -4.0739   -3.8406   -3.3618   -2.9472
   -2.5472   -2.2471   -1.4001   -0.6242    0.1418    1.8498    3.1125    6.0566    6.4892    9.9144
   10.0005   10.8382   12.6756   13.4503   14.9721   15.0521   18.1286   19.1861   19.3261   21.3358
   21.8172   22.2827   23.8193   25.0911   25.5535   25.5793   25.7214   30.8681   32.3139   39.3364
   44.6728   47.0004   47.2367   50.1818   50.5374   51.6909   58.3239
  18  1  -21.4029  -15.8593  -14.9986  -13.1538  -12.3389  -12.1933  -12.0130  -12.0128  -11.9753  -11.8849
          -8.6374   -5.5164   -5.5163   -5.3587   -5.3587   -5.1043   -4.6204   -4.6204   -3.6484   -3.6484
   -2.5489   -2.5489   -0.7027   -0.7026    0.8574    0.8574    3.2253    3.2256    7.7423   15.5854
   15.5855   17.5742   17.5742   18.2453   18.2453   20.5357   20.5358   22.6336   22.6337   23.4670
   23.9024   23.9025   24.3066   32.5714   32.5723   33.0431   33.0432   37.9428   39.2779   39.2781
   42.7656   46.0705   46.4335   49.0384   49.1833   49.1834   49.5235
  19  1  -21.3353  -16.0355  -14.6395  -14.0261  -12.6271  -12.4120  -12.3715  -12.2332  -11.7785  -11.6723
          -8.5005   -7.4454   -6.7756   -6.1788   -4.7548   -4.6930   -4.0739   -3.8406   -3.3618   -2.9472
   -2.5472   -2.2471   -1.4001   -0.6242    0.1418    1.8498    3.1125    6.0566    6.4892    9.9144
   10.0005   10.8382   12.6756   13.4503   14.9721   15.0521   18.1286   19.1861   19.3261   21.3358
   21.8172   22.2827   23.8193   25.0911   25.5535   25.5793   25.7214   30.8681   32.3139   39.3364
   44.6728   47.0004   47.2367   50.1818   50.5374   51.6909   58.3239
  20  1  -21.1910  -15.9903  -14.7479  -13.3736  -13.3652  -12.5244  -12.4285  -12.2875  -12.0912  -11.0853
          -9.4359   -7.6795   -7.3215   -6.8388   -4.9223   -4.7874   -3.4528   -3.2192   -2.1877   -1.3440
   -1.2102   -0.2829    0.0278    0.2849    1.0317    1.3434    1.6807    1.7902    2.5153    3.4364
   10.0696   11.0833   11.3312   12.9817   14.2541   15.6955   16.6140   17.6030   18.2459   18.4765
   18.9197   19.6981   21.3035   22.1171   24.4339   24.8841   25.6503   25.7578   27.2161   33.5210
   47.4075   50.1091   51.0870   52.3117   54.8036   55.0280   55.7523
  21  1  -21.3353  -16.0355  -14.6395  -14.0261  -12.6271  -12.4120  -12.3715  -12.2333  -11.7785  -11.6723
          -8.5005   -7.4453   -6.7756   -6.1787   -4.7547   -4.6930   -4.0739   -3.8406   -3.3618   -2.9472
   -2.5472   -2.2471   -1.4001   -0.6243    0.1419    1.8498    3.1124    6.0566    6.4891    9.9144
   10.0005   10.8382   12.6756   13.4504   14.9721   15.0520   18.1287   19.1862   19.3259   21.3358
   21.8171   22.2828   23.8191   25.0910   25.5534   25.5798   25.7213   30.8682   32.3138   39.3361
   44.6727   47.0004   47.2367   50.1817   50.5373   51.6909   58.3237
  22  1  -21.3353  -16.0355  -14.6395  -14.0261  -12.6271  -12.4120  -12.3715  -12.2332  -11.7785  -11.6723
          -8.5005   -7.4454   -6.7756   -6.1788   -4.7548   -4.6930   -4.0739   -3.8406   -3.3618   -2.9472
   -2.5472   -2.2471   -1.4001   -0.6242    0.1418    1.8498    3.1125    6.0566    6.4892    9.9144
   10.0005   10.8382   12.6756   13.4503   14.9721   15.0521   18.1286   19.1861   19.3261   21.3358
   21.8172   22.2827   23.8193   25.0911   25.5535   25.5793   25.7214   30.8681   32.3139   39.3364
   44.6728   47.0004   47.2367   50.1818   50.5374   51.6909   58.3239
  23  1  -21.1841  -15.9382  -14.4677  -13.6187  -13.6094  -12.6138  -12.5511  -11.8245  -11.7601  -11.1270
          -8.9839   -8.4614   -7.2798   -6.1990   -5.5357   -4.5776   -3.8790   -3.6356   -2.8567   -1.8325
   -0.8105    0.3831    0.4170    0.9683    1.6258    2.1901    2.5037    2.7202    5.4067    6.9320
    7.1951    7.3730   10.7519   11.3682   12.6814   15.0174   16.5278   18.4807   18.5616   19.4849
   20.3202   20.6060   21.6103   22.3300   22.7009   22.8875   23.3855   24.3671   29.2888   35.2957
   37.6768   40.4501   43.1502   46.1717   46.6063   47.1575   47.5708
  24  1  -21.1841  -15.9382  -14.4677  -13.6187  -13.6095  -12.6138  -12.5511  -11.8245  -11.7601  -11.1270
          -8.9839   -8.4614   -7.2797   -6.1990   -5.5357   -4.5776   -3.8790   -3.6356   -2.8568   -1.8325
   -0.8105    0.3832    0.4170    0.9683    1.6258    2.1900    2.5037    2.7202    5.4067    6.9320
    7.1951    7.3730   10.7519   11.3681   12.6813   15.0174   16.5277   18.4807   18.5617   19.4848
   20.3203   20.6060   21.6103   22.3304   22.7010   22.8875   23.3855   24.3670   29.2884   35.2958
   37.6767   40.4501   43.1502   46.1718   46.6064   47.1576   47.5709
  25  1  -21.1841  -15.9382  -14.4677  -13.6187  -13.6095  -12.6138  -12.5511  -11.8245  -11.7601  -11.1270
          -8.9839   -8.4614   -7.2797   -6.1990   -5.5357   -4.5776   -3.8790   -3.6356   -2.8568   -1.8325
   -0.8105    0.3832    0.4170    0.9683    1.6258    2.1900    2.5037    2.7202    5.4067    6.9320
    7.1951    7.3730   10.7519   11.3681   12.6813   15.0174   16.5277   18.4807   18.5617   19.4848
   20.3203   20.6060   21.6103   22.3304   22.7010   22.8875   23.3855   24.3670   29.2884   35.2958
   37.6767   40.4501   43.1502   46.1718   46.6064   47.1576   47.5709
  26  1  -21.1910  -15.9903  -14.7479  -13.3736  -13.3652  -12.5244  -12.4285  -12.2875  -12.0912  -11.0853
          -9.4359   -7.6795   -7.3215   -6.8388   -4.9223   -4.7874   -3.4528   -3.2192   -2.1877   -1.3440
   -1.2102   -0.2829    0.0278    0.2849    1.0317    1.3434    1.6807    1.7902    2.5153    3.4364
   10.0696   11.0833   11.3312   12.9817   14.2541   15.6955   16.6140   17.6030   18.2459   18.4765
   18.9197   19.6981   21.3035   22.1171   24.4339   24.8841   25.6503   25.7578   27.2161   33.5210
   47.4075   50.1091   51.0870   52.3117   54.8036   55.0280   55.7523
  27  1  -21.1841  -15.9382  -14.4677  -13.6187  -13.6095  -12.6138  -12.5511  -11.8245  -11.7601  -11.1270
          -8.9839   -8.4614   -7.2797   -6.1990   -5.5357   -4.5776   -3.8790   -3.6356   -2.8568   -1.8325
   -0.8105    0.3832    0.4170    0.9683    1.6258    2.1900    2.5037    2.7202    5.4067    6.9320
    7.1951    7.3730   10.7519   11.3681   12.6813   15.0174   16.5277   18.4807   18.5617   19.4848
   20.3203   20.6060   21.6103   22.3304   22.7010   22.8875   23.3855   24.3670   29.2884   35.2958
   37.6767   40.4501   43.1502   46.1718   46.6064   47.1576   47.5709
  28  1  -21.1910  -15.9903  -14.7479  -13.3736  -13.3652  -12.5243  -12.4286  -12.2875  -12.0912  -11.0853
          -9.4359   -7.6795   -7.3216   -6.8387   -4.9223   -4.7874   -3.4528   -3.2192   -2.1878   -1.3440
   -1.2102   -0.2829    0.0278    0.2849    1.0316    1.3433    1.6808    1.7902    2.5152    3.4364
   10.0696   11.0834   11.3312   12.9817   14.2540   15.6956   16.6140   17.6030   18.2460   18.4765
   18.9198   19.6982   21.3034   22.1175   24.4339   24.8840   25.6502   25.7577   27.2161   33.5204
   47.4074   50.1090   51.0869   52.3119   54.8035   55.0280   55.7525
  29  1  -21.1843  -15.9653  -14.3936  -13.6771  -13.5629  -12.7774  -12.1202  -11.9314  -11.5970  -11.5042
          -9.4994   -8.5609   -7.1311   -6.3908   -5.1278   -4.8077   -3.8134   -3.0419   -2.7361   -2.3742
   -0.2965    0.0880    0.6678    1.0352    1.6584    1.9774    2.5721    4.1328    4.3652    4.5221
    6.6998    7.7076   12.0661   13.0355   15.0554   15.0593   16.6192   16.6639   17.4969   17.6912
   20.5371   20.7674   22.3550   22.4733   22.6608   22.6683   23.3641   24.5149   31.5988   34.2396
   39.5601   40.3069   41.2805   46.3422   46.5900   46.7497   46.9567
  30  1  -21.3398  -16.0384  -14.4698  -14.0991  -12.4453  -12.4287  -12.2929  -12.2470  -12.2276  -11.5981
          -8.1939   -7.9187   -6.7901   -5.6631   -5.1823   -4.5297   -4.0797   -3.7227   -3.3832   -3.2255
   -2.9870   -2.3601   -0.6587   -0.5820    0.2511    1.2329    3.4997    5.2423    7.7995    9.8811
   10.0648   10.7044   12.3136   12.7721   16.6429   17.0756   17.3253   19.5060   19.8241   20.9105
   21.7868   22.5457   23.2057   25.2549   25.3855   25.8146   25.8436   28.9804   30.8228   40.4482
   44.0049   46.7739   46.8522   51.1773   51.2337   54.3134   56.7157
  31  1  -21.3398  -16.0384  -14.4698  -14.0991  -12.4453  -12.4287  -12.2929  -12.2470  -12.2277  -11.5980
          -8.1939   -7.9186   -6.7901   -5.6631   -5.1823   -4.5297   -4.0797   -3.7227   -3.3832   -3.2255
   -2.9870   -2.3601   -0.6587   -0.5820    0.2509    1.2330    3.4997    5.2421    7.7995    9.8811
   10.0648   10.7043   12.3137   12.7721   16.6430   17.0758   17.3253   19.5060   19.8239   20.9105
   21.7865   22.5458   23.2056   25.2549   25.3855   25.8146   25.8442   28.9805   30.8228   40.4478
   44.0048   46.7740   46.8523   51.1773   51.2337   54.3133   56.7155
  32  1  -21.1843  -15.9653  -14.3936  -13.6771  -13.5629  -12.7774  -12.1202  -11.9314  -11.5970  -11.5041
          -9.4994   -8.5609   -7.1310   -6.3908   -5.1278   -4.8076   -3.8134   -3.0419   -2.7362   -2.3743
   -0.2965    0.0880    0.6678    1.0352    1.6584    1.9775    2.5722    4.1328    4.3653    4.5221
    6.6998    7.7075   12.0660   13.0355   15.0554   15.0593   16.6192   16.6639   17.4969   17.6912
   20.5371   20.7674   22.3550   22.4736   22.6608   22.6683   23.3644   24.5148   31.5984   34.2397
   39.5600   40.3068   41.2804   46.3423   46.5900   46.7497   46.9567
  33  1  -21.3398  -16.0384  -14.4698  -14.0991  -12.4453  -12.4287  -12.2929  -12.2470  -12.2276  -11.5981
          -8.1939   -7.9187   -6.7901   -5.6631   -5.1823   -4.5297   -4.0797   -3.7227   -3.3832   -3.2255
   -2.9870   -2.3601   -0.6587   -0.5820    0.2511    1.2329    3.4997    5.2423    7.7995    9.8811
   10.0648   10.7044   12.3136   12.7721   16.6429   17.0756   17.3253   19.5060   19.8241   20.9105
   21.7868   22.5457   23.2057   25.2549   25.3855   25.8146   25.8436   28.9804   30.8228   40.4482
   44.0049   46.7739   46.8522   51.1773   51.2337   54.3134   56.7157
  34  1  -21.4355  -15.8181  -14.9250  -13.2689  -12.1672  -12.1276  -12.0685  -12.0221  -12.0059  -12.0058
          -8.3440   -5.4951   -5.4891   -5.4891   -5.2281   -5.2281   -5.1194   -5.1194   -2.7119   -2.7119
   -2.0071   -2.0071   -1.0733   -1.0733   -0.8530   -0.8529    3.8171    3.8175    9.4710   17.9005
   17.9006   18.2855   18.2855   20.9559   20.9559   21.2926   21.2926   21.5715   21.5716   22.9947
   22.9948   23.6252   23.7235   32.9141   32.9150   33.0650   33.0650   40.9475   40.9477   41.5713
   41.8436   47.4575   47.6374   47.9345   47.9948   48.0827   48.0828
  35  1  -21.3398  -16.0384  -14.4698  -14.0991  -12.4453  -12.4287  -12.2929  -12.2470  -12.2276  -11.5981
          -8.1939   -7.9187   -6.7901   -5.6631   -5.1823   -4.5297   -4.0797   -3.7227   -3.3832   -3.2255
   -2.9870   -2.3601   -0.6587   -0.5820    0.2511    1.2329    3.4997    5.2423    7.7995    9.8811
   10.0648   10.7044   12.3136   12.7721   16.6429   17.0756   17.3253   19.5060   19.8241   20.9105
   21.7868   22.5457   23.2057   25.2549   25.3855   25.8146   25.8436   28.9804   30.8228   40.4482
   44.0049   46.7739   46.8522   51.1773   51.2337   54.3134   56.7157
  36  1  -21.1931  -16.0091  -14.6848  -13.5978  -13.0951  -12.6087  -12.4257  -11.9588  -11.8823  -11.5913
         -10.1991   -7.3275   -6.9130   -6.4501   -5.8964   -4.3115   -4.2257   -2.0099   -1.7526   -1.6342
   -1.3742   -0.4013   -0.1150    0.5358    0.7382    0.7635    0.9213    2.0435    2.7712    2.8898
   11.8751   12.3441   12.8888   13.7566   14.5942   15.5276   15.7133   17.1388   17.5462   18.7958
   19.0011   19.1731   20.9226   22.6132   24.2028   25.3326   25.3942   25.8619   25.9743   34.8712
   46.5758   52.3006   52.4311   53.1034   53.8758   54.2868   54.3854
  37  1  -21.3398  -16.0384  -14.4698  -14.0991  -12.4453  -12.4287  -12.2929  -12.2470  -12.2277  -11.5980
          -8.1939   -7.9186   -6.7901   -5.6631   -5.1823   -4.5297   -4.0797   -3.7227   -3.3832   -3.2255
   -2.9870   -2.3601   -0.6587   -0.5820    0.2509    1.2330    3.4997    5.2421    7.7995    9.8811
   10.0648   10.7043   12.3137   12.7721   16.6430   17.0758   17.3253   19.5060   19.8239   20.9105
   21.7865   22.5458   23.2056   25.2549   25.3855   25.8146   25.8442   28.9805   30.8228   40.4478
   44.0048   46.7740   46.8523   51.1773   51.2337   54.3133   56.7155
  38  1  -21.3398  -16.0384  -14.4698  -14.0991  -12.4453  -12.4287  -12.2929  -12.2470  -12.2276  -11.5981
          -8.1939   -7.9187   -6.7901   -5.6631   -5.1823   -4.5297   -4.0797   -3.7227   -3.3832   -3.2255
   -2.9870   -2.3601   -0.6587   -0.5820    0.2511    1.2329    3.4997    5.2423    7.7995    9.8811
   10.0648   10.7044   12.3136   12.7721   16.6429   17.0756   17.3253   19.5060   19.8241   20.9105
   21.7868   22.5457   23.2057   25.2549   25.3855   25.8146   25.8436   28.9804   30.8228   40.4482
   44.0049   46.7739   46.8522   51.1773   51.2337   54.3134   56.7157
  39  1  -21.1843  -15.9653  -14.3936  -13.6771  -13.5629  -12.7774  -12.1202  -11.9314  -11.5970  -11.5042
          -9.4994   -8.5609   -7.1311   -6.3908   -5.1278   -4.8077   -3.8134   -3.0419   -2.7361   -2.3742
   -0.2965    0.0880    0.6678    1.0352    1.6584    1.9774    2.5721    4.1328    4.3652    4.5221
    6.6998    7.7076   12.0661   13.0355   15.0554   15.0593   16.6192   16.6639   17.4969   17.6912
   20.5371   20.7674   22.3550   22.4733   22.6608   22.6683   23.3641   24.5149   31.5988   34.2396
   39.5601   40.3069   41.2805   46.3422   46.5900   46.7497   46.9567
  40  1  -21.1843  -15.9653  -14.3936  -13.6771  -13.5629  -12.7774  -12.1202  -11.9314  -11.5970  -11.5041
          -9.4994   -8.5609   -7.1310   -6.3908   -5.1278   -4.8076   -3.8134   -3.0419   -2.7362   -2.3743
   -0.2965    0.0880    0.6678    1.0352    1.6584    1.9775    2.5722    4.1328    4.3653    4.5221
    6.6998    7.7075   12.0660   13.0355   15.0554   15.0593   16.6192   16.6639   17.4969   17.6912
   20.5371   20.7674   22.3550   22.4736   22.6608   22.6683   23.3644   24.5148   31.5984   34.2397
   39.5600   40.3068   41.2804   46.3423   46.5900   46.7497   46.9567
  41  1  -21.1843  -15.9653  -14.3936  -13.6771  -13.5629  -12.7774  -12.1202  -11.9314  -11.5970  -11.5041
          -9.4994   -8.5609   -7.1310   -6.3908   -5.1278   -4.8076   -3.8134   -3.0419   -2.7362   -2.3743
   -0.2965    0.0880    0.6678    1.0352    1.6584    1.9775    2.5722    4.1328    4.3653    4.5221
    6.6998    7.7075   12.0660   13.0355   15.0554   15.0593   16.6192   16.6639   17.4969   17.6912
   20.5371   20.7674   22.3550   22.4736   22.6608   22.6683   23.3644   24.5148   31.5984   34.2397
   39.5600   40.3068   41.2804   46.3423   46.5900   46.7497   46.9567
  42  1  -21.1931  -16.0091  -14.6848  -13.5978  -13.0951  -12.6087  -12.4257  -11.9588  -11.8823  -11.5913
         -10.1991   -7.3275   -6.9130   -6.4501   -5.8964   -4.3115   -4.2257   -2.0099   -1.7526   -1.6342
   -1.3742   -0.4013   -0.1150    0.5358    0.7382    0.7635    0.9213    2.0435    2.7712    2.8898
   11.8751   12.3441   12.8888   13.7566   14.5942   15.5276   15.7133   17.1388   17.5462   18.7958
   19.0011   19.1731   20.9226   22.6132   24.2028   25.3326   25.3942   25.8619   25.9743   34.8712
   46.5758   52.3006   52.4311   53.1034   53.8758   54.2868   54.3854
  43  1  -21.1843  -15.9653  -14.3936  -13.6771  -13.5629  -12.7774  -12.1202  -11.9314  -11.5970  -11.5041
          -9.4994   -8.5609   -7.1310   -6.3908   -5.1278   -4.8076   -3.8134   -3.0419   -2.7362   -2.3743
   -0.2965    0.0880    0.6678    1.0352    1.6584    1.9775    2.5722    4.1328    4.3653    4.5221
    6.6998    7.7075   12.0660   13.0355   15.0554   15.0593   16.6192   16.6639   17.4969   17.6912
   20.5371   20.7674   22.3550   22.4736   22.6608   22.6683   23.3644   24.5148   31.5984   34.2397
   39.5600   40.3068   41.2804   46.3423   46.5900   46.7497   46.9567
  44  1  -21.1931  -16.0091  -14.6848  -13.5978  -13.0951  -12.6086  -12.4258  -11.9588  -11.8823  -11.5913
         -10.1991   -7.3275   -6.9129   -6.4500   -5.8963   -4.3115   -4.2256   -2.0100   -1.7526   -1.6342
   -1.3742   -0.4014   -0.1150    0.5358    0.7382    0.7636    0.9213    2.0435    2.7713    2.8897
   11.8749   12.3441   12.8888   13.7566   14.5942   15.5276   15.7133   17.1388   17.5461   18.7960
   19.0011   19.1731   20.9225   22.6136   24.2028   25.3326   25.3942   25.8619   25.9742   34.8706
   46.5757   52.3005   52.4311   53.1034   53.8757   54.2870   54.3856
siesta: Fermi energy =     -11.986800 eV

siesta: Program's energy decomposition (eV):
siesta: Ebs     =      -231.440389
siesta: Eions   =       380.620085
siesta: Ena     =       114.558133
siesta: Ekin    =       171.999818
siesta: Enl     =        22.795723
siesta: Eso     =         0.000000
siesta: Edftu   =         0.000000
siesta: DEna    =        10.487972
siesta: DUscf   =         1.805289
siesta: DUext   =         0.000000
siesta: Exc     =      -154.496644
siesta: eta*DQ  =         0.000000
siesta: Emadel  =         0.000000
siesta: Emeta   =         0.000000
siesta: Emolmec =        -5.674153
siesta: Ekinion =         0.000000
siesta: Eharris =      -219.143983
siesta: Etot    =      -219.143947
siesta: FreeEng =      -219.156571

siesta: Final energy (eV):
siesta:  Band Struct. =    -231.440389
siesta:       Kinetic =     171.999818
siesta:       Hartree =      70.720040
siesta:       Edftu   =       0.000000
siesta:       Eso     =       0.000000
siesta:    Ext. field =       0.000000
siesta:   Exch.-corr. =    -154.496644
siesta:  Ion-electron =    -383.725928
siesta:       Ion-ion =      82.032921
siesta:       Ekinion =       0.000000
siesta:         Total =    -219.143947
siesta:         Fermi =     -11.986800

siesta: Atomic forces (eV/Ang):
siesta:      1   -0.000000   -0.000000    0.000000
siesta:      2   -0.014121    0.000004   -0.414406
siesta:      3    0.014121   -0.000004    0.414406
siesta:      4    0.007064   -0.012227   -0.414406
siesta:      5   -0.007064    0.012227    0.414406
siesta:      6    0.007024    0.012166   -0.414468
siesta:      7   -0.007024   -0.012166    0.414468
siesta:      8    0.014121   -0.000004   -0.414406
siesta:      9   -0.014121    0.000004    0.414406
siesta:     10   -0.007064    0.012227   -0.414406
siesta:     11    0.007064   -0.012227    0.414406
siesta:     12   -0.007024   -0.012166   -0.414468
siesta:     13    0.007024    0.012166    0.414468
siesta: ----------------------------------------
siesta:    Tot    0.000000    0.000000    0.000000

siesta: Stress tensor (static) (eV/Ang**3):
siesta:    -0.720253   -0.000007    0.000000
siesta:    -0.000007   -0.720261   -0.000000
siesta:     0.000000    0.000000    0.309715

siesta: Cell volume =        119.685570 Ang**3

siesta: Pressure (static):
siesta:                Solid            Molecule  Units
siesta:           0.00410528          0.00381558  Ry/Bohr**3
siesta:           0.37693285          0.35033390  eV/Ang**3
siesta:         603.91952569        561.30285655  kBar
(Free)E+ p_basis*V_orbitals  =        -186.986450
(Free)Eharris+ p_basis*V_orbitals  =        -186.986486

cite: Please see "LiC12_scf.bib" for an exhaustive BiBTeX file.
cite: Please clearly indicate Siesta version in published work: 4.1.5
cite: This calculation has made use of the following articles
cite: which are encouraged to be cited in a published work.
        Primary SIESTA paper
          DOI: www.doi.org/10.1088/0953-8984/14/11/302

>> End of run:   9-NOV-2022  13:48:09
Job completed
