Siesta Version  : 4.1.5
Architecture    : x86_64-unknown-linux-gnu--unknown
Compiler version: GNU Fortran (GCC) 11.3.0
Compiler flags  : mpif90 -g -O2 -fallow-argument-mismatch
PP flags        : -DMPI -DFC_HAVE_FLUSH -DFC_HAVE_ABORT
Libraries       :  -I/global/software/sl-7.x86_64/modules/intel/2020.4.304/mkl/include  /globall/software/sl-7.x86_64/modules/intel/2020.4.304/mkl/lib/intel64/libmkl_scalapack_lp64.a -Wl,--start-group /global/software/sl-7.x86_64/modules/intel/2020.4.304/mkl/lib/intel64/libmkl_intel_lp64.a /global/software/sl-7.x86_64/modules/intel/2020.4.304/mkl/lib/intel64/libmkl_sequential.a /global/software/sl-7.x86_64/modules/intel/2020.4.304/mkl/lib/intel64/libmkl_core.a /global/software/sl-7.x86_64/modules/intel/2020.4.304/mkl/lib/intel64/libmkl_blacs_openmpi_lp64.a -Wl,--end-group -lpthread -lm -ldl
PARALLEL version

* Running on 12 nodes in parallel
>> Start of run:   9-NOV-2022  14:11:56

                           ***********************       
                           *  WELCOME TO SIESTA  *       
                           ***********************       

reinit: Reading from standard input
reinit: Dumped input in INPUT_TMP.83397
************************** Dump of input data file ****************************
SystemName LiC12_scf
SystemLabel LiC12_scf
NumberOfAtoms   13
NumberOfSpecies 2
%block ChemicalSpeciesLabel
1  3   Li-gga
2  6   C-gga
%endblock ChemicalSpeciesLabel
PAO.BasisSize  SZP
PAO.EnergyShift  10 meV
%block PS.Lmax
C-gga   2
Li-gga  2
%endblock PS.Lmax
LatticeConstant 1.000000 Ang
%block LatticeVectors
	4.2686000000	0.0000000000	0.0000000000
	-2.1343000000	3.6967160386	0.0000000000
	0.0000000000	0.0000000000	9.9725180000
%endblock LatticeVectors
AtomicCoordinatesFormat Ang
%block AtomicCoordinatesAndAtomicSpecies
	0.00000000	0.00000000	0.00000000	2
	1.42144380	0.00000000	2.49312950	1
	2.84715620	0.00000000	7.47938850	1
	-0.71072190	1.23100644	2.49312950	1
	-1.42357810	2.46570960	7.47938850	1
	1.42357810	2.46570960	2.49312950	1
	0.71072190	1.23100644	7.47938850	1
	2.84715620	0.00000000	2.49312950	1
	1.42144380	0.00000000	7.47938850	1
	-1.42357810	2.46570960	2.49312950	1
	-0.71072190	1.23100644	7.47938850	1
	0.71072190	1.23100644	2.49312950	1
	1.42357810	2.46570960	7.47938850	1
%endblock AtomicCoordinatesAndAtomicSpecies
Kgrid_NoTRS  T
%block kgrid_MonkhorstPack
4       0       0       0.0
0       4       0       0.0
0       0       4       0.0
%endblock kgrid_MonkhorstPack
AtomCoorFormatOut Ang
BlockSize 1
#ProcessorY 12
Diag.ParallelOverK   T
Diag.DivideAndConquer F
MeshCutoff   300 Ry
SCF.FreeE.Tolerance 1E-3 eV
SCF.EDM.Tolerance   5E-3 eV
DM.Tolerance  1E-3
DM.Require.Energy.Convergence T
DM.NumberPulay 4
XC.Functional GGA
XC.Authors    PBE
UseSaveData        F
MD.TypeOfRun       CG
MD.VariableCell    F
MD.NumCGsteps      00
MD.MaxCGDispl      0.200000 Bohr
MD.MaxStressTol    1.000000 GPa
MD.MaxForceTol     0.010000 eV/Ang
WriteMDHistory T
WriteCoorStep T
WriteForces T
WriteCoorStep    T
WriteEigenValues T
WriteDM    F
MM.UnitsDistance Ang  # what this program prints out DO NOT CHANGE
MM.UnitsEnergy    eV  # what this program prints out DO NOT CHANGE
MM.Grimme.S6     0.75 # Grimme-paper for PBE (correct for your functional)
MM.Grimme.D     20.   # Grimme-paper (correct for your functional)
%block MM.Potentials
  1   1 Grimme     16.69      1.650 # Li, 10.1002/jcc.20495
  1   2 Grimme     17.40      2.277 # Li / C
  2   2 Grimme     18.14      2.904 # C, 10.1002/jcc.20495
%endblock MM.Potentials
#%block ProjectedDensityOfStates
# -200.0  120.0  0.4  12800  eV
#%endblock ProjectedDensityOfStates
************************** End of input data file *****************************

reinit: -----------------------------------------------------------------------
reinit: System Name: LiC12_scf
reinit: -----------------------------------------------------------------------
reinit: System Label: LiC12_scf
reinit: -----------------------------------------------------------------------
Reading two-body potentials
Grimme - two-body potential between 1 and 1
Grimme - two-body potential between 1 and 2
Grimme - two-body potential between 2 and 2

initatom: Reading input for the pseudopotentials and atomic orbitals ----------
Species number:   1 Atomic number:    3 Label: Li-gga
Species number:   2 Atomic number:    6 Label: C-gga

Ground state valence configuration:   2s01
Reading pseudopotential information in formatted form from Li-gga.psf

Valence configuration for pseudopotential generation:
2s( 1.00) rc: 2.28
2p( 0.00) rc: 2.28
3d( 0.00) rc: 2.59
4f( 0.00) rc: 2.59
Ground state valence configuration:   2s02  2p02
Reading pseudopotential information in formatted form from C-gga.psf

Valence configuration for pseudopotential generation:
2s( 2.00) rc: 1.56
2p( 2.00) rc: 1.56
3d( 0.00) rc: 1.56
4f( 0.00) rc: 1.56
relmxkb: Read Max KB Ang. Momentum=    2 for species C-gga
relmxkb: Read Max KB Ang. Momentum=    2 for species Li-gga

<basis_specs>
===============================================================================
Li-gga               Z=   3    Mass=  6.9400        Charge= 0.17977+309
Lmxo=0 Lmxkb= 2    BasisType=split      Semic=F
L=0  Nsemic=0  Cnfigmx=2
          i=1  nzeta=1  polorb=1  (2s)
            splnorm:   0.15000    
               vcte:    0.0000    
               rinn:    0.0000    
               qcoe:    0.0000    
               qyuk:    0.0000    
               qwid:   0.10000E-01
                rcs:    0.0000    
            lambdas:    1.0000    
-------------------------------------------------------------------------------
L=0  Nkbl=1  erefs: 0.17977+309
L=1  Nkbl=1  erefs: 0.17977+309
L=2  Nkbl=1  erefs: 0.17977+309
===============================================================================
</basis_specs>

atom: Called for Li-gga                (Z =   3)

read_vps: Pseudopotential generation method:
read_vps: ATM 3.2.2 Troullier-Martins                       
Valence charge for ps generation:    1.00000

read_vps: Pseudopotential includes a core correction:
read_vps: Pseudo-core for xc-correction

xc_check: Exchange-correlation functional:
xc_check: GGA Perdew, Burke & Ernzerhof 1996
V l=0 = -2*Zval/r beyond r=  2.2278
V l=1 = -2*Zval/r beyond r=  2.2278
V l=2 = -2*Zval/r beyond r=  2.5245
All V_l potentials equal beyond r=  2.4622
This should be close to max(r_c) in ps generation
All pots = -2*Zval/r beyond r=  2.5245

VLOCAL1: 99.0% of the norm of Vloc inside      7.160 Ry
VLOCAL1: 99.9% of the norm of Vloc inside     16.318 Ry
atom: Maximum radius for 4*pi*r*r*local-pseudopot. charge    2.86079
atom: Maximum radius for r*vlocal+2*Zval:    2.43160
GHOST: No ghost state for L =  0
GHOST: No ghost state for L =  1
GHOST: No ghost state for L =  2

KBgen: Kleinman-Bylander projectors: 
   l= 0   rc=  2.654023   el= -0.211234   Ekb=  1.742119   kbcos=  0.228463
   l= 1   rc=  2.721230   el= -0.080095   Ekb= -1.122375   kbcos= -0.147941
   l= 2   rc=  2.825246   el=  0.002001   Ekb= -0.207076   kbcos= -0.031965

KBgen: Total number of Kleinman-Bylander projectors:    9
atom: -------------------------------------------------------------------------

atom: SANKEY-TYPE ORBITALS:

SPLIT: Orbitals with angular momentum L= 0

SPLIT: Basis orbitals for state 2s

SPLIT: PAO cut-off radius determined from an
SPLIT: energy shift=  0.000735 Ry

   izeta = 1
                 lambda =    1.000000
                     rc =   11.897381
                 energy =   -0.210580
                kinetic =    0.143382
    potential(screened) =   -0.353962
       potential(ionic) =   -0.533453

POLgen: Perturbative polarization orbital with L=  1

POLgen: Polarization orbital for state 2s

   izeta = 1
                     rc =   11.897381
                 energy =   -0.027011
                kinetic =    0.282985
    potential(screened) =   -0.309997
       potential(ionic) =   -0.490997
atom: Total number of Sankey-type orbitals:  4

atm_pop: Valence configuration (for local Pseudopot. screening):
 2s( 1.00)                                                            
Vna: chval, zval:    1.00000   1.00000

Vna:  Cut-off radius for the neutral-atom potential:  11.897381
comcore: Pseudo-core radius Rcore=  3.450946

atom: _________________________________________________________________________

<basis_specs>
===============================================================================
C-gga                Z=   6    Mass=  12.010        Charge= 0.17977+309
Lmxo=1 Lmxkb= 2    BasisType=split      Semic=F
L=0  Nsemic=0  Cnfigmx=2
          i=1  nzeta=1  polorb=0  (2s)
            splnorm:   0.15000    
               vcte:    0.0000    
               rinn:    0.0000    
               qcoe:    0.0000    
               qyuk:    0.0000    
               qwid:   0.10000E-01
                rcs:    0.0000    
            lambdas:    1.0000    
L=1  Nsemic=0  Cnfigmx=2
          i=1  nzeta=1  polorb=1  (2p)
            splnorm:   0.15000    
               vcte:    0.0000    
               rinn:    0.0000    
               qcoe:    0.0000    
               qyuk:    0.0000    
               qwid:   0.10000E-01
                rcs:    0.0000    
            lambdas:    1.0000    
-------------------------------------------------------------------------------
L=0  Nkbl=1  erefs: 0.17977+309
L=1  Nkbl=1  erefs: 0.17977+309
L=2  Nkbl=1  erefs: 0.17977+309
===============================================================================
</basis_specs>

atom: Called for C-gga                 (Z =   6)

read_vps: Pseudopotential generation method:
read_vps: ATM 3.2.2 Troullier-Martins                       
Valence charge for ps generation:    4.00000

xc_check: Exchange-correlation functional:
xc_check: GGA Perdew, Burke & Ernzerhof 1996
V l=0 = -2*Zval/r beyond r=  1.5227
V l=1 = -2*Zval/r beyond r=  1.5227
V l=2 = -2*Zval/r beyond r=  1.5227
All V_l potentials equal beyond r=  1.4851
This should be close to max(r_c) in ps generation
All pots = -2*Zval/r beyond r=  1.5227

VLOCAL1: 99.0% of the norm of Vloc inside     19.682 Ry
VLOCAL1: 99.9% of the norm of Vloc inside     44.856 Ry
atom: Maximum radius for 4*pi*r*r*local-pseudopot. charge    1.79142
atom: Maximum radius for r*vlocal+2*Zval:    1.54183
GHOST: No ghost state for L =  0
GHOST: No ghost state for L =  1
GHOST: No ghost state for L =  2

KBgen: Kleinman-Bylander projectors: 
   l= 0   rc=  1.661951   el= -1.010689   Ekb=  5.289847   kbcos=  0.316429
   l= 1   rc=  1.661951   el= -0.388490   Ekb= -4.102504   kbcos= -0.351025
   l= 2   rc=  1.747182   el=  0.001971   Ekb= -1.006005   kbcos= -0.008530

KBgen: Total number of Kleinman-Bylander projectors:    9
atom: -------------------------------------------------------------------------

atom: SANKEY-TYPE ORBITALS:

SPLIT: Orbitals with angular momentum L= 0

SPLIT: Basis orbitals for state 2s

SPLIT: PAO cut-off radius determined from an
SPLIT: energy shift=  0.000735 Ry

   izeta = 1
                 lambda =    1.000000
                     rc =    5.948690
                 energy =   -1.010099
                kinetic =    0.827121
    potential(screened) =   -1.837220
       potential(ionic) =   -5.392783

SPLIT: Orbitals with angular momentum L= 1

SPLIT: Basis orbitals for state 2p

SPLIT: PAO cut-off radius determined from an
SPLIT: energy shift=  0.000735 Ry

   izeta = 1
                 lambda =    1.000000
                     rc =    7.638387
                 energy =   -0.387843
                kinetic =    2.314739
    potential(screened) =   -2.702582
       potential(ionic) =   -6.092371

POLgen: Perturbative polarization orbital with L=  2

POLgen: Polarization orbital for state 2p

   izeta = 1
                     rc =    7.638387
                 energy =    0.921402
                kinetic =    1.955040
    potential(screened) =   -1.033637
       potential(ionic) =   -3.679558
atom: Total number of Sankey-type orbitals:  9

atm_pop: Valence configuration (for local Pseudopot. screening):
 2s( 2.00)                                                            
 2p( 2.00)                                                            
Vna: chval, zval:    4.00000   4.00000

Vna:  Cut-off radius for the neutral-atom potential:   7.638387

atom: _________________________________________________________________________

prinput: Basis input ----------------------------------------------------------

PAO.BasisType split     

%block ChemicalSpeciesLabel
    1    3 Li-gga                  # Species index, atomic number, species label
    2    6 C-gga                   # Species index, atomic number, species label
%endblock ChemicalSpeciesLabel

%block PAO.Basis                 # Define Basis set
Li-gga                1                    # Species label, number of l-shells
 n=2   0   1 P   1                   # n, l, Nzeta, Polarization, NzetaPol
  11.897   
   1.000   
C-gga                 2                    # Species label, number of l-shells
 n=2   0   1                         # n, l, Nzeta 
   5.949   
   1.000   
 n=2   1   1 P   1                   # n, l, Nzeta, Polarization, NzetaPol
   7.638   
   1.000   
%endblock PAO.Basis

prinput: ----------------------------------------------------------------------

coor:   Atomic-coordinates input format  =     Cartesian coordinates
coor:                                          (in Angstroms)

siesta: Atomic coordinates (Bohr) and species
siesta:      0.00000   0.00000   0.00000  2        1
siesta:      2.68614   0.00000   4.71133  1        2
siesta:      5.38035   0.00000  14.13400  1        3
siesta:     -1.34307   2.32627   4.71133  1        4
siesta:     -2.69017   4.65952  14.13400  1        5
siesta:      2.69017   4.65952   4.71133  1        6
siesta:      1.34307   2.32627  14.13400  1        7
siesta:      5.38035   0.00000   4.71133  1        8
siesta:      2.68614   0.00000  14.13400  1        9
siesta:     -2.69017   4.65952   4.71133  1       10
siesta:     -1.34307   2.32627  14.13400  1       11
siesta:      1.34307   2.32627   4.71133  1       12
siesta:      2.69017   4.65952  14.13400  1       13

siesta: System type = bulk      

initatomlists: Number of atoms, orbitals, and projectors:     13    57   117

siesta: ******************** Simulation parameters ****************************
siesta:
siesta: The following are some of the parameters of the simulation.
siesta: A complete list of the parameters used, including default values,
siesta: can be found in file out.fdf
siesta:
redata: Spin configuration                          = none
redata: Number of spin components                   = 1
redata: Time-Reversal Symmetry                      = T
redata: Spin spiral                                 = F
redata: Long output                                 =   F
redata: Number of Atomic Species                    =        2
redata: Charge density info will appear in .RHO file
redata: Write Mulliken Pop.                         = NO
redata: Matel table size (NRTAB)                    =     1024
redata: Mesh Cutoff                                 =   300.0000 Ry
redata: Net charge of the system                    =     0.0000 |e|
redata: Min. number of SCF Iter                     =        0
redata: Max. number of SCF Iter                     =     1000
redata: SCF convergence failure will abort job
redata: SCF mix quantity                            = Hamiltonian
redata: Mix DM or H after convergence               =   F
redata: Recompute H after scf cycle                 =   F
redata: Mix DM in first SCF step                    =   T
redata: Write Pulay info on disk                    =   F
redata: New DM Occupancy tolerance                  = 0.000000000001
redata: No kicks to SCF
redata: DM Mixing Weight for Kicks                  =     0.5000
redata: Require Harris convergence for SCF          =   F
redata: Harris energy tolerance for SCF             =     0.000100 eV
redata: Require DM convergence for SCF              =   T
redata: DM tolerance for SCF                        =     0.001000
redata: Require EDM convergence for SCF             =   F
redata: EDM tolerance for SCF                       =     0.005000 eV
redata: Require H convergence for SCF               =   T
redata: Hamiltonian tolerance for SCF               =     0.001000 eV
redata: Require (free) Energy convergence for SCF   =   T
redata: (free) Energy tolerance for SCF             =     0.001000 eV
redata: Using Saved Data (generic)                  =   F
redata: Use continuation files for DM               =   F
redata: Neglect nonoverlap interactions             =   F
redata: Method of Calculation                       = Diagonalization
redata: Electronic Temperature                      =   299.9869 K
redata: Fix the spin of the system                  =   F
redata: Dynamics option                             = Single-point calculation
mix.SCF: Pulay mixing                            = Pulay
mix.SCF:    Variant                              = stable
mix.SCF:    History steps                        = 4
mix.SCF:    Linear mixing weight                 =     0.250000
mix.SCF:    Mixing weight                        =     0.250000
mix.SCF:    SVD condition                        = 0.1000E-07
redata: ***********************************************************************

%block SCF.Mixers
  Pulay
%endblock SCF.Mixers

%block SCF.Mixer.Pulay
  # Mixing method
  method pulay
  variant stable

  # Mixing options
  weight 0.2500
  weight.linear 0.2500
  history 4
%endblock SCF.Mixer.Pulay

DM_history_depth set to one: no extrapolation allowed by default for geometry relaxation
Size of DM history Fstack: 1
Total number of electrons:    16.000000
Total ionic charge:    16.000000

* ProcessorY, Blocksize:    3   1


* Orbital distribution balance (max,min):     5     4

k-point displ. along   1 input, could be:     0.00    0.50
k-point displ. along   2 input, could be:     0.00    0.50
k-point displ. along   3 input, could be:     0.00    0.50
 Kpoints in:           48 . Kpoints trimmed:           44

siesta: k-grid: Number of k-points =    44
siesta: k-grid: Cutoff (effective) =     8.537 Ang
siesta: k-grid: Supercell and displacements
siesta: k-grid:    4   0   0      0.000
siesta: k-grid:    0   4   0      0.000
siesta: k-grid:    0   0   4      0.000

diag: Algorithm                                     = Expert
diag: Parallel over k                               =   T
diag: Use parallel 2D distribution                  =   T
diag: Parallel block-size                           = 1
diag: Parallel distribution                         =     3 x     4
diag: Used triangular part                          = Lower
diag: Absolute tolerance                            =  0.100E-15
diag: Orthogonalization factor                      =  0.100E-05
diag: Memory factor                                 =  1.0000

superc: Internal auxiliary supercell:     9 x     9 x     3  =     243
superc: Number of atoms, orbitals, and projectors:   3159  13851  28431


ts: **************************************************************
ts: Save H and S matrices                           =    F
ts: Save DM and EDM matrices                        =    F
ts: Only save the overlap matrix S                  =    F
ts: **************************************************************

************************ Begin: TS CHECKS AND WARNINGS ************************
************************ End: TS CHECKS AND WARNINGS **************************


                     ====================================
                        Single-point calculation
                     ====================================

outcoor: Atomic coordinates (Ang):                          
    0.00000000    0.00000000    0.00000000   2       1  C-gga
    1.42144380    0.00000000    2.49312950   1       2  Li-gga
    2.84715620    0.00000000    7.47938850   1       3  Li-gga
   -0.71072190    1.23100644    2.49312950   1       4  Li-gga
   -1.42357810    2.46570960    7.47938850   1       5  Li-gga
    1.42357810    2.46570960    2.49312950   1       6  Li-gga
    0.71072190    1.23100644    7.47938850   1       7  Li-gga
    2.84715620    0.00000000    2.49312950   1       8  Li-gga
    1.42144380    0.00000000    7.47938850   1       9  Li-gga
   -1.42357810    2.46570960    2.49312950   1      10  Li-gga
   -0.71072190    1.23100644    7.47938850   1      11  Li-gga
    0.71072190    1.23100644    2.49312950   1      12  Li-gga
    1.42357810    2.46570960    7.47938850   1      13  Li-gga

superc: Internal auxiliary supercell:     9 x     9 x     3  =     243
superc: Number of atoms, orbitals, and projectors:   3159  13851  28431

outcell: Unit cell vectors (Ang):
        4.268600    0.000000    0.000000
       -2.134300    3.696716    0.000000
        0.000000    0.000000    9.972518

outcell: Cell vector modules (Ang)   :    4.268600    4.268600    9.972518
outcell: Cell angles (23,13,12) (deg):     90.0000     90.0000    120.0000
outcell: Cell volume (Ang**3)        :    157.3644
<dSpData1D:S at geom step 0
  <sparsity:sparsity for geom step 0
    nrows_g=57 nrows=5 sparsity=5.8704 nnzs=19073, refcount: 7>
  <dData1D:(new from dSpData1D) n=19073, refcount: 1>
refcount: 1>
new_DM -- step:     1
Initializing Density Matrix...
DM filled with atomic data:
<dSpData2D:DM initialized from atoms
  <sparsity:sparsity for geom step 0
    nrows_g=57 nrows=5 sparsity=5.8704 nnzs=19073, refcount: 8>
  <dData2D:DM n=19073 m=1, refcount: 1>
refcount: 1>
No. of atoms with KB's overlaping orbs in proc 0. Max # of overlaps:     284     648
New grid distribution:   1
           1       1:   20    1:    7    1:   14
           2       1:   20    1:    7   15:   28
           3       1:   20    1:    7   29:   41
           4       1:   20    1:    7   42:   54
           5       1:   20    8:   14    1:   14
           6       1:   20    8:   14   15:   28
           7       1:   20    8:   14   29:   41
           8       1:   20    8:   14   42:   54
           9       1:   20   15:   20    1:   14
          10       1:   20   15:   20   15:   28
          11       1:   20   15:   20   29:   41
          12       1:   20   15:   20   42:   54

InitMesh: MESH =    40 x    40 x   108 =      172800
InitMesh: (bp) =    20 x    20 x    54 =       21600
InitMesh: Mesh cutoff (required, used) =   300.000   323.586 Ry
ExtMesh (bp) on 0 =   160 x   147 x   154 =     3622080
New grid distribution:   2
           1       1:   20    1:    7    1:   13
           2       1:   10    8:   20    1:   13
           3       1:   20    1:    7   28:   41
           4       1:   20    1:    7   42:   54
           5       1:   20    1:    7   14:   27
           6       1:   10    8:   20   14:   27
           7      11:   20    8:   20   28:   41
           8      11:   20    8:   20   42:   54
           9      11:   20    8:   20    1:   13
          10      11:   20    8:   20   14:   27
          11       1:   10    8:   20   28:   41
          12       1:   10    8:   20   42:   54
New grid distribution:   3
           1       1:   10    8:   20   15:   27
           2       1:   20    1:    7   15:   27
           3       1:   20    1:    7   28:   41
           4       1:   20    1:    7   42:   54
           5       1:   20    1:    7    1:   14
           6       1:   10    8:   20    1:   14
           7      11:   20    8:   20   28:   41
           8       1:   10    8:   20   42:   54
           9      11:   20    8:   20    1:   14
          10      11:   20    8:   20   15:   27
          11       1:   10    8:   20   28:   41
          12      11:   20    8:   20   42:   54
Setting up quadratic distribution...
ExtMesh (bp) on 0 =   160 x   147 x   153 =     3598560
PhiOnMesh: Number of (b)points on node 0 =                 1820
PhiOnMesh: nlist on node 0 =               645427

stepf: Fermi-Dirac step function

siesta: Program's energy decomposition (eV):
siesta: Ebs     =      -226.868930
siesta: Eions   =       380.620085
siesta: Ena     =       124.948528
siesta: Ekin    =       127.256015
siesta: Enl     =        41.839570
siesta: Eso     =         0.000000
siesta: Edftu   =         0.000000
siesta: DEna    =        16.594177
siesta: DUscf   =        20.981493
siesta: DUext   =         0.000000
siesta: Exc     =      -143.053383
siesta: eta*DQ  =         0.000000
siesta: Emadel  =         0.000000
siesta: Emeta   =         0.000000
siesta: Emolmec =        -4.949740
siesta: Ekinion =         0.000000
siesta: Eharris =      -160.748408
siesta: Etot    =      -197.003424
siesta: FreeEng =      -197.015442

        iscf     Eharris(eV)        E_KS(eV)     FreeEng(eV)     dDmax    Ef(eV) dHmax(eV)
   scf:    1     -160.748408     -197.003424     -197.015442  1.418482 -9.779025 18.066313
timer: Routine,Calls,Time,% = IterSCF        1       6.381  49.96
   scf:    2       40.777249     -143.743295     -143.770289  1.473818-11.031546 37.316476
   scf:    3     -207.316206     -210.361003     -210.387044  1.165199-10.348827  2.481345
   scf:    4     -102.599034     -176.479383     -176.522799  1.263451-10.688041 27.755302
   scf:    5     -212.046788     -210.999250     -211.031151  1.130296-10.457185  0.262403
   scf:    6     -211.014059     -211.011324     -211.042520  0.024542-10.459197  0.170247
   scf:    7     -211.009794     -211.012343     -211.043943  0.017721-10.440479  0.160709
   scf:    8     -211.014094     -211.013940     -211.045226  0.005790-10.441128  0.014448
   scf:    9     -211.014185     -211.014118     -211.045317  0.002491-10.442574  0.029938
   scf:   10     -211.014137     -211.014129     -211.045336  0.000361-10.442520  0.022454
   scf:   11     -211.014119     -211.014135     -211.045361  0.001433-10.442344  0.002931
   scf:   12     -211.014140     -211.014138     -211.045361  0.000061-10.442275  0.001748
   scf:   13     -211.014141     -211.014139     -211.045361  0.000103-10.442248  0.000217

SCF Convergence by FreeE+DM+H criterion
|FreeE_i-FreeE_(i-1)| (eV) <     0.00100000
max |DM_out - DM_in|         :     0.0001034991
max |H_out - H_in|      (eV) :     0.0002167796
SCF cycle converged after 13 iterations

Using DM_out to compute the final energy and forces
No. of atoms with KB's overlaping orbs in proc 0. Max # of overlaps:     284     648

MM-Stress (kbar):        6.03        6.03       21.35       -0.00       -0.00        0.00

siesta: E_KS(eV) =             -211.0141

siesta: E_KS - E_eggbox =      -211.0141

siesta: Atomic forces (eV/Ang):
     1   -0.000000   -0.000000   -0.000000
     2    0.043587   -0.000006   -0.355065
     3   -0.043587    0.000006    0.355065
     4   -0.021798    0.037744   -0.355065
     5    0.021798   -0.037744    0.355065
     6   -0.021816   -0.037787   -0.355128
     7    0.021816    0.037787    0.355128
     8   -0.043587    0.000006   -0.355065
     9    0.043587   -0.000006    0.355065
    10    0.021798   -0.037744   -0.355065
    11   -0.021798    0.037744    0.355065
    12    0.021816    0.037787   -0.355128
    13   -0.021816   -0.037787    0.355128
----------------------------------------
   Tot    0.000000    0.000000    0.000000
----------------------------------------
   Max    0.355128
   Res    0.198446    sqrt( Sum f_i^2 / 3N )
----------------------------------------
   Max    0.355128    constrained

Stress tensor Voigt[x,y,z,yz,xz,xy] (kbar):     -890.38     -890.39      229.54       -0.00       -0.00       -0.00
(Free)E + p*V (eV/cell)     -160.2590
Target enthalpy (eV/cell)     -211.0454

siesta: Eigenvalues (eV):
  ik is       eps
   1  1  -19.1733  -13.4126  -12.2138  -11.6045  -11.5401  -11.2336  -11.1806  -10.4043  -10.1973  -10.1294
          -7.8500   -7.6995   -6.3567   -6.3251   -5.7738   -4.4473   -3.3686   -3.2209   -3.1333   -2.7614
    0.6075    1.5681    2.3665    2.4090    2.5050    2.7407    2.9621    3.0324    4.5968    5.4399
    8.1873    8.2632   11.5995   11.6997   12.4969   12.7688   13.0646   15.1360   15.6782   16.4968
   17.6928   19.7506   20.7540   21.3352   22.6886   22.9183   23.5051   24.3938   24.5901   28.1208
   29.3667   39.4697   44.3654   47.8830   48.1183   48.5645   48.8127
   2  1  -19.2965  -13.6931  -12.2288  -11.6767  -11.5072  -10.9810  -10.9802  -10.7803  -10.4249  -10.3297
          -8.6851   -7.4923   -4.9566   -4.4078   -4.3803   -4.3379   -3.2794   -3.1083   -2.7486   -2.2138
   -1.3487   -1.2362   -0.9425   -0.6361   -0.3542   -0.3010    3.5509    5.1776    5.3129   10.9447
   11.1107   11.5802   11.8603   11.8741   13.0281   13.1801   14.4790   15.1975   15.6052   17.6710
   17.8769   20.4366   23.2029   23.4629   24.6371   26.3456   26.4174   27.1056   30.2012   35.5419
   36.4637   48.3375   49.0569   50.5954   52.2581   53.0897   53.2146
   3  1  -19.2965  -13.6931  -12.2288  -11.6767  -11.5072  -10.9810  -10.9802  -10.7803  -10.4249  -10.3298
          -8.6851   -7.4923   -4.9565   -4.4078   -4.3803   -4.3379   -3.2794   -3.1083   -2.7486   -2.2138
   -1.3487   -1.2362   -0.9426   -0.6361   -0.3542   -0.3010    3.5509    5.1776    5.3129   10.9447
   11.1108   11.5802   11.8603   11.8741   13.0280   13.1800   14.4790   15.1975   15.6052   17.6711
   17.8768   20.4367   23.2029   23.4631   24.6370   26.3456   26.4174   27.1056   30.2012   35.5419
   36.4637   48.3376   49.0570   50.5953   52.2581   53.0897   53.2145
   4  1  -19.1733  -13.4126  -12.2138  -11.6045  -11.5401  -11.2336  -11.1806  -10.4043  -10.1974  -10.1294
          -7.8501   -7.6994   -6.3567   -6.3251   -5.7738   -4.4473   -3.3686   -3.2209   -3.1333   -2.7614
    0.6075    1.5681    2.3665    2.4090    2.5050    2.7407    2.9621    3.0324    4.5968    5.4399
    8.1873    8.2632   11.5995   11.6997   12.4969   12.7689   13.0646   15.1360   15.6782   16.4968
   17.6929   19.7505   20.7540   21.3352   22.6886   22.9183   23.5050   24.3937   24.5900   28.1208
   29.3667   39.4696   44.3653   47.8831   48.1184   48.5646   48.8127
   5  1  -19.2965  -13.6931  -12.2288  -11.6767  -11.5072  -10.9810  -10.9802  -10.7803  -10.4249  -10.3297
          -8.6851   -7.4923   -4.9566   -4.4078   -4.3803   -4.3379   -3.2794   -3.1083   -2.7486   -2.2138
   -1.3487   -1.2362   -0.9425   -0.6361   -0.3542   -0.3010    3.5509    5.1776    5.3129   10.9447
   11.1107   11.5802   11.8603   11.8741   13.0281   13.1801   14.4790   15.1975   15.6052   17.6710
   17.8769   20.4366   23.2029   23.4629   24.6371   26.3456   26.4174   27.1056   30.2012   35.5419
   36.4637   48.3375   49.0569   50.5954   52.2581   53.0897   53.2146
   6  1  -19.3967  -13.7144  -12.2972  -11.6376  -11.2997  -10.9033  -10.8220  -10.5856  -10.1821  -10.1820
          -9.6176   -7.0482   -3.5806   -3.5806   -3.3400   -3.3400   -3.0281   -3.0281   -2.9446   -2.9446
   -0.9003   -0.9003   -0.6270   -0.6270   -0.1267   -0.1267    0.9161    0.9161    5.3537   11.5030
   11.5031   16.9955   16.9956   17.7037   17.7038   19.3270   19.3270   20.6001   20.6001   24.5771
   24.5771   24.7192   24.7195   25.3702   25.6604   29.6248   29.6248   35.4262   39.7747   39.7748
   40.0590   40.0590   48.2575   48.4550   49.7678   50.1155   58.3472
   7  1  -19.1742  -13.4588  -12.4113  -11.8562  -11.4483  -11.0131  -10.9566  -10.5462  -10.4661  -10.0380
          -8.3432   -7.6549   -7.0488   -5.8485   -4.7802   -4.7365   -3.4411   -2.9308   -2.4099   -0.9624
   -0.3725    0.2835    0.3195    0.9367    2.0502    2.1975    2.7110    2.7793    2.9358    4.3392
    9.6329   10.1764   11.2940   12.3281   14.0210   14.2253   14.7287   15.2041   15.8611   17.0931
   19.2690   19.4575   19.9522   20.1809   20.8748   23.7798   25.6251   25.6540   26.2046   27.6188
   32.9339   53.6508   53.6868   54.5432   54.7087   55.0438   56.4669
   8  1  -19.1733  -13.4126  -12.2138  -11.6045  -11.5401  -11.2336  -11.1806  -10.4043  -10.1974  -10.1294
          -7.8501   -7.6994   -6.3567   -6.3251   -5.7738   -4.4473   -3.3686   -3.2209   -3.1333   -2.7614
    0.6075    1.5681    2.3665    2.4090    2.5050    2.7407    2.9621    3.0324    4.5968    5.4399
    8.1873    8.2632   11.5995   11.6997   12.4969   12.7689   13.0646   15.1360   15.6782   16.4968
   17.6929   19.7505   20.7540   21.3352   22.6886   22.9183   23.5050   24.3937   24.5900   28.1208
   29.3667   39.4696   44.3653   47.8831   48.1184   48.5646   48.8127
   9  1  -19.1733  -13.4126  -12.2138  -11.6045  -11.5401  -11.2336  -11.1806  -10.4043  -10.1974  -10.1294
          -7.8501   -7.6994   -6.3567   -6.3251   -5.7738   -4.4473   -3.3686   -3.2209   -3.1333   -2.7614
    0.6075    1.5681    2.3665    2.4090    2.5050    2.7407    2.9621    3.0324    4.5968    5.4399
    8.1873    8.2632   11.5995   11.6997   12.4969   12.7689   13.0646   15.1360   15.6782   16.4968
   17.6929   19.7505   20.7540   21.3352   22.6886   22.9183   23.5050   24.3937   24.5900   28.1208
   29.3667   39.4696   44.3653   47.8831   48.1184   48.5646   48.8127
  10  1  -19.1742  -13.4588  -12.4113  -11.8562  -11.4483  -11.0131  -10.9566  -10.5462  -10.4661  -10.0380
          -8.3432   -7.6549   -7.0488   -5.8485   -4.7802   -4.7365   -3.4411   -2.9308   -2.4099   -0.9624
   -0.3725    0.2835    0.3195    0.9367    2.0502    2.1975    2.7110    2.7793    2.9358    4.3392
    9.6329   10.1764   11.2940   12.3281   14.0210   14.2253   14.7287   15.2041   15.8611   17.0931
   19.2690   19.4575   19.9522   20.1809   20.8748   23.7798   25.6251   25.6540   26.2046   27.6188
   32.9339   53.6508   53.6868   54.5432   54.7087   55.0438   56.4669
  11  1  -19.1733  -13.4126  -12.2138  -11.6045  -11.5401  -11.2336  -11.1806  -10.4043  -10.1974  -10.1294
          -7.8501   -7.6994   -6.3567   -6.3251   -5.7738   -4.4473   -3.3686   -3.2209   -3.1333   -2.7614
    0.6075    1.5681    2.3665    2.4090    2.5050    2.7407    2.9621    3.0324    4.5968    5.4399
    8.1873    8.2632   11.5995   11.6997   12.4969   12.7689   13.0646   15.1360   15.6782   16.4968
   17.6929   19.7505   20.7540   21.3352   22.6886   22.9183   23.5050   24.3937   24.5900   28.1208
   29.3667   39.4696   44.3653   47.8831   48.1184   48.5646   48.8127
  12  1  -19.1742  -13.4588  -12.4113  -11.8562  -11.4483  -11.0131  -10.9566  -10.5462  -10.4662  -10.0380
          -8.3432   -7.6549   -7.0487   -5.8485   -4.7802   -4.7365   -3.4411   -2.9308   -2.4100   -0.9624
   -0.3725    0.2835    0.3195    0.9367    2.0502    2.1975    2.7110    2.7793    2.9358    4.3392
    9.6331   10.1763   11.2940   12.3280   14.0210   14.2253   14.7287   15.2040   15.8611   17.0931
   19.2690   19.4575   19.9523   20.1809   20.8747   23.7798   25.6251   25.6540   26.2046   27.6187
   32.9339   53.6507   53.6867   54.5432   54.7087   55.0439   56.4671
  13  1  -19.1734  -13.4122  -12.2302  -11.6097  -11.5517  -11.2759  -11.1563  -10.4239  -10.2151  -10.1047
          -7.9886   -7.4022   -6.6322   -5.9577   -5.5339   -4.6246   -3.4775   -3.2949   -3.0796   -2.7160
    0.7702    1.4819    2.4257    2.5025    2.6420    2.7674    2.8990    3.1244    4.1352    4.6972
    8.2283    8.3132   11.2451   12.4557   12.7938   13.0265   13.3493   15.2329   15.9234   16.3057
   17.7688   18.7520   21.1255   21.5005   22.6669   22.8627   23.3532   24.5178   24.6667   28.1138
   29.5211   40.2109   43.6667   48.0363   48.2764   48.5209   48.7679
  14  1  -19.2976  -13.7059  -12.2572  -11.7036  -11.5049  -10.9821  -10.9451  -10.7442  -10.4201  -10.3314
          -8.4932   -7.5417   -4.8970   -4.5526   -4.4134   -4.0910   -3.3615   -3.0455   -2.8986   -2.1211
   -1.2618   -1.2603   -0.9141   -0.6403   -0.5154   -0.3102    3.6881    4.7779    6.5287   10.6088
   11.4883   11.7398   11.8153   12.0771   13.4809   13.5302   14.2386   14.8412   14.8640   17.8058
   18.8673   19.8993   22.2586   23.7610   25.1240   26.0723   26.4981   27.0460   29.9060   35.3874
   36.0418   48.4165   48.9275   50.8426   52.2766   52.7218   52.9110
  15  1  -19.2976  -13.7059  -12.2572  -11.7036  -11.5049  -10.9821  -10.9451  -10.7442  -10.4201  -10.3314
          -8.4932   -7.5417   -4.8969   -4.5526   -4.4134   -4.0910   -3.3615   -3.0454   -2.8986   -2.1211
   -1.2618   -1.2603   -0.9141   -0.6403   -0.5154   -0.3102    3.6881    4.7779    6.5287   10.6088
   11.4884   11.7397   11.8153   12.0772   13.4809   13.5302   14.2386   14.8412   14.8639   17.8059
   18.8671   19.8994   22.2585   23.7611   25.1239   26.0723   26.4981   27.0460   29.9059   35.3873
   36.0418   48.4166   48.9276   50.8425   52.2766   52.7217   52.9110
  16  1  -19.1734  -13.4122  -12.2302  -11.6097  -11.5517  -11.2759  -11.1563  -10.4239  -10.2152  -10.1047
          -7.9886   -7.4021   -6.6322   -5.9577   -5.5339   -4.6246   -3.4775   -3.2949   -3.0796   -2.7161
    0.7702    1.4819    2.4257    2.5025    2.6420    2.7674    2.8990    3.1244    4.1352    4.6972
    8.2283    8.3132   11.2451   12.4557   12.7939   13.0265   13.3494   15.2329   15.9234   16.3057
   17.7688   18.7519   21.1255   21.5004   22.6668   22.8627   23.3531   24.5177   24.6667   28.1138
   29.5211   40.2108   43.6666   48.0364   48.2764   48.5209   48.7680
  17  1  -19.2976  -13.7059  -12.2572  -11.7036  -11.5049  -10.9821  -10.9451  -10.7442  -10.4201  -10.3314
          -8.4932   -7.5417   -4.8970   -4.5526   -4.4134   -4.0910   -3.3615   -3.0455   -2.8986   -2.1211
   -1.2618   -1.2603   -0.9141   -0.6403   -0.5154   -0.3102    3.6881    4.7779    6.5287   10.6088
   11.4883   11.7398   11.8153   12.0771   13.4809   13.5302   14.2386   14.8412   14.8640   17.8058
   18.8673   19.8993   22.2586   23.7610   25.1240   26.0723   26.4981   27.0460   29.9060   35.3874
   36.0418   48.4165   48.9275   50.8426   52.2766   52.7218   52.9110
  18  1  -19.4009  -13.7112  -12.1951  -11.6775  -11.2542  -10.8871  -10.7884  -10.6207  -10.1831  -10.1829
          -9.4101   -7.1271   -3.5111   -3.5111   -3.4690   -3.4689   -3.0497   -3.0497   -2.8401   -2.8401
   -0.7981   -0.7981   -0.7689   -0.7689   -0.2278   -0.2278    1.0520    1.0520    5.6290   12.1050
   12.1051   15.5990   15.5990   19.1808   19.1809   19.2103   19.2103   20.4613   20.4613   23.9016
   23.9016   25.3854   25.4755   25.4757   25.5730   29.3582   29.3582   37.4074   39.3342   39.3343
   40.8027   40.8028   48.6081   48.8322   49.6768   50.0013   51.8734
  19  1  -19.2976  -13.7059  -12.2572  -11.7036  -11.5049  -10.9821  -10.9451  -10.7442  -10.4201  -10.3314
          -8.4932   -7.5417   -4.8970   -4.5526   -4.4134   -4.0910   -3.3615   -3.0455   -2.8986   -2.1211
   -1.2618   -1.2603   -0.9141   -0.6403   -0.5154   -0.3102    3.6881    4.7779    6.5287   10.6088
   11.4883   11.7398   11.8153   12.0771   13.4809   13.5302   14.2386   14.8412   14.8640   17.8058
   18.8673   19.8993   22.2586   23.7610   25.1240   26.0723   26.4981   27.0460   29.9060   35.3874
   36.0418   48.4165   48.9275   50.8426   52.2766   52.7218   52.9110
  20  1  -19.1745  -13.4529  -12.4276  -11.8474  -11.5171  -11.0230  -10.9337  -10.5884  -10.4681  -10.0253
          -8.4465   -7.4230   -6.7636   -6.0430   -4.9619   -4.4529   -3.5832   -2.7019   -2.3380   -1.3138
   -0.3180    0.1941    0.4341    0.8145    2.1945    2.2838    2.6676    2.8296    3.0374    4.1374
   10.2003   10.7860   11.1765   12.9096   13.1570   14.3759   14.9712   15.2731   16.1421   16.7162
   17.5148   18.1892   18.9816   20.1463   22.9145   24.2155   25.0219   26.0473   26.1197   27.6298
   32.5852   53.7867   53.8241   54.4350   54.5463   55.1961   56.2037
  21  1  -19.2976  -13.7059  -12.2572  -11.7036  -11.5049  -10.9821  -10.9451  -10.7442  -10.4201  -10.3314
          -8.4932   -7.5417   -4.8969   -4.5526   -4.4134   -4.0910   -3.3615   -3.0454   -2.8986   -2.1211
   -1.2618   -1.2603   -0.9141   -0.6403   -0.5154   -0.3102    3.6881    4.7779    6.5287   10.6088
   11.4884   11.7397   11.8153   12.0772   13.4809   13.5302   14.2386   14.8412   14.8639   17.8059
   18.8671   19.8994   22.2585   23.7611   25.1239   26.0723   26.4981   27.0460   29.9059   35.3873
   36.0418   48.4166   48.9276   50.8425   52.2766   52.7217   52.9110
  22  1  -19.2976  -13.7059  -12.2572  -11.7036  -11.5049  -10.9821  -10.9451  -10.7442  -10.4201  -10.3314
          -8.4932   -7.5417   -4.8970   -4.5526   -4.4134   -4.0910   -3.3615   -3.0455   -2.8986   -2.1211
   -1.2618   -1.2603   -0.9141   -0.6403   -0.5154   -0.3102    3.6881    4.7779    6.5287   10.6088
   11.4883   11.7398   11.8153   12.0771   13.4809   13.5302   14.2386   14.8412   14.8640   17.8058
   18.8673   19.8993   22.2586   23.7610   25.1240   26.0723   26.4981   27.0460   29.9060   35.3874
   36.0418   48.4165   48.9275   50.8426   52.2766   52.7218   52.9110
  23  1  -19.1734  -13.4122  -12.2302  -11.6097  -11.5517  -11.2759  -11.1563  -10.4239  -10.2151  -10.1047
          -7.9886   -7.4022   -6.6322   -5.9577   -5.5339   -4.6246   -3.4775   -3.2949   -3.0796   -2.7160
    0.7702    1.4819    2.4257    2.5025    2.6420    2.7674    2.8990    3.1244    4.1352    4.6972
    8.2283    8.3132   11.2451   12.4557   12.7938   13.0265   13.3493   15.2329   15.9234   16.3057
   17.7688   18.7520   21.1255   21.5005   22.6669   22.8627   23.3532   24.5178   24.6667   28.1138
   29.5211   40.2109   43.6667   48.0363   48.2764   48.5209   48.7679
  24  1  -19.1734  -13.4122  -12.2302  -11.6097  -11.5517  -11.2759  -11.1563  -10.4239  -10.2152  -10.1047
          -7.9886   -7.4021   -6.6322   -5.9577   -5.5339   -4.6246   -3.4775   -3.2949   -3.0796   -2.7161
    0.7702    1.4819    2.4257    2.5025    2.6420    2.7674    2.8990    3.1244    4.1352    4.6972
    8.2283    8.3132   11.2451   12.4557   12.7939   13.0265   13.3494   15.2329   15.9234   16.3057
   17.7688   18.7519   21.1255   21.5004   22.6668   22.8627   23.3531   24.5177   24.6667   28.1138
   29.5211   40.2108   43.6666   48.0364   48.2764   48.5209   48.7680
  25  1  -19.1734  -13.4122  -12.2302  -11.6097  -11.5517  -11.2759  -11.1563  -10.4239  -10.2152  -10.1047
          -7.9886   -7.4021   -6.6322   -5.9577   -5.5339   -4.6246   -3.4775   -3.2949   -3.0796   -2.7161
    0.7702    1.4819    2.4257    2.5025    2.6420    2.7674    2.8990    3.1244    4.1352    4.6972
    8.2283    8.3132   11.2451   12.4557   12.7939   13.0265   13.3494   15.2329   15.9234   16.3057
   17.7688   18.7519   21.1255   21.5004   22.6668   22.8627   23.3531   24.5177   24.6667   28.1138
   29.5211   40.2108   43.6666   48.0364   48.2764   48.5209   48.7680
  26  1  -19.1745  -13.4529  -12.4276  -11.8474  -11.5171  -11.0230  -10.9337  -10.5884  -10.4681  -10.0253
          -8.4465   -7.4230   -6.7636   -6.0430   -4.9619   -4.4529   -3.5832   -2.7019   -2.3380   -1.3138
   -0.3180    0.1941    0.4341    0.8145    2.1945    2.2838    2.6676    2.8296    3.0374    4.1374
   10.2003   10.7860   11.1765   12.9096   13.1570   14.3759   14.9712   15.2731   16.1421   16.7162
   17.5148   18.1892   18.9816   20.1463   22.9145   24.2155   25.0219   26.0473   26.1197   27.6298
   32.5852   53.7867   53.8241   54.4350   54.5463   55.1961   56.2037
  27  1  -19.1734  -13.4122  -12.2302  -11.6097  -11.5517  -11.2759  -11.1563  -10.4239  -10.2152  -10.1047
          -7.9886   -7.4021   -6.6322   -5.9577   -5.5339   -4.6246   -3.4775   -3.2949   -3.0796   -2.7161
    0.7702    1.4819    2.4257    2.5025    2.6420    2.7674    2.8990    3.1244    4.1352    4.6972
    8.2283    8.3132   11.2451   12.4557   12.7939   13.0265   13.3494   15.2329   15.9234   16.3057
   17.7688   18.7519   21.1255   21.5004   22.6668   22.8627   23.3531   24.5177   24.6667   28.1138
   29.5211   40.2108   43.6666   48.0364   48.2764   48.5209   48.7680
  28  1  -19.1745  -13.4529  -12.4276  -11.8474  -11.5171  -11.0230  -10.9337  -10.5884  -10.4682  -10.0253
          -8.4465   -7.4230   -6.7635   -6.0430   -4.9619   -4.4529   -3.5832   -2.7019   -2.3380   -1.3138
   -0.3180    0.1941    0.4341    0.8145    2.1945    2.2838    2.6675    2.8296    3.0374    4.1374
   10.2005   10.7859   11.1765   12.9096   13.1570   14.3759   14.9712   15.2731   16.1420   16.7162
   17.5148   18.1891   18.9817   20.1464   22.9143   24.2155   25.0218   26.0473   26.1197   27.6297
   32.5852   53.7867   53.8240   54.4350   54.5462   55.1963   56.2039
  29  1  -19.1735  -13.4118  -12.2396  -11.6205  -11.5627  -11.3030  -11.1319  -10.4321  -10.2333  -10.1041
          -8.0425   -7.1985   -6.7299   -5.7640   -5.0573   -5.0447   -3.5845   -3.3515   -3.0473   -2.6790
    1.0707    1.2485    2.5697    2.5981    2.6908    2.7052    3.1995    3.3416    3.6394    3.7293
    8.2675    8.3641   11.0299   12.6893   12.8293   13.5020   13.7268   15.6027   15.9048   16.5630
   17.6784   18.2872   20.6959   22.0791   22.0807   23.0337   23.2634   24.6602   24.7530   28.1050
   29.6727   41.9205   41.9996   48.3161   48.3508   48.5686   48.5887
  30  1  -19.2988  -13.7182  -12.2606  -11.7306  -11.5109  -10.9790  -10.9177  -10.7303  -10.4219  -10.3330
          -8.2628   -7.6399   -4.8525   -4.6204   -4.3912   -3.9278   -3.4383   -3.0478   -2.9998   -2.0486
   -1.2835   -1.0293   -0.9444   -0.8878   -0.4796   -0.3599    4.0361    4.1971    7.8433   10.1053
   11.6474   11.6997   11.8810   13.0807   13.3546   13.4344   14.2038   14.3664   14.9291   18.0067
   19.3553   19.6096   21.4044   24.0121   25.4176   25.7801   26.5936   26.9812   29.5791   35.2994
   35.5743   48.6098   48.6839   51.4826   51.8938   52.4660   52.4869
  31  1  -19.2988  -13.7182  -12.2606  -11.7306  -11.5109  -10.9790  -10.9177  -10.7303  -10.4219  -10.3331
          -8.2628   -7.6399   -4.8524   -4.6204   -4.3911   -3.9278   -3.4383   -3.0478   -2.9998   -2.0486
   -1.2835   -1.0293   -0.9444   -0.8878   -0.4796   -0.3599    4.0361    4.1971    7.8433   10.1053
   11.6474   11.6997   11.8811   13.0807   13.3547   13.4344   14.2038   14.3664   14.9290   18.0068
   19.3553   19.6094   21.4044   24.0122   25.4174   25.7801   26.5936   26.9812   29.5791   35.2994
   35.5742   48.6099   48.6839   51.4825   51.8937   52.4660   52.4869
  32  1  -19.1735  -13.4118  -12.2396  -11.6205  -11.5627  -11.3030  -11.1319  -10.4321  -10.2333  -10.1041
          -8.0425   -7.1984   -6.7299   -5.7640   -5.0573   -5.0447   -3.5845   -3.3515   -3.0473   -2.6791
    1.0707    1.2485    2.5697    2.5981    2.6908    2.7052    3.1995    3.3416    3.6394    3.7293
    8.2675    8.3641   11.0299   12.6893   12.8292   13.5021   13.7267   15.6027   15.9048   16.5631
   17.6784   18.2873   20.6959   22.0791   22.0807   23.0338   23.2634   24.6601   24.7530   28.1050
   29.6727   41.9204   41.9996   48.3162   48.3508   48.5687   48.5887
  33  1  -19.2988  -13.7182  -12.2606  -11.7306  -11.5109  -10.9790  -10.9177  -10.7303  -10.4219  -10.3330
          -8.2628   -7.6399   -4.8525   -4.6204   -4.3912   -3.9278   -3.4383   -3.0478   -2.9998   -2.0486
   -1.2835   -1.0293   -0.9444   -0.8878   -0.4796   -0.3599    4.0361    4.1971    7.8433   10.1053
   11.6474   11.6997   11.8810   13.0807   13.3546   13.4344   14.2038   14.3664   14.9291   18.0067
   19.3553   19.6096   21.4044   24.0121   25.4176   25.7801   26.5936   26.9812   29.5791   35.2994
   35.5743   48.6098   48.6839   51.4826   51.8938   52.4660   52.4869
  34  1  -19.4037  -13.7154  -12.0028  -11.8428  -11.1946  -10.9154  -10.7144  -10.6962  -10.1840  -10.1839
          -9.1799   -7.2290   -3.5467   -3.5467   -3.3838   -3.3837   -3.2108   -3.2108   -2.6964   -2.6963
   -0.9043   -0.9043   -0.6436   -0.6436   -0.3824   -0.3824    1.1761    1.1762    5.8392   12.9196
   12.9198   14.8982   14.8983   17.8712   17.8712   19.9784   19.9785   22.2226   22.2227   22.6435
   22.6435   25.4457   25.4503   25.9051   25.9053   29.0740   29.0740   39.1938   39.1939   41.2426
   41.2426   42.7702   43.3179   49.1948   49.3502   49.5386   49.5574
  35  1  -19.2988  -13.7182  -12.2606  -11.7306  -11.5109  -10.9790  -10.9177  -10.7303  -10.4219  -10.3330
          -8.2628   -7.6399   -4.8525   -4.6204   -4.3912   -3.9278   -3.4383   -3.0478   -2.9998   -2.0486
   -1.2835   -1.0293   -0.9444   -0.8878   -0.4796   -0.3599    4.0361    4.1971    7.8433   10.1053
   11.6474   11.6997   11.8810   13.0807   13.3546   13.4344   14.2038   14.3664   14.9291   18.0067
   19.3553   19.6096   21.4044   24.0121   25.4176   25.7801   26.5936   26.9812   29.5791   35.2994
   35.5743   48.6098   48.6839   51.4826   51.8938   52.4660   52.4869
  36  1  -19.1747  -13.4470  -12.4395  -11.8444  -11.5677  -11.0257  -10.9238  -10.6124  -10.4701  -10.0266
          -8.5252   -7.1156   -6.5320   -6.3128   -5.0317   -4.2209   -3.7779   -2.2735   -2.2217   -1.9108
   -0.2373    0.1560    0.4911    0.6677    2.3989    2.4568    2.5944    2.6047    3.5966    3.6334
   10.7549   11.0297   11.7580   12.3033   14.3253   15.2783   15.2847   15.2896   15.4215   15.5876
   15.8329   17.2625   18.6224   20.2351   23.8960   24.5181   24.6144   25.9865   26.1870   27.6419
   32.2424   54.0810   54.1598   54.1688   54.1869   55.6407   55.6472
  37  1  -19.2988  -13.7182  -12.2606  -11.7306  -11.5109  -10.9790  -10.9177  -10.7303  -10.4219  -10.3331
          -8.2628   -7.6399   -4.8524   -4.6204   -4.3911   -3.9278   -3.4383   -3.0478   -2.9998   -2.0486
   -1.2835   -1.0293   -0.9444   -0.8878   -0.4796   -0.3599    4.0361    4.1971    7.8433   10.1053
   11.6474   11.6997   11.8811   13.0807   13.3547   13.4344   14.2038   14.3664   14.9290   18.0068
   19.3553   19.6094   21.4044   24.0122   25.4174   25.7801   26.5936   26.9812   29.5791   35.2994
   35.5742   48.6099   48.6839   51.4825   51.8937   52.4660   52.4869
  38  1  -19.2988  -13.7182  -12.2606  -11.7306  -11.5109  -10.9790  -10.9177  -10.7303  -10.4219  -10.3330
          -8.2628   -7.6399   -4.8525   -4.6204   -4.3912   -3.9278   -3.4383   -3.0478   -2.9998   -2.0486
   -1.2835   -1.0293   -0.9444   -0.8878   -0.4796   -0.3599    4.0361    4.1971    7.8433   10.1053
   11.6474   11.6997   11.8810   13.0807   13.3546   13.4344   14.2038   14.3664   14.9291   18.0067
   19.3553   19.6096   21.4044   24.0121   25.4176   25.7801   26.5936   26.9812   29.5791   35.2994
   35.5743   48.6098   48.6839   51.4826   51.8938   52.4660   52.4869
  39  1  -19.1735  -13.4118  -12.2396  -11.6205  -11.5627  -11.3030  -11.1319  -10.4321  -10.2333  -10.1041
          -8.0425   -7.1985   -6.7299   -5.7640   -5.0573   -5.0447   -3.5845   -3.3515   -3.0473   -2.6790
    1.0707    1.2485    2.5697    2.5981    2.6908    2.7052    3.1995    3.3416    3.6394    3.7293
    8.2675    8.3641   11.0299   12.6893   12.8293   13.5020   13.7268   15.6027   15.9048   16.5630
   17.6784   18.2872   20.6959   22.0791   22.0807   23.0337   23.2634   24.6602   24.7530   28.1050
   29.6727   41.9205   41.9996   48.3161   48.3508   48.5686   48.5887
  40  1  -19.1735  -13.4118  -12.2396  -11.6205  -11.5627  -11.3030  -11.1319  -10.4321  -10.2333  -10.1041
          -8.0425   -7.1984   -6.7299   -5.7640   -5.0573   -5.0447   -3.5845   -3.3515   -3.0473   -2.6791
    1.0707    1.2485    2.5697    2.5981    2.6908    2.7052    3.1995    3.3416    3.6394    3.7293
    8.2675    8.3641   11.0299   12.6893   12.8292   13.5021   13.7267   15.6027   15.9048   16.5631
   17.6784   18.2873   20.6959   22.0791   22.0807   23.0338   23.2634   24.6601   24.7530   28.1050
   29.6727   41.9204   41.9996   48.3162   48.3508   48.5687   48.5887
  41  1  -19.1735  -13.4118  -12.2396  -11.6205  -11.5627  -11.3030  -11.1319  -10.4321  -10.2333  -10.1041
          -8.0425   -7.1984   -6.7299   -5.7640   -5.0573   -5.0447   -3.5845   -3.3515   -3.0473   -2.6791
    1.0707    1.2485    2.5697    2.5981    2.6908    2.7052    3.1995    3.3416    3.6394    3.7293
    8.2675    8.3641   11.0299   12.6893   12.8292   13.5021   13.7267   15.6027   15.9048   16.5631
   17.6784   18.2873   20.6959   22.0791   22.0807   23.0338   23.2634   24.6601   24.7530   28.1050
   29.6727   41.9204   41.9996   48.3162   48.3508   48.5687   48.5887
  42  1  -19.1747  -13.4470  -12.4395  -11.8444  -11.5677  -11.0257  -10.9238  -10.6124  -10.4701  -10.0266
          -8.5252   -7.1156   -6.5320   -6.3128   -5.0317   -4.2209   -3.7779   -2.2735   -2.2217   -1.9108
   -0.2373    0.1560    0.4911    0.6677    2.3989    2.4568    2.5944    2.6047    3.5966    3.6334
   10.7549   11.0297   11.7580   12.3033   14.3253   15.2783   15.2847   15.2896   15.4215   15.5876
   15.8329   17.2625   18.6224   20.2351   23.8960   24.5181   24.6144   25.9865   26.1870   27.6419
   32.2424   54.0810   54.1598   54.1688   54.1869   55.6407   55.6472
  43  1  -19.1735  -13.4118  -12.2396  -11.6205  -11.5627  -11.3030  -11.1319  -10.4321  -10.2333  -10.1041
          -8.0425   -7.1984   -6.7299   -5.7640   -5.0573   -5.0447   -3.5845   -3.3515   -3.0473   -2.6791
    1.0707    1.2485    2.5697    2.5981    2.6908    2.7052    3.1995    3.3416    3.6394    3.7293
    8.2675    8.3641   11.0299   12.6893   12.8292   13.5021   13.7267   15.6027   15.9048   16.5631
   17.6784   18.2873   20.6959   22.0791   22.0807   23.0338   23.2634   24.6601   24.7530   28.1050
   29.6727   41.9204   41.9996   48.3162   48.3508   48.5687   48.5887
  44  1  -19.1747  -13.4470  -12.4395  -11.8444  -11.5677  -11.0256  -10.9238  -10.6123  -10.4702  -10.0266
          -8.5252   -7.1156   -6.5319   -6.3128   -5.0317   -4.2209   -3.7779   -2.2736   -2.2217   -1.9108
   -0.2373    0.1560    0.4911    0.6677    2.3989    2.4568    2.5943    2.6047    3.5966    3.6334
   10.7551   11.0297   11.7579   12.3033   14.3253   15.2783   15.2847   15.2895   15.4214   15.5876
   15.8329   17.2625   18.6224   20.2352   23.8958   24.5181   24.6143   25.9865   26.1869   27.6417
   32.2424   54.0809   54.1597   54.1688   54.1868   55.6409   55.6474
siesta: Fermi energy =     -10.442248 eV

siesta: Program's energy decomposition (eV):
siesta: Ebs     =      -201.916976
siesta: Eions   =       380.620085
siesta: Ena     =       124.948528
siesta: Ekin    =       156.634590
siesta: Enl     =        31.575944
siesta: Eso     =         0.000000
siesta: Edftu   =         0.000000
siesta: DEna    =         6.374317
siesta: DUscf   =         2.606390
siesta: DUext   =         0.000000
siesta: Exc     =      -147.584082
siesta: eta*DQ  =         0.000000
siesta: Emadel  =         0.000000
siesta: Emeta   =         0.000000
siesta: Emolmec =        -4.949740
siesta: Ekinion =         0.000000
siesta: Eharris =      -211.014141
siesta: Etot    =      -211.014139
siesta: FreeEng =      -211.045361

siesta: Final energy (eV):
siesta:  Band Struct. =    -201.916976
siesta:       Kinetic =     156.634590
siesta:       Hartree =      76.129678
siesta:       Edftu   =       0.000000
siesta:       Eso     =       0.000000
siesta:    Ext. field =       0.000000
siesta:   Exch.-corr. =    -147.584082
siesta:  Ion-electron =    -359.029165
siesta:       Ion-ion =      67.784580
siesta:       Ekinion =       0.000000
siesta:         Total =    -211.014139
siesta:         Fermi =     -10.442248

siesta: Atomic forces (eV/Ang):
siesta:      1   -0.000000   -0.000000   -0.000000
siesta:      2    0.043587   -0.000006   -0.355065
siesta:      3   -0.043587    0.000006    0.355065
siesta:      4   -0.021798    0.037744   -0.355065
siesta:      5    0.021798   -0.037744    0.355065
siesta:      6   -0.021816   -0.037787   -0.355128
siesta:      7    0.021816    0.037787    0.355128
siesta:      8   -0.043587    0.000006   -0.355065
siesta:      9    0.043587   -0.000006    0.355065
siesta:     10    0.021798   -0.037744   -0.355065
siesta:     11   -0.021798    0.037744    0.355065
siesta:     12    0.021816    0.037787   -0.355128
siesta:     13   -0.021816   -0.037787    0.355128
siesta: ----------------------------------------
siesta:    Tot    0.000000    0.000000    0.000000

siesta: Stress tensor (static) (eV/Ang**3):
siesta:    -0.555728   -0.000003   -0.000000
siesta:    -0.000003   -0.555731    0.000000
siesta:    -0.000000   -0.000000    0.143266

siesta: Cell volume =        157.364360 Ang**3

siesta: Pressure (static):
siesta:                Solid            Molecule  Units
siesta:           0.00351495          0.00327847  Ry/Bohr**3
siesta:           0.32273084          0.30101835  eV/Ang**3
siesta:         517.07740234        482.28978108  kBar
(Free)E+ p_basis*V_orbitals  =        -178.875240
(Free)Eharris+ p_basis*V_orbitals  =        -178.875241

cite: Please see "LiC12_scf.bib" for an exhaustive BiBTeX file.
cite: Please clearly indicate Siesta version in published work: 4.1.5
cite: This calculation has made use of the following articles
cite: which are encouraged to be cited in a published work.
        Primary SIESTA paper
          DOI: www.doi.org/10.1088/0953-8984/14/11/302

>> End of run:   9-NOV-2022  14:13:08
Job completed
