BEGIN_CFG
 Size
    108
 Supercell
        10.177155     -4.076638      2.503353
        -8.098746      7.735434     -1.139851
        -0.539961     -1.279709      6.627035
 AtomData:  id type       cartes_x      cartes_y      cartes_z           fx          fy          fz
             1    0      -4.455745      6.073206     -0.028317    -0.000000   -0.000001    0.000003
             2    0      -4.477792      4.744021      1.176084    -0.000001   -0.000001   -0.000004
             3    0       3.926072     -0.151608      1.395765    -0.000001   -0.000003   -0.000002
             4    0       8.936110     -3.577787      3.061031     0.000003   -0.000003    0.000000
             5    0      -1.042093      1.973762      0.921211     0.000004   -0.000002    0.000006
             6    0      -0.475546      0.894092      5.241851     0.000001    0.000001    0.000004
             7    0      -1.550737      2.021770      6.307935    -0.000003    0.000001    0.000002
             8    0      -4.229899      4.904232      2.707512    -0.000000    0.000001    0.000002
             9    0      -2.043687      1.674425      3.276865     0.000000    0.000005   -0.000001
            10    0       5.156626     -1.015169      1.845227     0.000003   -0.000002    0.000003
            11    0       6.620701     -3.049065      5.019265     0.000005    0.000002   -0.000001
            12    0       4.385240     -1.151470      5.719968     0.000000   -0.000002    0.000002
            13    0       1.987774      3.248265      2.434055     0.000000   -0.000003    0.000001
            14    0       1.791805      0.530532      4.964434     0.000003   -0.000002   -0.000001
            15    0       2.673654      0.729481      1.014664    -0.000005    0.000002   -0.000000
            16    0      -0.791217      2.132406      2.452075     0.000002    0.000000    0.000003
            17    0      -0.473683      3.667036      2.750607     0.000005   -0.000002    0.000002
            18    0      -0.348086      1.193225      6.795539    -0.000005   -0.000000   -0.000004
            19    0      -3.042815      1.394578      5.579697     0.000000    0.000005    0.000001
            20    0       0.978411      2.950371      4.717916     0.000002    0.000003    0.000005
            21    0      -1.823731      0.501530      6.025390     0.000001   -0.000000   -0.000002
            22    0      -3.504956      3.710919      0.070287     0.000000    0.000003   -0.000003
            23    0       5.650787     -0.683879      4.921233     0.000001   -0.000003   -0.000000
            24    0      -4.257014      3.578593      3.943528     0.000002    0.000003   -0.000001
            25    0       2.942170      0.911274      2.562009    -0.000001    0.000000    0.000001
            26    0       3.123431      1.023967      4.114951     0.000002    0.000001    0.000000
            27    0       2.420439     -0.788645      0.678409     0.000001   -0.000004    0.000003
            28    0       1.973021      1.933348      3.602077     0.000002   -0.000001    0.000001
            29    0       7.847457     -3.906169      5.452084     0.000005   -0.000001   -0.000002
            30    0       0.444849     -1.192481      5.391175    -0.000005    0.000001   -0.000000
            31    0      -2.743469      4.225358      4.684602     0.000002    0.000001    0.000000
            32    0       5.642408     -1.998991      6.134730     0.000001   -0.000004   -0.000002
            33    0      -2.996855      4.043744      3.148799    -0.000003   -0.000002   -0.000003
            34    0      -4.738316      4.571882     -0.346635    -0.000002    0.000002    0.000001
            35    0      -5.456899      5.788057      2.320753     0.000000   -0.000002   -0.000003
            36    0       4.655722     -0.939929      7.250430    -0.000001   -0.000004   -0.000003
            37    0       4.160514     -1.317802      4.172995     0.000001    0.000000   -0.000002
            38    0       1.690511     -0.950117      4.504126    -0.000002    0.000006    0.000003
            39    0      -4.012852      3.753184      5.475212    -0.000003    0.000001   -0.000002
            40    0       1.414339      0.229348      1.800215    -0.000005    0.000000   -0.000000
            41    0      -1.751023      1.819405      4.799161     0.000001   -0.000001    0.000004
            42    0       0.903880      0.280603      6.991437     0.000001    0.000000    0.000002
            43    0      -2.278128      2.840620      0.499634     0.000002    0.000002   -0.000002
            44    0      -1.760616      3.185045      3.561096    -0.000001   -0.000003    0.000000
            45    0      -1.262270      3.539854      6.637154     0.000001    0.000002    0.000002
            46    0       6.408754     -1.869941      2.254749    -0.000003   -0.000004    0.000001
            47    0      -3.274241      2.537987      2.827403     0.000004    0.000003    0.000000
            48    0       4.361814     -2.456626      6.923995    -0.000002    0.000002   -0.000000
            49    0       4.171457     -0.000586      2.929090     0.000004    0.000000    0.000002
            50    0       3.166156     -0.258422      5.274275    -0.000001    0.000002   -0.000004
            51    0       3.093448     -1.576297      6.500504     0.000001    0.000003    0.000000
            52    0      -1.059785      0.611544      2.110621    -0.000007   -0.000000   -0.000002
            53    0      -0.538054      2.311462      3.994221    -0.000001   -0.000001    0.000001
            54    0       1.218703      1.809682      7.464414     0.000004    0.000002   -0.000001
            55    0       2.442423      0.951533      7.945251     0.000001   -0.000001   -0.000003
            56    0       7.888083     -2.553234      4.246892    -0.000006    0.000003   -0.000003
            57    0       0.438545     -0.037495      4.308228    -0.000001    0.000003   -0.000004
            58    0       5.877172     -1.834539      7.668287    -0.000001    0.000000    0.000000
            59    0       5.419106     -0.832902      3.380845    -0.000002    0.000001   -0.000001
            60    0      -5.494051      4.438688      3.522660     0.000001    0.000002    0.000004
            61    0      -6.933717      6.488866      0.321779     0.000001    0.000001   -0.000001
            62    0       0.184347     -0.211265      2.669492    -0.000004    0.000003    0.000001
            63    0       2.202131      2.092222      5.198753    -0.000000    0.000000   -0.000003
            64    0       0.637513     -1.241387      6.926310     0.000002    0.000001    0.000003
            65    0       1.664792      0.393618      3.352067     0.000001    0.000004   -0.000002
            66    0      -6.491526      5.494288      4.627160     0.000004   -0.000001    0.000001
            67    0      -3.019389      2.699734      4.375670    -0.000003   -0.000007    0.000001
            68    0      -2.010313      3.026545      2.034328    -0.000003    0.000000    0.000004
            69    0      -0.791268      0.793337      3.657966     0.000003   -0.000002   -0.000004
            70    0      -2.783741      2.900626      5.916976     0.000005   -0.000005    0.000001
            71    0      -1.986462      4.354019      0.825267     0.000003    0.000002   -0.000003
            72    0      -3.972580      5.077916      4.242838     0.000003    0.000000   -0.000005
            73    0       3.892698     -1.503727      2.638302     0.000001    0.000001   -0.000003
            74    0       5.387341     -2.188102      4.602343    -0.000001    0.000001    0.000001
            75    0       2.893162     -1.778662      4.991730     0.000000   -0.000003    0.000004
            76    0       3.393456     -0.103698      6.810807    -0.000000    0.000001   -0.000001
            77    0       2.924478     -0.450945      3.751419    -0.000001    0.000000    0.000001
            78    0       2.245975      0.886473      6.441424    -0.000002    0.000001    0.000002
            79    0       0.483507      2.645890      1.677110    -0.000001   -0.000000    0.000004
            80    0       7.623189     -2.763815      2.707585    -0.000003   -0.000004   -0.000003
            81    0       6.863858     -2.893601      6.552588    -0.000006    0.000000    0.000005
            82    0       4.212084      1.352349      1.723899    -0.000001    0.000002    0.000002
            83    0       0.704912      1.484495      4.373355    -0.000002   -0.000001   -0.000001
            84    0       9.273606     -4.720003      7.361594    -0.000002   -0.000002   -0.000001
            85    0      -0.449380     -0.287424      6.335231    -0.000002    0.000003   -0.000000
            86    0       6.640435     -1.720918      3.795138    -0.000001   -0.000002    0.000003
            87    0       8.126124     -3.729831      6.992210     0.000002   -0.000006    0.000004
            88    0      -5.742678      5.591215      0.782171     0.000002   -0.000001   -0.000005
            89    0       4.436352      0.209995      4.468398    -0.000001    0.000001    0.000000
            90    0       3.458256      1.236252      5.597490    -0.000000   -0.000003   -0.000001
            91    0      -3.219506      5.214507      0.383980    -0.000005    0.000001    0.000004
            92    0       5.143995     -2.346681      3.059177     0.000002    0.000004   -0.000005
            93    0      -5.235304      4.644850      5.061382    -0.000003   -0.000002   -0.000001
            94    0       0.217594      1.129199      1.320563    -0.000001    0.000000    0.000003
            95    0       0.468047      1.293469      2.872415    -0.000002   -0.000003   -0.000001
            96    0       0.897576      1.435589      5.908490     0.000001   -0.000001   -0.000001
            97    0      -0.759462      3.470194      1.212025     0.000000    0.000001   -0.000001
            98    0      -3.261610      3.869498      1.613453    -0.000000   -0.000000    0.000001
            99    0      -0.264795      2.484253      5.532654     0.000001    0.000000   -0.000004
           100    0       5.599439     -3.335485      7.356137     0.000002   -0.000000   -0.000002
           101    0      -1.738569      4.514230      2.356695     0.000001    0.000001   -0.000000
           102    0      -1.521017      3.333692      5.098432     0.000002    0.000001   -0.000002
           103    0       2.673602     -0.609589      2.220555     0.000002    0.000000   -0.000001
           104    0       1.398878     -1.123072      2.995520    -0.000002   -0.000002    0.000003
           105    0       1.817971     -0.650984      6.057814    -0.000004   -0.000001    0.000002
           106    0       1.698039      1.734082      2.003138     0.000007   -0.000003    0.000002
           107    0       0.717357      2.769385      3.211000     0.000001    0.000001   -0.000005
           108    0      -0.037422      2.665653      7.065676     0.000001   -0.000001   -0.000001
 Energy
     -31423.932753856505
 PlusStress:  xx          yy          zz          yz          xz          xy
        -0.00002    -0.00001    -0.00001     0.00001     0.00000     0.00002
 Feature   EFS_by	  siesta
 Feature   from	relaxation_OK
 Feature   min_dist	1.517958
END_CFG

