BEGIN_CFG
 Size
    189
 Supercell
        13.985068      0.031523     -0.018232
        -6.963967     12.127912      0.018646
        -0.077442      0.044352     10.424710
 AtomData:  id type       cartes_x      cartes_y      cartes_z           fx          fy          fz
             1    0      -6.880124     11.916991     10.360405    -0.000008   -0.000029   -0.000026
             2    0      -6.968709     12.108215      3.513229     0.000004    0.000009   -0.000035
             3    0      -0.106629      0.315036      6.997849     0.000024    0.000076   -0.000023
             4    0      -2.259700      4.006731      0.008904     0.000072   -0.000028    0.000011
             5    0       9.004800      8.272391     10.364186     0.000005    0.000005    0.000000
             6    0       4.622905      8.138993     10.198162     0.000003   -0.000023    0.000039
             7    0       2.564358      4.084960     10.341902     0.000026    0.000011   -0.000021
             8    0       4.330111      0.201274     10.388220    -0.000021    0.000031    0.000073
             9    0       2.334333     11.903810     10.423265     0.000017   -0.000031   -0.000002
            10    0      -2.336870      4.051166      3.348241     0.000012    0.000021   -0.000005
            11    0      -4.384623      7.993764      7.067517    -0.000009   -0.000053   -0.000013
            12    0       2.470605      9.382012      3.487231    -0.000041   -0.000019    0.000011
            13    0       2.013726      3.987107      6.997960    -0.000034   -0.000017    0.000028
            14    0      -2.305375     12.139745      3.505977     0.000024    0.000000    0.000063
            15    0       9.166935      0.307248      6.993876    -0.000013   -0.000027    0.000008
            16    0      -4.645024      8.069982      3.522682    -0.000015   -0.000027   -0.000009
            17    0      -2.365185      4.067381      7.079416    -0.000039    0.000026    0.000008
            18    0       2.354657      4.066419      3.494722    -0.000003    0.000009   -0.000048
            19    0       2.142224      9.571508      6.916763     0.000019    0.000032    0.000044
            20    0       9.340778      0.145182      3.384796    -0.000040    0.000003   -0.000030
            21    0      -2.103863     12.023297      7.068570    -0.000002   -0.000014    0.000081
            22    0       0.218211      8.238977     10.423138     0.000026    0.000026   -0.000073
            23    0       6.697933      4.277250     10.364059    -0.000011   -0.000016   -0.000011
            24    0      -0.080192      8.017981      3.403297     0.000003   -0.000017   -0.000036
            25    0       7.209783      3.885047      7.049138     0.000064    0.000055   -0.000010
            26    0       7.013721      4.072693      3.504309     0.000033   -0.000017    0.000020
            27    0      -0.307565      8.087347      7.012379    -0.000024   -0.000034   -0.000043
            28    1      -0.739011      1.324093      1.485918     0.000007   -0.000031    0.000025
            29    1      -6.240465     10.812030      8.435758     0.000004   -0.000029   -0.000028
            30    1       6.260739     10.789521      1.693554     0.000014    0.000043    0.000009
            31    1       0.752340      1.373601      8.802915    -0.000043   -0.000069    0.000026
            32    1      -5.389566     12.116322      1.748653    -0.000071    0.000031   -0.000032
            33    1       5.412098     12.175299      8.730449    -0.000034   -0.000036   -0.000078
            34    1      -6.175184     10.764048      1.799166    -0.000016   -0.000027    0.000007
            35    1      -0.815817      1.365144      8.906907     0.000032   -0.000031   -0.000010
            36    1       0.813976      1.332655      1.558259    -0.000014   -0.000023   -0.000004
            37    1       6.186132     10.842165      8.445030    -0.000020    0.000007   -0.000053
            38    1       5.493359     12.133555      1.572326     0.000026   -0.000028   -0.000006
            39    1      -5.448301     12.160652      8.555458    -0.000008    0.000009   -0.000006
            40    1      -0.794502      1.365432      5.169159     0.000023    0.000021   -0.000016
            41    1      -6.209152     10.795502      5.518373     0.000023    0.000028   -0.000007
            42    1       6.222258     10.831236      5.485258     0.000019   -0.000037    0.000010
            43    1       0.773585      1.363776      5.232183    -0.000011    0.000001   -0.000004
            44    1      -5.417596     12.144667      5.428013    -0.000014   -0.000024   -0.000004
            45    1       5.443578     12.174352      5.284853    -0.000032    0.000003   -0.000003
            46    1      -3.087485      5.393065      1.496157    -0.000043   -0.000011   -0.000025
            47    1      10.050413      6.803884      8.926438     0.000014   -0.000032   -0.000004
            48    1       3.917327      6.750633      1.687302     0.000053   -0.000038   -0.000000
            49    1       3.063274      5.433875      8.444820    -0.000008   -0.000023   -0.000036
            50    1      -0.743215     12.138890      1.536691    -0.000030   -0.000026    0.000019
            51    1       7.691005      0.056852      8.875321     0.000022    0.000005    0.000003
            52    1      -3.860221      6.734215      1.520204     0.000040    0.000013    0.000025
            53    1      -3.158997      5.433388      8.941107     0.000000    0.000013    0.000011
            54    1       3.146369      5.395930      1.693390     0.000010    0.000004   -0.000023
            55    1       3.835463      6.788753      8.342959     0.000005   -0.000010   -0.000013
            56    1       0.804721     12.136584      1.577009     0.000055    0.000048   -0.000011
            57    1       6.142172      0.056718      8.958180    -0.000080   -0.000017    0.000014
            58    1      -3.119083      5.396627      5.220697    -0.000016   -0.000060   -0.000029
            59    1      -3.889099      6.740895      5.265616     0.000041   -0.000000   -0.000026
            60    1       3.866440      6.768366      5.554498    -0.000031   -0.000011    0.000024
            61    1       3.090885      5.408200      5.485067     0.000034   -0.000017    0.000023
            62    1      -0.765211     12.152996      5.223747    -0.000006   -0.000022    0.000061
            63    1       0.781165     12.164885      5.146846     0.000026    0.000043   -0.000004
            64    1      -5.408216      9.421968      1.791453     0.000017   -0.000028   -0.000018
            65    1      -1.585530      2.706797      8.910124    -0.000007    0.000035   -0.000000
            66    1       1.592768      2.681401      1.558298    -0.000007    0.000011    0.000023
            67    1       5.398728      9.496080      8.343063    -0.000008    0.000023   -0.000029
            68    1       3.942088     12.133870      1.619485     0.000005    0.000040   -0.000009
            69    1      -3.907833     12.162488      8.519367    -0.000039    0.000076   -0.000011
            70    1      -1.507181      2.663032      1.515387     0.000005    0.000013    0.000027
            71    1      -5.465112      9.464124      8.476685     0.000026   -0.000004   -0.000035
            72    1       5.472869      9.444584      1.687380     0.000052   -0.000010    0.000042
            73    1       1.526276      2.713934      8.802970    -0.000021    0.000047   -0.000012
            74    1      -3.850933     12.129455      1.788877    -0.000056    0.000002    0.000062
            75    1       3.861858     12.177342      8.741115     0.000013    0.000092    0.000020
            76    1      -5.433862      9.447147      5.507267    -0.000019    0.000014   -0.000008
            77    1      -1.565546      2.709038      5.199954     0.000005    0.000010    0.000013
            78    1       1.545507      2.700625      5.232212    -0.000032   -0.000017    0.000009
            79    1       5.431952      9.479584      5.554602    -0.000023   -0.000005   -0.000025
            80    1       3.893144     12.167853      5.246390    -0.000030    0.000007   -0.000030
            81    1      -3.871441     12.142170      5.466941     0.000041    0.000045    0.000002
            82    1       3.894928      1.355663      1.770282     0.000009   -0.000001    0.000028
            83    1       3.070827     10.845991      8.547908    -0.000031   -0.000025   -0.000036
            84    1      10.898212      2.693144      1.485386     0.000014   -0.000054   -0.000001
            85    1      -3.920770      9.481602      8.749503    -0.000014   -0.000050   -0.000034
            86    1       6.247258      8.096777      1.695067    -0.000009   -0.000035   -0.000001
            87    1       0.749659      4.076302      8.906988     0.000002    0.000006   -0.000003
            88    1       3.155746     10.790099      1.759606     0.000017    0.000018    0.000015
            89    1       3.837670      1.388077      8.500775    -0.000009   -0.000037    0.000001
            90    1      -3.852715      9.435329      1.636591     0.000001    0.000014    0.000050
            91    1      10.824938      2.737688      8.917238    -0.000041   -0.000039   -0.000019
            92    1       0.823831      4.030692      1.486014     0.000003   -0.000032    0.000014
            93    1       6.180358      8.138525      8.339650    -0.000039   -0.000045   -0.000044
            94    1      -0.797104      4.072226      8.910166    -0.000017   -0.000008   -0.000016
            95    1       7.795772      8.103782      1.764192    -0.000027    0.000021   -0.000007
            96    1      -3.149100     10.814484      8.755337     0.000056    0.000025    0.000009
            97    1      10.121686      1.357697      1.464229    -0.000005    0.000017   -0.000011
            98    1       3.847840      9.495329      8.386664    -0.000083    0.000011    0.000001
            99    1       3.137124      2.694806      1.730096     0.000049   -0.000025   -0.000028
           100    1       7.736319      8.142873      8.418966     0.000062    0.000014    0.000025
           101    1      -0.719810      4.026635      1.515435     0.000043    0.000016    0.000043
           102    1      10.045743      1.403752      8.938206     0.000007   -0.000032    0.000004
           103    1      -3.078326     10.777581      1.642850    -0.000012    0.000025    0.000051
           104    1       3.069165      2.723157      8.536916     0.000048    0.000016   -0.000015
           105    1       3.924800      9.442747      1.676339    -0.000031    0.000028    0.000042
           106    1       3.873550      1.366868      5.448330     0.000012    0.000006   -0.000023
           107    1       3.110183     10.827378      5.282184     0.000029    0.000028   -0.000009
           108    1      10.868952      2.738622      5.183183     0.000074    0.000029    0.000031
           109    1      -3.877893      9.451675      5.378022    -0.000000    0.000001    0.000015
           110    1       6.217495      8.119731      5.597972     0.000022    0.000029   -0.000018
           111    1       0.760169      4.057886      5.169249     0.000060   -0.000013   -0.000015
           112    1      -0.788949      4.053984      5.200001     0.000019   -0.000016    0.000018
           113    1       7.772871      8.125652      5.541043     0.000012   -0.000004   -0.000046
           114    1      -3.099719     10.791753      5.370678     0.000044    0.000004    0.000043
           115    1      10.087529      1.404042      5.161024    -0.000045    0.000057    0.000007
           116    1       3.882112      9.472586      5.459863     0.000042    0.000016    0.000020
           117    1       3.098452      2.704713      5.409434    -0.000022   -0.000036    0.000011
           118    1       1.598716      5.388653      1.572110    -0.000000   -0.000065    0.000017
           119    1       5.401955      6.790455      8.339600     0.000008    0.000007   -0.000042
           120    1       1.582303     10.789483      1.758971    -0.000040   -0.000014   -0.000050
           121    1       5.384436      1.404825      8.736806     0.000064   -0.000007   -0.000027
           122    1      -3.079013      8.092462      1.507722     0.000014    0.000008    0.000011
           123    1      10.039930      4.103441      8.922832     0.000086    0.000014   -0.000011
           124    1       5.471758      6.753735      1.695027    -0.000036    0.000007   -0.000007
           125    1       1.521721      5.437789      8.730186    -0.000017   -0.000024   -0.000069
           126    1       5.451993      1.362345      1.624305     0.000012    0.000085    0.000036
           127    1       1.497197     10.839534      8.685732     0.000009   -0.000046   -0.000011
           128    1      10.110831      4.062058      1.477878    -0.000051   -0.000003   -0.000008
           129    1      -3.157040      8.132663      8.975966     0.000074   -0.000022    0.000010
           130    1       3.841171      4.083426      8.417289     0.000025    0.000053   -0.000002
           131    1       3.145022      8.092298      1.676299     0.000033    0.000017    0.000013
           132    1       8.499432      6.792900      8.650364    -0.000040   -0.000030    0.000040
           133    1      -1.508281      5.395463      1.503712     0.000021   -0.000001   -0.000015
           134    1       8.479141      1.405354      8.977075     0.000003    0.000001    0.000001
           135    1      -1.523622     10.787344      1.536639    -0.000051    0.000013    0.000034
           136    1       3.060806      8.132316      8.386611     0.000007    0.000055    0.000011
           137    1       3.915562      4.051221      1.780709    -0.000020    0.000060    0.000011
           138    1      -1.583716      5.436266      8.935555    -0.000029    0.000001   -0.000005
           139    1       8.567240      6.756671      1.653687     0.000010   -0.000004    0.000024
           140    1      -1.602743     10.832152      8.976777    -0.000016   -0.000052   -0.000028
           141    1       8.553669      1.355603      1.455365     0.000006    0.000008    0.000001
           142    1       1.538378      5.411173      5.284632    -0.000032   -0.000032   -0.000007
           143    1       5.436877      6.767824      5.597919    -0.000073   -0.000034   -0.000014
           144    1       1.555353     10.816473      5.129119    -0.000013   -0.000011    0.000006
           145    1       5.428912      1.373589      5.352103    -0.000022   -0.000043    0.000026
           146    1      -3.110946      8.096685      5.232657    -0.000062    0.000041   -0.000009
           147    1      10.091834      4.087442      5.202414    -0.000050   -0.000050   -0.000004
           148    1       3.871222      4.064716      5.499890     0.000026   -0.000028    0.000025
           149    1       3.097722      8.114148      5.459816     0.000037    0.000028    0.000025
           150    1       8.540691      6.771541      5.407478    -0.000020    0.000082    0.000005
           151    1      -1.562414      5.397867      5.201514     0.000011    0.000056    0.000009
           152    1       8.525803      1.397054      5.134034     0.000018   -0.000082    0.000029
           153    1      -1.546951     10.799147      5.223710    -0.000007    0.000015    0.000043
           154    1      -0.747800      9.447860      1.576899     0.000000    0.000038    0.000007
           155    1       7.703130      2.752353      8.957557    -0.000039    0.000004    0.000003
           156    1      -0.739873      6.735597      1.482640    -0.000052   -0.000020    0.000032
           157    1       7.726690      5.454629      8.650308     0.000010    0.000041    0.000066
           158    1       1.593651      8.084802      1.759513     0.000000    0.000014    0.000066
           159    1       5.396169      4.085739      8.458273    -0.000072   -0.000043   -0.000019
           160    1       7.777177      2.705263      1.489318    -0.000014    0.000018   -0.000009
           161    1      -0.828580      9.490677      8.893887    -0.000014    0.000002   -0.000005
           162    1       7.792176      5.414384      1.653651     0.000016   -0.000012   -0.000001
           163    1      -0.817953      6.777955      8.956612     0.000018    0.000069   -0.000020
           164    1       5.461322      4.057887      1.773041    -0.000014   -0.000045   -0.000033
           165    1       1.502588      8.130055      8.547804     0.000016   -0.000009   -0.000032
           166    1       8.492521      4.105855      8.926341    -0.000035    0.000039    0.000003
           167    1      -1.521925      8.094670      1.473815    -0.000001   -0.000062   -0.000007
           168    1       6.153051      2.739471      8.731061     0.000040   -0.000029   -0.000057
           169    1       0.807608      9.447833      1.758911     0.000026    0.000012    0.000010
           170    1       6.176029      5.440692      8.418870    -0.000057    0.000035    0.000012
           171    1       0.822945      6.732011      1.619310     0.000021    0.000037    0.000013
           172    1      -1.602498      8.133954      8.995538    -0.000020   -0.000019   -0.000015
           173    1       8.562991      4.060850      1.501895     0.000045   -0.000043   -0.000014
           174    1       0.721510      9.496162      8.685693    -0.000040    0.000009    0.000017
           175    1       6.227364      2.704031      1.618136    -0.000033   -0.000019    0.000033
           176    1       0.744968      6.779392      8.740906     0.000033    0.000021    0.000019
           177    1       6.239803      5.409096      1.764106     0.000057    0.000038   -0.000006
           178    1      -0.784198      9.453927      5.146757    -0.000005   -0.000043    0.000022
           179    1       7.757440      2.730610      5.214224    -0.000029    0.000008    0.000024
           180    1      -0.797205      6.741814      5.179446    -0.000000    0.000021    0.000007
           181    1       7.765907      5.429740      5.407438     0.000007   -0.000055   -0.000031
           182    1       1.538477      8.105438      5.282099    -0.000007    0.000005   -0.000027
           183    1       5.426576      4.067309      5.488831     0.000005    0.000047   -0.000015
           184    1       8.542654      4.082319      5.247289    -0.000028    0.000010    0.000011
           185    1      -1.571869      8.097888      5.152503    -0.000019   -0.000060    0.000009
           186    1       6.200504      2.717465      5.359533    -0.000006    0.000012    0.000008
           187    1       0.770655      9.457503      5.129078     0.000014    0.000001   -0.000017
           188    1       6.209296      5.417791      5.540942     0.000072    0.000043   -0.000038
           189    1       0.768930      6.757220      5.246219     0.000020    0.000037   -0.000048
 Energy
     -25170.619805799750
 PlusStress:  xx          yy          zz          yz          xz          xy
         0.00077     0.00066     0.00095     0.00074    -0.00057    -0.00049
 Feature   EFS_by	  siesta
 Feature   from	relaxation_OK
 Feature   min_dist	1.539214
 Feature   mindist	1.422267
END_CFG

