BEGIN_CFG
 Size
    128
 Supercell
         9.609635     -0.023229      0.043835
        -4.781603      8.272966     -0.732985
         0.308376     -0.256742     13.195849
 AtomData:  id type       cartes_x      cartes_y      cartes_z           fx          fy          fz
             1    0       2.249139      0.004449     12.189798    -0.000004    0.000005   -0.000013
             2    0       8.292338      0.375538      4.269613     0.000026   -0.000020    0.000007
             3    0       4.697624      7.845415      6.257550     0.000028    0.000014   -0.000003
             4    0       4.685118      7.665870      8.903529    -0.000022    0.000033    0.000005
             5    0       1.053740      2.072688     12.006527    -0.000031   -0.000026    0.000000
             6    0       5.870164      6.191750     11.672918     0.000015    0.000023   -0.000019
             7    0       4.651547     -0.001356     12.200778     0.000030   -0.000002   -0.000034
             8    0       4.706136      6.580265      3.719908     0.000012   -0.000025   -0.000001
             9    0      -0.110288      2.461201      4.053488    -0.000039    0.000014   -0.000007
            10    0       5.889930      0.381344      4.258654     0.000010   -0.000002    0.000014
            11    0       9.456366     -0.012972     12.222690     0.000030   -0.000011   -0.000019
            12    0       3.456148      2.066881     12.017482     0.000015   -0.000011    0.000006
            13    0      -1.337062      6.209172     11.640047    -0.000059    0.000035   -0.000011
            14    0       1.085112      0.392961      4.236755    -0.000036   -0.000007   -0.000013
            15    0       2.303727      6.586069      3.708917     0.000018   -0.000004    0.000030
            16    0       7.096938      2.443779      4.086370    -0.000003    0.000037   -0.000005
            17    0       8.283827      1.640687      6.807267     0.000005    0.000006   -0.000023
            18    0       3.490616      5.782981      6.429838     0.000014   -0.000022    0.000002
            19    0      -2.509602      7.862837      6.224676    -0.000008   -0.000015    0.000019
            20    0       5.880520      5.597627      9.086749     0.000009   -0.000027    0.000031
            21    0       1.064094      1.478565      9.420369     0.000018    0.000034    0.000001
            22    0       2.282709      7.671680      8.892582     0.000015   -0.000044   -0.000025
            23    0       2.295216      7.851221      6.246585    -0.000014   -0.000002   -0.000014
            24    0       1.076600      1.658110      6.774394     0.000018    0.000009    0.000001
            25    0       5.893026      5.777174      6.440804    -0.000009    0.000012    0.000004
            26    0      -2.522107      7.683293      8.870648    -0.000019   -0.000055   -0.000008
            27    0       3.478110      5.603437      9.075807    -0.000014   -0.000001   -0.000007
            28    0       8.271321      1.461144      9.453249    -0.000004   -0.000006   -0.000005
            29    0      -0.141661      4.140928     11.823265    -0.000029    0.000019    0.000017
            30    0       4.663156      4.129313     11.845174    -0.000007    0.000017    0.000014
            31    0       7.053957     -0.007162     12.211752    -0.000021    0.000017   -0.000045
            32    0       5.901537      4.512025      3.903164     0.000010   -0.000012   -0.000047
            33    0       1.096718      4.523636      3.881209     0.000011   -0.000005   -0.000009
            34    0       3.487521      0.387153      4.247709    -0.000021   -0.000016    0.000012
            35    0       7.088427      3.708929      6.624022    -0.000015    0.000012    0.000044
            36    0       2.283609      3.720545      6.602106     0.000030   -0.000024    0.000004
            37    0      -0.107193      7.857029      6.235629    -0.000011    0.000014   -0.000006
            38    0       7.075921      3.529382      9.269973    -0.000020    0.000043    0.000004
            39    0       2.271103      3.540999      9.248069     0.000023    0.000022   -0.000009
            40    0      -0.119699      7.677485      8.881616     0.000034   -0.000007    0.000002
            41    0       2.260747      4.135122     11.834235     0.000002    0.000026    0.000006
            42    0       3.467755      6.197560     11.661996    -0.000027    0.000018   -0.000059
            43    0       1.065346      6.203368     11.651039    -0.000030    0.000006   -0.000040
            44    0       3.499128      4.517829      3.892184     0.000022    0.000030   -0.000018
            45    0       2.292120      2.455394      4.064459    -0.000010    0.000030   -0.000021
            46    0       4.694529      2.449587      4.075421     0.000000    0.000038    0.000002
            47    0      -0.118800      3.726351      6.591143     0.000004   -0.000000   -0.000005
            48    0       1.088208      5.788787      6.418871     0.000028    0.000004   -0.000002
            49    0      -1.314200      5.794595      6.407920    -0.000029    0.000030   -0.000008
            50    0       4.673511      3.535192      9.259019     0.000033    0.000014    0.000035
            51    0       3.466504      1.472759      9.431332    -0.000020    0.000008   -0.000024
            52    0       5.868912      1.466952      9.442288     0.000019   -0.000024    0.000019
            53    0       5.858557      2.061074     12.028437     0.000006   -0.000009    0.000036
            54    0       8.260966      2.055268     12.039408    -0.000009   -0.000033   -0.000000
            55    0       7.065564      4.123505     11.856120     0.000018    0.000018    0.000048
            56    0      -0.098682      6.591877      3.697964     0.000009   -0.000001    0.000037
            57    0      -2.501090      6.597688      3.687038    -0.000007   -0.000009   -0.000007
            58    0      -1.305690      4.529445      3.870267    -0.000017   -0.000036   -0.000018
            59    0       3.479010      1.652303      6.785358     0.000008   -0.000009   -0.000009
            60    0       5.881419      1.646495      6.796312    -0.000057    0.000006   -0.000016
            61    0       4.686017      3.714737      6.613071     0.000029    0.000007    0.000009
            62    0       1.075702      5.609244      9.064847     0.000021   -0.000013   -0.000005
            63    0      -1.326706      5.615049      9.053875    -0.000026   -0.000026   -0.000000
            64    0      -0.131306      3.546805      9.237101     0.000026    0.000038    0.000033
            65    0       2.253005      1.383129     12.073226    -0.000021    0.000006   -0.000009
            66    0      -3.735608      7.593662     11.512541    -0.000009    0.000014    0.000003
            67    0      -1.333199      7.587856     11.523507     0.000003   -0.000043   -0.000007
            68    0       3.506852      7.270193      3.657413    -0.000028    0.000026   -0.000001
            69    0      -0.114172      1.082890      4.174266     0.000002   -0.000049    0.000022
            70    0       7.093055      1.065468      4.207136     0.000004   -0.000039    0.000006
            71    0      -0.126515      0.972911      6.823158    -0.000011   -0.000028    0.000014
            72    0       3.494509      7.160215      6.306309    -0.000002   -0.000009    0.000021
            73    0      -3.712717      7.177638      6.273442     0.000001   -0.000047   -0.000003
            74    0       4.681248      6.288141      9.021813     0.000019   -0.000018   -0.000023
            75    0       1.060224      0.100837      9.538670     0.000004   -0.000001    0.000021
            76    0       8.267451      0.083417      9.571558     0.000010    0.000012   -0.000007
            77    0       1.057604      3.451369     11.889954    -0.000016    0.000032    0.000017
            78    0       4.667021      5.507998     11.728640    -0.000012   -0.000065    0.000017
            79    0       1.069210      7.582051     11.534492     0.000032   -0.000010   -0.000021
            80    0       4.702253      5.201954      3.840689    -0.000022    0.000015   -0.000028
            81    0       1.092837      3.145324      4.001982     0.000009    0.000008   -0.000009
            82    0       4.690646      1.071275      4.196189     0.000020   -0.000019   -0.000014
            83    0       3.471619      7.576243     11.545449    -0.000009    0.000003   -0.000019
            84    0       3.460012      3.445562     11.900909     0.000005    0.000023    0.000020
            85    0      -0.137797      5.519612     11.706728     0.000047   -0.000056    0.000017
            86    0       2.288237      1.077084      4.185238     0.000009   -0.000037    0.000000
            87    0       2.299844      5.207758      3.829697     0.000011    0.000030    0.000016
            88    0       5.897654      3.133711      4.023911     0.000002    0.000014    0.000012
            89    0      -1.321914      3.041150      6.639899    -0.000030    0.000023    0.000015
            90    0       2.287501      5.097779      6.478586     0.000003    0.000029    0.000019
            91    0      -1.310308      7.171830      6.284396     0.000010   -0.000019   -0.000002
            92    0       5.876650      4.219896      9.205022    -0.000027    0.000015   -0.000006
            93    0       2.267233      2.163269      9.366359    -0.000005    0.000003    0.000031
            94    0       5.865042      0.089225      9.560602    -0.000011    0.000012   -0.000029
            95    0       1.092101      7.166021      6.295346     0.000006    0.000008    0.000010
            96    0       1.080494      3.035344      6.650859    -0.000024   -0.000017    0.000037
            97    0      -2.517315      5.109395      6.456681    -0.000010   -0.000005   -0.000035
            98    0       3.462634      0.095031      9.549634    -0.000002    0.000018   -0.000004
            99    0       3.474240      4.225706      9.194075    -0.000039   -0.000013    0.000004
           100    0       7.072050      2.151654      9.388276     0.000011   -0.000009    0.000007
           101    0       4.655413      1.377323     12.084187     0.000003    0.000017   -0.000003
           102    0      -0.149404      1.388937     12.062275    -0.000009    0.000041   -0.000024
           103    0      -2.540206      5.525417     11.695743     0.000040   -0.000027    0.000026
           104    0       1.104443      7.275999      3.646441     0.000020    0.000011    0.000011
           105    0      -3.700374      7.287617      3.624561    -0.000020    0.000013   -0.000012
           106    0      -1.309572      3.151132      3.991020     0.000014   -0.000014    0.000029
           107    0       2.275894      0.967104      6.834124    -0.000000   -0.000009   -0.000011
           108    0       7.080712      0.955488      6.856032     0.000030   -0.000026    0.000025
           109    0       4.689910      5.091973      6.489559    -0.000008    0.000005   -0.000021
           110    0       2.278839      6.293951      9.010863     0.000010   -0.000003    0.000010
           111    0      -2.525977      6.305562      8.988925     0.000002    0.000016    0.000009
           112    0      -0.135176      2.169077      9.355402    -0.000020   -0.000014   -0.000010
           113    0       2.264612      5.513807     11.717707    -0.000010   -0.000039    0.000001
           114    0       3.495245      3.139517      4.012952     0.000011    0.000007   -0.000009
           115    0      -0.114907      5.103587      6.467628    -0.000007   -0.000016    0.000001
           116    0       4.669641      2.157464      9.377321     0.000005   -0.000018   -0.000020
           117    0       7.057822      1.371517     12.095155     0.000004   -0.000008   -0.000021
           118    0      -1.344806      3.457176     11.878983     0.000029    0.000023    0.000001
           119    0       5.862421      3.439753     11.911846     0.000014   -0.000005    0.000049
           120    0      -1.297965      7.281808      3.635503    -0.000003    0.000024    0.000006
           121    0      -2.504973      5.219377      3.807814    -0.000037   -0.000014   -0.000033
           122    0      -0.102565      5.213566      3.818742     0.000037    0.000006   -0.000007
           123    0       4.678304      0.961296      6.845081     0.000010   -0.000002   -0.000002
           124    0       5.885312      3.023729      6.672785    -0.000013    0.000029    0.000000
           125    0       3.482902      3.029536      6.661826     0.000005    0.000044    0.000022
           126    0      -0.123568      6.299755      8.999898    -0.000020    0.000039   -0.000030
           127    0      -1.330577      4.237318      9.172145     0.000030    0.000008    0.000018
           128    0       1.071832      4.231513      9.183115    -0.000023   -0.000030    0.000013
 Energy
     -19695.380527192883
 PlusStress:  xx          yy          zz          yz          xz          xy
        -0.00016    -0.00051    -0.00012     0.00006    -0.00003    -0.00028
 Feature   EFS_by	  siesta
 Feature   from	relaxation_OK
 Feature   min_dist	1.382768
 Feature   mindist	1.380511
END_CFG

