BEGIN_CFG
 Size
    128
 Supercell
         9.824000      0.000000      0.000000
        -4.912000      8.507834      0.000000
         0.000000      0.000000     13.392000
 AtomData:  id type       cartes_x      cartes_y      cartes_z           fx          fy          fz
             1    0       2.014600      0.087900     -1.171400    -1.138000    1.940500    0.236500
             2    0      -1.366800      0.348600      4.043600     0.933600    0.077100    1.086800
             3    0      -0.371700     -0.211300      6.910200    -1.437800    0.439300    0.360400
             4    0      -0.343000     -0.201500      9.656900    -1.416700   -0.048000   -0.113000
             5    0       0.734900      2.268100     -1.214500     1.339200   -1.584600    0.057300
             6    0       5.646800      6.536200     -0.967800     1.779200   -0.164000   -0.017500
             7    0       4.464200      0.112000     -0.976400    -1.945500   -0.589400   -0.184900
             8    0      -5.098700      6.707000      4.481800     0.313100    1.505600   -0.892300
             9    0      -0.076000      2.473200      4.348600    -0.323500    1.116400    0.027000
            10    0       5.993600      0.292700      4.172000     0.204700    2.035100    0.042300
            11    0       9.386800      0.159000     -1.098900    -0.328100    0.372700   -0.187900
            12    0       3.219800      2.240600     -1.089000    -1.927600    0.036300    0.818300
            13    0      -1.726000      6.485300     -0.946600     1.588200   -0.922300   -0.071900
            14    0       1.086600      0.356300      4.250800    -1.194700   -1.016300    0.011100
            15    0       2.306400      6.773900      4.369400    -0.640600   -2.555600    0.276500
            16    0      -2.573400      2.433600      4.300500     0.624600    1.151100   -0.291900
            17    0      -1.623200      1.937200      6.901500     1.131000   -0.118700    0.773600
            18    0       3.306200      6.143600      7.096200     1.399600   -0.240000    0.196200
            19    0       2.087200     -0.248700      6.906100    -0.482500    0.392800    1.088600
            20    0      -4.044200      6.202100      9.695600     0.491700    0.820600    0.106800
            21    0       0.817300      1.973100      9.607500     1.068500   -1.336500   -0.280100
            22    0       7.052600     -0.175800      9.621700    -2.819400   -0.031900    0.700400
            23    0       6.991300     -0.251500      6.895500     0.981200    1.199600    0.675300
            24    0       0.860300      1.887400      6.944900    -1.473500   -0.126000    0.490000
            25    0      -4.068100      6.166700      7.063400     0.041800   -1.428900   -0.308300
            26    0       2.033200     -0.151300      9.609500     2.260800   -0.138300    0.064300
            27    0       3.308700      6.232300      9.890000     0.751200   -1.544500   -0.991000
            28    0      -1.568200      1.941100      9.592000    -2.075500   -0.781500    0.239600
            29    0      -0.433700      4.408100     -1.113800     0.914700   -2.199000    0.519000
            30    0       4.478900      4.423000     -0.737700     0.304400   -2.044100   -0.635200
            31    0       6.955900      0.152700     -0.950300    -0.783300   -0.417400   -0.559700
            32    0      -3.792200      4.578700      4.357400    -0.380300    1.023900    0.367600
            33    0       1.110300      4.604000      4.516300     0.476300   -0.096800    0.277900
            34    0       3.530800      0.293900      4.229800    -1.139900    1.807200   -0.446100
            35    0      -2.892300      3.973600      6.993500     0.096200    3.461800   -0.007800
            36    0       2.073500      4.045700      7.205800    -1.254900   -2.642200   -0.576800
            37    0       4.580400     -0.239000      7.097900    -1.994800    1.449500   -0.647200
            38    0      -2.784100      4.098700      9.654500    -2.254000   -0.242000    0.809900
            39    0       2.044500      4.061800      9.696800     1.310300   -0.168000    0.239000
            40    0       4.537800     -0.201200      9.703300     0.452500    1.796600    0.120500
            41    0       2.044100      4.326700     -1.020400    -0.246100    1.968000    0.373100
            42    0       3.227700      6.506800     -0.886800     0.267800    0.153400    0.058300
            43    0       0.801900      6.503500     -0.871700    -0.985900    0.091700   -0.553200
            44    0       3.559400      4.631200      4.360700     0.168900   -1.363800    0.109200
            45    0       2.364900      2.471200      4.231500    -1.043100   -0.296200    0.066800
            46    0       4.807800      2.438700      4.140800    -1.540600    1.567600   -0.009800
            47    0      -0.379500      4.035700      7.109500    -1.822300    1.516600    0.131600
            48    0       0.878100      6.148200      7.212900    -1.674600    1.075400   -0.618300
            49    0      -1.604100      6.180900      7.077300    -0.890700   -0.779200   -0.178600
            50    0       4.516500      4.076500      9.854000     0.175000    1.858600   -0.692300
            51    0       3.296600      1.918500      9.741400     1.056700    2.361300   -0.087900
            52    0       5.780800      1.966200      9.677000     0.263400    0.157700    0.346300
            53    0       5.658600      2.267300     -0.833400     0.468800   -0.403000   -0.754200
            54    0       8.141700      2.275500     -1.163300    -0.917900    0.669500    0.548600
            55    0       6.961300      4.358600     -0.869000    -1.883900    1.197200   -0.013400
            56    0      -0.179800      6.697700      4.352600    -0.358900    0.674900    0.761800
            57    0      -2.653400      6.709900      4.500700    -0.218200    0.854000   -0.538400
            58    0      -1.370800      4.588700      4.503800     0.732500   -1.902300   -0.368500
            59    0       3.285900      1.899900      7.001700     1.511700   -1.559400   -0.024200
            60    0       5.792400      1.850100      6.946900    -1.632800    1.696000    0.269500
            61    0       4.509400      3.973900      7.015100    -0.073700    1.698800    0.480200
            62    0       0.854000      6.182100      9.809000     1.113800    0.059000   -0.386400
            63    0      -1.627600      6.228700      9.687600     2.931400   -0.087800    0.639800
            64    0      -0.396000      4.065900      9.663500     0.253100    1.535300    0.329600
            65    0       1.946200      1.508900     -1.124600     2.132800    1.678200   -0.374200
            66    0       5.684100      7.958200     -1.136000    -0.264200   -2.091300    0.392700
            67    0      -1.718400      7.885200     -0.998100     3.049900    1.034400   -0.192200
            68    0       3.513400      7.444100      4.250000     1.865400    0.192000    0.016800
            69    0      -0.143300      1.091600      4.178300     0.589600   -2.153100   -0.190800
            70    0       7.236700      1.037500      4.171700    -1.550100   -0.987300   -0.376000
            71    0      -0.405600      1.210800      6.923100     1.266300   -0.134600   -0.551500
            72    0       3.320900      7.563600      6.916500    -0.347500   -0.580500    0.542800
            73    0      -4.090900      7.581500      7.004100     2.232100   -0.264100   -0.259200
            74    0       4.555500      6.909000      9.767500    -0.154400   -0.489000   -0.094900
            75    0       0.821000      0.533900      9.556400     0.963100    1.909400    0.318100
            76    0       8.268000      0.508800      9.687600    -0.248100    1.504300   -0.898000
            77    0       0.809700      3.657700     -1.161300    -1.344600    1.594200    0.195000
            78    0       4.455300      5.812200     -0.841500    -0.462900    0.887000   -0.032700
            79    0       0.786000      7.942500     -0.992300     1.581700   -0.841700    1.051700
            80    0       4.806300      5.303500      4.451200    -0.523600   -0.676400   -0.300500
            81    0       1.175000      3.167200      4.493900    -2.128600    1.186300   -0.601800
            82    0       4.757200      1.007400      4.112100     0.701200    0.310400    0.559600
            83    0       3.282400      7.926300     -0.947900    -1.871400    0.595900   -0.181600
            84    0       3.290400      3.667600     -0.959300    -0.900900   -0.774900    0.130000
            85    0      -0.450300      5.781100     -0.910000    -0.295600    2.205700   -0.175200
            86    0       2.303300      1.056400      4.147300     1.605500   -1.065300    0.656400
            87    0       2.342600      5.342700      4.493800    -1.119400    0.084100   -0.180500
            88    0       6.035300      3.173100      4.291700    -0.686900   -1.257500   -0.308400
            89    0      -1.641400      3.360900      7.008600     1.331600   -1.552900   -0.231800
            90    0       2.082100      5.443700      7.239900     0.764900    0.264700   -0.784600
            91    0      -1.577200      7.598500      7.047000    -0.880100   -0.857600   -0.050100
            92    0       5.775400      4.799800      9.772900    -0.005300   -1.534400   -0.110700
            93    0       2.067900      2.636100      9.703500    -0.202000    0.357500   -0.469900
            94    0       5.782500      0.539100      9.652000     0.248900   -0.668900    0.075600
            95    0       0.858000      7.558800      7.016900     1.499000   -0.788000    0.455000
            96    0       0.807300      3.292900      7.087800     2.921000    1.541300    0.079800
            97    0      -2.840800      5.436400      6.936600    -0.023700   -0.118700    1.363300
            98    0       3.287700      0.531300      9.714100     0.558800   -1.701500   -0.584500
            99    0       3.261100      4.804900      9.758800     1.629300   -0.689900    1.206800
           100    0       7.031900      2.676500      9.679900    -0.515700   -0.845800   -0.594100
           101    0       4.413100      1.531300     -0.935700     2.192800   -0.074500    0.051200
           102    0       9.335600      1.576700     -1.231800     0.961000   -1.427900    0.297000
           103    0       6.873100      5.776800     -0.937000     0.177500    0.813500   -0.015800
           104    0       1.060000      7.411300      4.313800    -0.932200   -0.346000   -0.328500
           105    0      -3.882400      7.430200      4.426200     0.907700    0.625800   -0.346200
           106    0      -1.328500      3.136100      4.379700    -0.751600    2.089200    0.233000
           107    0       2.075500      1.165700      6.964000     0.059500    0.293600   -0.462700
           108    0       7.019700      1.188700      6.958500    -0.473500   -1.674100   -0.820500
           109    0       4.550200      5.396900      7.098900    -1.155400    1.361200   -0.129300
           110    0       2.099500      6.915300      9.755500    -1.481000    0.300300    0.278700
           111    0      -2.808800      6.946900      9.623400    -2.649300   -0.579600    0.220400
           112    0      -0.399200      2.677700      9.606500     1.189900   -0.579500   -0.119800
           113    0       2.021600      5.766300     -0.882300    -0.527900   -0.255600   -0.057200
           114    0       3.546300      3.204500      4.175500     3.173200   -0.183100    0.376600
           115    0      -0.383800      5.495900      7.170000     1.108300   -2.619100   -0.185600
           116    0       4.546600      2.675700      9.805500    -1.013400   -1.760700   -0.590700
           117    0       6.921900      1.586100     -1.014300    -1.239700   -0.920200    0.399600
           118    0       8.165900      3.680300     -1.024600     1.157400   -0.074000   -0.594100
           119    0       5.708300      3.699800     -0.807100    -0.490000   -1.214900    0.192700
           120    0      -1.441300      7.410600      4.390300     2.120200   -0.707900   -0.274800
           121    0      -2.572900      5.308300      4.483000    -1.458500   -0.992600   -0.133500
           122    0      -0.151900      5.294700      4.543600     1.068900   -0.281100   -0.303200
           123    0       4.555000      1.188500      7.012000    -1.186300   -0.691000   -0.350300
           124    0       5.701900      3.275200      6.928600     2.420000   -0.992100    0.225300
           125    0       3.287300      3.299900      7.055800    -1.426300    0.776000    0.037400
           126    0      -0.349400      6.901500      9.751800    -1.796800   -0.160600   -0.119400
           127    0      -1.585900      4.816600      9.744500    -0.513200   -0.092300   -0.704600
           128    0       0.828600      4.755600      9.711100     0.028800    1.117500    0.483000
 Energy
     -19683.625000000000
 PlusStress:  xx          yy          zz          yz          xz          xy
      -247.33300  -244.39900     0.95700     4.89000    -0.72000     4.32400
 Feature   EFS_by	  siesta
 Feature   mindist	1.380511
END_CFG
