BEGIN_CFG
 Size
    189
 Supercell
        12.948390      0.000000      0.000000
        -6.474196     11.213634      0.000000
         0.000000      0.000000     11.099581
 AtomData:  id type       cartes_x      cartes_y      cartes_z           fx          fy          fz
             1    0      12.871590      0.033680     11.063280     0.072071    0.019918    0.413684
             2    0      -6.427440     11.183220      3.674600    -0.048359    0.022506    0.122209
             3    0       0.046310      0.074370      7.396280    -0.043343   -0.048570    0.295928
             4    0      10.678460      3.564600     11.077410     0.116773    0.077174    0.205564
             5    0      -2.177310      3.931440      3.596340     0.018388   -0.326899    0.765499
             6    0      -2.016800      3.863610      7.417590    -0.188775   -0.047176   -0.052286
             7    0       8.537390      7.594930     11.012650     0.183421   -0.260823    0.920023
             8    0       8.396670      7.352450      3.689020     0.375648    0.186204   -0.326273
             9    0       8.392300      7.568850      7.346390     0.212803   -0.076652    0.239627
            10    0      -2.156980     11.210470      0.107540     0.038812    0.037480   -0.388524
            11    0       4.435750      0.031440      3.712080    -0.140804    0.013463    0.093146
            12    0      -2.132610     11.043000      7.409620    -0.039793    0.161398   -0.053680
            13    0       2.081140      3.793600     11.064970     0.006282    0.035205    0.398927
            14    0       1.936980      3.514420      3.710750     0.245901    0.281139    0.287398
            15    0       2.161150      3.748120      7.334270     0.046898    0.005992    0.532022
            16    0      -0.034330      7.391060     11.064960     0.135173    0.181243    0.402919
            17    0       0.062970      7.475730      3.740760    -0.089450   -0.006846   -0.323017
            18    0      -0.082810      7.366670      7.352730     0.047494    0.158600    0.330486
            19    0       2.186290     11.124060      0.033120    -0.062127    0.093918   -0.259463
            20    0       2.354520     11.196920      3.692640    -0.349097    0.000556    0.009241
            21    0       1.926180     11.147020      7.388220     0.295851    0.111090   -0.163057
            22    0       6.484630      3.678720     11.096160    -0.078579    0.046609   -0.288012
            23    0       6.386800      3.904920      3.631910     0.090522   -0.218316    0.078507
            24    0       6.437120      3.711530      7.343430     0.090157    0.058403    0.101527
            25    0       4.396830      7.395820      0.004590    -0.176789    0.073698   -0.039147
            26    0       4.157170      7.549640      3.741670     0.149205   -0.155153   -0.372704
            27    0       4.214300      7.542860      7.370470     0.196951   -0.028260    0.010504
            28    1      -0.677660      1.235500      1.839100    -2.647723    2.008506    0.073799
            29    1      -0.697020      1.262950      5.540170    -1.310248    0.477347    0.292880
            30    1      12.240990      1.209140      9.256610    -0.857927    3.343370    0.047662
            31    1      10.076740      4.933070      1.870220    -1.534829    2.719994   -0.460880
            32    1      -2.857600      4.986260      5.505590    -0.374073    2.002472    0.626664
            33    1      10.090350      4.924400      9.340410    -1.997282    1.777258   -0.210850
            34    1       7.936100      8.680300      1.869330    -0.434447    2.221570   -0.574251
            35    1      -5.025700      8.753580      5.540060    -0.765056    0.368860   -0.470341
            36    1       7.918030      8.675970      9.328390    -0.759219    3.681959   -0.217318
            37    1       3.576120      1.211720      1.965700     1.086023    2.575745   -0.436901
            38    1       3.657110      1.272810      5.546640    -2.131371    1.208341    0.593788
            39    1       3.607690      1.220700      9.280560    -1.370078    1.084563    0.622009
            40    1       1.456210      4.977370      1.978780    -1.667257    0.103805   -1.104196
            41    1       1.481930      4.997400      5.641470    -3.037217    1.121344   -0.664427
            42    1       1.471540      4.945150      9.178760    -2.121557    1.091285    0.636683
            43    1      -0.687220      8.664260      1.891260    -0.810090    1.412163    0.001282
            44    1      -0.706500      8.708320      5.469150    -0.898012    3.635523    0.249087
            45    1      -0.686660      8.668700      9.210770    -1.155572    2.335060    0.722502
            46    1       7.844510      1.192250      1.835830     0.626832    3.268419   -0.013402
            47    1       7.966640      1.257950      5.452650    -1.701742    1.228675    0.055324
            48    1       7.951970      1.240390      9.202680    -2.813372    0.351997    0.047664
            49    1       5.773880      4.989040      1.779830    -1.627504    1.668696    0.334275
            50    1       5.771480      4.979190      5.495440    -0.929669    3.042418    0.065111
            51    1       5.799690      4.950820      9.264790    -1.152834    1.738455   -0.411359
            52    1       3.654450      8.697760      1.820250    -2.922462    2.202090    0.205411
            53    1       3.589410      8.734150      5.485780    -0.012206    1.709135    0.236553
            54    1       3.598540      8.679600      9.222200    -0.221143    1.744070    0.282734
            55    1      11.472160      2.516580      1.858210     0.726187   -2.589911    0.041939
            56    1      11.459300      2.521840      5.563510     2.997538   -0.930948   -0.480453
            57    1      11.485690      2.513520      9.208530     1.072083   -2.803502    0.181878
            58    1       9.331900      6.220290      1.865590     1.014135   -1.258505    0.116209
            59    1      -3.604800      6.283750      5.498420     1.916567   -2.261490   -0.218965
            60    1       9.342630      6.222750      9.312970     2.110316   -1.759916    0.096292
            61    1      -5.756110      9.984250      1.796400     2.953371   -2.112183    0.363860
            62    1      -5.760040      9.999710      5.626830     1.664222   -1.183418   -0.492104
            63    1       7.162610     10.011100      9.331470     1.682547   -2.088416    0.220080
            64    1       2.889920      2.520090      1.910730    -0.543208   -3.016235    0.190811
            65    1       2.883770      2.537120      5.621550     1.507748   -1.503530   -0.587016
            66    1       2.841410      2.519980      9.414310     2.439193   -3.126881   -1.135054
            67    1       0.682560      6.201230      1.896630     1.950015   -0.677387    0.451574
            68    1       0.698920      6.310030      5.581680     1.414177   -3.185553   -0.141502
            69    1       0.717060      6.211090      9.267590     0.889474   -0.806036   -0.370652
            70    1      -1.430150      9.926570      1.912370     0.999175   -0.138255   -0.085588
            71    1      -1.424520     10.040320      5.478720     0.701920   -2.957429    0.044507
            72    1      -1.457660      9.953150      9.297760     2.400640   -1.266764   -0.663435
            73    1       7.137730      2.520980      1.793300     0.221829   -3.298229    0.052971
            74    1       7.205850      2.524820      5.411710     1.252923   -1.055515    0.717376
            75    1       7.180560      2.492090      9.168100     1.507639   -1.525497    0.492161
            76    1       5.056570      6.282870      1.856990    -0.593492   -2.428144   -0.200786
            77    1       5.014850      6.244390      5.492750     0.645477   -0.403028   -0.063408
            78    1       5.041950      6.216810      9.261540     1.125859   -1.638653   -0.206553
            79    1       2.881900      9.996700      1.850220     1.963547   -3.064483   -0.135472
            80    1       2.911670     10.010570      5.473450    -1.751128   -1.501246    0.312641
            81    1       2.872740     10.016070      9.240190     1.002881   -3.454954   -0.199621
            82    1       1.458580      2.522990      1.904770    -1.080987   -2.675094   -0.692372
            83    1       1.465940      2.515320      5.616850    -0.878300   -1.668502   -0.262380
            84    1       1.445170      2.518870      9.306530    -1.123790   -1.762710    0.395635
            85    1      -0.730330      6.222580      1.890420    -0.268167   -2.501962   -0.152066
            86    1      -0.713530      6.318280      5.508300    -0.935660   -2.403191    0.509317
            87    1      -0.709630      6.213480      9.371180    -0.551888   -1.383189   -0.543167
            88    1      -2.827210      9.998360      1.853200    -2.021054   -3.845141    0.258651
            89    1      -2.841920     10.020770      5.446520    -1.109521   -1.430812    0.157721
            90    1      -2.854360      9.937820      9.258290    -1.762861   -0.430766    0.564018
            91    1       5.699920      2.521660      1.778100     0.417754   -1.400815    0.659635
            92    1       5.795940      2.551530      5.528640    -1.224470   -1.979471   -0.132955
            93    1       5.787600      2.486690      9.225230    -2.082878   -1.537618   -0.071878
            94    1       3.614600      6.239600      1.846720    -0.423908   -1.734220    0.026931
            95    1       3.578620      6.300920      5.601180     0.428024   -2.449963   -0.621578
            96    1       3.645480      6.178960      9.189890    -2.582414   -0.779703    0.245791
            97    1       1.505610     10.000450      1.837380    -3.312208   -3.914099    0.242381
            98    1       1.425170     10.039270      5.515400     0.856023   -2.665816   -0.310041
            99    1       1.470120      9.982600      9.197110    -2.001682   -1.675838    0.466464
           100    1      10.012190      2.457400      1.867820     0.653536    0.193295   -0.042097
           101    1      10.077150      2.536180      5.479300    -1.272819   -2.633533    0.506177
           102    1      10.066960      2.502850      9.191460    -0.097073   -2.410042    0.342645
           103    1       7.905690      6.210110      1.819110    -0.185790   -0.645507    0.067307
           104    1       7.963860      6.270090      5.482950    -2.765166   -2.354004    0.391700
           105    1       7.950390      6.247070      9.253830    -1.729037   -2.182973    0.045359
           106    1       5.827880      9.998280      1.805300    -4.132128   -0.745374    0.201242
           107    1       5.789980      9.992370      5.607090    -1.864822   -2.077714   -0.462807
           108    1       5.765850     10.000290      9.398700    -1.848270   -2.188948   -0.842597
           109    1       0.710450      1.206730      1.840330     2.580130    2.308674    0.185386
           110    1       0.722330      1.230260      5.570040     0.829882    2.622103    0.075701
           111    1       0.718000      1.264160      9.388950     0.245386    0.374241   -0.838670
           112    1      -1.463100      4.946840      1.854950     0.955096    2.201264    0.112282
           113    1      -1.409780      5.029020      5.564320    -0.636907    0.009932   -0.596226
           114    1      -1.457890      4.938830      9.374970     1.617311    1.539819   -0.269201
           115    1      -3.591090      8.673810      1.842280     0.988461    2.684898    0.365152
           116    1      -3.615030      8.767350      5.397870     1.016601    0.829362    0.541950
           117    1      -3.617810      8.703190      9.352020     1.665166   -0.179307   -0.765878
           118    1       5.029800      1.212290      1.908240    -0.549414    1.844833   -0.238071
           119    1       5.060580      1.274800      5.601040     0.691211    1.805271   -0.531776
           120    1       5.014990      1.216800      9.264830     1.501084    1.562820   -0.167829
           121    1       2.866990      4.940700      1.859170     0.561586    3.312465    0.407138
           122    1       2.874980      5.000990      5.572690     0.943260    2.019809    0.372931
           123    1       2.868100      4.893350      9.234090     2.144683    3.133632   -0.222173
           124    1       0.730300      8.656240      1.868630     1.193656    2.502443   -0.040163
           125    1       0.708900      8.722180      5.488840     0.588241    2.523287    0.137884
           126    1       0.733970      8.674410      9.227660     0.685386    2.462936   -0.257468
           127    1       9.279520      1.214510      1.882880     0.807784    1.286544   -0.257537
           128    1       9.385760      1.218020      5.468440    -0.012928    3.040760    0.023177
           129    1       9.339210      1.229960      9.233790     1.058775    1.822448   -0.319948
           130    1       7.178550      4.930720      1.801350     0.535348    2.984953   -0.209738
           131    1       7.180860      4.994320      5.524110     1.897507    1.175293   -0.346431
           132    1       7.217010      4.962850      9.209810     0.191218    1.614243    0.469312
           133    1       5.050210      8.737830      1.854330     0.985875    1.633631   -0.134287
           134    1       5.012640      8.684030      5.505030     1.598860    2.923761    0.151980
           135    1       5.040020      8.677660      9.326800    -0.579441    2.881446   -0.162688
           136    1      -5.024490     11.190890      1.819080     1.251571    0.466374    0.222550
           137    1       1.439530      0.029160      5.565920     2.002672   -0.748174    0.053802
           138    1       1.404570      0.022080      9.348330     2.937205   -0.895493   -0.311955
           139    1      -0.780360      3.737370      1.870660     3.173124   -0.696043   -0.318866
           140    1      -0.750670      3.744890      5.545070     2.486719    0.883140    0.248377
           141    1      -0.738860      3.703620      9.280960     1.764434    1.131402   -0.050147
           142    1      -2.891100      7.456300      1.935970     1.702577   -0.710042   -0.728078
           143    1      -2.937570      7.520000      5.400090     2.999121    0.470178    0.606983
           144    1      -2.881770      7.431190      9.340200     1.267342    1.533966   -0.094454
           145    1      -0.757500     11.187330      1.936250     3.131810   -0.573581   -0.575300
           146    1       5.742400      0.043860      5.562230     2.394205    0.281593   -0.136134
           147    1      -0.729770     11.199280      9.255400     0.605233   -0.357219    0.076267
           148    1       3.547780      3.733430      1.868090     3.432872    0.681686   -0.162979
           149    1       3.584200      3.784340      5.556020     2.231782   -0.500421    0.021304
           150    1       3.595760      3.697450      9.323270     1.897991    0.457233   -0.390231
           151    1       1.420630      7.425600      1.905330     1.800920    0.917450   -0.489869
           152    1       1.404410      7.501650      5.498390     2.661145    0.894208    0.464107
           153    1       1.427490      7.464030      9.218440     1.957504   -1.652696   -0.138296
           154    1       3.541360     11.206730      1.888070     3.855302    1.268462   -0.438386
           155    1      10.078710      0.009570      5.493130     2.929716   -0.164570    0.276799
           156    1      10.036150      0.018170      9.259510     2.895516   -0.157316   -0.020973
           157    1       7.849480      3.719060      1.774640     3.485356    0.002905    0.413602
           158    1       7.887850      3.760460      5.501990     2.291056    0.156704    0.022984
           159    1       7.867760      3.717680      9.251660     3.377090    0.142053   -0.370615
           160    1       5.705980      7.519930      1.895530     4.235269   -1.017277   -0.343639
           161    1       5.725690      7.483510      5.398450     2.434292   -1.085116    0.872607
           162    1       5.712670      7.462810      9.282370     3.560348   -0.496434    0.227285
           163    1      -3.553880     11.199750      1.895060    -2.601215   -0.069744   -0.135991
           164    1       2.937490      0.031810      5.532560    -2.278334    0.628804    0.003998
           165    1      -3.559540     11.183190      9.253250    -2.450230    0.818805    0.452248
           166    1       0.750200      3.728350      1.858540    -2.606336    0.644034    0.553795
           167    1       0.755280      3.730570      5.573450    -2.188536    1.280763    0.287553
           168    1       0.727520      3.718090      9.231710    -1.577986    0.757162    0.129513
           169    1      -1.401390      7.428610      1.894920    -2.817081    1.361317    0.221387
           170    1      -1.448410      7.535750      5.506880    -2.061344   -0.905595   -0.767549
           171    1      -1.408350      7.470340      9.311060    -1.979168   -1.348912    0.023465
           172    1       0.748520     11.172010      1.850590    -3.398111    0.548769    0.342816
           173    1       7.213730      0.052760      5.524180    -1.276601   -0.302210   -0.158698
           174    1       0.719900     11.200950      9.233330    -0.286904    0.560908   -0.059202
           175    1       5.029070      3.784520      1.811800    -2.033384   -1.366893   -0.095281
           176    1       5.081730      3.783980      5.515640    -2.768787   -1.467867    0.164598
           177    1       5.086490      3.725180      9.223940    -2.210470   -0.417945    0.597325
           178    1       2.907720      7.468060      1.842570    -1.417574   -0.269136    0.238966
           179    1       2.880230      7.529940      5.537490    -2.223171   -1.036172   -0.060367
           180    1       2.900120      7.417930      9.167820    -1.114666    0.780363    0.360087
           181    1      11.541880      0.034980      1.830230    -1.919425   -1.494332    0.182760
           182    1       5.100060     11.209380      5.556340    -2.612988    1.070867   -0.206948
           183    1      11.516980      0.027490      9.280650    -1.782187   -1.477669    0.170877
           184    1       9.361300      3.740060      1.833140    -2.918814   -1.865118   -0.129253
           185    1       9.373870      3.747820      5.576270    -1.920241    0.980506   -0.864116
           186    1       9.366480      3.689630      9.274590    -2.591383    1.749773   -0.214027
           187    1       7.227830      7.476150      1.843550    -2.922645   -0.826306    0.134294
           188    1       7.242970      7.465960      5.446710    -3.010362    2.035139    0.231491
           189    1       7.232440      7.469960      9.327410    -3.234502   -0.721294   -0.539598
 Energy
      -1565.467581060000
 PlusStress:  xx          yy          zz          yz          xz          xy
        -1.35166    -0.33204   -27.59548    -1.19210     1.09266    -0.09387
 Feature   EFS_by	VASP
END_CFG

BEGIN_CFG
 Size
    189
 Supercell
        12.948390      0.000000      0.000000
        -6.474196     11.213634      0.000000
         0.000000      0.000000     11.099581
 AtomData:  id type       cartes_x      cartes_y      cartes_z           fx          fy          fz
             1    0       0.107080      0.024490      0.028190    -0.157554   -0.049910    0.202350
             2    0       0.045620      0.063370      3.739380    -0.089834   -0.034757    0.105614
             3    0       6.399770     11.105550      7.517880     0.086408    0.134522   -0.246662
             4    0      10.671800      3.808750     11.074290     0.099838   -0.064201    0.100220
             5    0      10.818150      3.562540      3.631810    -0.044194    0.231536    0.279333
             6    0      10.627990      3.591780      7.301610     0.114099    0.273017    0.532705
             7    0       8.674630      7.274530     10.958640    -0.016805    0.208412    0.757161
             8    0      -4.150030      7.780790      3.678550    -0.095793   -0.270513    0.116938
             9    0      -4.248490      7.374780      7.371730    -0.099485    0.083635    0.140836
            10    0       4.277050      0.110430      0.025300     0.019537   -0.120660   -0.219666
            11    0       4.233270      0.081550      3.707160     0.058920   -0.068931    0.008136
            12    0      -2.350400     11.189170      7.490540     0.268428    0.010018   -0.055348
            13    0       2.200900      3.671130     11.095960    -0.067928    0.026963    0.004020
            14    0       2.210960      3.920140      3.702640    -0.064168   -0.306507    0.242994
            15    0       2.068530      3.720750      7.450330     0.082700    0.114699   -0.008292
            16    0       0.020370      7.499200     11.052570    -0.068813   -0.030200    0.227752
            17    0      -0.071010      7.459500      3.595600     0.013588    0.084427    0.598143
            18    0      -0.084840      7.533350      7.348540     0.162726   -0.054827    0.406041
            19    0       8.634950      0.086140     11.020380    -0.071625   -0.208077    0.045991
            20    0       8.768150      0.010080      3.602520    -0.119309    0.049277    0.292513
            21    0       8.639850      0.022700      7.377600    -0.039933   -0.019836    0.047874
            22    0       6.542130      3.779840      0.032580    -0.127753   -0.057413   -0.276550
            23    0       6.546980      3.625670      3.620070    -0.081686    0.118822    0.348112
            24    0       6.500970      3.686160      7.373370     0.005241    0.082152   -0.160903
            25    0       4.102830      7.421340     11.034660     0.242722   -0.019808    0.345677
            26    0       4.355860      7.409680      3.745400    -0.022348    0.128852   -0.228187
            27    0       4.584520      7.561810      7.500010    -0.355973   -0.135135   -0.625036
            28    1      12.203850      1.270850      1.861800     1.243311   -2.605976    0.220260
            29    1      -0.692670      1.308850      5.628440     0.778542   -0.857807    0.112674
            30    1      12.194960      1.240890      9.327080     0.058047   -1.873095    0.277841
            31    1      10.026880      5.019200      1.847770     1.067271   -1.359604   -0.358935
            32    1      -2.827930      5.033860      5.391700     1.470967    0.253281    1.117536
            33    1      10.035560      4.927620      9.180900     0.408528   -1.138609   -0.084942
            34    1       7.867040      8.718500      1.843480     0.835869   -0.233486   -0.297845
            35    1      -5.008800      8.796570      5.542050     0.712535   -2.054550   -0.024872
            36    1       7.900240      8.668940      9.343700    -0.234842    0.460361    0.054583
            37    1       3.571720      1.280000      1.797740     0.969554   -2.269593    0.578284
            38    1       3.651490      1.313520      5.633880    -0.036323   -1.407071   -0.102861
            39    1       3.566630      1.204220      9.168960    -0.055138   -0.321968    1.303963
            40    1       1.446070      4.986720      1.927440    -1.020315   -0.963951   -0.581219
            41    1       1.480480      5.055990      5.624810     1.401333   -2.660987   -0.652395
            42    1       1.405110      4.967530      9.249360     0.377486   -2.479779    0.425485
            43    1      -0.770010      8.740700      1.830280     1.398111   -0.271729    0.028574
            44    1      -0.683390      8.792870      5.609410     1.609128   -2.054949   -0.333352
            45    1      -0.744170      8.697080      9.241430     0.531200   -0.789719    0.494460
            46    1       7.915290      1.266060      1.742840    -0.316514   -0.921630    0.133091
            47    1       7.946680      1.272520      5.532870     0.836128   -0.122397   -0.617520
            48    1       7.871030      1.252490      9.188500     0.133309   -2.364638    0.390310
            49    1       5.745720      4.987250      1.851870    -0.002991   -0.350446    0.286551
            50    1       5.780710      5.010280      5.494250     2.138069   -0.264468   -0.320254
            51    1       5.722240      4.940740      9.248000     0.938630   -0.481508   -0.576763
            52    1       3.532550      8.694270      1.814860     0.627169    0.363426    0.327386
            53    1       3.658810      8.784580      5.579570    -0.799291   -1.808383   -0.309895
            54    1       3.531100      8.682740      9.255790     1.431137    0.124329   -0.019684
            55    1      -1.413030      2.476200      1.844660    -1.972302    1.328977   -0.231771
            56    1      -1.435600      2.551860      5.620420     1.561646   -0.890882   -0.653798
            57    1      11.470310      2.447600      9.321210    -0.196843    1.134120   -0.508727
            58    1       9.330930      6.241100      1.755980    -0.404630    0.902484    0.697751
            59    1      -3.546760      6.264560      5.446140     0.371138    1.122503    0.042757
            60    1       9.335020      6.133470      9.193120    -0.612467    2.281674    0.517562
            61    1       7.165720      9.945190      1.920700    -0.804397    0.400590   -0.623328
            62    1      -5.707050     10.006370      5.520160    -0.801518    1.135253    0.826613
            63    1       7.157120      9.928510      9.342580     0.946937   -0.258935    0.015927
            64    1       2.884550      2.471010      1.850230    -1.839554    2.156419   -0.001978
            65    1       2.936100      2.557600      5.682470     0.731712   -0.324330   -0.233526
            66    1       2.855960      2.446680      9.214010    -0.983220   -0.037545   -0.585478
            67    1       0.715870      6.206790      1.895470    -1.176406    0.932761   -0.131447
            68    1       0.781000      6.246550      5.617220    -0.454947    2.372112   -0.307164
            69    1       0.682910      6.153400      9.229540    -0.869826    1.541467    0.045667
            70    1      -1.468990      9.987830      1.835560     0.261730   -0.120946   -0.350077
            71    1      -1.355950     10.003670      5.589440    -2.321343    0.947295    0.612104
            72    1      -1.450140      9.939490      9.327890    -0.955010    0.371584   -0.826870
            73    1       7.191280      2.479170      1.834920    -0.671983    1.282880   -0.263585
            74    1       7.263700      2.506770      5.448480    -0.771914    1.371312    0.904308
            75    1       7.152600      2.462250      9.206360     0.132673    0.773902   -0.185344
            76    1       5.007620      6.210910      1.870570    -0.077721    0.521527   -0.430452
            77    1       5.099950      6.227100      5.524420    -0.455537    2.478871    0.322422
            78    1       5.021740      6.191950      9.238860    -0.910669   -0.560476    0.098111
            79    1       2.880020      9.967830      1.819030    -1.039828    0.465707   -0.265479
            80    1       2.935010      9.984200      5.520720    -1.326019    1.141698    0.827533
            81    1       2.851380      9.942460      9.237380    -0.200032   -0.034764   -0.391175
            82    1       1.390920      2.477600      1.914080     1.880582    1.167637   -0.153598
            83    1       1.495290      2.522720      5.691080     0.832396    1.646235   -0.548178
            84    1       1.393650      2.443200      9.185960     0.827637    1.505139    1.312104
            85    1      -0.764690      6.223850      1.854640     1.575947    1.000406   -0.124269
            86    1      -0.686860      6.251250      5.539660     1.727097    2.130339    0.729041
            87    1      -0.790580      6.122590      9.192110     2.437844    4.355024    0.201531
            88    1      -2.895530      9.972290      1.775960    -0.650840    0.914596    0.574606
            89    1      -2.836920     10.006480      5.745110     1.222684   -0.074319   -1.242764
            90    1      -2.913100      9.913420      9.322800     0.871265    1.259103    0.391604
            91    1       5.717010      2.499840      1.841050     2.083589    0.346747    0.139305
            92    1       5.818390      2.484260      5.602830     0.015241    1.332263   -1.436844
            93    1       5.708220      2.440690      9.178770     1.481030    1.630501    0.370815
            94    1       3.556670      6.204480      1.887900     0.608055    1.514354    0.117968
            95    1       3.680250      6.258970      5.555190    -1.377434    0.540638   -0.270243
            96    1       3.558240      6.139340      9.227070     1.168810    3.281961    0.210984
            97    1       1.412220      9.983860      1.846130     0.958504   -0.521682   -0.455227
            98    1       1.457060      9.980810      5.600180     1.710583    1.925318   -1.087695
            99    1       1.413530      9.905760      9.182440     0.209542    2.409202    0.611549
           100    1      10.098110      2.480360      1.811120    -1.345321    1.197358   -0.243990
           101    1      10.088560      2.527700      5.520760     0.019854    1.404112    0.167214
           102    1      10.035070      2.439980      9.231440     0.378729    0.508295    0.455801
           103    1       7.883070      6.213370      1.766610     0.644363    1.460150   -0.007604