Siesta Version  : 4.1.5
Architecture    : x86_64-unknown-linux-gnu--unknown
Compiler version: GNU Fortran (GCC) 11.3.0
Compiler flags  : mpif90 -g -O2 -fallow-argument-mismatch
PP flags        : -DMPI -DFC_HAVE_FLUSH -DFC_HAVE_ABORT
Libraries       :  -I/global/software/sl-7.x86_64/modules/intel/2020.4.304/mkl/include  /globall/software/sl-7.x86_64/modules/intel/2020.4.304/mkl/lib/intel64/libmkl_scalapack_lp64.a -Wl,--start-group /global/software/sl-7.x86_64/modules/intel/2020.4.304/mkl/lib/intel64/libmkl_intel_lp64.a /global/software/sl-7.x86_64/modules/intel/2020.4.304/mkl/lib/intel64/libmkl_sequential.a /global/software/sl-7.x86_64/modules/intel/2020.4.304/mkl/lib/intel64/libmkl_core.a /global/software/sl-7.x86_64/modules/intel/2020.4.304/mkl/lib/intel64/libmkl_blacs_openmpi_lp64.a -Wl,--end-group -lpthread -lm -ldl
PARALLEL version

* Running on 20 nodes in parallel
>> Start of run:   1-NOV-2022  14:34:05

                           ***********************       
                           *  WELCOME TO SIESTA  *       
                           ***********************       

reinit: Reading from standard input
reinit: Dumped input in INPUT_TMP.30015
************************** Dump of input data file ****************************
SystemName graphite_scf
SystemLabel graphite_scf
NumberOfAtoms   36
NumberOfSpecies 1
%block ChemicalSpeciesLabel
1  6   C-gga
%endblock ChemicalSpeciesLabel
PAO.BasisSize  SZ
PAO.EnergyShift  10 meV
%block PS.Lmax
C-gga   2
%endblock PS.Lmax
LatticeConstant 1.000000 Ang
%block LatticeVectors
	7.3920000000	0.0000000000	0.0000000000
	-3.6960000000	6.4016597848	0.0000000000
	0.0000000000	0.0000000000	8.7243000000
%endblock LatticeVectors
AtomicCoordinatesFormat Ang
%block AtomicCoordinatesAndAtomicSpecies
	0.00000000	0.00000000	2.18107500	1
	0.00000000	0.00000000	6.54322500	1
	-1.23200000	2.13388659	2.18107500	1
	-2.46400000	4.26777319	6.54322500	1
	2.46400000	4.26777319	2.18107500	1
	1.23200000	2.13388659	6.54322500	1
	2.46400000	0.00000000	2.18107500	1
	4.92800000	0.00000000	6.54322500	1
	2.46400000	0.00000000	6.54322500	1
	4.92800000	0.00000000	2.18107500	1
	2.46400000	4.26777319	6.54322500	1
	1.23200000	2.13388659	2.18107500	1
	-1.23200000	2.13388659	6.54322500	1
	-2.46400000	4.26777319	2.18107500	1
	0.00000000	4.26777319	2.18107500	1
	3.69600000	2.13388659	6.54322500	1
	3.69600000	2.13388659	2.18107500	1
	0.00000000	4.26777319	6.54322500	1
	0.00000000	1.42258964	2.18107500	1
	3.69600000	4.97907014	6.54322500	1
	2.46400123	5.69036496	2.18107500	1
	1.23199877	0.71129482	6.54322500	1
	-2.46400123	5.69036496	2.18107500	1
	6.16000123	0.71129482	6.54322500	1
	-1.23200000	3.55647624	2.18107500	1
	4.92800000	2.84518355	6.54322500	1
	1.23200123	3.55647837	2.18107500	1
	2.46399877	2.84518142	6.54322500	1
	-0.00000123	5.69036496	2.18107500	1
	3.69600123	0.71129482	6.54322500	1
	2.46400000	1.42258964	2.18107500	1
	1.23200000	4.97907014	6.54322500	1
	4.92800123	1.42259177	2.18107500	1
	-1.23200123	4.97906801	6.54322500	1
	3.69599877	3.55647837	2.18107500	1
	0.00000123	2.84518142	6.54322500	1
%endblock AtomicCoordinatesAndAtomicSpecies
Kgrid_NoTRS  T
%block kgrid_MonkhorstPack
4       0       0       0.0
0       4       0       0.0
0       0       4       0.0
%endblock kgrid_MonkhorstPack
AtomCoorFormatOut Ang
BlockSize 1
#ProcessorY 12
Diag.ParallelOverK   T
Diag.DivideAndConquer F
MeshCutoff   300 Ry
SCF.FreeE.Tolerance 1E-3 eV
SCF.EDM.Tolerance   5E-3 eV
DM.Tolerance  1E-3
DM.Require.Energy.Convergence T
DM.NumberPulay 4
#XC.Functional GGA
#CX.Authors    PBE
UseSaveData        F
SolutionMethod     diagon
MD.TypeOfRun       CG
MD.VariableCell    F
MD.NumCGsteps      00
MD.MaxCGDispl      0.200000 Bohr
#MD.MaxStressTol    1.000000 GPa
#MD.MaxForceTol     0.010000 eV/Ang
WriteMDHistory T
WriteCoorStep T
WriteForces T
WriteCoorStep    T
WriteEigenValues T
WriteDM    F
MM.UnitsDistance Ang  # what this program prints out DO NOT CHANGE
MM.UnitsEnergy    eV  # what this program prints out DO NOT CHANGE
MM.Grimme.S6     0.75 # Grimme-paper for PBE (correct for your functional)
MM.Grimme.D     20.   # Grimme-paper (correct for your functional)
%block MM.Potentials
  1   1 Grimme     18.14      2.904 # C, 10.1002/jcc.20495
%endblock MM.Potentials
#%block ProjectedDensityOfStates
# -200.0  120.0  0.4  12800  eV
#%endblock ProjectedDensityOfStates
************************** End of input data file *****************************

reinit: -----------------------------------------------------------------------
reinit: System Name: graphite_scf
reinit: -----------------------------------------------------------------------
reinit: System Label: graphite_scf
reinit: -----------------------------------------------------------------------
Reading two-body potentials
Grimme - two-body potential between 1 and 1

initatom: Reading input for the pseudopotentials and atomic orbitals ----------
Species number:   1 Atomic number:    6 Label: C-gga

Ground state valence configuration:   2s02  2p02
Reading pseudopotential information in formatted form from C-gga.psf

Valence configuration for pseudopotential generation:
2s( 2.00) rc: 1.56
2p( 2.00) rc: 1.56
3d( 0.00) rc: 1.56
4f( 0.00) rc: 1.56
relmxkb: Read Max KB Ang. Momentum=    2 for species C-gga

<basis_specs>
===============================================================================
C-gga                Z=   6    Mass=  12.010        Charge= 0.17977+309
Lmxo=1 Lmxkb= 2    BasisType=split      Semic=F
L=0  Nsemic=0  Cnfigmx=2
          i=1  nzeta=1  polorb=0  (2s)
            splnorm:   0.15000    
               vcte:    0.0000    
               rinn:    0.0000    
               qcoe:    0.0000    
               qyuk:    0.0000    
               qwid:   0.10000E-01
                rcs:    0.0000    
            lambdas:    1.0000    
L=1  Nsemic=0  Cnfigmx=2
          i=1  nzeta=1  polorb=0  (2p)
            splnorm:   0.15000    
               vcte:    0.0000    
               rinn:    0.0000    
               qcoe:    0.0000    
               qyuk:    0.0000    
               qwid:   0.10000E-01
                rcs:    0.0000    
            lambdas:    1.0000    
-------------------------------------------------------------------------------
L=0  Nkbl=1  erefs: 0.17977+309
L=1  Nkbl=1  erefs: 0.17977+309
L=2  Nkbl=1  erefs: 0.17977+309
===============================================================================
</basis_specs>

atom: Called for C-gga                 (Z =   6)

read_vps: Pseudopotential generation method:
read_vps: ATM 3.2.2 Troullier-Martins                       
Valence charge for ps generation:    4.00000

xc_check: Exchange-correlation functional:
xc_check: Ceperley-Alder
xc_check: WARNING: Pseudopotential generated with GGA PBE functional
V l=0 = -2*Zval/r beyond r=  1.5227
V l=1 = -2*Zval/r beyond r=  1.5227
V l=2 = -2*Zval/r beyond r=  1.5227
All V_l potentials equal beyond r=  1.4851
This should be close to max(r_c) in ps generation
All pots = -2*Zval/r beyond r=  1.5227

VLOCAL1: 99.0% of the norm of Vloc inside     19.682 Ry
VLOCAL1: 99.9% of the norm of Vloc inside     44.856 Ry
atom: Maximum radius for 4*pi*r*r*local-pseudopot. charge    1.79142
atom: Maximum radius for r*vlocal+2*Zval:    1.54183
GHOST: No ghost state for L =  0
GHOST: No ghost state for L =  1
GHOST: No ghost state for L =  2

KBgen: Kleinman-Bylander projectors: 
   l= 0   rc=  1.661951   el= -0.994756   Ekb=  5.296364   kbcos=  0.313951
   l= 1   rc=  1.661951   el= -0.376633   Ekb= -4.104879   kbcos= -0.344765
   l= 2   rc=  1.747182   el=  0.002326   Ekb= -1.006421   kbcos= -0.008606

KBgen: Total number of Kleinman-Bylander projectors:    9
atom: -------------------------------------------------------------------------

atom: SANKEY-TYPE ORBITALS:

SPLIT: Orbitals with angular momentum L= 0

SPLIT: Basis orbitals for state 2s

SPLIT: PAO cut-off radius determined from an
SPLIT: energy shift=  0.000735 Ry

   izeta = 1
                 lambda =    1.000000
                     rc =    5.948690
                 energy =   -0.994108
                kinetic =    0.809152
    potential(screened) =   -1.803260
       potential(ionic) =   -5.360717

SPLIT: Orbitals with angular momentum L= 1

SPLIT: Basis orbitals for state 2p

SPLIT: PAO cut-off radius determined from an
SPLIT: energy shift=  0.000735 Ry

   izeta = 1
                 lambda =    1.000000
                     rc =    7.638387
                 energy =   -0.375915
                kinetic =    2.245823
    potential(screened) =   -2.621738
       potential(ionic) =   -5.993382
atom: Total number of Sankey-type orbitals:  4

atm_pop: Valence configuration (for local Pseudopot. screening):
 2s( 2.00)                                                            
 2p( 2.00)                                                            
Vna: chval, zval:    4.00000   4.00000

Vna:  Cut-off radius for the neutral-atom potential:   7.638387

atom: _________________________________________________________________________

prinput: Basis input ----------------------------------------------------------

PAO.BasisType split     

%block ChemicalSpeciesLabel
    1    6 C-gga                   # Species index, atomic number, species label
%endblock ChemicalSpeciesLabel

%block PAO.Basis                 # Define Basis set
C-gga                 2                    # Species label, number of l-shells
 n=2   0   1                         # n, l, Nzeta 
   5.949   
   1.000   
 n=2   1   1                         # n, l, Nzeta 
   7.638   
   1.000   
%endblock PAO.Basis

prinput: ----------------------------------------------------------------------

coor:   Atomic-coordinates input format  =     Cartesian coordinates
coor:                                          (in Angstroms)

siesta: Atomic coordinates (Bohr) and species
siesta:      0.00000   0.00000   4.12164  1        1
siesta:      0.00000   0.00000  12.36491  1        2
siesta:     -2.32814   4.03246   4.12164  1        3
siesta:     -4.65629   8.06493  12.36491  1        4
siesta:      4.65629   8.06493   4.12164  1        5
siesta:      2.32814   4.03246  12.36491  1        6
siesta:      4.65629   0.00000   4.12164  1        7
siesta:      9.31257   0.00000  12.36491  1        8
siesta:      4.65629   0.00000  12.36491  1        9
siesta:      9.31257   0.00000   4.12164  1       10
siesta:      4.65629   8.06493  12.36491  1       11
siesta:      2.32814   4.03246   4.12164  1       12
siesta:     -2.32814   4.03246  12.36491  1       13
siesta:     -4.65629   8.06493   4.12164  1       14
siesta:      0.00000   8.06493   4.12164  1       15
siesta:      6.98443   4.03246  12.36491  1       16
siesta:      6.98443   4.03246   4.12164  1       17
siesta:      0.00000   8.06493  12.36491  1       18
siesta:      0.00000   2.68831   4.12164  1       19
siesta:      6.98443   9.40908  12.36491  1       20
siesta:      4.65629  10.75324   4.12164  1       21
siesta:      2.32814   1.34415  12.36491  1       22
siesta:     -4.65629  10.75324   4.12164  1       23
siesta:     11.64072   1.34415  12.36491  1       24
siesta:     -2.32814   6.72077   4.12164  1       25
siesta:      9.31257   5.37662  12.36491  1       26
siesta:      2.32815   6.72077   4.12164  1       27
siesta:      4.65628   5.37662  12.36491  1       28
siesta:     -0.00000  10.75324   4.12164  1       29
siesta:      6.98443   1.34415  12.36491  1       30
siesta:      4.65629   2.68831   4.12164  1       31
siesta:      2.32814   9.40908  12.36491  1       32
siesta:      9.31258   2.68831   4.12164  1       33
siesta:     -2.32815   9.40908  12.36491  1       34
siesta:      6.98443   6.72077   4.12164  1       35
siesta:      0.00000   5.37662  12.36491  1       36

siesta: System type = bulk      

initatomlists: Number of atoms, orbitals, and projectors:     36   144   324

siesta: ******************** Simulation parameters ****************************
siesta:
siesta: The following are some of the parameters of the simulation.
siesta: A complete list of the parameters used, including default values,
siesta: can be found in file out.fdf
siesta:
redata: Spin configuration                          = none
redata: Number of spin components                   = 1
redata: Time-Reversal Symmetry                      = T
redata: Spin spiral                                 = F
redata: Long output                                 =   F
redata: Number of Atomic Species                    =        1
redata: Charge density info will appear in .RHO file
redata: Write Mulliken Pop.                         = NO
redata: Matel table size (NRTAB)                    =     1024
redata: Mesh Cutoff                                 =   300.0000 Ry
redata: Net charge of the system                    =     0.0000 |e|
redata: Min. number of SCF Iter                     =        0
redata: Max. number of SCF Iter                     =     1000
redata: SCF convergence failure will abort job
redata: SCF mix quantity                            = Hamiltonian
redata: Mix DM or H after convergence               =   F
redata: Recompute H after scf cycle                 =   F
redata: Mix DM in first SCF step                    =   T
redata: Write Pulay info on disk                    =   F
redata: New DM Occupancy tolerance                  = 0.000000000001
redata: No kicks to SCF
redata: DM Mixing Weight for Kicks                  =     0.5000
redata: Require Harris convergence for SCF          =   F
redata: Harris energy tolerance for SCF             =     0.000100 eV
redata: Require DM convergence for SCF              =   T
redata: DM tolerance for SCF                        =     0.001000
redata: Require EDM convergence for SCF             =   F
redata: EDM tolerance for SCF                       =     0.005000 eV
redata: Require H convergence for SCF               =   T
redata: Hamiltonian tolerance for SCF               =     0.001000 eV
redata: Require (free) Energy convergence for SCF   =   T
redata: (free) Energy tolerance for SCF             =     0.001000 eV
redata: Using Saved Data (generic)                  =   F
redata: Use continuation files for DM               =   F
redata: Neglect nonoverlap interactions             =   F
redata: Method of Calculation                       = Diagonalization
redata: Electronic Temperature                      =   299.9869 K
redata: Fix the spin of the system                  =   F
redata: Dynamics option                             = Single-point calculation
mix.SCF: Pulay mixing                            = Pulay
mix.SCF:    Variant                              = stable
mix.SCF:    History steps                        = 4
mix.SCF:    Linear mixing weight                 =     0.250000
mix.SCF:    Mixing weight                        =     0.250000
mix.SCF:    SVD condition                        = 0.1000E-07
redata: ***********************************************************************

%block SCF.Mixers
  Pulay
%endblock SCF.Mixers

%block SCF.Mixer.Pulay
  # Mixing method
  method pulay
  variant stable

  # Mixing options
  weight 0.2500
  weight.linear 0.2500
  history 4
%endblock SCF.Mixer.Pulay

DM_history_depth set to one: no extrapolation allowed by default for geometry relaxation
Size of DM history Fstack: 1
Total number of electrons:   144.000000
Total ionic charge:   144.000000

* ProcessorY, Blocksize:    4   1


* Orbital distribution balance (max,min):     8     7

k-point displ. along   1 input, could be:     0.00    0.50
k-point displ. along   2 input, could be:     0.00    0.50
k-point displ. along   3 input, could be:     0.00    0.50
 Kpoints in:           48 . Kpoints trimmed:           44

siesta: k-grid: Number of k-points =    44
siesta: k-grid: Cutoff (effective) =    14.784 Ang
siesta: k-grid: Supercell and displacements
siesta: k-grid:    4   0   0      0.000
siesta: k-grid:    0   4   0      0.000
siesta: k-grid:    0   0   4      0.000

diag: Algorithm                                     = Expert
diag: Parallel over k                               =   T
diag: Use parallel 2D distribution                  =   T
diag: Parallel block-size                           = 1
diag: Parallel distribution                         =     4 x     5
diag: Used triangular part                          = Lower
diag: Absolute tolerance                            =  0.100E-15
diag: Orthogonalization factor                      =  0.100E-05
diag: Memory factor                                 =  1.0000

superc: Internal auxiliary supercell:     5 x     5 x     3  =      75
superc: Number of atoms, orbitals, and projectors:   2700  10800  24300


ts: **************************************************************
ts: Save H and S matrices                           =    F
ts: Save DM and EDM matrices                        =    F
ts: Only save the overlap matrix S                  =    F
ts: **************************************************************

************************ Begin: TS CHECKS AND WARNINGS ************************
************************ End: TS CHECKS AND WARNINGS **************************


                     ====================================
                        Single-point calculation
                     ====================================

outcoor: Atomic coordinates (Ang):                          
    0.00000000    0.00000000    2.18107500   1       1  C-gga
    0.00000000    0.00000000    6.54322500   1       2  C-gga
   -1.23200000    2.13388659    2.18107500   1       3  C-gga
   -2.46400000    4.26777319    6.54322500   1       4  C-gga
    2.46400000    4.26777319    2.18107500   1       5  C-gga
    1.23200000    2.13388659    6.54322500   1       6  C-gga
    2.46400000    0.00000000    2.18107500   1       7  C-gga
    4.92800000    0.00000000    6.54322500   1       8  C-gga
    2.46400000    0.00000000    6.54322500   1       9  C-gga
    4.92800000    0.00000000    2.18107500   1      10  C-gga
    2.46400000    4.26777319    6.54322500   1      11  C-gga
    1.23200000    2.13388659    2.18107500   1      12  C-gga
   -1.23200000    2.13388659    6.54322500   1      13  C-gga
   -2.46400000    4.26777319    2.18107500   1      14  C-gga
    0.00000000    4.26777319    2.18107500   1      15  C-gga
    3.69600000    2.13388659    6.54322500   1      16  C-gga
    3.69600000    2.13388659    2.18107500   1      17  C-gga
    0.00000000    4.26777319    6.54322500   1      18  C-gga
    0.00000000    1.42258964    2.18107500   1      19  C-gga
    3.69600000    4.97907014    6.54322500   1      20  C-gga
    2.46400123    5.69036496    2.18107500   1      21  C-gga
    1.23199877    0.71129482    6.54322500   1      22  C-gga
   -2.46400123    5.69036496    2.18107500   1      23  C-gga
    6.16000123    0.71129482    6.54322500   1      24  C-gga
   -1.23200000    3.55647624    2.18107500   1      25  C-gga
    4.92800000    2.84518355    6.54322500   1      26  C-gga
    1.23200123    3.55647837    2.18107500   1      27  C-gga
    2.46399877    2.84518142    6.54322500   1      28  C-gga
   -0.00000123    5.69036496    2.18107500   1      29  C-gga
    3.69600123    0.71129482    6.54322500   1      30  C-gga
    2.46400000    1.42258964    2.18107500   1      31  C-gga
    1.23200000    4.97907014    6.54322500   1      32  C-gga
    4.92800123    1.42259177    2.18107500   1      33  C-gga
   -1.23200123    4.97906801    6.54322500   1      34  C-gga
    3.69599877    3.55647837    2.18107500   1      35  C-gga
    0.00000123    2.84518142    6.54322500   1      36  C-gga

superc: Internal auxiliary supercell:     5 x     5 x     3  =      75
superc: Number of atoms, orbitals, and projectors:   2700  10800  24300

outcell: Unit cell vectors (Ang):
        7.392000    0.000000    0.000000
       -3.696000    6.401660    0.000000
        0.000000    0.000000    8.724300

outcell: Cell vector modules (Ang)   :    7.392000    7.392000    8.724300
outcell: Cell angles (23,13,12) (deg):     90.0000     90.0000    120.0000
outcell: Cell volume (Ang**3)        :    412.8432
<dSpData1D:S at geom step 0
  <sparsity:sparsity for geom step 0
    nrows_g=144 nrows=8 sparsity=.2369 nnzs=4912, refcount: 7>
  <dData1D:(new from dSpData1D) n=4912, refcount: 1>
refcount: 1>
new_DM -- step:     1
Initializing Density Matrix...
DM filled with atomic data:
<dSpData2D:DM initialized from atoms
  <sparsity:sparsity for geom step 0
    nrows_g=144 nrows=8 sparsity=.2369 nnzs=4912, refcount: 8>
  <dData2D:DM n=4912 m=1, refcount: 1>
refcount: 1>
No. of atoms with KB's overlaping orbs in proc 0. Max # of overlaps:      79     148
New grid distribution:   1
           1       1:   36    1:    9    1:   10
           2       1:   36    1:    9   11:   20
           3       1:   36    1:    9   21:   30
           4       1:   36    1:    9   31:   39
           5       1:   36    1:    9   40:   48
           6       1:   36   10:   18    1:   10
           7       1:   36   10:   18   11:   20
           8       1:   36   10:   18   21:   30
           9       1:   36   10:   18   31:   39
          10       1:   36   10:   18   40:   48
          11       1:   36   19:   27    1:   10
          12       1:   36   19:   27   11:   20
          13       1:   36   19:   27   21:   30
          14       1:   36   19:   27   31:   39
          15       1:   36   19:   27   40:   48
          16       1:   36   28:   36    1:   10
          17       1:   36   28:   36   11:   20
          18       1:   36   28:   36   21:   30
          19       1:   36   28:   36   31:   39
          20       1:   36   28:   36   40:   48

InitMesh: MESH =    72 x    72 x    96 =      497664
InitMesh: (bp) =    36 x    36 x    48 =       62208
InitMesh: Mesh cutoff (required, used) =   300.000   334.644 Ry
ExtMesh (bp) on 0 =   128 x   101 x   102 =     1318656
New grid distribution:   2
           1       1:   15   19:   36   37:   48
           2       1:   15    1:   18   13:   24
           3       1:   14    1:   18   25:   36
           4       1:   14    1:   18   37:   48
           5      15:   36    1:    9   32:   48
           6       1:   15    1:   18    1:   12
           7      16:   36   10:   18    8:   24
           8      15:   36    1:   18   25:   31
           9      16:   36    1:    9    8:   24
          10      15:   36   10:   18   32:   48
          11      16:   36   19:   36    1:    7
          12      16:   36   19:   27    8:   24
          13       1:   15   19:   36   25:   36
          14      16:   36    1:   18    1:    7
          15      16:   36   19:   27   32:   48
          16       1:   15   19:   36    1:   12
          17       1:   15   19:   36   13:   24
          18      16:   36   28:   36    8:   24
          19      16:   36   19:   36   25:   31
          20      16:   36   28:   36   32:   48
New grid distribution:   3
           1      16:   36   19:   36   25:   32
           2       1:   15    1:   18   13:   24
           3       1:   15    1:   18   25:   36
           4      16:   36   19:   36    1:    8
           5       1:   15   19:   36   37:   48
           6       1:   15    1:   18    1:   12
           7      16:   36   28:   36    9:   24
           8      16:   36   10:   18    9:   24
           9      16:   36    1:   18    1:    8
          10       1:   15    1:   18   37:   48
          11      16:   36   19:   27    9:   24
          12       1:   15   19:   36   13:   24
          13      16:   36    1:    9   33:   48
          14      16:   36    1:   18   25:   32
          15      16:   36   19:   27   33:   48
          16       1:   15   19:   36    1:   12
          17      16:   36   10:   18   33:   48
          18       1:   15   19:   36   25:   36
          19      16:   36    1:    9    9:   24
          20      16:   36   28:   36   33:   48
Setting up quadratic distribution...
ExtMesh (bp) on 0 =   107 x   110 x   104 =     1224080
PhiOnMesh: Number of (b)points on node 0 =                 3240
PhiOnMesh: nlist on node 0 =               286703

stepf: Fermi-Dirac step function

siesta: Program's energy decomposition (eV):
siesta: Ebs     =     -2600.567744
siesta: Eions   =      9434.507561
siesta: Ena     =      2271.159941
siesta: Ekin    =      3582.583053
siesta: Enl     =      -332.486342
siesta: Eso     =         0.000000
siesta: Edftu   =         0.000000
siesta: DEna    =        24.432171
siesta: DUscf   =         2.861252
siesta: DUext   =         0.000000
siesta: Exc     =     -1619.079008
siesta: eta*DQ  =         0.000000
siesta: Emadel  =         0.000000
siesta: Emeta   =         0.000000
siesta: Emolmec =        -2.801932
siesta: Ekinion =         0.000000
siesta: Eharris =     -5357.069636
siesta: Etot    =     -5507.838426
siesta: FreeEng =     -5507.853881

        iscf     Eharris(eV)        E_KS(eV)     FreeEng(eV)     dDmax    Ef(eV) dHmax(eV)
   scf:    1    -5357.069636    -5507.838426    -5507.853881  1.337141 -8.252782  0.297065
timer: Routine,Calls,Time,% = IterSCF        1       0.918  44.38
   scf:    2    -5507.840521    -5507.839475    -5507.855050  0.000522 -8.308469  0.223017
   scf:    3    -5507.841675    -5507.840585    -5507.856524  0.001536 -8.476479  0.000716
   scf:    4    -5507.840585    -5507.840585    -5507.856525  0.000031 -8.476881  0.000368

SCF Convergence by FreeE+DM+H criterion
|FreeE_i-FreeE_(i-1)| (eV) <     0.00100000
max |DM_out - DM_in|         :     0.0000313108
max |H_out - H_in|      (eV) :     0.0003681111
SCF cycle converged after 4 iterations

Using DM_out to compute the final energy and forces
No. of atoms with KB's overlaping orbs in proc 0. Max # of overlaps:      79     148

MM-Stress (kbar):        3.64        3.64       13.41        0.00        0.00        0.00

siesta: E_KS(eV) =            -5507.8406

siesta: E_KS - E_eggbox =     -5507.8406

siesta: Atomic forces (eV/Ang):
     1   -0.000000   -0.000000    0.000000
     2    0.000000   -0.000000    0.000000
     3    0.000076   -0.000056   -0.000000
     4   -0.000076    0.000057    0.000000
     5    0.000011    0.000094   -0.000000
     6   -0.000011   -0.000094    0.000000
     7   -0.000087   -0.000038   -0.000000
     8    0.000087    0.000037    0.000000
     9   -0.000016   -0.000013   -0.000000
    10    0.000016    0.000012    0.000000
    11   -0.000003    0.000020    0.000000
    12    0.000003   -0.000019    0.000000
    13    0.000019   -0.000007    0.000000
    14   -0.000019    0.000007    0.000000
    15   -0.000000   -0.000000    0.000000
    16    0.000000    0.000000   -0.000000
    17   -0.000000    0.000000   -0.000000
    18    0.000000    0.000000    0.000000
    19    0.000006    0.000272    0.000000
    20   -0.000006   -0.000272    0.000000
    21   -0.000239   -0.000130    0.000000
    22    0.000239    0.000131   -0.000000
    23    0.000233   -0.000141    0.000000
    24   -0.000233    0.000142    0.000000
    25    0.000009    0.000256    0.000000
    26   -0.000009   -0.000257    0.000000
    27   -0.000227   -0.000121   -0.000000
    28    0.000227    0.000120    0.000000
    29    0.000217   -0.000136   -0.000000
    30   -0.000217    0.000136    0.000000
    31    0.000009    0.000256    0.000000
    32   -0.000009   -0.000256    0.000000
    33   -0.000226   -0.000120   -0.000000
    34    0.000226    0.000121    0.000000
    35    0.000217   -0.000136    0.000000
    36   -0.000217    0.000136   -0.000000
----------------------------------------
   Tot    0.000000   -0.000000    0.000000
----------------------------------------
   Max    0.000272
   Res    0.000109    sqrt( Sum f_i^2 / 3N )
----------------------------------------
   Max    0.000272    constrained

Stress tensor Voigt[x,y,z,yz,xz,xy] (kbar):     -326.61     -326.61       69.84       -0.00        0.00        0.00
(Free)E + p*V (eV/cell)    -5457.7503
Target enthalpy (eV/cell)    -5507.8565

siesta: Eigenvalues (eV):
  ik is       eps
   1  1  -27.8037  -27.7703  -27.0831  -27.0831  -27.0677  -27.0677  -25.1496  -25.1496  -25.1091  -25.1091
         -24.0305  -23.9640  -23.6177  -23.6177  -23.5626  -23.5626  -22.9941  -22.9639  -21.5603  -21.5001
  -21.3710  -21.3710  -21.2929  -21.2929  -19.9650  -19.9387  -18.9712  -18.9712  -18.9396  -18.9396
  -18.1407  -18.1392  -17.6834  -17.6633  -16.9721  -16.9721  -16.9579  -16.9579  -16.5828  -16.5828
  -16.5682  -16.5682  -16.1958  -16.1958  -16.1871  -16.1871  -14.8768  -14.8768  -14.8687  -14.8687
  -14.6254  -14.6218  -14.3585  -14.1480  -13.9674  -13.9634  -13.8194  -13.8194  -13.6255  -13.6255
  -12.1254  -12.1254  -12.0404  -12.0404  -10.9770  -10.9688  -10.7841  -10.7841  -10.7753  -10.7753
  -10.1684  -10.1600   -6.8151   -6.7696   -6.1848   -6.1847   -6.0917   -6.0917   -5.6663   -5.6054
   -4.0030   -4.0029   -3.9405   -3.9405   -0.5457   -0.5457   -0.5133   -0.5133    0.9322    0.9494
    0.9597    1.0651    1.0651    1.0989    1.0989    1.1169    1.4071    1.4071    1.5608    1.5608
    1.8002    1.8024    2.9089    2.9142    3.1245    3.1245    3.1659    3.1659    3.4584    3.4584
    3.5129    3.5129    4.7240    4.7619    5.0050    5.0103    5.8950    5.8950    6.0027    6.0027
    6.5024    6.5360    6.9731    6.9731    6.9914    6.9914    9.0688    9.1099    9.8712    9.8712
    9.8956    9.8956   11.6082   11.6082   11.6263   11.6263   12.8101   12.8101   12.8543   12.8543
   13.3038   13.3092   13.7339   13.7411
   2  1  -28.1743  -28.1327  -26.7342  -26.7283  -26.0729  -26.0729  -26.0595  -26.0595  -24.8641  -24.8641
         -24.8177  -24.8177  -24.3251  -24.2702  -22.8494  -22.8494  -22.7822  -22.7822  -21.1245  -21.1245
  -21.0764  -21.0764  -20.7162  -20.6412  -19.8402  -19.8402  -19.7813  -19.7813  -18.7406  -18.7406
  -18.7186  -18.7186  -18.0300  -18.0300  -18.0024  -18.0024  -17.0473  -17.0273  -16.2826  -16.2826
  -16.2705  -16.2705  -16.0333  -16.0181  -15.6973  -15.6973  -15.6881  -15.6881  -14.9299  -14.9207
  -14.6222  -14.4093  -13.6448  -13.6424  -13.5456  -13.3650  -13.3552  -13.3531  -12.9863  -12.9863
  -12.8399  -12.8399  -11.8775  -11.8775  -11.8102  -11.8102  -11.4057  -11.3694   -9.7805   -9.7805
   -9.7426   -9.7426   -7.1674   -7.1674   -7.1177   -7.1177   -5.3536   -5.2401   -4.5318   -4.5318
   -4.4334   -4.4334   -2.4647   -2.4647   -2.4014   -2.4014   -1.2402   -1.1893    0.3580    0.3887
    0.4238    0.4266    0.6695    0.7901    0.9029    0.9061    1.2018    1.2018    1.2258    1.2258
    1.3586    1.3586    1.4402    1.4402    1.7445    1.7547    4.1057    4.1113    5.0763    5.0763
    5.1142    5.1142    5.5109    5.5120    5.9136    5.9136    5.9973    5.9973    7.2955    7.4115
    7.7150    7.7150    7.7674    7.7674    8.3373    8.3373    8.3998    8.3998    9.3373    9.3373
    9.3968    9.3968    9.9130    9.9142   11.4660   11.4660   11.5468   11.5468   11.7005   11.8275
   14.2067   14.2067   14.2103   14.2103
   3  1  -28.1743  -28.1327  -26.7342  -26.7283  -26.0729  -26.0729  -26.0595  -26.0595  -24.8641  -24.8641
         -24.8177  -24.8177  -24.3251  -24.2702  -22.8494  -22.8494  -22.7822  -22.7822  -21.1245  -21.1245
  -21.0764  -21.0764  -20.7162  -20.6412  -19.8402  -19.8402  -19.7813  -19.7813  -18.7406  -18.7406
  -18.7186  -18.7186  -18.0300  -18.0300  -18.0024  -18.0024  -17.0473  -17.0273  -16.2826  -16.2826
  -16.2705  -16.2705  -16.0333  -16.0181  -15.6973  -15.6973  -15.6881  -15.6881  -14.9299  -14.9207
  -14.6222  -14.4093  -13.6448  -13.6424  -13.5456  -13.3650  -13.3552  -13.3531  -12.9863  -12.9863
  -12.8399  -12.8399  -11.8775  -11.8775  -11.8102  -11.8102  -11.4057  -11.3694   -9.7805   -9.7805
   -9.7426   -9.7426   -7.1674   -7.1674   -7.1177   -7.1177   -5.3536   -5.2401   -4.5318   -4.5318
   -4.4334   -4.4334   -2.4647   -2.4647   -2.4014   -2.4014   -1.2402   -1.1893    0.3580    0.3887
    0.4238    0.4266    0.6695    0.7901    0.9029    0.9061    1.2018    1.2018    1.2258    1.2258
    1.3586    1.3586    1.4402    1.4402    1.7445    1.7547    4.1057    4.1113    5.0763    5.0763
    5.1142    5.1142    5.5109    5.5120    5.9136    5.9136    5.9973    5.9973    7.2955    7.4115
    7.7150    7.7150    7.7674    7.7674    8.3373    8.3373    8.3998    8.3998    9.3373    9.3373
    9.3968    9.3968    9.9130    9.9142   11.4660   11.4660   11.5468   11.5468   11.7005   11.8275
   14.2067   14.2067   14.2103   14.2103
   4  1  -27.8037  -27.7703  -27.0831  -27.0831  -27.0677  -27.0677  -25.1496  -25.1496  -25.1091  -25.1091
         -24.0305  -23.9640  -23.6177  -23.6177  -23.5626  -23.5626  -22.9941  -22.9639  -21.5603  -21.5001
  -21.3710  -21.3710  -21.2929  -21.2929  -19.9650  -19.9387  -18.9712  -18.9712  -18.9396  -18.9396
  -18.1407  -18.1392  -17.6834  -17.6633  -16.9721  -16.9721  -16.9579  -16.9579  -16.5828  -16.5828
  -16.5682  -16.5682  -16.1958  -16.1958  -16.1871  -16.1871  -14.8768  -14.8768  -14.8687  -14.8687
  -14.6254  -14.6218  -14.3585  -14.1480  -13.9674  -13.9634  -13.8194  -13.8194  -13.6255  -13.6255
  -12.1254  -12.1254  -12.0404  -12.0404  -10.9770  -10.9688  -10.7841  -10.7841  -10.7753  -10.7753
  -10.1684  -10.1600   -6.8151   -6.7696   -6.1848   -6.1847   -6.0917   -6.0917   -5.6663   -5.6054
   -4.0030   -4.0029   -3.9405   -3.9405   -0.5457   -0.5457   -0.5133   -0.5133    0.9322    0.9494
    0.9597    1.0651    1.0651    1.0989    1.0989    1.1169    1.4071    1.4071    1.5608    1.5608
    1.8002    1.8024    2.9089    2.9142    3.1245    3.1245    3.1659    3.1659    3.4584    3.4584
    3.5129    3.5129    4.7240    4.7619    5.0050    5.0103    5.8950    5.8950    6.0027    6.0027
    6.5024    6.5360    6.9731    6.9731    6.9914    6.9914    9.0688    9.1099    9.8712    9.8712
    9.8956    9.8956   11.6082   11.6082   11.6263   11.6263   12.8101   12.8101   12.8543   12.8543
   13.3038   13.3092   13.7339   13.7411
   5  1  -28.1743  -28.1327  -26.7342  -26.7283  -26.0729  -26.0729  -26.0595  -26.0595  -24.8641  -24.8641
         -24.8177  -24.8177  -24.3251  -24.2702  -22.8494  -22.8494  -22.7822  -22.7822  -21.1245  -21.1245
  -21.0764  -21.0764  -20.7162  -20.6412  -19.8402  -19.8402  -19.7813  -19.7813  -18.7406  -18.7406
  -18.7186  -18.7186  -18.0300  -18.0300  -18.0024  -18.0024  -17.0473  -17.0273  -16.2826  -16.2826
  -16.2705  -16.2705  -16.0333  -16.0181  -15.6973  -15.6973  -15.6881  -15.6881  -14.9299  -14.9207
  -14.6222  -14.4093  -13.6448  -13.6424  -13.5456  -13.3650  -13.3552  -13.3531  -12.9863  -12.9863
  -12.8399  -12.8399  -11.8775  -11.8775  -11.8102  -11.8102  -11.4057  -11.3694   -9.7805   -9.7805
   -9.7426   -9.7426   -7.1674   -7.1674   -7.1177   -7.1177   -5.3536   -5.2401   -4.5318   -4.5318
   -4.4334   -4.4334   -2.4647   -2.4647   -2.4014   -2.4014   -1.2402   -1.1893    0.3580    0.3887
    0.4238    0.4266    0.6695    0.7901    0.9029    0.9061    1.2018    1.2018    1.2258    1.2258
    1.3586    1.3586    1.4402    1.4402    1.7445    1.7547    4.1057    4.1113    5.0763    5.0763
    5.1142    5.1142    5.5109    5.5120    5.9136    5.9136    5.9973    5.9973    7.2955    7.4115
    7.7150    7.7150    7.7674    7.7674    8.3373    8.3373    8.3998    8.3998    9.3373    9.3373
    9.3968    9.3968    9.9130    9.9142   11.4660   11.4660   11.5468   11.5468   11.7005   11.8275
   14.2067   14.2067   14.2103   14.2103
   6  1  -28.3620  -28.3166  -25.6042  -25.6042  -25.6042  -25.6042  -25.6042  -25.6042  -25.5775  -25.5775
         -25.5775  -25.5775  -25.5775  -25.5775  -21.8486  -21.8486  -21.8140  -21.8140  -21.8140  -21.8140
  -21.7776  -21.7776  -19.2913  -19.2913  -19.2913  -19.2913  -18.9694  -18.9694  -18.9694  -18.9694
  -18.9694  -18.9694  -18.9245  -18.9245  -18.9245  -18.9245  -18.9245  -18.9245  -15.6050  -15.6050
  -15.6050  -15.6050  -15.6050  -15.6050  -15.5923  -15.5923  -15.5923  -15.5923  -15.5923  -15.5923
  -14.7526  -14.5402  -13.0337  -13.0337  -13.0322  -13.0322  -12.5723  -12.5723  -12.5723  -12.5723
  -12.5723  -12.5723  -12.4549  -12.4549  -12.4549  -12.4549  -12.4549  -12.4549   -8.5225   -8.5225
   -8.4769   -8.4769   -8.4769   -8.4769   -8.4302   -8.4302   -3.3394   -3.3394   -3.3394   -3.3394
   -3.3394   -3.3394   -3.2480   -3.2480   -3.2480   -3.2480   -3.2480   -3.2480    0.1369    0.1369
    0.1397    0.1397    0.5551    0.5551    0.5551    0.5551    0.5551    0.5551    0.6000    0.6000
    0.6000    0.6000    0.6000    0.6000    2.1719    2.1780    3.7637    3.7701    6.7205    6.7205
    6.7875    6.7875    6.7875    6.7875    6.8542    6.8542    8.0591    8.0591    8.0591    8.0591
    8.0591    8.0591    8.0606    8.0606    8.0606    8.0607    8.0607    8.0607    9.6454    9.6454
    9.6454    9.6454    9.6454    9.6454    9.8113    9.8113    9.8113    9.8113    9.8113    9.8113
   14.5618   14.5618   14.5618   14.5618
   7  1  -27.6209  -27.6209  -27.5918  -27.5918  -26.2332  -26.2332  -26.2243  -26.2243  -23.9153  -23.9153
         -23.9153  -23.9153  -23.8501  -23.8501  -23.8501  -23.8501  -23.3933  -23.3678  -21.7678  -21.6954
  -20.5484  -20.5484  -20.5484  -20.5484  -20.4838  -20.4838  -20.4838  -20.4838  -17.5093  -17.5093
  -17.5093  -17.5093  -17.4923  -17.4923  -17.4923  -17.4923  -17.4553  -17.4553  -17.4449  -17.4449
  -16.1789  -16.1628  -16.0345  -16.0345  -16.0162  -16.0162  -15.1569  -15.1569  -15.1493  -15.1493
  -14.2253  -14.2253  -14.1060  -14.1060  -14.1008  -14.1008  -14.0175  -14.0175  -13.1232  -13.1232
  -12.9679  -12.9679  -10.9159  -10.9159  -10.9159  -10.9159  -10.9084  -10.9084  -10.9084  -10.9084
  -10.7118  -10.7019   -6.3582   -6.2667   -5.8400   -5.8400   -5.8400   -5.8400   -5.7609   -5.7609
   -5.7609   -5.7609   -2.1355   -2.1355   -2.0940   -2.0940    0.3103    0.3604    0.5417    0.5417
    0.5650    0.5650    0.6323    0.6323    0.7826    0.7826    2.9021    2.9021    2.9047    2.9047
    2.9703    2.9703    2.9703    2.9703    2.9811    2.9811    2.9811    2.9811    3.3025    3.3025
    3.3091    3.3091    3.3842    3.3842    3.5978    3.5978    5.3059    5.3059    5.3371    5.3371
    8.1489    8.1489    8.1489    8.1489    8.2032    8.2032    8.2032    8.2032    9.4013    9.4013
    9.4068    9.4068   10.5918   10.5919   12.5827   12.6068   13.1563   13.1563   13.1563   13.1563
   13.1801   13.1801   13.1801   13.1801
   8  1  -27.8037  -27.7703  -27.0831  -27.0831  -27.0677  -27.0677  -25.1496  -25.1496  -25.1091  -25.1091
         -24.0305  -23.9640  -23.6177  -23.6177  -23.5626  -23.5626  -22.9941  -22.9639  -21.5603  -21.5001
  -21.3710  -21.3710  -21.2929  -21.2929  -19.9650  -19.9387  -18.9712  -18.9712  -18.9396  -18.9396
  -18.1407  -18.1392  -17.6834  -17.6633  -16.9721  -16.9721  -16.9579  -16.9579  -16.5828  -16.5828
  -16.5682  -16.5682  -16.1958  -16.1958  -16.1871  -16.1871  -14.8768  -14.8768  -14.8687  -14.8687
  -14.6254  -14.6218  -14.3585  -14.1480  -13.9674  -13.9634  -13.8194  -13.8194  -13.6255  -13.6255
  -12.1254  -12.1254  -12.0404  -12.0404  -10.9770  -10.9688  -10.7841  -10.7841  -10.7753  -10.7753
  -10.1684  -10.1600   -6.8151   -6.7696   -6.1848   -6.1847   -6.0917   -6.0917   -5.6663   -5.6054
   -4.0030   -4.0029   -3.9405   -3.9405   -0.5457   -0.5457   -0.5133   -0.5133    0.9322    0.9494
    0.9597    1.0651    1.0651    1.0989    1.0989    1.1169    1.4071    1.4071    1.5608    1.5608
    1.8002    1.8024    2.9089    2.9142    3.1245    3.1245    3.1659    3.1659    3.4584    3.4584
    3.5129    3.5129    4.7240    4.7619    5.0050    5.0103    5.8950    5.8950    6.0027    6.0027
    6.5024    6.5360    6.9731    6.9731    6.9914    6.9914    9.0688    9.1099    9.8712    9.8712
    9.8956    9.8956   11.6082   11.6082   11.6263   11.6263   12.8101   12.8101   12.8543   12.8543
   13.3038   13.3092   13.7339   13.7411
   9  1  -27.8037  -27.7703  -27.0831  -27.0831  -27.0677  -27.0677  -25.1496  -25.1496  -25.1091  -25.1091
         -24.0305  -23.9640  -23.6177  -23.6177  -23.5626  -23.5626  -22.9941  -22.9639  -21.5603  -21.5001
  -21.3710  -21.3710  -21.2929  -21.2929  -19.9650  -19.9387  -18.9712  -18.9712  -18.9396  -18.9396
  -18.1407  -18.1392  -17.6834  -17.6633  -16.9721  -16.9721  -16.9579  -16.9579  -16.5828  -16.5828
  -16.5682  -16.5682  -16.1958  -16.1958  -16.1871  -16.1871  -14.8768  -14.8768  -14.8687  -14.8687
  -14.6254  -14.6218  -14.3585  -14.1480  -13.9674  -13.9634  -13.8194  -13.8194  -13.6255  -13.6255
  -12.1254  -12.1254  -12.0404  -12.0404  -10.9770  -10.9688  -10.7841  -10.7841  -10.7753  -10.7753
  -10.1684  -10.1600   -6.8151   -6.7696   -6.1848   -6.1847   -6.0917   -6.0917   -5.6663   -5.6054
   -4.0030   -4.0029   -3.9405   -3.9405   -0.5457   -0.5457   -0.5133   -0.5133    0.9322    0.9494
    0.9597    1.0651    1.0651    1.0989    1.0989    1.1169    1.4071    1.4071    1.5608    1.5608
    1.8002    1.8024    2.9089    2.9142    3.1245    3.1245    3.1659    3.1659    3.4584    3.4584
    3.5129    3.5129    4.7240    4.7619    5.0050    5.0103    5.8950    5.8950    6.0027    6.0027
    6.5024    6.5360    6.9731    6.9731    6.9914    6.9914    9.0688    9.1099    9.8712    9.8712
    9.8956    9.8956   11.6082   11.6082   11.6263   11.6263   12.8101   12.8101   12.8543   12.8543
   13.3038   13.3092   13.7339   13.7411
  10  1  -27.6209  -27.6209  -27.5918  -27.5918  -26.2332  -26.2332  -26.2243  -26.2243  -23.9153  -23.9153
         -23.9153  -23.9153  -23.8501  -23.8501  -23.8501  -23.8501  -23.3933  -23.3678  -21.7678  -21.6954
  -20.5484  -20.5484  -20.5484  -20.5484  -20.4838  -20.4838  -20.4838  -20.4838  -17.5093  -17.5093
  -17.5093  -17.5093  -17.4923  -17.4923  -17.4923  -17.4923  -17.4553  -17.4553  -17.4449  -17.4449
  -16.1789  -16.1628  -16.0345  -16.0345  -16.0162  -16.0162  -15.1569  -15.1569  -15.1493  -15.1493
  -14.2253  -14.2253  -14.1060  -14.1060  -14.1008  -14.1008  -14.0175  -14.0175  -13.1232  -13.1232
  -12.9679  -12.9679  -10.9159  -10.9159  -10.9159  -10.9159  -10.9084  -10.9084  -10.9084  -10.9084
  -10.7118  -10.7019   -6.3582   -6.2667   -5.8400   -5.8400   -5.8400   -5.8400   -5.7609   -5.7609
   -5.7609   -5.7609   -2.1355   -2.1355   -2.0940   -2.0940    0.3103    0.3604    0.5417    0.5417
    0.5650    0.5650    0.6323    0.6323    0.7826    0.7826    2.9021    2.9021    2.9047    2.9047
    2.9703    2.9703    2.9703    2.9703    2.9811    2.9811    2.9811    2.9811    3.3025    3.3025
    3.3091    3.3091    3.3842    3.3842    3.5978    3.5978    5.3059    5.3059    5.3371    5.3371
    8.1489    8.1489    8.1489    8.1489    8.2032    8.2032    8.2032    8.2032    9.4013    9.4013
    9.4068    9.4068   10.5918   10.5919   12.5827   12.6068   13.1563   13.1563   13.1563   13.1563
   13.1801   13.1801   13.1801   13.1801
  11  1  -27.8037  -27.7703  -27.0831  -27.0831  -27.0677  -27.0677  -25.1496  -25.1496  -25.1091  -25.1091
         -24.0305  -23.9640  -23.6177  -23.6177  -23.5626  -23.5626  -22.9941  -22.9639  -21.5603  -21.5001
  -21.3710  -21.3710  -21.2929  -21.2929  -19.9650  -19.9387  -18.9712  -18.9712  -18.9396  -18.9396
  -18.1407  -18.1392  -17.6834  -17.6633  -16.9721  -16.9721  -16.9579  -16.9579  -16.5828  -16.5828
  -16.5682  -16.5682  -16.1958  -16.1958  -16.1871  -16.1871  -14.8768  -14.8768  -14.8687  -14.8687
  -14.6254  -14.6218  -14.3585  -14.1480  -13.9674  -13.9634  -13.8194  -13.8194  -13.6255  -13.6255
  -12.1254  -12.1254  -12.0404  -12.0404  -10.9770  -10.9688  -10.7841  -10.7841  -10.7753  -10.7753
  -10.1684  -10.1600   -6.8151   -6.7696   -6.1848   -6.1847   -6.0917   -6.0917   -5.6663   -5.6054
   -4.0030   -4.0029   -3.9405   -3.9405   -0.5457   -0.5457   -0.5133   -0.5133    0.9322    0.9494
    0.9597    1.0651    1.0651    1.0989    1.0989    1.1169    1.4071    1.4071    1.5608    1.5608
    1.8002    1.8024    2.9089    2.9142    3.1245    3.1245    3.1659    3.1659    3.4584    3.4584
    3.5129    3.5129    4.7240    4.7619    5.0050    5.0103    5.8950    5.8950    6.0027    6.0027
    6.5024    6.5360    6.9731    6.9731    6.9914    6.9914    9.0688    9.1099    9.8712    9.8712
    9.8956    9.8956   11.6082   11.6082   11.6263   11.6263   12.8101   12.8101   12.8543   12.8543
   13.3038   13.3092   13.7339   13.7411
  12  1  -27.6209  -27.6209  -27.5918  -27.5918  -26.2332  -26.2332  -26.2243  -26.2243  -23.9153  -23.9153
         -23.9153  -23.9153  -23.8501  -23.8501  -23.8501  -23.8501  -23.3933  -23.3678  -21.7678  -21.6954
  -20.5484  -20.5484  -20.5484  -20.5484  -20.4838  -20.4838  -20.4838  -20.4838  -17.5093  -17.5093
  -17.5093  -17.5093  -17.4923  -17.4923  -17.4923  -17.4923  -17.4553  -17.4553  -17.4449  -17.4449
  -16.1789  -16.1628  -16.0345  -16.0345  -16.0162  -16.0162  -15.1569  -15.1569  -15.1493  -15.1493
  -14.2253  -14.2253  -14.1060  -14.1060  -14.1008  -14.1008  -14.0175  -14.0175  -13.1232  -13.1232
  -12.9679  -12.9679  -10.9159  -10.9159  -10.9159  -10.9159  -10.9084  -10.9084  -10.9084  -10.9084
  -10.7118  -10.7019   -6.3582   -6.2667   -5.8400   -5.8400   -5.8400   -5.8400   -5.7609   -5.7609
   -5.7609   -5.7609   -2.1355   -2.1355   -2.0940   -2.0940    0.3103    0.3604    0.5417    0.5417
    0.5650    0.5650    0.6323    0.6323    0.7826    0.7826    2.9021    2.9021    2.9047    2.9047
    2.9703    2.9703    2.9703    2.9703    2.9811    2.9811    2.9811    2.9811    3.3025    3.3025
    3.3091    3.3091    3.3842    3.3842    3.5978    3.5978    5.3059    5.3059    5.3371    5.3371
    8.1489    8.1489    8.1489    8.1489    8.2032    8.2032    8.2032    8.2032    9.4013    9.4013
    9.4068    9.4068   10.5918   10.5919   12.5827   12.6068   13.1563   13.1563   13.1563   13.1563
   13.1801   13.1801   13.1801   13.1801
  13  1  -27.7998  -27.7760  -27.0820  -27.0820  -27.0710  -27.0710  -25.1448  -25.1448  -25.1162  -25.1162
         -24.0216  -23.9746  -23.6099  -23.6099  -23.5710  -23.5710  -22.9894  -22.9680  -21.5528  -21.5101
  -21.3606  -21.3606  -21.3054  -21.3054  -19.9610  -19.9424  -18.9667  -18.9667  -18.9443  -18.9443
  -18.1412  -18.1402  -17.6807  -17.6665  -16.9706  -16.9706  -16.9606  -16.9606  -16.5807  -16.5807
  -16.5704  -16.5704  -16.1948  -16.1948  -16.1886  -16.1886  -14.8763  -14.8763  -14.8707  -14.8707
  -14.6249  -14.6223  -14.3207  -14.1733  -13.9656  -13.9632  -13.7845  -13.7845  -13.6483  -13.6483
  -12.1113  -12.1113  -12.0514  -12.0514  -10.9757  -10.9699  -10.7828  -10.7828  -10.7766  -10.7766
  -10.1672  -10.1613   -6.8095   -6.7773   -6.1724   -6.1724   -6.1065   -6.1065   -5.6575   -5.6144
   -3.9939   -3.9939   -3.9497   -3.9497   -0.5410   -0.5410   -0.5180   -0.5180    0.9346    0.9465
    0.9873    1.0703    1.0704    1.0942    1.0943    1.0977    1.4338    1.4338    1.5420    1.5420
    1.8005    1.8020    2.9099    2.9136    3.1315    3.1315    3.1607    3.1607    3.4670    3.4670
    3.5056    3.5056    4.7296    4.7564    5.0058    5.0095    5.9126    5.9126    5.9887    5.9887
    6.5086    6.5323    6.9760    6.9760    6.9890    6.9890    9.0749    9.1040    9.8751    9.8751
    9.8923    9.8923   11.6109   11.6109   11.6237   11.6237   12.8170   12.8170   12.8482   12.8482
   13.3046   13.3084   13.7350   13.7401
  14  1  -28.1691  -28.1395  -26.7345  -26.7303  -26.0721  -26.0721  -26.0628  -26.0628  -24.8583  -24.8583
         -24.8256  -24.8256  -24.3179  -24.2791  -22.8397  -22.8397  -22.7922  -22.7922  -21.1176  -21.1176
  -21.0836  -21.0836  -20.7060  -20.6529  -19.8321  -19.8321  -19.7904  -19.7904  -18.7381  -18.7381
  -18.7225  -18.7225  -18.0264  -18.0264  -18.0068  -18.0068  -17.0450  -17.0308  -16.2810  -16.2810
  -16.2724  -16.2724  -16.0310  -16.0203  -15.6963  -15.6963  -15.6898  -15.6898  -14.9286  -14.9221
  -14.5820  -14.4328  -13.6444  -13.6427  -13.5140  -13.3869  -13.3549  -13.3534  -12.9613  -12.9613
  -12.8581  -12.8581  -11.8666  -11.8666  -11.8191  -11.8191  -11.4000  -11.3744   -9.7752   -9.7752
   -9.7484   -9.7484   -7.1605   -7.1605   -7.1253   -7.1253   -5.3380   -5.2577   -4.5179   -4.5179
   -4.4483   -4.4483   -2.4556   -2.4556   -2.4108   -2.4108   -1.2329   -1.1969    0.3696    0.3947
    0.4159    0.4215    0.6903    0.7753    0.9034    0.9057    1.2061    1.2061    1.2231    1.2231
    1.3727    1.3727    1.4302    1.4302    1.7460    1.7532    4.1066    4.1106    5.0821    5.0821
    5.1089    5.1089    5.5110    5.5119    5.9273    5.9273    5.9864    5.9864    7.3143    7.3962
    7.7227    7.7227    7.7598    7.7598    8.3475    8.3475    8.3916    8.3916    9.3466    9.3466
    9.3886    9.3886    9.9132    9.9140   11.4784   11.4784   11.5356   11.5356   11.7204   11.8101
   14.2072   14.2072   14.2098   14.2098
  15  1  -28.1691  -28.1395  -26.7345  -26.7303  -26.0721  -26.0721  -26.0628  -26.0628  -24.8583  -24.8583
         -24.8256  -24.8256  -24.3179  -24.2791  -22.8397  -22.8397  -22.7922  -22.7922  -21.1176  -21.1176
  -21.0836  -21.0836  -20.7060  -20.6529  -19.8321  -19.8321  -19.7904  -19.7904  -18.7381  -18.7381
  -18.7225  -18.7225  -18.0264  -18.0264  -18.0068  -18.0068  -17.0450  -17.0308  -16.2810  -16.2810
  -16.2724  -16.2724  -16.0310  -16.0203  -15.6963  -15.6963  -15.6898  -15.6898  -14.9286  -14.9221
  -14.5820  -14.4328  -13.6444  -13.6427  -13.5140  -13.3869  -13.3549  -13.3534  -12.9613  -12.9613
  -12.8581  -12.8581  -11.8666  -11.8666  -11.8191  -11.8191  -11.4000  -11.3744   -9.7752   -9.7752
   -9.7484   -9.7484   -7.1605   -7.1605   -7.1253   -7.1253   -5.3380   -5.2577   -4.5179   -4.5179
   -4.4483   -4.4483   -2.4556   -2.4556   -2.4108   -2.4108   -1.2329   -1.1969    0.3696    0.3947
    0.4159    0.4215    0.6903    0.7753    0.9034    0.9057    1.2061    1.2061    1.2231    1.2231
    1.3727    1.3727    1.4302    1.4302    1.7460    1.7532    4.1066    4.1106    5.0821    5.0821
    5.1089    5.1089    5.5110    5.5119    5.9273    5.9273    5.9864    5.9864    7.3143    7.3962
    7.7227    7.7227    7.7598    7.7598    8.3475    8.3475    8.3916    8.3916    9.3466    9.3466
    9.3886    9.3886    9.9132    9.9140   11.4784   11.4784   11.5356   11.5356   11.7204   11.8101
   14.2072   14.2072   14.2098   14.2098
  16  1  -27.7998  -27.7760  -27.0820  -27.0820  -27.0710  -27.0710  -25.1448  -25.1448  -25.1162  -25.1162
         -24.0216  -23.9746  -23.6099  -23.6099  -23.5710  -23.5710  -22.9894  -22.9680  -21.5528  -21.5101
  -21.3606  -21.3606  -21.3054  -21.3054  -19.9610  -19.9424  -18.9667  -18.9667  -18.9443  -18.9443
  -18.1412  -18.1402  -17.6807  -17.6665  -16.9706  -16.9706  -16.9606  -16.9606  -16.5807  -16.5807
  -16.5704  -16.5704  -16.1948  -16.1948  -16.1886  -16.1886  -14.8763  -14.8763  -14.8707  -14.8707
  -14.6249  -14.6223  -14.3207  -14.1733  -13.9656  -13.9632  -13.7845  -13.7845  -13.6483  -13.6483
  -12.1113  -12.1113  -12.0514  -12.0514  -10.9757  -10.9699  -10.7828  -10.7828  -10.7766  -10.7766
  -10.1672  -10.1613   -6.8095   -6.7773   -6.1724   -6.1724   -6.1065   -6.1065   -5.6575   -5.6144
   -3.9939   -3.9939   -3.9497   -3.9497   -0.5410   -0.5410   -0.5180   -0.5180    0.9346    0.9465
    0.9873    1.0703    1.0704    1.0942    1.0943    1.0977    1.4338    1.4338    1.5420    1.5420
    1.8005    1.8020    2.9099    2.9136    3.1315    3.1315    3.1607    3.1607    3.4670    3.4670
    3.5056    3.5056    4.7296    4.7564    5.0058    5.0095    5.9126    5.9126    5.9887    5.9887
    6.5086    6.5323    6.9760    6.9760    6.9890    6.9890    9.0749    9.1040    9.8751    9.8751
    9.8923    9.8923   11.6109   11.6109   11.6237   11.6237   12.8170   12.8170   12.8482   12.8482
   13.3046   13.3084   13.7350   13.7401
  17  1  -28.1691  -28.1395  -26.7345  -26.7303  -26.0721  -26.0721  -26.0628  -26.0628  -24.8583  -24.8583
         -24.8256  -24.8256  -24.3179  -24.2791  -22.8397  -22.8397  -22.7922  -22.7922  -21.1176  -21.1176
  -21.0836  -21.0836  -20.7060  -20.6529  -19.8321  -19.8321  -19.7904  -19.7904  -18.7381  -18.7381
  -18.7225  -18.7225  -18.0264  -18.0264  -18.0068  -18.0068  -17.0450  -17.0308  -16.2810  -16.2810
  -16.2724  -16.2724  -16.0310  -16.0203  -15.6963  -15.6963  -15.6898  -15.6898  -14.9286  -14.9221
  -14.5820  -14.4328  -13.6444  -13.6427  -13.5140  -13.3869  -13.3549  -13.3534  -12.9613  -12.9613
  -12.8581  -12.8581  -11.8666  -11.8666  -11.8191  -11.8191  -11.4000  -11.3744   -9.7752   -9.7752
   -9.7484   -9.7484   -7.1605   -7.1605   -7.1253   -7.1253   -5.3380   -5.2577   -4.5179   -4.5179
   -4.4483   -4.4483   -2.4556   -2.4556   -2.4108   -2.4108   -1.2329   -1.1969    0.3696    0.3947
    0.4159    0.4215    0.6903    0.7753    0.9034    0.9057    1.2061    1.2061    1.2231    1.2231
    1.3727    1.3727    1.4302    1.4302    1.7460    1.7532    4.1066    4.1106    5.0821    5.0821
    5.1089    5.1089    5.5110    5.5119    5.9273    5.9273    5.9864    5.9864    7.3143    7.3962
    7.7227    7.7227    7.7598    7.7598    8.3475    8.3475    8.3916    8.3916    9.3466    9.3466
    9.3886    9.3886    9.9132    9.9140   11.4784   11.4784   11.5356   11.5356   11.7204   11.8101
   14.2072   14.2072   14.2098   14.2098
  18  1  -28.3561  -28.3239  -25.6015  -25.6014  -25.6014  -25.6014  -25.6014  -25.6014  -25.5827  -25.5827
         -25.5827  -25.5827  -25.5827  -25.5827  -21.8385  -21.8385  -21.8133  -21.8133  -21.8133  -21.8133
  -21.7883  -21.7883  -19.2924  -19.2924  -19.2924  -19.2924  -18.9634  -18.9634  -18.9634  -18.9634
  -18.9634  -18.9634  -18.9316  -18.9316  -18.9316  -18.9316  -18.9316  -18.9316  -15.6031  -15.6031
  -15.6031  -15.6031  -15.6031  -15.6031  -15.5941  -15.5941  -15.5941  -15.5941  -15.5941  -15.5941
  -14.7117  -14.5630  -13.0335  -13.0335  -13.0324  -13.0324  -12.5528  -12.5528  -12.5528  -12.5528
  -12.5528  -12.5528  -12.4699  -12.4699  -12.4699  -12.4699  -12.4699  -12.4699   -8.5095   -8.5095
   -8.4768   -8.4768   -8.4768   -8.4768   -8.4443   -8.4443   -3.3264   -3.3264   -3.3264   -3.3264
   -3.3264   -3.3264   -3.2617   -3.2617   -3.2617   -3.2617   -3.2617   -3.2617    0.1373    0.1373
    0.1393    0.1393    0.5631    0.5631    0.5631    0.5631    0.5631    0.5631    0.5948    0.5948
    0.5948    0.5948    0.5948    0.5948    2.1728    2.1771    3.7646    3.7692    6.7401    6.7401
    6.7874    6.7874    6.7874    6.7874    6.8346    6.8346    8.0593    8.0593    8.0593    8.0593
    8.0593    8.0593    8.0604    8.0604    8.0604    8.0604    8.0604    8.0604    9.6718    9.6718
    9.6718    9.6718    9.6718    9.6718    9.7890    9.7890    9.7890    9.7890    9.7890    9.7890
   14.5618   14.5618   14.5618   14.5618
  19  1  -28.1691  -28.1395  -26.7345  -26.7303  -26.0721  -26.0721  -26.0628  -26.0628  -24.8583  -24.8583
         -24.8256  -24.8256  -24.3179  -24.2791  -22.8397  -22.8397  -22.7922  -22.7922  -21.1176  -21.1176
  -21.0836  -21.0836  -20.7060  -20.6529  -19.8321  -19.8321  -19.7904  -19.7904  -18.7381  -18.7381
  -18.7225  -18.7225  -18.0264  -18.0264  -18.0068  -18.0068  -17.0450  -17.0308  -16.2810  -16.2810
  -16.2724  -16.2724  -16.0310  -16.0203  -15.6963  -15.6963  -15.6898  -15.6898  -14.9286  -14.9221
  -14.5820  -14.4328  -13.6444  -13.6427  -13.5140  -13.3869  -13.3549  -13.3534  -12.9613  -12.9613
  -12.8581  -12.8581  -11.8666  -11.8666  -11.8191  -11.8191  -11.4000  -11.3744   -9.7752   -9.7752
   -9.7484   -9.7484   -7.1605   -7.1605   -7.1253   -7.1253   -5.3380   -5.2577   -4.5179   -4.5179
   -4.4483   -4.4483   -2.4556   -2.4556   -2.4108   -2.4108   -1.2329   -1.1969    0.3696    0.3947
    0.4159    0.4215    0.6903    0.7753    0.9034    0.9057    1.2061    1.2061    1.2231    1.2231
    1.3727    1.3727    1.4302    1.4302    1.7460    1.7532    4.1066    4.1106    5.0821    5.0821
    5.1089    5.1089    5.5110    5.5119    5.9273    5.9273    5.9864    5.9864    7.3143    7.3962
    7.7227    7.7227    7.7598    7.7598    8.3475    8.3475    8.3916    8.3916    9.3466    9.3466
    9.3886    9.3886    9.9132    9.9140   11.4784   11.4784   11.5356   11.5356   11.7204   11.8101
   14.2072   14.2072   14.2098   14.2098
  20  1  -27.6177  -27.6177  -27.5970  -27.5970  -26.2330  -26.2330  -26.2269  -26.2269  -23.9065  -23.9065
         -23.9065  -23.9065  -23.8604  -23.8604  -23.8604  -23.8604  -23.3893  -23.3712  -21.7589  -21.7076
  -20.5393  -20.5393  -20.5393  -20.5393  -20.4936  -20.4936  -20.4936  -20.4936  -17.5072  -17.5072
  -17.5072  -17.5072  -17.4951  -17.4951  -17.4951  -17.4951  -17.4537  -17.4537  -17.4464  -17.4464
  -16.1765  -16.1651  -16.0326  -16.0326  -16.0199  -16.0199  -15.1564  -15.1564  -15.1510  -15.1510
  -14.1871  -14.1871  -14.1052  -14.1052  -14.1016  -14.1016  -14.0413  -14.0413  -13.0964  -13.0964
  -12.9869  -12.9869  -10.9147  -10.9147  -10.9147  -10.9147  -10.9094  -10.9094  -10.9094  -10.9094
  -10.7104  -10.7034   -6.3465   -6.2818   -5.8289   -5.8289   -5.8289   -5.8289   -5.7729   -5.7729
   -5.7729   -5.7729   -2.1294   -2.1294   -2.1001   -2.1001    0.3179    0.3533    0.5450    0.5450
    0.5614    0.5614    0.6584    0.6584    0.7642    0.7642    2.9025    2.9025    2.9043    2.9043
    2.9722    2.9722    2.9722    2.9722    2.9798    2.9799    2.9799    2.9799    3.3035    3.3035
    3.3081    3.3081    3.4199    3.4199    3.5705    3.5705    5.3111    5.3111    5.3331    5.3332
    8.1576    8.1576    8.1576    8.1576    8.1959    8.1959    8.1959    8.1959    9.4021    9.4021
    9.4060    9.4060   10.5918   10.5919   12.5869   12.6039   13.1599   13.1599   13.1599   13.1599
   13.1767   13.1767   13.1767   13.1767
  21  1  -28.1691  -28.1395  -26.7345  -26.7303  -26.0721  -26.0721  -26.0628  -26.0628  -24.8583  -24.8583
         -24.8256  -24.8256  -24.3179  -24.2791  -22.8397  -22.8397  -22.7922  -22.7922  -21.1176  -21.1176
  -21.0836  -21.0836  -20.7060  -20.6529  -19.8321  -19.8321  -19.7904  -19.7904  -18.7381  -18.7381
  -18.7225  -18.7225  -18.0264  -18.0264  -18.0068  -18.0068  -17.0450  -17.0308  -16.2810  -16.2810
  -16.2724  -16.2724  -16.0310  -16.0203  -15.6963  -15.6963  -15.6898  -15.6898  -14.9286  -14.9221
  -14.5820  -14.4328  -13.6444  -13.6427  -13.5140  -13.3869  -13.3549  -13.3534  -12.9613  -12.9613
  -12.8581  -12.8581  -11.8666  -11.8666  -11.8191  -11.8191  -11.4000  -11.3744   -9.7752   -9.7752
   -9.7484   -9.7484   -7.1605   -7.1605   -7.1253   -7.1253   -5.3380   -5.2577   -4.5179   -4.5179
   -4.4483   -4.4483   -2.4556   -2.4556   -2.4108   -2.4108   -1.2329   -1.1969    0.3696    0.3947
    0.4159    0.4215    0.6903    0.7753    0.9034    0.9057    1.2061    1.2061    1.2231    1.2231
    1.3727    1.3727    1.4302    1.4302    1.7460    1.7532    4.1066    4.1106    5.0821    5.0821
    5.1089    5.1089    5.5110    5.5119    5.9273    5.9273    5.9864    5.9864    7.3143    7.3962
    7.7227    7.7227    7.7598    7.7598    8.3475    8.3475    8.3916    8.3916    9.3466    9.3466
    9.3886    9.3886    9.9132    9.9140   11.4784   11.4784   11.5356   11.5356   11.7204   11.8101
   14.2072   14.2072   14.2098   14.2098
  22  1  -28.1691  -28.1395  -26.7345  -26.7303  -26.0721  -26.0721  -26.0628  -26.0628  -24.8583  -24.8583
         -24.8256  -24.8256  -24.3179  -24.2791  -22.8397  -22.8397  -22.7922  -22.7922  -21.1176  -21.1176
  -21.0836  -21.0836  -20.7060  -20.6529  -19.8321  -19.8321  -19.7904  -19.7904  -18.7381  -18.7381
  -18.7225  -18.7225  -18.0264  -18.0264  -18.0068  -18.0068  -17.0450  -17.0308  -16.2810  -16.2810
  -16.2724  -16.2724  -16.0310  -16.0203  -15.6963  -15.6963  -15.6898  -15.6898  -14.9286  -14.9221
  -14.5820  -14.4328  -13.6444  -13.6427  -13.5140  -13.3869  -13.3549  -13.3534  -12.9613  -12.9613
  -12.8581  -12.8581  -11.8666  -11.8666  -11.8191  -11.8191  -11.4000  -11.3744   -9.7752   -9.7752
   -9.7484   -9.7484   -7.1605   -7.1605   -7.1253   -7.1253   -5.3380   -5.2577   -4.5179   -4.5179
   -4.4483   -4.4483   -2.4556   -2.4556   -2.4108   -2.4108   -1.2329   -1.1969    0.3696    0.3947
    0.4159    0.4215    0.6903    0.7753    0.9034    0.9057    1.2061    1.2061    1.2231    1.2231
    1.3727    1.3727    1.4302    1.4302    1.7460    1.7532    4.1066    4.1106    5.0821    5.0821
    5.1089    5.1089    5.5110    5.5119    5.9273    5.9273    5.9864    5.9864    7.3143    7.3962
    7.7227    7.7227    7.7598    7.7598    8.3475    8.3475    8.3916    8.3916    9.3466    9.3466
    9.3886    9.3886    9.9132    9.9140   11.4784   11.4784   11.5356   11.5356   11.7204   11.8101
   14.2072   14.2072   14.2098   14.2098
  23  1  -27.7998  -27.7760  -27.0820  -27.0820  -27.0710  -27.0710  -25.1448  -25.1448  -25.1162  -25.1162
         -24.0216  -23.9746  -23.6099  -23.6099  -23.5710  -23.5710  -22.9894  -22.9680  -21.5528  -21.5101
  -21.3606  -21.3606  -21.3054  -21.3054  -19.9610  -19.9424  -18.9667  -18.9667  -18.9443  -18.9443
  -18.1412  -18.1402  -17.6807  -17.6665  -16.9706  -16.9706  -16.9606  -16.9606  -16.5807  -16.5807
  -16.5704  -16.5704  -16.1948  -16.1948  -16.1886  -16.1886  -14.8763  -14.8763  -14.8707  -14.8707
  -14.6249  -14.6223  -14.3207  -14.1733  -13.9656  -13.9632  -13.7845  -13.7845  -13.6483  -13.6483
  -12.1113  -12.1113  -12.0514  -12.0514  -10.9757  -10.9699  -10.7828  -10.7828  -10.7766  -10.7766
  -10.1672  -10.1613   -6.8095   -6.7773   -6.1724   -6.1724   -6.1065   -6.1065   -5.6575   -5.6144
   -3.9939   -3.9939   -3.9497   -3.9497   -0.5410   -0.5410   -0.5180   -0.5180    0.9346    0.9465
    0.9873    1.0703    1.0704    1.0942    1.0943    1.0977    1.4338    1.4338    1.5420    1.5420
    1.8005    1.8020    2.9099    2.9136    3.1315    3.1315    3.1607    3.1607    3.4670    3.4670
    3.5056    3.5056    4.7296    4.7564    5.0058    5.0095    5.9126    5.9126    5.9887    5.9887
    6.5086    6.5323    6.9760    6.9760    6.9890    6.9890    9.0749    9.1040    9.8751    9.8751
    9.8923    9.8923   11.6109   11.6109   11.6237   11.6237   12.8170   12.8170   12.8482   12.8482
   13.3046   13.3084   13.7350   13.7401
  24  1  -27.7998  -27.7760  -27.0820  -27.0820  -27.0710  -27.0710  -25.1448  -25.1448  -25.1162  -25.1162
         -24.0216  -23.9746  -23.6099  -23.6099  -23.5710  -23.5710  -22.9894  -22.9680  -21.5528  -21.5101
  -21.3606  -21.3606  -21.3054  -21.3054  -19.9610  -19.9424  -18.9667  -18.9667  -18.9443  -18.9443
  -18.1412  -18.1402  -17.6807  -17.6665  -16.9706  -16.9706  -16.9606  -16.9606  -16.5807  -16.5807
  -16.5704  -16.5704  -16.1948  -16.1948  -16.1886  -16.1886  -14.8763  -14.8763  -14.8707  -14.8707
  -14.6249  -14.6223  -14.3207  -14.1733  -13.9656  -13.9632  -13.7845  -13.7845  -13.6483  -13.6483
  -12.1113  -12.1113  -12.0514  -12.0514  -10.9757  -10.9699  -10.7828  -10.7828  -10.7766  -10.7766
  -10.1672  -10.1613   -6.8095   -6.7773   -6.1724   -6.1724   -6.1065   -6.1065   -5.6575   -5.6144
   -3.9939   -3.9939   -3.9497   -3.9497   -0.5410   -0.5410   -0.5180   -0.5180    0.9346    0.9465
    0.9873    1.0703    1.0704    1.0942    1.0943    1.0977    1.4338    1.4338    1.5420    1.5420
    1.8005    1.8020    2.9099    2.9136    3.1315    3.1315    3.1607    3.1607    3.4670    3.4670
    3.5056    3.5056    4.7296    4.7564    5.0058    5.0095    5.9126    5.9126    5.9887    5.9887
    6.5086    6.5323    6.9760    6.9760    6.9890    6.9890    9.0749    9.1040    9.8751    9.8751
    9.8923    9.8923   11.6109   11.6109   11.6237   11.6237   12.8170   12.8170   12.8482   12.8482
   13.3046   13.3084   13.7350   13.7401
  25  1  -27.7998  -27.7760  -27.0820  -27.0820  -27.0710  -27.0710  -25.1448  -25.1448  -25.1162  -25.1162
         -24.0216  -23.9746  -23.6099  -23.6099  -23.5710  -23.5710  -22.9894  -22.9680  -21.5528  -21.5101
  -21.3606  -21.3606  -21.3054  -21.3054  -19.9610  -19.9424  -18.9667  -18.9667  -18.9443  -18.9443
  -18.1412  -18.1402  -17.6807  -17.6665  -16.9706  -16.9706  -16.9606  -16.9606  -16.5807  -16.5807
  -16.5704  -16.5704  -16.1948  -16.1948  -16.1886  -16.1886  -14.8763  -14.8763  -14.8707  -14.8707
  -14.6249  -14.6223  -14.3207  -14.1733  -13.9656  -13.9632  -13.7845  -13.7845  -13.6483  -13.6483
  -12.1113  -12.1113  -12.0514  -12.0514  -10.9757  -10.9699  -10.7828  -10.7828  -10.7766  -10.7766
  -10.1672  -10.1613   -6.8095   -6.7773   -6.1724   -6.1724   -6.1065   -6.1065   -5.6575   -5.6144
   -3.9939   -3.9939   -3.9497   -3.9497   -0.5410   -0.5410   -0.5180   -0.5180    0.9346    0.9465
    0.9873    1.0703    1.0704    1.0942    1.0943    1.0977    1.4338    1.4338    1.5420    1.5420
    1.8005    1.8020    2.9099    2.9136    3.1315    3.1315    3.1607    3.1607    3.4670    3.4670
    3.5056    3.5056    4.7296    4.7564    5.0058    5.0095    5.9126    5.9126    5.9887    5.9887
    6.5086    6.5323    6.9760    6.9760    6.9890    6.9890    9.0749    9.1040    9.8751    9.8751
    9.8923    9.8923   11.6109   11.6109   11.6237   11.6237   12.8170   12.8170   12.8482   12.8482
   13.3046   13.3084   13.7350   13.7401
  26  1  -27.6177  -27.6177  -27.5970  -27.5970  -26.2330  -26.2330  -26.2269  -26.2269  -23.9065  -23.9065
         -23.9065  -23.9065  -23.8604  -23.8604  -23.8604  -23.8604  -23.3893  -23.3712  -21.7589  -21.7076
  -20.5393  -20.5393  -20.5393  -20.5393  -20.4936  -20.4936  -20.4936  -20.4936  -17.5072  -17.5072
  -17.5072  -17.5072  -17.4951  -17.4951  -17.4951  -17.4951  -17.4537  -17.4537  -17.4464  -17.4464
  -16.1765  -16.1651  -16.0326  -16.0326  -16.0199  -16.0199  -15.1564  -15.1564  -15.1510  -15.1510
  -14.1871  -14.1871  -14.1052  -14.1052  -14.1016  -14.1016  -14.0413  -14.0413  -13.0964  -13.0964
  -12.9869  -12.9869  -10.9147  -10.9147  -10.9147  -10.9147  -10.9094  -10.9094  -10.9094  -10.9094
  -10.7104  -10.7034   -6.3465   -6.2818   -5.8289   -5.8289   -5.8289   -5.8289   -5.7729   -5.7729
   -5.7729   -5.7729   -2.1294   -2.1294   -2.1001   -2.1001    0.3179    0.3533    0.5450    0.5450
    0.5614    0.5614    0.6584    0.6584    0.7642    0.7642    2.9025    2.9025    2.9043    2.9043
    2.9722    2.9722    2.9722    2.9722    2.9798    2.9799    2.9799    2.9799    3.3035    3.3035
    3.3081    3.3081    3.4199    3.4199    3.5705    3.5705    5.3111    5.3111    5.3331    5.3332
    8.1576    8.1576    8.1576    8.1576    8.1959    8.1959    8.1959    8.1959    9.4021    9.4021
    9.4060    9.4060   10.5918   10.5919   12.5869   12.6039   13.1599   13.1599   13.1599   13.1599
   13.1767   13.1767   13.1767   13.1767
  27  1  -27.7998  -27.7760  -27.0820  -27.0820  -27.0710  -27.0710  -25.1448  -25.1448  -25.1162  -25.1162
         -24.0216  -23.9746  -23.6099  -23.6099  -23.5710  -23.5710  -22.9894  -22.9680  -21.5528  -21.5101
  -21.3606  -21.3606  -21.3054  -21.3054  -19.9610  -19.9424  -18.9667  -18.9667  -18.9443  -18.9443
  -18.1412  -18.1402  -17.6807  -17.6665  -16.9706  -16.9706  -16.9606  -16.9606  -16.5807  -16.5807
  -16.5704  -16.5704  -16.1948  -16.1948  -16.1886  -16.1886  -14.8763  -14.8763  -14.8707  -14.8707
  -14.6249  -14.6223  -14.3207  -14.1733  -13.9656  -13.9632  -13.7845  -13.7845  -13.6483  -13.6483
  -12.1113  -12.1113  -12.0514  -12.0514  -10.9757  -10.9699  -10.7828  -10.7828  -10.7766  -10.7766
  -10.1672  -10.1613   -6.8095   -6.7773   -6.1724   -6.1724   -6.1065   -6.1065   -5.6575   -5.6144
   -3.9939   -3.9939   -3.9497   -3.9497   -0.5410   -0.5410   -0.5180   -0.5180    0.9346    0.9465
    0.9873    1.0703    1.0704    1.0942    1.0943    1.0977    1.4338    1.4338    1.5420    1.5420
    1.8005    1.8020    2.9099    2.9136    3.1315    3.1315    3.1607    3.1607    3.4670    3.4670
    3.5056    3.5056    4.7296    4.7564    5.0058    5.0095    5.9126    5.9126    5.9887    5.9887
    6.5086    6.5323    6.9760    6.9760    6.9890    6.9890    9.0749    9.1040    9.8751    9.8751
    9.8923    9.8923   11.6109   11.6109   11.6237   11.6237   12.8170   12.8170   12.8482   12.8482
   13.3046   13.3084   13.7350   13.7401
  28  1  -27.6177  -27.6177  -27.5970  -27.5970  -26.2330  -26.2330  -26.2269  -26.2269  -23.9065  -23.9065
         -23.9065  -23.9065  -23.8604  -23.8604  -23.8604  -23.8604  -23.3893  -23.3712  -21.7589  -21.7076
  -20.5393  -20.5393  -20.5393  -20.5393  -20.4936  -20.4936  -20.4936  -20.4936  -17.5072  -17.5072
  -17.5072  -17.5072  -17.4951  -17.4951  -17.4951  -17.4951  -17.4537  -17.4537  -17.4464  -17.4464
  -16.1765  -16.1651  -16.0326  -16.0326  -16.0199  -16.0199  -15.1564  -15.1564  -15.1510  -15.1510
  -14.1871  -14.1871  -14.1052  -14.1052  -14.1016  -14.1016  -14.0413  -14.0413  -13.0964  -13.0964
  -12.9869  -12.9869  -10.9147  -10.9147  -10.9147  -10.9147  -10.9094  -10.9094  -10.9094  -10.9094
  -10.7104  -10.7034   -6.3465   -6.2818   -5.8289   -5.8289   -5.8289   -5.8289   -5.7729   -5.7729
   -5.7729   -5.7729   -2.1294   -2.1294   -2.1001   -2.1001    0.3179    0.3533    0.5450    0.5450
    0.5614    0.5614    0.6584    0.6584    0.7642    0.7642    2.9025    2.9025    2.9043    2.9043
    2.9722    2.9722    2.9722    2.9722    2.9798    2.9799    2.9799    2.9799    3.3035    3.3035
    3.3081    3.3081    3.4199    3.4199    3.5705    3.5705    5.3111    5.3111    5.3331    5.3332
    8.1576    8.1576    8.1576    8.1576    8.1959    8.1959    8.1959    8.1959    9.4021    9.4021
    9.4060    9.4060   10.5918   10.5919   12.5869   12.6039   13.1599   13.1599   13.1599   13.1599
   13.1767   13.1767   13.1767   13.1767
  29  1  -27.7888  -27.7888  -27.0776  -27.0776  -27.0776  -27.0776  -25.1317  -25.1317  -25.1317  -25.1317
         -23.9990  -23.9990  -23.5908  -23.5908  -23.5908  -23.5908  -22.9783  -22.9783  -21.5327  -21.5327
  -21.3340  -21.3340  -21.3340  -21.3340  -19.9515  -19.9515  -18.9556  -18.9556  -18.9556  -18.9556
  -18.1415  -18.1415  -17.6738  -17.6738  -16.9662  -16.9662  -16.9662  -16.9662  -16.5756  -16.5756
  -16.5756  -16.5756  -16.1919  -16.1919  -16.1919  -16.1919  -14.8742  -14.8742  -14.8742  -14.8742
  -14.6236  -14.6236  -14.2408  -14.2408  -13.9635  -13.9635  -13.7103  -13.7103  -13.7103  -13.7103
  -12.0798  -12.0798  -12.0798  -12.0798  -10.9726  -10.9726  -10.7797  -10.7797  -10.7797  -10.7797
  -10.1643  -10.1643   -6.7944   -6.7944   -6.1407   -6.1407   -6.1407   -6.1407   -5.6360   -5.6360
   -3.9719   -3.9719   -3.9719   -3.9719   -0.5295   -0.5295   -0.5295   -0.5295    0.9405    0.9405
    1.0464    1.0464    1.0826    1.0826    1.0826    1.0826    1.4918    1.4918    1.4918    1.4918
    1.8013    1.8013    2.9120    2.9120    3.1469    3.1469    3.1470    3.1470    3.4869    3.4869
    3.4869    3.4869    4.7431    4.7431    5.0076    5.0076    5.9524    5.9524    5.9524    5.9524
    6.5217    6.5217    6.9827    6.9827    6.9827    6.9827    9.0896    9.0896    9.8839    9.8839
    9.8840    9.8840   11.6174   11.6174   11.6174   11.6174   12.8330   12.8330   12.8330   12.8330
   13.3065   13.3065   13.7376   13.7376
  30  1  -28.1551  -28.1551  -26.7336  -26.7336  -26.0687  -26.0687  -26.0687  -26.0687  -24.8430  -24.8430
         -24.8430  -24.8430  -24.2993  -24.2993  -22.8161  -22.8161  -22.8161  -22.8161  -21.1007  -21.1007
  -21.1007  -21.1007  -20.6802  -20.6802  -19.8117  -19.8117  -19.8117  -19.8117  -18.7310  -18.7310
  -18.7310  -18.7310  -18.0170  -18.0170  -18.0170  -18.0170  -17.0385  -17.0385  -16.2768  -16.2768
  -16.2768  -16.2768  -16.0257  -16.0257  -15.6934  -15.6934  -15.6933  -15.6933  -14.9253  -14.9253
  -14.4991  -14.4991  -13.6435  -13.6435  -13.4457  -13.4457  -13.3541  -13.3541  -12.9064  -12.9064
  -12.9064  -12.9063  -11.8418  -11.8418  -11.8418  -11.8418  -11.3868  -11.3868   -9.7620   -9.7620
   -9.7620   -9.7620   -7.1433   -7.1433   -7.1433   -7.1433   -5.2989   -5.2989   -4.4836   -4.4836
   -4.4836   -4.4836   -2.4333   -2.4333   -2.4333   -2.4333   -1.2150   -1.2150    0.3946    0.3946
    0.4086    0.4086    0.7357    0.7357    0.9045    0.9045    1.2153    1.2153    1.2154    1.2154
    1.4035    1.4035    1.4035    1.4035    1.7496    1.7496    4.1086    4.1086    5.0957    5.0957
    5.0957    5.0957    5.5114    5.5114    5.9583    5.9583    5.9583    5.9583    7.3570    7.3570
    7.7413    7.7413    7.7413    7.7413    8.3706    8.3706    8.3706    8.3706    9.3681    9.3681
    9.3682    9.3682    9.9136    9.9136   11.5076   11.5076   11.5076   11.5076   11.7665   11.7665
   14.2085   14.2085   14.2085   14.2085
  31  1  -28.1551  -28.1551  -26.7336  -26.7336  -26.0687  -26.0687  -26.0687  -26.0687  -24.8430  -24.8430
         -24.8430  -24.8430  -24.2993  -24.2993  -22.8161  -22.8161  -22.8161  -22.8161  -21.1007  -21.1007
  -21.1007  -21.1007  -20.6802  -20.6802  -19.8117  -19.8117  -19.8117  -19.8117  -18.7310  -18.7310
  -18.7310  -18.7310  -18.0170  -18.0170  -18.0170  -18.0170  -17.0385  -17.0385  -16.2768  -16.2768
  -16.2768  -16.2768  -16.0257  -16.0257  -15.6934  -15.6934  -15.6933  -15.6933  -14.9253  -14.9253
  -14.4991  -14.4991  -13.6435  -13.6435  -13.4457  -13.4457  -13.3541  -13.3541  -12.9064  -12.9064
  -12.9064  -12.9063  -11.8418  -11.8418  -11.8418  -11.8418  -11.3868  -11.3868   -9.7620   -9.7620
   -9.7620   -9.7620   -7.1433   -7.1433   -7.1433   -7.1433   -5.2989   -5.2989   -4.4836   -4.4836
   -4.4836   -4.4836   -2.4333   -2.4333   -2.4333   -2.4333   -1.2150   -1.2150    0.3946    0.3946
    0.4086    0.4086    0.7357    0.7357    0.9045    0.9045    1.2153    1.2153    1.2154    1.2154
    1.4035    1.4035    1.4035    1.4035    1.7496    1.7496    4.1086    4.1086    5.0957    5.0957
    5.0957    5.0957    5.5114    5.5115    5.9583    5.9583    5.9583    5.9583    7.3570    7.3570
    7.7413    7.7413    7.7413    7.7413    8.3706    8.3706    8.3706    8.3706    9.3681    9.3681
    9.3682    9.3682    9.9136    9.9136   11.5076   11.5076   11.5076   11.5076   11.7665   11.7665
   14.2085   14.2085   14.2085   14.2085
  32  1  -27.7888  -27.7888  -27.0776  -27.0776  -27.0776  -27.0776  -25.1317  -25.1317  -25.1317  -25.1317
         -23.9990  -23.9990  -23.5908  -23.5908  -23.5908  -23.5908  -22.9783  -22.9783  -21.5327  -21.5327
  -21.3340  -21.3340  -21.3340  -21.3340  -19.9515  -19.9515  -18.9556  -18.9556  -18.9556  -18.9556
  -18.1415  -18.1415  -17.6738  -17.6738  -16.9662  -16.9662  -16.9662  -16.9662  -16.5756  -16.5756
  -16.5756  -16.5756  -16.1919  -16.1919  -16.1919  -16.1919  -14.8742  -14.8742  -14.8742  -14.8742
  -14.6236  -14.6236  -14.2408  -14.2408  -13.9635  -13.9635  -13.7103  -13.7103  -13.7103  -13.7103
  -12.0798  -12.0798  -12.0798  -12.0798  -10.9726  -10.9726  -10.7797  -10.7797  -10.7797  -10.7797
  -10.1643  -10.1643   -6.7944   -6.7944   -6.1407   -6.1407   -6.1407   -6.1407   -5.6360   -5.6360
   -3.9719   -3.9719   -3.9719   -3.9719   -0.5295   -0.5295   -0.5295   -0.5295    0.9405    0.9405
    1.0464    1.0464    1.0826    1.0826    1.0826    1.0826    1.4918    1.4918    1.4918    1.4918
    1.8013    1.8013    2.9120    2.9120    3.1469    3.1469    3.1470    3.1470    3.4869    3.4869
    3.4869    3.4869    4.7431    4.7431    5.0076    5.0076    5.9524    5.9524    5.9524    5.9524
    6.5217    6.5217    6.9827    6.9827    6.9827    6.9827    9.0896    9.0896    9.8839    9.8839
    9.8840    9.8840   11.6174   11.6174   11.6174   11.6174   12.8330   12.8330   12.8330   12.8330
   13.3065   13.3065   13.7376   13.7376
  33  1  -28.1551  -28.1551  -26.7336  -26.7336  -26.0687  -26.0687  -26.0687  -26.0687  -24.8430  -24.8430
         -24.8430  -24.8430  -24.2993  -24.2993  -22.8161  -22.8161  -22.8161  -22.8161  -21.1007  -21.1007
  -21.1007  -21.1007  -20.6802  -20.6802  -19.8117  -19.8117  -19.8117  -19.8117  -18.7310  -18.7310
  -18.7310  -18.7310  -18.0170  -18.0170  -18.0170  -18.0170  -17.0385  -17.0385  -16.2768  -16.2768
  -16.2768  -16.2768  -16.0257  -16.0257  -15.6934  -15.6934  -15.6933  -15.6933  -14.9253  -14.9253
  -14.4991  -14.4991  -13.6435  -13.6435  -13.4457  -13.4457  -13.3541  -13.3541  -12.9064  -12.9064
  -12.9064  -12.9063  -11.8418  -11.8418  -11.8418  -11.8418  -11.3868  -11.3868   -9.7620   -9.7620
   -9.7620   -9.7620   -7.1433   -7.1433   -7.1433   -7.1433   -5.2989   -5.2989   -4.4836   -4.4836
   -4.4836   -4.4836   -2.4333   -2.4333   -2.4333   -2.4333   -1.2150   -1.2150    0.3946    0.3946
    0.4086    0.4086    0.7357    0.7357    0.9045    0.9045    1.2153    1.2153    1.2154    1.2154
    1.4035    1.4035    1.4035    1.4035    1.7496    1.7496    4.1086    4.1086    5.0957    5.0957
    5.0957    5.0957    5.5114    5.5115    5.9583    5.9583    5.9583    5.9583    7.3570    7.3570
    7.7413    7.7413    7.7413    7.7413    8.3706    8.3706    8.3706    8.3706    9.3681    9.3681
    9.3682    9.3682    9.9136    9.9136   11.5076   11.5076   11.5076   11.5076   11.7665   11.7665
   14.2085   14.2085   14.2085   14.2085
  34  1  -28.3407  -28.3407  -25.5933  -25.5933  -25.5933  -25.5933  -25.5933  -25.5933  -25.5933  -25.5933
         -25.5933  -25.5933  -25.5933  -25.5933  -21.8137  -21.8137  -21.8137  -21.8137  -21.8127  -21.8127
  -21.8127  -21.8127  -19.2935  -19.2935  -19.2935  -19.2935  -18.9481  -18.9481  -18.9481  -18.9481
  -18.9481  -18.9481  -18.9481  -18.9481  -18.9481  -18.9481  -18.9481  -18.9481  -15.5986  -15.5986
  -15.5986  -15.5986  -15.5986  -15.5986  -15.5986  -15.5986  -15.5986  -15.5986  -15.5986  -15.5986
  -14.6285  -14.6285  -13.0330  -13.0330  -13.0330  -13.0330  -12.5091  -12.5091  -12.5091  -12.5091
  -12.5091  -12.5091  -12.5091  -12.5091  -12.5091  -12.5091  -12.5091  -12.5091   -8.4775   -8.4775
   -8.4775   -8.4775   -8.4767   -8.4767   -8.4767   -8.4767   -3.2944   -3.2944   -3.2944   -3.2944
   -3.2944   -3.2944   -3.2944   -3.2944   -3.2944   -3.2944   -3.2944   -3.2944    0.1383    0.1383
    0.1383    0.1383    0.5803    0.5803    0.5803    0.5803    0.5803    0.5803    0.5803    0.5803
    0.5803    0.5803    0.5803    0.5803    2.1750    2.1750    3.7669    3.7669    6.7873    6.7873
    6.7873    6.7873    6.7874    6.7874    6.7874    6.7874    8.0598    8.0598    8.0599    8.0599
    8.0599    8.0599    8.0599    8.0599    8.0599    8.0599    8.0599    8.0599    9.7325    9.7325
    9.7325    9.7325    9.7325    9.7325    9.7325    9.7325    9.7325    9.7325    9.7325    9.7325
   14.5618   14.5618   14.5618   14.5618
  35  1  -28.1551  -28.1551  -26.7336  -26.7336  -26.0687  -26.0687  -26.0687  -26.0687  -24.8430  -24.8430
         -24.8430  -24.8430  -24.2993  -24.2993  -22.8161  -22.8161  -22.8161  -22.8161  -21.1007  -21.1007
  -21.1007  -21.1007  -20.6802  -20.6802  -19.8117  -19.8117  -19.8117  -19.8117  -18.7310  -18.7310
  -18.7310  -18.7310  -18.0170  -18.0170  -18.0170  -18.0170  -17.0385  -17.0385  -16.2768  -16.2768
  -16.2768  -16.2768  -16.0257  -16.0257  -15.6934  -15.6934  -15.6933  -15.6933  -14.9253  -14.9253
  -14.4991  -14.4991  -13.6435  -13.6435  -13.4457  -13.4457  -13.3541  -13.3541  -12.9064  -12.9064
  -12.9064  -12.9063  -11.8418  -11.8418  -11.8418  -11.8418  -11.3868  -11.3868   -9.7620   -9.7620
   -9.7620   -9.7620   -7.1433   -7.1433   -7.1433   -7.1433   -5.2989   -5.2989   -4.4836   -4.4836
   -4.4836   -4.4836   -2.4333   -2.4333   -2.4333   -2.4333   -1.2150   -1.2150    0.3946    0.3946
    0.4086    0.4086    0.7357    0.7357    0.9045    0.9045    1.2153    1.2153    1.2154    1.2154
    1.4035    1.4035    1.4035    1.4035    1.7496    1.7496    4.1086    4.1086    5.0957    5.0957
    5.0957    5.0957    5.5114    5.5115    5.9583    5.9583    5.9583    5.9583    7.3570    7.3570
    7.7413    7.7413    7.7413    7.7413    8.3706    8.3706    8.3706    8.3706    9.3681    9.3681
    9.3682    9.3682    9.9136    9.9136   11.5076   11.5076   11.5076   11.5076   11.7665   11.7665
   14.2085   14.2085   14.2085   14.2085
  36  1  -27.6083  -27.6083  -27.6083  -27.6083  -26.2312  -26.2312  -26.2312  -26.2312  -23.8842  -23.8842
         -23.8842  -23.8842  -23.8842  -23.8842  -23.8842  -23.8842  -23.3800  -23.3800  -21.7349  -21.7349
  -20.5168  -20.5168  -20.5168  -20.5168  -20.5168  -20.5168  -20.5168  -20.5168  -17.5015  -17.5015
  -17.5015  -17.5015  -17.5015  -17.5015  -17.5015  -17.5015  -17.4500  -17.4500  -17.4500  -17.4500
  -16.1708  -16.1708  -16.0272  -16.0272  -16.0272  -16.0272  -15.1542  -15.1542  -15.1542  -15.1542
  -14.1070  -14.1070  -14.1070  -14.1070  -14.1034  -14.1034  -14.1034  -14.1034  -13.0378  -13.0378
  -13.0378  -13.0378  -10.9120  -10.9120  -10.9120  -10.9120  -10.9120  -10.9120  -10.9120  -10.9120
  -10.7069  -10.7069   -6.3158   -6.3158   -5.8014   -5.8014   -5.8014   -5.8014   -5.8014   -5.8014
   -5.8014   -5.8014   -2.1148   -2.1148   -2.1148   -2.1148    0.3359    0.3359    0.5531    0.5531
    0.5531    0.5531    0.7151    0.7151    0.7151    0.7151    2.9034    2.9034    2.9034    2.9034
    2.9764    2.9764    2.9764    2.9764    2.9764    2.9764    2.9764    2.9764    3.3058    3.3058
    3.3058    3.3058    3.4994    3.4994    3.4994    3.4994    5.3227    5.3227    5.3228    5.3228
    8.1774    8.1774    8.1774    8.1774    8.1775    8.1775    8.1775    8.1775    9.4040    9.4040
    9.4040    9.4040   10.5918   10.5918   12.5960   12.5960   13.1684   13.1684   13.1684   13.1684
   13.1684   13.1684   13.1684   13.1684
  37  1  -28.1551  -28.1551  -26.7336  -26.7336  -26.0687  -26.0687  -26.0687  -26.0687  -24.8430  -24.8430
         -24.8430  -24.8430  -24.2993  -24.2993  -22.8161  -22.8161  -22.8161  -22.8161  -21.1007  -21.1007
  -21.1007  -21.1007  -20.6802  -20.6802  -19.8117  -19.8117  -19.8117  -19.8117  -18.7310  -18.7310
  -18.7310  -18.7310  -18.0170  -18.0170  -18.0170  -18.0170  -17.0385  -17.0385  -16.2768  -16.2768
  -16.2768  -16.2768  -16.0257  -16.0257  -15.6934  -15.6934  -15.6933  -15.6933  -14.9253  -14.9253
  -14.4991  -14.4991  -13.6435  -13.6435  -13.4457  -13.4457  -13.3541  -13.3541  -12.9064  -12.9064
  -12.9064  -12.9063  -11.8418  -11.8418  -11.8418  -11.8418  -11.3868  -11.3868   -9.7620   -9.7620
   -9.7620   -9.7620   -7.1433   -7.1433   -7.1433   -7.1433   -5.2989   -5.2989   -4.4836   -4.4836
   -4.4836   -4.4836   -2.4333   -2.4333   -2.4333   -2.4333   -1.2150   -1.2150    0.3946    0.3946
    0.4086    0.4086    0.7357    0.7357    0.9045    0.9045    1.2153    1.2153    1.2154    1.2154
    1.4035    1.4035    1.4035    1.4035    1.7496    1.7496    4.1086    4.1086    5.0957    5.0957
    5.0957    5.0957    5.5114    5.5115    5.9583    5.9583    5.9583    5.9583    7.3570    7.3570
    7.7413    7.7413    7.7413    7.7413    8.3706    8.3706    8.3706    8.3706    9.3681    9.3681
    9.3682    9.3682    9.9136    9.9136   11.5076   11.5076   11.5076   11.5076   11.7665   11.7665
   14.2085   14.2085   14.2085   14.2085
  38  1  -28.1551  -28.1551  -26.7336  -26.7336  -26.0687  -26.0687  -26.0687  -26.0687  -24.8430  -24.8430
         -24.8430  -24.8430  -24.2993  -24.2993  -22.8161  -22.8161  -22.8161  -22.8161  -21.1007  -21.1007
  -21.1007  -21.1007  -20.6802  -20.6802  -19.8117  -19.8117  -19.8117  -19.8117  -18.7310  -18.7310
  -18.7310  -18.7310  -18.0170  -18.0170  -18.0170  -18.0170  -17.0385  -17.0385  -16.2768  -16.2768
  -16.2768  -16.2768  -16.0257  -16.0257  -15.6934  -15.6934  -15.6933  -15.6933  -14.9253  -14.9253
  -14.4991  -14.4991  -13.6435  -13.6435  -13.4457  -13.4457  -13.3541  -13.3541  -12.9064  -12.9064
  -12.9064  -12.9063  -11.8418  -11.8418  -11.8418  -11.8418  -11.3868  -11.3868   -9.7620   -9.7620
   -9.7620   -9.7620   -7.1433   -7.1433   -7.1433   -7.1433   -5.2989   -5.2989   -4.4836   -4.4836
   -4.4836   -4.4836   -2.4333   -2.4333   -2.4333   -2.4333   -1.2150   -1.2150    0.3946    0.3946
    0.4086    0.4086    0.7357    0.7357    0.9045    0.9045    1.2153    1.2153    1.2154    1.2154
    1.4035    1.4035    1.4035    1.4035    1.7496    1.7496    4.1086    4.1086    5.0957    5.0957
    5.0957    5.0957    5.5114    5.5114    5.9583    5.9583    5.9583    5.9583    7.3570    7.3570
    7.7413    7.7413    7.7413    7.7413    8.3706    8.3706    8.3706    8.3706    9.3681    9.3681
    9.3682    9.3682    9.9136    9.9136   11.5076   11.5076   11.5076   11.5076   11.7665   11.7665
   14.2085   14.2085   14.2085   14.2085
  39  1  -27.7888  -27.7888  -27.0776  -27.0776  -27.0776  -27.0776  -25.1317  -25.1317  -25.1317  -25.1317
         -23.9990  -23.9990  -23.5908  -23.5908  -23.5908  -23.5908  -22.9783  -22.9783  -21.5327  -21.5327
  -21.3340  -21.3340  -21.3340  -21.3340  -19.9515  -19.9515  -18.9556  -18.9556  -18.9556  -18.9556
  -18.1415  -18.1415  -17.6738  -17.6738  -16.9662  -16.9662  -16.9662  -16.9662  -16.5756  -16.5756
  -16.5756  -16.5756  -16.1919  -16.1919  -16.1919  -16.1919  -14.8742  -14.8742  -14.8742  -14.8742
  -14.6236  -14.6236  -14.2408  -14.2408  -13.9635  -13.9635  -13.7103  -13.7103  -13.7103  -13.7103
  -12.0798  -12.0798  -12.0798  -12.0798  -10.9726  -10.9726  -10.7797  -10.7797  -10.7797  -10.7797
  -10.1643  -10.1643   -6.7944   -6.7944   -6.1407   -6.1407   -6.1407   -6.1407   -5.6360   -5.6360
   -3.9719   -3.9719   -3.9719   -3.9719   -0.5295   -0.5295   -0.5295   -0.5295    0.9405    0.9405
    1.0464    1.0464    1.0826    1.0826    1.0826    1.0826    1.4918    1.4918    1.4918    1.4918
    1.8013    1.8013    2.9120    2.9120    3.1469    3.1469    3.1470    3.1470    3.4869    3.4869
    3.4869    3.4869    4.7431    4.7431    5.0076    5.0076    5.9524    5.9524    5.9524    5.9524
    6.5217    6.5217    6.9827    6.9827    6.9827    6.9827    9.0896    9.0896    9.8839    9.8839
    9.8840    9.8840   11.6174   11.6174   11.6174   11.6174   12.8330   12.8330   12.8330   12.8330
   13.3065   13.3065   13.7376   13.7376
  40  1  -27.7888  -27.7888  -27.0776  -27.0776  -27.0776  -27.0776  -25.1317  -25.1317  -25.1317  -25.1317
         -23.9990  -23.9990  -23.5908  -23.5908  -23.5908  -23.5908  -22.9783  -22.9783  -21.5327  -21.5327
  -21.3340  -21.3340  -21.3340  -21.3340  -19.9515  -19.9515  -18.9556  -18.9556  -18.9556  -18.9556
  -18.1415  -18.1415  -17.6738  -17.6738  -16.9662  -16.9662  -16.9662  -16.9662  -16.5756  -16.5756
  -16.5756  -16.5756  -16.1919  -16.1919  -16.1919  -16.1919  -14.8742  -14.8742  -14.8742  -14.8742
  -14.6236  -14.6236  -14.2408  -14.2408  -13.9635  -13.9635  -13.7103  -13.7103  -13.7103  -13.7103
  -12.0798  -12.0798  -12.0798  -12.0798  -10.9726  -10.9726  -10.7797  -10.7797  -10.7797  -10.7797
  -10.1643  -10.1643   -6.7944   -6.7944   -6.1407   -6.1407   -6.1407   -6.1407   -5.6360   -5.6360
   -3.9719   -3.9719   -3.9719   -3.9719   -0.5295   -0.5295   -0.5295   -0.5295    0.9405    0.9405
    1.0464    1.0464    1.0826    1.0826    1.0826    1.0826    1.4918    1.4918    1.4918    1.4918
    1.8013    1.8013    2.9120    2.9120    3.1469    3.1469    3.1470    3.1470    3.4869    3.4869
    3.4869    3.4869    4.7431    4.7431    5.0076    5.0076    5.9524    5.9524    5.9524    5.9524
    6.5217    6.5217    6.9827    6.9827    6.9827    6.9827    9.0896    9.0896    9.8839    9.8839
    9.8840    9.8840   11.6174   11.6174   11.6174   11.6174   12.8330   12.8330   12.8330   12.8330
   13.3065   13.3065   13.7376   13.7376
  41  1  -27.7888  -27.7888  -27.0776  -27.0776  -27.0776  -27.0776  -25.1317  -25.1317  -25.1317  -25.1317
         -23.9990  -23.9990  -23.5908  -23.5908  -23.5908  -23.5908  -22.9783  -22.9783  -21.5327  -21.5327
  -21.3340  -21.3340  -21.3340  -21.3340  -19.9515  -19.9515  -18.9556  -18.9556  -18.9556  -18.9556
  -18.1415  -18.1415  -17.6738  -17.6738  -16.9662  -16.9662  -16.9662  -16.9662  -16.5756  -16.5756
  -16.5756  -16.5756  -16.1919  -16.1919  -16.1919  -16.1919  -14.8742  -14.8742  -14.8742  -14.8742
  -14.6236  -14.6236  -14.2408  -14.2408  -13.9635  -13.9635  -13.7103  -13.7103  -13.7103  -13.7103
  -12.0798  -12.0798  -12.0798  -12.0798  -10.9726  -10.9726  -10.7797  -10.7797  -10.7797  -10.7797
  -10.1643  -10.1643   -6.7944   -6.7944   -6.1407   -6.1407   -6.1407   -6.1407   -5.6360   -5.6360
   -3.9719   -3.9719   -3.9719   -3.9719   -0.5295   -0.5295   -0.5295   -0.5295    0.9405    0.9405
    1.0464    1.0464    1.0826    1.0826    1.0826    1.0826    1.4918    1.4918    1.4918    1.4918
    1.8013    1.8013    2.9120    2.9120    3.1469    3.1469    3.1470    3.1470    3.4869    3.4869
    3.4869    3.4869    4.7431    4.7431    5.0076    5.0076    5.9524    5.9524    5.9524    5.9524
    6.5217    6.5217    6.9827    6.9827    6.9827    6.9827    9.0896    9.0896    9.8839    9.8839
    9.8840    9.8840   11.6174   11.6174   11.6174   11.6174   12.8330   12.8330   12.8330   12.8330
   13.3065   13.3065   13.7376   13.7376
  42  1  -27.6083  -27.6083  -27.6083  -27.6083  -26.2312  -26.2312  -26.2312  -26.2312  -23.8842  -23.8842
         -23.8842  -23.8842  -23.8842  -23.8842  -23.8842  -23.8842  -23.3800  -23.3800  -21.7349  -21.7349
  -20.5168  -20.5168  -20.5168  -20.5168  -20.5168  -20.5168  -20.5168  -20.5168  -17.5015  -17.5015
  -17.5015  -17.5015  -17.5015  -17.5015  -17.5015  -17.5015  -17.4500  -17.4500  -17.4500  -17.4500
  -16.1708  -16.1708  -16.0272  -16.0272  -16.0272  -16.0272  -15.1542  -15.1542  -15.1542  -15.1542
  -14.1070  -14.1070  -14.1070  -14.1070  -14.1034  -14.1034  -14.1034  -14.1034  -13.0378  -13.0378
  -13.0378  -13.0378  -10.9120  -10.9120  -10.9120  -10.9120  -10.9120  -10.9120  -10.9120  -10.9120
  -10.7069  -10.7069   -6.3158   -6.3158   -5.8014   -5.8014   -5.8014   -5.8014   -5.8014   -5.8014
   -5.8014   -5.8014   -2.1148   -2.1148   -2.1148   -2.1148    0.3359    0.3359    0.5531    0.5531
    0.5531    0.5531    0.7151    0.7151    0.7151    0.7151    2.9034    2.9034    2.9034    2.9034
    2.9764    2.9764    2.9764    2.9764    2.9764    2.9764    2.9764    2.9764    3.3058    3.3058
    3.3058    3.3058    3.4994    3.4994    3.4994    3.4994    5.3227    5.3227    5.3228    5.3228
    8.1774    8.1774    8.1774    8.1774    8.1775    8.1775    8.1775    8.1775    9.4040    9.4040
    9.4040    9.4040   10.5918   10.5918   12.5960   12.5960   13.1684   13.1684   13.1684   13.1684
   13.1684   13.1684   13.1684   13.1684
  43  1  -27.7888  -27.7888  -27.0776  -27.0776  -27.0776  -27.0776  -25.1317  -25.1317  -25.1317  -25.1317
         -23.9990  -23.9990  -23.5908  -23.5908  -23.5908  -23.5908  -22.9783  -22.9783  -21.5327  -21.5327
  -21.3340  -21.3340  -21.3340  -21.3340  -19.9515  -19.9515  -18.9556  -18.9556  -18.9556  -18.9556
  -18.1415  -18.1415  -17.6738  -17.6738  -16.9662  -16.9662  -16.9662  -16.9662  -16.5756  -16.5756
  -16.5756  -16.5756  -16.1919  -16.1919  -16.1919  -16.1919  -14.8742  -14.8742  -14.8742  -14.8742
  -14.6236  -14.6236  -14.2408  -14.2408  -13.9635  -13.9635  -13.7103  -13.7103  -13.7103  -13.7103
  -12.0798  -12.0798  -12.0798  -12.0798  -10.9726  -10.9726  -10.7797  -10.7797  -10.7797  -10.7797
  -10.1643  -10.1643   -6.7944   -6.7944   -6.1407   -6.1407   -6.1407   -6.1407   -5.6360   -5.6360
   -3.9719   -3.9719   -3.9719   -3.9719   -0.5295   -0.5295   -0.5295   -0.5295    0.9405    0.9405
    1.0464    1.0464    1.0826    1.0826    1.0826    1.0826    1.4918    1.4918    1.4918    1.4918
    1.8013    1.8013    2.9120    2.9120    3.1469    3.1469    3.1470    3.1470    3.4869    3.4869
    3.4869    3.4869    4.7431    4.7431    5.0076    5.0076    5.9524    5.9524    5.9524    5.9524
    6.5217    6.5217    6.9827    6.9827    6.9827    6.9827    9.0896    9.0896    9.8839    9.8839
    9.8840    9.8840   11.6174   11.6174   11.6174   11.6174   12.8330   12.8330   12.8330   12.8330
   13.3065   13.3065   13.7376   13.7376
  44  1  -27.6083  -27.6083  -27.6083  -27.6083  -26.2312  -26.2312  -26.2312  -26.2312  -23.8842  -23.8842
         -23.8842  -23.8842  -23.8842  -23.8842  -23.8842  -23.8842  -23.3800  -23.3800  -21.7349  -21.7349
  -20.5168  -20.5168  -20.5168  -20.5168  -20.5168  -20.5168  -20.5168  -20.5168  -17.5015  -17.5015
  -17.5015  -17.5015  -17.5015  -17.5015  -17.5015  -17.5015  -17.4500  -17.4500  -17.4500  -17.4500
  -16.1708  -16.1708  -16.0272  -16.0272  -16.0272  -16.0272  -15.1542  -15.1542  -15.1542  -15.1542
  -14.1070  -14.1070  -14.1070  -14.1070  -14.1034  -14.1034  -14.1034  -14.1034  -13.0378  -13.0378
  -13.0378  -13.0378  -10.9120  -10.9120  -10.9120  -10.9120  -10.9120  -10.9120  -10.9120  -10.9120
  -10.7069  -10.7069   -6.3158   -6.3158   -5.8014   -5.8014   -5.8014   -5.8014   -5.8014   -5.8014
   -5.8014   -5.8014   -2.1148   -2.1148   -2.1148   -2.1148    0.3359    0.3359    0.5531    0.5531
    0.5531    0.5531    0.7151    0.7151    0.7151    0.7151    2.9034    2.9034    2.9034    2.9034
    2.9764    2.9764    2.9764    2.9764    2.9764    2.9764    2.9764    2.9764    3.3058    3.3058
    3.3058    3.3058    3.4994    3.4994    3.4994    3.4994    5.3227    5.3227    5.3228    5.3228
    8.1774    8.1774    8.1774    8.1774    8.1775    8.1775    8.1775    8.1775    9.4040    9.4040
    9.4040    9.4040   10.5918   10.5918   12.5960   12.5960   13.1684   13.1684   13.1684   13.1684
   13.1684   13.1684   13.1684   13.1684
siesta: Fermi energy =      -8.476881 eV

siesta: Program's energy decomposition (eV):
siesta: Ebs     =     -2600.741135
siesta: Eions   =      9434.507561
siesta: Ena     =      2271.159941
siesta: Ekin    =      3582.811159
siesta: Enl     =      -333.158044
siesta: Eso     =         0.000000
siesta: Edftu   =         0.000000
siesta: DEna    =        24.811683
siesta: DUscf   =         2.850892
siesta: DUext   =         0.000000
siesta: Exc     =     -1619.006724
siesta: eta*DQ  =         0.000000
siesta: Emadel  =         0.000000
siesta: Emeta   =         0.000000
siesta: Emolmec =        -2.801932
siesta: Ekinion =         0.000000
siesta: Eharris =     -5507.840585
siesta: Etot    =     -5507.840585
siesta: FreeEng =     -5507.856525

siesta: Final energy (eV):
siesta:  Band Struct. =   -2600.741135
siesta:       Kinetic =    3582.811159
siesta:       Hartree =    2466.768982
siesta:       Edftu   =       0.000000
siesta:       Eso     =       0.000000
siesta:    Ext. field =       0.000000
siesta:   Exch.-corr. =   -1619.006724
siesta:  Ion-electron =   -9001.114873
siesta:       Ion-ion =    -934.497198
siesta:       Ekinion =       0.000000
siesta:         Total =   -5507.840585
siesta:         Fermi =      -8.476881

siesta: Stress tensor (static) (eV/Ang**3):
siesta:    -0.203849    0.000000    0.000000
siesta:     0.000000   -0.203849    0.000000
siesta:     0.000000   -0.000000    0.043593

siesta: Cell volume =        412.843203 Ang**3

siesta: Pressure (static):
siesta:                Solid            Molecule  Units
siesta:           0.00132186          0.00132191  Ry/Bohr**3
siesta:           0.12136860          0.12137361  eV/Ang**3
siesta:         194.45603449        194.46406205  kBar
(Free)E+ p_basis*V_orbitals  =       -5489.553478
(Free)Eharris+ p_basis*V_orbitals  =       -5489.553478

cite: Please see "graphite_scf.bib" for an exhaustive BiBTeX file.
cite: Please clearly indicate Siesta version in published work: 4.1.5
cite: This calculation has made use of the following articles
cite: which are encouraged to be cited in a published work.
        Primary SIESTA paper
          DOI: www.doi.org/10.1088/0953-8984/14/11/302

>> End of run:   1-NOV-2022  14:34:10
Job completed
