Siesta Version  : 4.1.5
Architecture    : x86_64-unknown-linux-gnu--unknown
Compiler version: GNU Fortran (GCC) 11.3.0
Compiler flags  : mpif90 -g -O2 -fallow-argument-mismatch
PP flags        : -DMPI -DFC_HAVE_FLUSH -DFC_HAVE_ABORT
Libraries       :  -I/global/software/sl-7.x86_64/modules/intel/2020.4.304/mkl/include  /globall/software/sl-7.x86_64/modules/intel/2020.4.304/mkl/lib/intel64/libmkl_scalapack_lp64.a -Wl,--start-group /global/software/sl-7.x86_64/modules/intel/2020.4.304/mkl/lib/intel64/libmkl_intel_lp64.a /global/software/sl-7.x86_64/modules/intel/2020.4.304/mkl/lib/intel64/libmkl_sequential.a /global/software/sl-7.x86_64/modules/intel/2020.4.304/mkl/lib/intel64/libmkl_core.a /global/software/sl-7.x86_64/modules/intel/2020.4.304/mkl/lib/intel64/libmkl_blacs_openmpi_lp64.a -Wl,--end-group -lpthread -lm -ldl
PARALLEL version

* Running on 20 nodes in parallel
>> Start of run:   1-NOV-2022  14:33:47

                           ***********************       
                           *  WELCOME TO SIESTA  *       
                           ***********************       

reinit: Reading from standard input
reinit: Dumped input in INPUT_TMP.12587
************************** Dump of input data file ****************************
SystemName graphite_scf
SystemLabel graphite_scf
NumberOfAtoms   36
NumberOfSpecies 1
%block ChemicalSpeciesLabel
1  6   C-gga
%endblock ChemicalSpeciesLabel
PAO.BasisSize  SZ
PAO.EnergyShift  10 meV
%block PS.Lmax
C-gga   2
%endblock PS.Lmax
LatticeConstant 1.000000 Ang
%block LatticeVectors
	7.3920000000	0.0000000000	0.0000000000
	-3.6960000000	6.4016597848	0.0000000000
	0.0000000000	0.0000000000	9.1940700000
%endblock LatticeVectors
AtomicCoordinatesFormat Ang
%block AtomicCoordinatesAndAtomicSpecies
	0.00000000	0.00000000	2.29851750	1
	0.00000000	0.00000000	6.89555250	1
	-1.23200000	2.13388659	2.29851750	1
	-2.46400000	4.26777319	6.89555250	1
	2.46400000	4.26777319	2.29851750	1
	1.23200000	2.13388659	6.89555250	1
	2.46400000	0.00000000	2.29851750	1
	4.92800000	0.00000000	6.89555250	1
	2.46400000	0.00000000	6.89555250	1
	4.92800000	0.00000000	2.29851750	1
	2.46400000	4.26777319	6.89555250	1
	1.23200000	2.13388659	2.29851750	1
	-1.23200000	2.13388659	6.89555250	1
	-2.46400000	4.26777319	2.29851750	1
	0.00000000	4.26777319	2.29851750	1
	3.69600000	2.13388659	6.89555250	1
	3.69600000	2.13388659	2.29851750	1
	0.00000000	4.26777319	6.89555250	1
	0.00000000	1.42258964	2.29851750	1
	3.69600000	4.97907014	6.89555250	1
	2.46400123	5.69036496	2.29851750	1
	1.23199877	0.71129482	6.89555250	1
	-2.46400123	5.69036496	2.29851750	1
	6.16000123	0.71129482	6.89555250	1
	-1.23200000	3.55647624	2.29851750	1
	4.92800000	2.84518355	6.89555250	1
	1.23200123	3.55647837	2.29851750	1
	2.46399877	2.84518142	6.89555250	1
	-0.00000123	5.69036496	2.29851750	1
	3.69600123	0.71129482	6.89555250	1
	2.46400000	1.42258964	2.29851750	1
	1.23200000	4.97907014	6.89555250	1
	4.92800123	1.42259177	2.29851750	1
	-1.23200123	4.97906801	6.89555250	1
	3.69599877	3.55647837	2.29851750	1
	0.00000123	2.84518142	6.89555250	1
%endblock AtomicCoordinatesAndAtomicSpecies
Kgrid_NoTRS  T
%block kgrid_MonkhorstPack
4       0       0       0.0
0       4       0       0.0
0       0       4       0.0
%endblock kgrid_MonkhorstPack
AtomCoorFormatOut Ang
BlockSize 1
#ProcessorY 12
Diag.ParallelOverK   T
Diag.DivideAndConquer F
MeshCutoff   300 Ry
SCF.FreeE.Tolerance 1E-3 eV
SCF.EDM.Tolerance   5E-3 eV
DM.Tolerance  1E-3
DM.Require.Energy.Convergence T
DM.NumberPulay 4
#XC.Functional GGA
#CX.Authors    PBE
UseSaveData        F
SolutionMethod     diagon
MD.TypeOfRun       CG
MD.VariableCell    F
MD.NumCGsteps      00
MD.MaxCGDispl      0.200000 Bohr
#MD.MaxStressTol    1.000000 GPa
#MD.MaxForceTol     0.010000 eV/Ang
WriteMDHistory T
WriteCoorStep T
WriteForces T
WriteCoorStep    T
WriteEigenValues T
WriteDM    F
MM.UnitsDistance Ang  # what this program prints out DO NOT CHANGE
MM.UnitsEnergy    eV  # what this program prints out DO NOT CHANGE
MM.Grimme.S6     0.75 # Grimme-paper for PBE (correct for your functional)
MM.Grimme.D     20.   # Grimme-paper (correct for your functional)
%block MM.Potentials
  1   1 Grimme     18.14      2.904 # C, 10.1002/jcc.20495
%endblock MM.Potentials
#%block ProjectedDensityOfStates
# -200.0  120.0  0.4  12800  eV
#%endblock ProjectedDensityOfStates
************************** End of input data file *****************************

reinit: -----------------------------------------------------------------------
reinit: System Name: graphite_scf
reinit: -----------------------------------------------------------------------
reinit: System Label: graphite_scf
reinit: -----------------------------------------------------------------------
Reading two-body potentials
Grimme - two-body potential between 1 and 1

initatom: Reading input for the pseudopotentials and atomic orbitals ----------
Species number:   1 Atomic number:    6 Label: C-gga

Ground state valence configuration:   2s02  2p02
Reading pseudopotential information in formatted form from C-gga.psf

Valence configuration for pseudopotential generation:
2s( 2.00) rc: 1.56
2p( 2.00) rc: 1.56
3d( 0.00) rc: 1.56
4f( 0.00) rc: 1.56
relmxkb: Read Max KB Ang. Momentum=    2 for species C-gga

<basis_specs>
===============================================================================
C-gga                Z=   6    Mass=  12.010        Charge= 0.17977+309
Lmxo=1 Lmxkb= 2    BasisType=split      Semic=F
L=0  Nsemic=0  Cnfigmx=2
          i=1  nzeta=1  polorb=0  (2s)
            splnorm:   0.15000    
               vcte:    0.0000    
               rinn:    0.0000    
               qcoe:    0.0000    
               qyuk:    0.0000    
               qwid:   0.10000E-01
                rcs:    0.0000    
            lambdas:    1.0000    
L=1  Nsemic=0  Cnfigmx=2
          i=1  nzeta=1  polorb=0  (2p)
            splnorm:   0.15000    
               vcte:    0.0000    
               rinn:    0.0000    
               qcoe:    0.0000    
               qyuk:    0.0000    
               qwid:   0.10000E-01
                rcs:    0.0000    
            lambdas:    1.0000    
-------------------------------------------------------------------------------
L=0  Nkbl=1  erefs: 0.17977+309
L=1  Nkbl=1  erefs: 0.17977+309
L=2  Nkbl=1  erefs: 0.17977+309
===============================================================================
</basis_specs>

atom: Called for C-gga                 (Z =   6)

read_vps: Pseudopotential generation method:
read_vps: ATM 3.2.2 Troullier-Martins                       
Valence charge for ps generation:    4.00000

xc_check: Exchange-correlation functional:
xc_check: Ceperley-Alder
xc_check: WARNING: Pseudopotential generated with GGA PBE functional
V l=0 = -2*Zval/r beyond r=  1.5227
V l=1 = -2*Zval/r beyond r=  1.5227
V l=2 = -2*Zval/r beyond r=  1.5227
All V_l potentials equal beyond r=  1.4851
This should be close to max(r_c) in ps generation
All pots = -2*Zval/r beyond r=  1.5227

VLOCAL1: 99.0% of the norm of Vloc inside     19.682 Ry
VLOCAL1: 99.9% of the norm of Vloc inside     44.856 Ry
atom: Maximum radius for 4*pi*r*r*local-pseudopot. charge    1.79142
atom: Maximum radius for r*vlocal+2*Zval:    1.54183
GHOST: No ghost state for L =  0
GHOST: No ghost state for L =  1
GHOST: No ghost state for L =  2

KBgen: Kleinman-Bylander projectors: 
   l= 0   rc=  1.661951   el= -0.994756   Ekb=  5.296364   kbcos=  0.313951
   l= 1   rc=  1.661951   el= -0.376633   Ekb= -4.104879   kbcos= -0.344765
   l= 2   rc=  1.747182   el=  0.002326   Ekb= -1.006421   kbcos= -0.008606

KBgen: Total number of Kleinman-Bylander projectors:    9
atom: -------------------------------------------------------------------------

atom: SANKEY-TYPE ORBITALS:

SPLIT: Orbitals with angular momentum L= 0

SPLIT: Basis orbitals for state 2s

SPLIT: PAO cut-off radius determined from an
SPLIT: energy shift=  0.000735 Ry

   izeta = 1
                 lambda =    1.000000
                     rc =    5.948690
                 energy =   -0.994108
                kinetic =    0.809152
    potential(screened) =   -1.803260
       potential(ionic) =   -5.360717

SPLIT: Orbitals with angular momentum L= 1

SPLIT: Basis orbitals for state 2p

SPLIT: PAO cut-off radius determined from an
SPLIT: energy shift=  0.000735 Ry

   izeta = 1
                 lambda =    1.000000
                     rc =    7.638387
                 energy =   -0.375915
                kinetic =    2.245823
    potential(screened) =   -2.621738
       potential(ionic) =   -5.993382
atom: Total number of Sankey-type orbitals:  4

atm_pop: Valence configuration (for local Pseudopot. screening):
 2s( 2.00)                                                            
 2p( 2.00)                                                            
Vna: chval, zval:    4.00000   4.00000

Vna:  Cut-off radius for the neutral-atom potential:   7.638387

atom: _________________________________________________________________________

prinput: Basis input ----------------------------------------------------------

PAO.BasisType split     

%block ChemicalSpeciesLabel
    1    6 C-gga                   # Species index, atomic number, species label
%endblock ChemicalSpeciesLabel

%block PAO.Basis                 # Define Basis set
C-gga                 2                    # Species label, number of l-shells
 n=2   0   1                         # n, l, Nzeta 
   5.949   
   1.000   
 n=2   1   1                         # n, l, Nzeta 
   7.638   
   1.000   
%endblock PAO.Basis

prinput: ----------------------------------------------------------------------

coor:   Atomic-coordinates input format  =     Cartesian coordinates
coor:                                          (in Angstroms)

siesta: Atomic coordinates (Bohr) and species
siesta:      0.00000   0.00000   4.34357  1        1
siesta:      0.00000   0.00000  13.03071  1        2
siesta:     -2.32814   4.03246   4.34357  1        3
siesta:     -4.65629   8.06493  13.03071  1        4
siesta:      4.65629   8.06493   4.34357  1        5
siesta:      2.32814   4.03246  13.03071  1        6
siesta:      4.65629   0.00000   4.34357  1        7
siesta:      9.31257   0.00000  13.03071  1        8
siesta:      4.65629   0.00000  13.03071  1        9
siesta:      9.31257   0.00000   4.34357  1       10
siesta:      4.65629   8.06493  13.03071  1       11
siesta:      2.32814   4.03246   4.34357  1       12
siesta:     -2.32814   4.03246  13.03071  1       13
siesta:     -4.65629   8.06493   4.34357  1       14
siesta:      0.00000   8.06493   4.34357  1       15
siesta:      6.98443   4.03246  13.03071  1       16
siesta:      6.98443   4.03246   4.34357  1       17
siesta:      0.00000   8.06493  13.03071  1       18
siesta:      0.00000   2.68831   4.34357  1       19
siesta:      6.98443   9.40908  13.03071  1       20
siesta:      4.65629  10.75324   4.34357  1       21
siesta:      2.32814   1.34415  13.03071  1       22
siesta:     -4.65629  10.75324   4.34357  1       23
siesta:     11.64072   1.34415  13.03071  1       24
siesta:     -2.32814   6.72077   4.34357  1       25
siesta:      9.31257   5.37662  13.03071  1       26
siesta:      2.32815   6.72077   4.34357  1       27
siesta:      4.65628   5.37662  13.03071  1       28
siesta:     -0.00000  10.75324   4.34357  1       29
siesta:      6.98443   1.34415  13.03071  1       30
siesta:      4.65629   2.68831   4.34357  1       31
siesta:      2.32814   9.40908  13.03071  1       32
siesta:      9.31258   2.68831   4.34357  1       33
siesta:     -2.32815   9.40908  13.03071  1       34
siesta:      6.98443   6.72077   4.34357  1       35
siesta:      0.00000   5.37662  13.03071  1       36

siesta: System type = bulk      

initatomlists: Number of atoms, orbitals, and projectors:     36   144   324

siesta: ******************** Simulation parameters ****************************
siesta:
siesta: The following are some of the parameters of the simulation.
siesta: A complete list of the parameters used, including default values,
siesta: can be found in file out.fdf
siesta:
redata: Spin configuration                          = none
redata: Number of spin components                   = 1
redata: Time-Reversal Symmetry                      = T
redata: Spin spiral                                 = F
redata: Long output                                 =   F
redata: Number of Atomic Species                    =        1
redata: Charge density info will appear in .RHO file
redata: Write Mulliken Pop.                         = NO
redata: Matel table size (NRTAB)                    =     1024
redata: Mesh Cutoff                                 =   300.0000 Ry
redata: Net charge of the system                    =     0.0000 |e|
redata: Min. number of SCF Iter                     =        0
redata: Max. number of SCF Iter                     =     1000
redata: SCF convergence failure will abort job
redata: SCF mix quantity                            = Hamiltonian
redata: Mix DM or H after convergence               =   F
redata: Recompute H after scf cycle                 =   F
redata: Mix DM in first SCF step                    =   T
redata: Write Pulay info on disk                    =   F
redata: New DM Occupancy tolerance                  = 0.000000000001
redata: No kicks to SCF
redata: DM Mixing Weight for Kicks                  =     0.5000
redata: Require Harris convergence for SCF          =   F
redata: Harris energy tolerance for SCF             =     0.000100 eV
redata: Require DM convergence for SCF              =   T
redata: DM tolerance for SCF                        =     0.001000
redata: Require EDM convergence for SCF             =   F
redata: EDM tolerance for SCF                       =     0.005000 eV
redata: Require H convergence for SCF               =   T
redata: Hamiltonian tolerance for SCF               =     0.001000 eV
redata: Require (free) Energy convergence for SCF   =   T
redata: (free) Energy tolerance for SCF             =     0.001000 eV
redata: Using Saved Data (generic)                  =   F
redata: Use continuation files for DM               =   F
redata: Neglect nonoverlap interactions             =   F
redata: Method of Calculation                       = Diagonalization
redata: Electronic Temperature                      =   299.9869 K
redata: Fix the spin of the system                  =   F
redata: Dynamics option                             = Single-point calculation
mix.SCF: Pulay mixing                            = Pulay
mix.SCF:    Variant                              = stable
mix.SCF:    History steps                        = 4
mix.SCF:    Linear mixing weight                 =     0.250000
mix.SCF:    Mixing weight                        =     0.250000
mix.SCF:    SVD condition                        = 0.1000E-07
redata: ***********************************************************************

%block SCF.Mixers
  Pulay
%endblock SCF.Mixers

%block SCF.Mixer.Pulay
  # Mixing method
  method pulay
  variant stable

  # Mixing options
  weight 0.2500
  weight.linear 0.2500
  history 4
%endblock SCF.Mixer.Pulay

DM_history_depth set to one: no extrapolation allowed by default for geometry relaxation
Size of DM history Fstack: 1
Total number of electrons:   144.000000
Total ionic charge:   144.000000

* ProcessorY, Blocksize:    4   1


* Orbital distribution balance (max,min):     8     7

k-point displ. along   1 input, could be:     0.00    0.50
k-point displ. along   2 input, could be:     0.00    0.50
k-point displ. along   3 input, could be:     0.00    0.50
 Kpoints in:           48 . Kpoints trimmed:           44

siesta: k-grid: Number of k-points =    44
siesta: k-grid: Cutoff (effective) =    14.784 Ang
siesta: k-grid: Supercell and displacements
siesta: k-grid:    4   0   0      0.000
siesta: k-grid:    0   4   0      0.000
siesta: k-grid:    0   0   4      0.000

diag: Algorithm                                     = Expert
diag: Parallel over k                               =   T
diag: Use parallel 2D distribution                  =   T
diag: Parallel block-size                           = 1
diag: Parallel distribution                         =     4 x     5
diag: Used triangular part                          = Lower
diag: Absolute tolerance                            =  0.100E-15
diag: Orthogonalization factor                      =  0.100E-05
diag: Memory factor                                 =  1.0000

superc: Internal auxiliary supercell:     5 x     5 x     3  =      75
superc: Number of atoms, orbitals, and projectors:   2700  10800  24300


ts: **************************************************************
ts: Save H and S matrices                           =    F
ts: Save DM and EDM matrices                        =    F
ts: Only save the overlap matrix S                  =    F
ts: **************************************************************

************************ Begin: TS CHECKS AND WARNINGS ************************
************************ End: TS CHECKS AND WARNINGS **************************


                     ====================================
                        Single-point calculation
                     ====================================

outcoor: Atomic coordinates (Ang):                          
    0.00000000    0.00000000    2.29851750   1       1  C-gga
    0.00000000    0.00000000    6.89555250   1       2  C-gga
   -1.23200000    2.13388659    2.29851750   1       3  C-gga
   -2.46400000    4.26777319    6.89555250   1       4  C-gga
    2.46400000    4.26777319    2.29851750   1       5  C-gga
    1.23200000    2.13388659    6.89555250   1       6  C-gga
    2.46400000    0.00000000    2.29851750   1       7  C-gga
    4.92800000    0.00000000    6.89555250   1       8  C-gga
    2.46400000    0.00000000    6.89555250   1       9  C-gga
    4.92800000    0.00000000    2.29851750   1      10  C-gga
    2.46400000    4.26777319    6.89555250   1      11  C-gga
    1.23200000    2.13388659    2.29851750   1      12  C-gga
   -1.23200000    2.13388659    6.89555250   1      13  C-gga
   -2.46400000    4.26777319    2.29851750   1      14  C-gga
    0.00000000    4.26777319    2.29851750   1      15  C-gga
    3.69600000    2.13388659    6.89555250   1      16  C-gga
    3.69600000    2.13388659    2.29851750   1      17  C-gga
    0.00000000    4.26777319    6.89555250   1      18  C-gga
    0.00000000    1.42258964    2.29851750   1      19  C-gga
    3.69600000    4.97907014    6.89555250   1      20  C-gga
    2.46400123    5.69036496    2.29851750   1      21  C-gga
    1.23199877    0.71129482    6.89555250   1      22  C-gga
   -2.46400123    5.69036496    2.29851750   1      23  C-gga
    6.16000123    0.71129482    6.89555250   1      24  C-gga
   -1.23200000    3.55647624    2.29851750   1      25  C-gga
    4.92800000    2.84518355    6.89555250   1      26  C-gga
    1.23200123    3.55647837    2.29851750   1      27  C-gga
    2.46399877    2.84518142    6.89555250   1      28  C-gga
   -0.00000123    5.69036496    2.29851750   1      29  C-gga
    3.69600123    0.71129482    6.89555250   1      30  C-gga
    2.46400000    1.42258964    2.29851750   1      31  C-gga
    1.23200000    4.97907014    6.89555250   1      32  C-gga
    4.92800123    1.42259177    2.29851750   1      33  C-gga
   -1.23200123    4.97906801    6.89555250   1      34  C-gga
    3.69599877    3.55647837    2.29851750   1      35  C-gga
    0.00000123    2.84518142    6.89555250   1      36  C-gga

superc: Internal auxiliary supercell:     5 x     5 x     3  =      75
superc: Number of atoms, orbitals, and projectors:   2700  10800  24300

outcell: Unit cell vectors (Ang):
        7.392000    0.000000    0.000000
       -3.696000    6.401660    0.000000
        0.000000    0.000000    9.194070

outcell: Cell vector modules (Ang)   :    7.392000    7.392000    9.194070
outcell: Cell angles (23,13,12) (deg):     90.0000     90.0000    120.0000
outcell: Cell volume (Ang**3)        :    435.0732
<dSpData1D:S at geom step 0
  <sparsity:sparsity for geom step 0
    nrows_g=144 nrows=8 sparsity=.2265 nnzs=4696, refcount: 7>
  <dData1D:(new from dSpData1D) n=4696, refcount: 1>
refcount: 1>
new_DM -- step:     1
Initializing Density Matrix...
DM filled with atomic data:
<dSpData2D:DM initialized from atoms
  <sparsity:sparsity for geom step 0
    nrows_g=144 nrows=8 sparsity=.2265 nnzs=4696, refcount: 8>
  <dData2D:DM n=4696 m=1, refcount: 1>
refcount: 1>
No. of atoms with KB's overlaping orbs in proc 0. Max # of overlaps:      79     148
New grid distribution:   1
           1       1:   36    1:    9    1:   10
           2       1:   36    1:    9   11:   20
           3       1:   36    1:    9   21:   30
           4       1:   36    1:    9   31:   39
           5       1:   36    1:    9   40:   48
           6       1:   36   10:   18    1:   10
           7       1:   36   10:   18   11:   20
           8       1:   36   10:   18   21:   30
           9       1:   36   10:   18   31:   39
          10       1:   36   10:   18   40:   48
          11       1:   36   19:   27    1:   10
          12       1:   36   19:   27   11:   20
          13       1:   36   19:   27   21:   30
          14       1:   36   19:   27   31:   39
          15       1:   36   19:   27   40:   48
          16       1:   36   28:   36    1:   10
          17       1:   36   28:   36   11:   20
          18       1:   36   28:   36   21:   30
          19       1:   36   28:   36   31:   39
          20       1:   36   28:   36   40:   48

InitMesh: MESH =    72 x    72 x    96 =      497664
InitMesh: (bp) =    36 x    36 x    48 =       62208
InitMesh: Mesh cutoff (required, used) =   300.000   301.320 Ry
ExtMesh (bp) on 0 =   128 x   101 x    98 =     1266944
New grid distribution:   2
           1       1:   15   19:   36   37:   48
           2       1:   15    1:   18   13:   24
           3       1:   14    1:   18   25:   36
           4       1:   14    1:   18   37:   48
           5      15:   36    1:    9   32:   48
           6       1:   15    1:   18    1:   12
           7      16:   36   10:   18    8:   24
           8      15:   36    1:   18   25:   31
           9      16:   36    1:    9    8:   24
          10      15:   36   10:   18   32:   48
          11      16:   36   19:   36    1:    7
          12      16:   36   19:   27    8:   24
          13       1:   15   19:   36   25:   36
          14      16:   36    1:   18    1:    7
          15      16:   36   19:   27   32:   48
          16       1:   15   19:   36    1:   12
          17       1:   15   19:   36   13:   24
          18      16:   36   28:   36    8:   24
          19      16:   36   19:   36   25:   31
          20      16:   36   28:   36   32:   48
New grid distribution:   3
           1      16:   36   19:   36   25:   32
           2       1:   15    1:   18   13:   24
           3       1:   15    1:   18   25:   36
           4      16:   36   19:   36    1:    8
           5       1:   15   19:   36   37:   48
           6       1:   15    1:   18    1:   12
           7      16:   36   28:   36    9:   24
           8      16:   36   10:   18    9:   24
           9      16:   36    1:   18    1:    8
          10       1:   15    1:   18   37:   48
          11      16:   36   19:   27    9:   24
          12       1:   15   19:   36   13:   24
          13      16:   36    1:    9   33:   48
          14      16:   36    1:   18   25:   32
          15      16:   36   19:   27   33:   48
          16       1:   15   19:   36    1:   12
          17      16:   36   10:   18   33:   48
          18       1:   15   19:   36   25:   36
          19      16:   36    1:    9    9:   24
          20      16:   36   28:   36   33:   48
Setting up quadratic distribution...
ExtMesh (bp) on 0 =   107 x   110 x   100 =     1177000
PhiOnMesh: Number of (b)points on node 0 =                 3240
PhiOnMesh: nlist on node 0 =               272019

stepf: Fermi-Dirac step function

siesta: Program's energy decomposition (eV):
siesta: Ebs     =     -2606.775790
siesta: Eions   =      9434.507561
siesta: Ena     =      2271.211210
siesta: Ekin    =      3580.697388
siesta: Enl     =      -332.130403
siesta: Eso     =         0.000000
siesta: Edftu   =         0.000000
siesta: DEna    =        25.638914
siesta: DUscf   =         2.903357
siesta: DUext   =         0.000000
siesta: Exc     =     -1618.218548
siesta: eta*DQ  =         0.000000
siesta: Emadel  =         0.000000
siesta: Emeta   =         0.000000
siesta: Emolmec =        -2.637436
siesta: Ekinion =         0.000000
siesta: Eharris =     -5355.992292
siesta: Etot    =     -5507.043079
siesta: FreeEng =     -5507.060356

        iscf     Eharris(eV)        E_KS(eV)     FreeEng(eV)     dDmax    Ef(eV) dHmax(eV)
   scf:    1    -5355.992292    -5507.043079    -5507.060356  1.336968 -8.248354  0.347738
timer: Routine,Calls,Time,% = IterSCF        1       0.856  43.51
   scf:    2    -5507.045125    -5507.044103    -5507.061459  0.000535 -8.315396  0.260952
   scf:    3    -5507.046443    -5507.045283    -5507.062851  0.001563 -8.517492  0.000696
   scf:    4    -5507.045283    -5507.045283    -5507.062851  0.000029 -8.517786  0.000408

SCF Convergence by FreeE+DM+H criterion
|FreeE_i-FreeE_(i-1)| (eV) <     0.00100000
max |DM_out - DM_in|         :     0.0000285670
max |H_out - H_in|      (eV) :     0.0004076981
SCF cycle converged after 4 iterations

Using DM_out to compute the final energy and forces
No. of atoms with KB's overlaping orbs in proc 0. Max # of overlaps:      79     148

MM-Stress (kbar):        2.85        2.85       10.29        0.00        0.00        0.00

siesta: E_KS(eV) =            -5507.0453

siesta: E_KS - E_eggbox =     -5507.0453

siesta: Atomic forces (eV/Ang):
     1   -0.000000   -0.000000    0.000000
     2    0.000000   -0.000000    0.000000
     3    0.000076   -0.000056    0.000000
     4   -0.000076    0.000056    0.000000
     5    0.000011    0.000094   -0.000000
     6   -0.000011   -0.000094    0.000000
     7   -0.000087   -0.000038    0.000000
     8    0.000087    0.000037    0.000000
     9   -0.000015   -0.000013   -0.000000
    10    0.000015    0.000012    0.000000
    11   -0.000003    0.000020    0.000000
    12    0.000003   -0.000019    0.000000
    13    0.000018   -0.000007   -0.000000
    14   -0.000018    0.000007    0.000000
    15   -0.000000   -0.000000    0.000000
    16    0.000000    0.000000   -0.000000
    17   -0.000000    0.000000   -0.000000
    18    0.000000    0.000000   -0.000000
    19    0.000006    0.000130    0.000000
    20   -0.000006   -0.000130   -0.000000
    21   -0.000116   -0.000060    0.000000
    22    0.000116    0.000060   -0.000000
    23    0.000110   -0.000070   -0.000000
    24   -0.000110    0.000071    0.000000
    25    0.000009    0.000114    0.000000
    26   -0.000009   -0.000115   -0.000000
    27   -0.000104   -0.000049   -0.000000
    28    0.000104    0.000049    0.000000
    29    0.000094   -0.000065    0.000000
    30   -0.000094    0.000065   -0.000000
    31    0.000009    0.000114   -0.000000
    32   -0.000009   -0.000114   -0.000000
    33   -0.000103   -0.000049   -0.000000
    34    0.000104    0.000049   -0.000000
    35    0.000094   -0.000066   -0.000000
    36   -0.000094    0.000065   -0.000000
----------------------------------------
   Tot   -0.000000   -0.000001    0.000000
----------------------------------------
   Max    0.000130
   Res    0.000054    sqrt( Sum f_i^2 / 3N )
----------------------------------------
   Max    0.000130    constrained

Stress tensor Voigt[x,y,z,yz,xz,xy] (kbar):     -311.74     -311.74       45.65       -0.00       -0.00        0.00
(Free)E + p*V (eV/cell)    -5454.7599
Target enthalpy (eV/cell)    -5507.0629

siesta: Eigenvalues (eV):
  ik is       eps
   1  1  -27.8488  -27.8197  -27.1319  -27.1318  -27.1129  -27.1129  -25.1846  -25.1846  -25.1674  -25.1674
         -24.0627  -24.0259  -23.6534  -23.6534  -23.6219  -23.6219  -23.0360  -23.0176  -21.5978  -21.5585
  -21.4054  -21.4054  -21.3539  -21.3539  -20.0110  -19.9931  -19.0170  -19.0170  -18.9952  -18.9952
  -18.1903  -18.1893  -17.7310  -17.7176  -17.0207  -17.0207  -17.0113  -17.0113  -16.6329  -16.6329
  -16.6224  -16.6224  -16.2464  -16.2464  -16.2409  -16.2408  -14.9279  -14.9279  -14.9227  -14.9227
  -14.6780  -14.6751  -14.3358  -14.1789  -14.0191  -14.0177  -13.8103  -13.8103  -13.6533  -13.6533
  -12.1557  -12.1557  -12.0589  -12.0589  -11.0254  -10.9843  -10.8292  -10.8291  -10.7984  -10.7984
  -10.2072  -10.1945   -6.8510   -6.8203   -6.2100   -6.2100   -6.1540   -6.1540   -5.6968   -5.6651
   -4.0355   -4.0355   -4.0010   -4.0010   -0.5867   -0.5867   -0.5694   -0.5694    0.8870    0.8962
    0.9148    1.0242    1.0242    1.0391    1.0391    1.0608    1.3598    1.3598    1.5090    1.5090
    1.7475    1.7479    2.8587    2.8615    3.0704    3.0704    3.1173    3.1173    3.4069    3.4069
    3.4585    3.4585    4.6781    4.7021    4.9539    4.9565    5.8409    5.8409    5.9542    5.9542
    6.4344    6.5017    6.9205    6.9205    6.9372    6.9372    9.0289    9.0429    9.8193    9.8193
    9.8392    9.8392   11.5558   11.5558   11.5689   11.5689   12.7601   12.7601   12.7961   12.7961
   13.2497   13.2527   13.6823   13.6826
   2  1  -28.2175  -28.1843  -26.7847  -26.7715  -26.1135  -26.1135  -26.1123  -26.1123  -24.8984  -24.8984
         -24.8769  -24.8769  -24.3590  -24.3303  -22.8844  -22.8844  -22.8430  -22.8430  -21.1655  -21.1655
  -21.1336  -21.1336  -20.7524  -20.7016  -19.8804  -19.8804  -19.8398  -19.8398  -18.7864  -18.7864
  -18.7715  -18.7715  -18.0765  -18.0765  -18.0577  -18.0577  -17.0952  -17.0822  -16.3332  -16.3332
  -16.3243  -16.3243  -16.0842  -16.0724  -15.7484  -15.7484  -15.7416  -15.7416  -14.9825  -14.9741
  -14.5931  -14.4416  -13.6981  -13.6955  -13.5435  -13.4089  -13.4061  -13.3911  -12.9980  -12.9980
  -12.8627  -12.8627  -11.9125  -11.9125  -11.8283  -11.8283  -11.4475  -11.3880   -9.8009   -9.8009
   -9.7974   -9.7974   -7.1982   -7.1982   -7.1735   -7.1735   -5.3751   -5.3084   -4.5573   -4.5573
   -4.4999   -4.4999   -2.4985   -2.4985   -2.4627   -2.4627   -1.2770   -1.2490    0.3078    0.3478
    0.3682    0.3695    0.6185    0.7436    0.8499    0.8514    1.1480    1.1480    1.1798    1.1798
    1.3046    1.3046    1.3953    1.3953    1.6974    1.7028    4.0548    4.0586    5.0296    5.0296
    5.0562    5.0562    5.4567    5.4571    5.8629    5.8629    5.9422    5.9422    7.2495    7.3526
    7.6758    7.6758    7.7006    7.7006    8.2847    8.2847    8.3453    8.3453    9.2877    9.2877
    9.3385    9.3385    9.8577    9.8592   11.4179   11.4179   11.4866   11.4866   11.6557   11.7663
   14.1521   14.1521   14.1541   14.1541
   3  1  -28.2175  -28.1843  -26.7847  -26.7715  -26.1135  -26.1135  -26.1123  -26.1123  -24.8984  -24.8984
         -24.8769  -24.8769  -24.3590  -24.3303  -22.8844  -22.8844  -22.8430  -22.8430  -21.1655  -21.1655
  -21.1336  -21.1336  -20.7524  -20.7016  -19.8804  -19.8804  -19.8398  -19.8398  -18.7864  -18.7864
  -18.7715  -18.7715  -18.0765  -18.0765  -18.0577  -18.0577  -17.0952  -17.0822  -16.3332  -16.3332
  -16.3243  -16.3243  -16.0842  -16.0724  -15.7484  -15.7484  -15.7416  -15.7416  -14.9825  -14.9741
  -14.5931  -14.4416  -13.6981  -13.6955  -13.5435  -13.4089  -13.4061  -13.3911  -12.9980  -12.9980
  -12.8627  -12.8627  -11.9125  -11.9125  -11.8283  -11.8283  -11.4475  -11.3880   -9.8009   -9.8009
   -9.7974   -9.7974   -7.1982   -7.1982   -7.1735   -7.1735   -5.3751   -5.3084   -4.5573   -4.5573
   -4.4999   -4.4999   -2.4985   -2.4985   -2.4627   -2.4627   -1.2770   -1.2490    0.3078    0.3478
    0.3682    0.3695    0.6185    0.7436    0.8499    0.8514    1.1480    1.1480    1.1798    1.1798
    1.3046    1.3046    1.3953    1.3953    1.6974    1.7028    4.0548    4.0586    5.0296    5.0296
    5.0562    5.0562    5.4567    5.4571    5.8629    5.8629    5.9422    5.9422    7.2495    7.3526
    7.6758    7.6758    7.7006    7.7006    8.2847    8.2847    8.3453    8.3453    9.2877    9.2877
    9.3385    9.3385    9.8577    9.8592   11.4179   11.4179   11.4866   11.4866   11.6557   11.7663
   14.1521   14.1521   14.1541   14.1541
   4  1  -27.8488  -27.8197  -27.1319  -27.1318  -27.1129  -27.1129  -25.1846  -25.1846  -25.1674  -25.1674
         -24.0627  -24.0259  -23.6534  -23.6534  -23.6219  -23.6219  -23.0360  -23.0176  -21.5978  -21.5585
  -21.4054  -21.4054  -21.3539  -21.3539  -20.0110  -19.9931  -19.0170  -19.0170  -18.9952  -18.9952
  -18.1903  -18.1893  -17.7310  -17.7176  -17.0207  -17.0207  -17.0113  -17.0113  -16.6329  -16.6329
  -16.6224  -16.6224  -16.2464  -16.2464  -16.2409  -16.2408  -14.9279  -14.9279  -14.9227  -14.9227
  -14.6780  -14.6751  -14.3358  -14.1789  -14.0191  -14.0177  -13.8103  -13.8103  -13.6533  -13.6533
  -12.1557  -12.1557  -12.0589  -12.0589  -11.0254  -10.9843  -10.8292  -10.8291  -10.7984  -10.7984
  -10.2072  -10.1945   -6.8510   -6.8203   -6.2100   -6.2100   -6.1540   -6.1540   -5.6968   -5.6651
   -4.0355   -4.0355   -4.0010   -4.0010   -0.5867   -0.5867   -0.5694   -0.5694    0.8870    0.8962
    0.9148    1.0242    1.0242    1.0391    1.0391    1.0608    1.3598    1.3598    1.5090    1.5090
    1.7475    1.7479    2.8587    2.8615    3.0704    3.0704    3.1173    3.1173    3.4069    3.4069
    3.4585    3.4585    4.6781    4.7021    4.9539    4.9565    5.8409    5.8409    5.9542    5.9542
    6.4344    6.5017    6.9205    6.9205    6.9372    6.9372    9.0289    9.0429    9.8193    9.8193
    9.8392    9.8392   11.5558   11.5558   11.5689   11.5689   12.7601   12.7601   12.7961   12.7961
   13.2497   13.2527   13.6823   13.6826
   5  1  -28.2175  -28.1843  -26.7847  -26.7715  -26.1135  -26.1135  -26.1123  -26.1123  -24.8984  -24.8984
         -24.8769  -24.8769  -24.3590  -24.3303  -22.8844  -22.8844  -22.8430  -22.8430  -21.1655  -21.1655
  -21.1336  -21.1336  -20.7524  -20.7016  -19.8804  -19.8804  -19.8398  -19.8398  -18.7864  -18.7864
  -18.7715  -18.7715  -18.0765  -18.0765  -18.0577  -18.0577  -17.0952  -17.0822  -16.3332  -16.3332
  -16.3243  -16.3243  -16.0842  -16.0724  -15.7484  -15.7484  -15.7416  -15.7416  -14.9825  -14.9741
  -14.5931  -14.4416  -13.6981  -13.6955  -13.5435  -13.4089  -13.4061  -13.3911  -12.9980  -12.9980
  -12.8627  -12.8627  -11.9125  -11.9125  -11.8283  -11.8283  -11.4475  -11.3880   -9.8009   -9.8009
   -9.7974   -9.7974   -7.1982   -7.1982   -7.1735   -7.1735   -5.3751   -5.3084   -4.5573   -4.5573
   -4.4999   -4.4999   -2.4985   -2.4985   -2.4627   -2.4627   -1.2770   -1.2490    0.3078    0.3478
    0.3682    0.3695    0.6185    0.7436    0.8499    0.8514    1.1480    1.1480    1.1798    1.1798
    1.3046    1.3046    1.3953    1.3953    1.6974    1.7028    4.0548    4.0586    5.0296    5.0296
    5.0562    5.0562    5.4567    5.4571    5.8629    5.8629    5.9422    5.9422    7.2495    7.3526
    7.6758    7.6758    7.7006    7.7006    8.2847    8.2847    8.3453    8.3453    9.2877    9.2877
    9.3385    9.3385    9.8577    9.8592   11.4179   11.4179   11.4866   11.4866   11.6557   11.7663
   14.1521   14.1521   14.1541   14.1541
   6  1  -28.4043  -28.3693  -25.6413  -25.6413  -25.6413  -25.6413  -25.6413  -25.6413  -25.6337  -25.6337
         -25.6337  -25.6337  -25.6337  -25.6337  -21.8854  -21.8854  -21.8626  -21.8626  -21.8626  -21.8626
  -21.8389  -21.8389  -19.3397  -19.3397  -19.3397  -19.3397  -19.0126  -19.0126  -19.0126  -19.0126
  -19.0126  -19.0126  -18.9813  -18.9813  -18.9813  -18.9813  -18.9813  -18.9813  -15.6566  -15.6566
  -15.6566  -15.6566  -15.6566  -15.6566  -15.6461  -15.6461  -15.6461  -15.6461  -15.6461  -15.6461
  -14.7205  -14.5731  -13.0864  -13.0864  -13.0864  -13.0864  -12.5936  -12.5936  -12.5936  -12.5936
  -12.5936  -12.5936  -12.4755  -12.4755  -12.4755  -12.4755  -12.4755  -12.4755   -8.5351   -8.5351
   -8.5177   -8.5177   -8.5177   -8.5177   -8.5003   -8.5003   -3.3672   -3.3672   -3.3672   -3.3672
   -3.3672   -3.3672   -3.3142   -3.3142   -3.3142   -3.3142   -3.3141   -3.3141    0.0844    0.0844
    0.0848    0.0848    0.4995    0.4995    0.4995    0.4995    0.4995    0.4995    0.5577    0.5577
    0.5577    0.5577    0.5577    0.5577    2.1237    2.1269    3.7123    3.7181    6.6979    6.6979
    6.7345    6.7345    6.7345    6.7345    6.7707    6.7707    8.0042    8.0042    8.0042    8.0043
    8.0043    8.0043    8.0057    8.0057    8.0057    8.0057    8.0057    8.0057    9.6027    9.6027
    9.6027    9.6027    9.6027    9.6027    9.7486    9.7486    9.7486    9.7487    9.7487    9.7487
   14.5063   14.5063   14.5063   14.5063
   7  1  -27.6669  -27.6669  -27.6402  -27.6402  -26.2775  -26.2775  -26.2734  -26.2734  -23.9481  -23.9481
         -23.9481  -23.9481  -23.9116  -23.9116  -23.9116  -23.9116  -23.4356  -23.4209  -21.8022  -21.7552
  -20.5870  -20.5870  -20.5870  -20.5870  -20.5433  -20.5433  -20.5433  -20.5433  -17.5574  -17.5574
  -17.5574  -17.5574  -17.5461  -17.5461  -17.5461  -17.5461  -17.5054  -17.5054  -17.4984  -17.4984
  -16.2296  -16.2172  -16.0827  -16.0827  -16.0710  -16.0710  -15.2079  -15.2079  -15.2033  -15.2033
  -14.2059  -14.2059  -14.1594  -14.1594  -14.1537  -14.1536  -14.0477  -14.0477  -13.1315  -13.1315
  -12.9914  -12.9914  -10.9637  -10.9637  -10.9637  -10.9637  -10.9258  -10.9258  -10.9258  -10.9258
  -10.7552  -10.7282   -6.3842   -6.3273   -5.8677   -5.8677   -5.8677   -5.8677   -5.8227   -5.8227
   -5.8227   -5.8227   -2.1736   -2.1736   -2.1515   -2.1515    0.2727    0.2981    0.4982    0.4982
    0.5104    0.5104    0.5863    0.5863    0.7289    0.7289    2.8484    2.8484    2.8500    2.8500
    2.9153    2.9153    2.9153    2.9153    2.9334    2.9334    2.9334    2.9334    3.2497    3.2497
    3.2562    3.2562    3.3357    3.3357    3.5483    3.5483    5.2544    5.2545    5.2841    5.2842
    8.0957    8.0957    8.0957    8.0957    8.1509    8.1509    8.1509    8.1509    9.3477    9.3477
    9.3514    9.3514   10.5366   10.5367   12.5373   12.5460   13.1042   13.1042   13.1042   13.1042
   13.1222   13.1222   13.1222   13.1222
   8  1  -27.8488  -27.8197  -27.1319  -27.1318  -27.1129  -27.1129  -25.1846  -25.1846  -25.1674  -25.1674
         -24.0627  -24.0259  -23.6534  -23.6534  -23.6219  -23.6219  -23.0360  -23.0176  -21.5978  -21.5585
  -21.4054  -21.4054  -21.3539  -21.3539  -20.0110  -19.9931  -19.0170  -19.0170  -18.9952  -18.9952
  -18.1903  -18.1893  -17.7310  -17.7176  -17.0207  -17.0207  -17.0113  -17.0113  -16.6329  -16.6329
  -16.6224  -16.6224  -16.2464  -16.2464  -16.2409  -16.2408  -14.9279  -14.9279  -14.9227  -14.9227
  -14.6780  -14.6751  -14.3358  -14.1789  -14.0191  -14.0177  -13.8103  -13.8103  -13.6533  -13.6533
  -12.1557  -12.1557  -12.0589  -12.0589  -11.0254  -10.9843  -10.8292  -10.8291  -10.7984  -10.7984
  -10.2072  -10.1945   -6.8510   -6.8203   -6.2100   -6.2100   -6.1540   -6.1540   -5.6968   -5.6651
   -4.0355   -4.0355   -4.0010   -4.0010   -0.5867   -0.5867   -0.5694   -0.5694    0.8870    0.8962
    0.9148    1.0242    1.0242    1.0391    1.0391    1.0608    1.3598    1.3598    1.5090    1.5090
    1.7475    1.7479    2.8587    2.8615    3.0704    3.0704    3.1173    3.1173    3.4069    3.4069
    3.4585    3.4585    4.6781    4.7021    4.9539    4.9565    5.8409    5.8409    5.9542    5.9542
    6.4344    6.5017    6.9205    6.9205    6.9372    6.9372    9.0289    9.0429    9.8193    9.8193
    9.8392    9.8392   11.5558   11.5558   11.5689   11.5689   12.7601   12.7601   12.7961   12.7961
   13.2497   13.2527   13.6823   13.6826
   9  1  -27.8488  -27.8197  -27.1319  -27.1318  -27.1129  -27.1129  -25.1846  -25.1846  -25.1674  -25.1674
         -24.0627  -24.0259  -23.6534  -23.6534  -23.6219  -23.6219  -23.0360  -23.0176  -21.5978  -21.5585
  -21.4054  -21.4054  -21.3539  -21.3539  -20.0110  -19.9931  -19.0170  -19.0170  -18.9952  -18.9952
  -18.1903  -18.1893  -17.7310  -17.7176  -17.0207  -17.0207  -17.0113  -17.0113  -16.6329  -16.6329
  -16.6224  -16.6224  -16.2464  -16.2464  -16.2409  -16.2408  -14.9279  -14.9279  -14.9227  -14.9227
  -14.6780  -14.6751  -14.3358  -14.1789  -14.0191  -14.0177  -13.8103  -13.8103  -13.6533  -13.6533
  -12.1557  -12.1557  -12.0589  -12.0589  -11.0254  -10.9843  -10.8292  -10.8291  -10.7984  -10.7984
  -10.2072  -10.1945   -6.8510   -6.8203   -6.2100   -6.2100   -6.1540   -6.1540   -5.6968   -5.6651
   -4.0355   -4.0355   -4.0010   -4.0010   -0.5867   -0.5867   -0.5694   -0.5694    0.8870    0.8962
    0.9148    1.0242    1.0242    1.0391    1.0391    1.0608    1.3598    1.3598    1.5090    1.5090
    1.7475    1.7479    2.8587    2.8615    3.0704    3.0704    3.1173    3.1173    3.4069    3.4069
    3.4585    3.4585    4.6781    4.7021    4.9539    4.9565    5.8409    5.8409    5.9542    5.9542
    6.4344    6.5017    6.9205    6.9205    6.9372    6.9372    9.0289    9.0429    9.8193    9.8193
    9.8392    9.8392   11.5558   11.5558   11.5689   11.5689   12.7601   12.7601   12.7961   12.7961
   13.2497   13.2527   13.6823   13.6826
  10  1  -27.6669  -27.6669  -27.6402  -27.6402  -26.2775  -26.2775  -26.2734  -26.2734  -23.9481  -23.9481
         -23.9481  -23.9481  -23.9116  -23.9116  -23.9116  -23.9116  -23.4356  -23.4209  -21.8022  -21.7552
  -20.5870  -20.5870  -20.5870  -20.5870  -20.5433  -20.5433  -20.5433  -20.5433  -17.5574  -17.5574
  -17.5574  -17.5574  -17.5461  -17.5461  -17.5461  -17.5461  -17.5054  -17.5054  -17.4984  -17.4984
  -16.2296  -16.2172  -16.0827  -16.0827  -16.0710  -16.0710  -15.2079  -15.2079  -15.2033  -15.2033
  -14.2059  -14.2059  -14.1594  -14.1594  -14.1537  -14.1536  -14.0477  -14.0477  -13.1315  -13.1315
  -12.9914  -12.9914  -10.9637  -10.9637  -10.9637  -10.9637  -10.9258  -10.9258  -10.9258  -10.9258
  -10.7552  -10.7282   -6.3842   -6.3273   -5.8677   -5.8677   -5.8677   -5.8677   -5.8227   -5.8227
   -5.8227   -5.8227   -2.1736   -2.1736   -2.1515   -2.1515    0.2727    0.2981    0.4982    0.4982
    0.5104    0.5104    0.5863    0.5863    0.7289    0.7289    2.8484    2.8484    2.8500    2.8500
    2.9153    2.9153    2.9153    2.9153    2.9334    2.9334    2.9334    2.9334    3.2497    3.2497
    3.2562    3.2562    3.3357    3.3357    3.5483    3.5483    5.2544    5.2545    5.2841    5.2842
    8.0957    8.0957    8.0957    8.0957    8.1509    8.1509    8.1509    8.1509    9.3477    9.3477
    9.3514    9.3514   10.5366   10.5367   12.5373   12.5460   13.1042   13.1042   13.1042   13.1042
   13.1222   13.1222   13.1222   13.1222
  11  1  -27.8488  -27.8197  -27.1319  -27.1318  -27.1129  -27.1129  -25.1846  -25.1846  -25.1674  -25.1674
         -24.0627  -24.0259  -23.6534  -23.6534  -23.6219  -23.6219  -23.0360  -23.0176  -21.5978  -21.5585
  -21.4054  -21.4054  -21.3539  -21.3539  -20.0110  -19.9931  -19.0170  -19.0170  -18.9952  -18.9952
  -18.1903  -18.1893  -17.7310  -17.7176  -17.0207  -17.0207  -17.0113  -17.0113  -16.6329  -16.6329
  -16.6224  -16.6224  -16.2464  -16.2464  -16.2409  -16.2408  -14.9279  -14.9279  -14.9227  -14.9227
  -14.6780  -14.6751  -14.3358  -14.1789  -14.0191  -14.0177  -13.8103  -13.8103  -13.6533  -13.6533
  -12.1557  -12.1557  -12.0589  -12.0589  -11.0254  -10.9843  -10.8292  -10.8291  -10.7984  -10.7984
  -10.2072  -10.1945   -6.8510   -6.8203   -6.2100   -6.2100   -6.1540   -6.1540   -5.6968   -5.6651
   -4.0355   -4.0355   -4.0010   -4.0010   -0.5867   -0.5867   -0.5694   -0.5694    0.8870    0.8962
    0.9148    1.0242    1.0242    1.0391    1.0391    1.0608    1.3598    1.3598    1.5090    1.5090
    1.7475    1.7479    2.8587    2.8615    3.0704    3.0704    3.1173    3.1173    3.4069    3.4069
    3.4585    3.4585    4.6781    4.7021    4.9539    4.9565    5.8409    5.8409    5.9542    5.9542
    6.4344    6.5017    6.9205    6.9205    6.9372    6.9372    9.0289    9.0429    9.8193    9.8193
    9.8392    9.8392   11.5558   11.5558   11.5689   11.5689   12.7601   12.7601   12.7961   12.7961
   13.2497   13.2527   13.6823   13.6826
  12  1  -27.6669  -27.6669  -27.6402  -27.6402  -26.2775  -26.2775  -26.2734  -26.2734  -23.9481  -23.9481
         -23.9481  -23.9481  -23.9116  -23.9116  -23.9116  -23.9116  -23.4356  -23.4209  -21.8022  -21.7552
  -20.5870  -20.5870  -20.5870  -20.5870  -20.5433  -20.5433  -20.5433  -20.5433  -17.5574  -17.5574
  -17.5574  -17.5574  -17.5461  -17.5461  -17.5461  -17.5461  -17.5054  -17.5054  -17.4984  -17.4984
  -16.2296  -16.2172  -16.0827  -16.0827  -16.0710  -16.0710  -15.2079  -15.2079  -15.2033  -15.2033
  -14.2059  -14.2059  -14.1594  -14.1594  -14.1537  -14.1536  -14.0477  -14.0477  -13.1315  -13.1315
  -12.9914  -12.9914  -10.9637  -10.9637  -10.9637  -10.9637  -10.9258  -10.9258  -10.9258  -10.9258
  -10.7552  -10.7282   -6.3842   -6.3273   -5.8677   -5.8677   -5.8677   -5.8677   -5.8227   -5.8227
   -5.8227   -5.8227   -2.1736   -2.1736   -2.1515   -2.1515    0.2727    0.2981    0.4982    0.4982
    0.5104    0.5104    0.5863    0.5863    0.7289    0.7289    2.8484    2.8484    2.8500    2.8500
    2.9153    2.9153    2.9153    2.9153    2.9334    2.9334    2.9334    2.9334    3.2497    3.2497
    3.2562    3.2562    3.3357    3.3357    3.5483    3.5483    5.2544    5.2545    5.2841    5.2842
    8.0957    8.0957    8.0957    8.0957    8.1509    8.1509    8.1509    8.1509    9.3477    9.3477
    9.3514    9.3514   10.5366   10.5367   12.5373   12.5460   13.1042   13.1042   13.1042   13.1042
   13.1222   13.1222   13.1222   13.1222
  13  1  -27.8448  -27.8242  -27.1295  -27.1295  -27.1161  -27.1161  -25.1826  -25.1826  -25.1705  -25.1705
         -24.0577  -24.0317  -23.6490  -23.6490  -23.6267  -23.6267  -23.0332  -23.0202  -21.5926  -21.5648
  -21.3984  -21.3984  -21.3619  -21.3619  -20.0083  -19.9956  -19.0138  -19.0138  -18.9984  -18.9984
  -18.1905  -18.1898  -17.7291  -17.7197  -17.0196  -17.0196  -17.0130  -17.0130  -16.6314  -16.6314
  -16.6239  -16.6239  -16.2457  -16.2456  -16.2418  -16.2418  -14.9274  -14.9274  -14.9238  -14.9238
  -14.6776  -14.6755  -14.3094  -14.1990  -14.0183  -14.0175  -13.7839  -13.7839  -13.6732  -13.6732
  -12.1404  -12.1404  -12.0720  -12.0720  -11.0191  -10.9900  -10.8246  -10.8246  -10.8028  -10.8028
  -10.2053  -10.1963   -6.8468   -6.8252   -6.2023   -6.2023   -6.1627   -6.1627   -5.6922   -5.6698
   -4.0305   -4.0305   -4.0061   -4.0061   -0.5842   -0.5842   -0.5719   -0.5719    0.8883    0.8947
    0.9387    1.0265    1.0265    1.0370    1.0371    1.0416    1.3842    1.3842    1.4895    1.4895
    1.7476    1.7479    2.8593    2.8612    3.0778    3.0778    3.1110    3.1110    3.4147    3.4147
    3.4512    3.4512    4.6816    4.6986    4.9543    4.9561    5.8583    5.8583    5.9384    5.9384
    6.4449    6.4925    6.9231    6.9231    6.9348    6.9348    9.0311    9.0409    9.8224    9.8224
    9.8364    9.8364   11.5578   11.5578   11.5670   11.5670   12.7656   12.7656   12.7910   12.7910
   13.2502   13.2523   13.6824   13.6826
  14  1  -28.2129  -28.1894  -26.7833  -26.7738  -26.1139  -26.1139  -26.1130  -26.1130  -24.8957  -24.8957
         -24.8805  -24.8805  -24.3552  -24.3349  -22.8785  -22.8785  -22.8492  -22.8492  -21.1609  -21.1609
  -21.1383  -21.1383  -20.7453  -20.7094  -19.8747  -19.8747  -19.8459  -19.8459  -18.7846  -18.7846
  -18.7740  -18.7740  -18.0740  -18.0740  -18.0606  -18.0606  -17.0936  -17.0844  -16.3319  -16.3319
  -16.3257  -16.3257  -16.0825  -16.0741  -15.7476  -15.7476  -15.7428  -15.7428  -14.9812  -14.9753
  -14.5667  -14.4601  -13.6977  -13.6959  -13.5184  -13.4109  -13.4085  -13.4065  -12.9761  -12.9761
  -12.8805  -12.8805  -11.8993  -11.8993  -11.8398  -11.8398  -11.4384  -11.3964   -9.8004   -9.8004
   -9.7980   -9.7980   -7.1947   -7.1947   -7.1772   -7.1772   -5.3658   -5.3186   -4.5491   -4.5491
   -4.5085   -4.5085   -2.4933   -2.4933   -2.4680   -2.4680   -1.2730   -1.2532    0.3180    0.3510
    0.3615    0.3654    0.6386    0.7269    0.8502    0.8512    1.1531    1.1531    1.1756    1.1756
    1.3192    1.3192    1.3832    1.3832    1.6982    1.7020    4.0554    4.0581    5.0336    5.0336
    5.0524    5.0524    5.4567    5.4571    5.8753    5.8753    5.9313    5.9313    7.2655    7.3383
    7.6795    7.6795    7.6970    7.6970    8.2942    8.2942    8.3370    8.3370    9.2953    9.2953
    9.3313    9.3313    9.8579    9.8590   11.4282   11.4282   11.4768   11.4768   11.6725   11.7508
   14.1524   14.1524   14.1538   14.1538
  15  1  -28.2129  -28.1894  -26.7833  -26.7738  -26.1139  -26.1139  -26.1130  -26.1130  -24.8957  -24.8957
         -24.8805  -24.8805  -24.3552  -24.3349  -22.8785  -22.8785  -22.8492  -22.8492  -21.1609  -21.1609
  -21.1383  -21.1383  -20.7453  -20.7094  -19.8747  -19.8747  -19.8459  -19.8459  -18.7846  -18.7846
  -18.7740  -18.7740  -18.0740  -18.0740  -18.0606  -18.0606  -17.0936  -17.0844  -16.3319  -16.3319
  -16.3257  -16.3257  -16.0825  -16.0741  -15.7476  -15.7476  -15.7428  -15.7428  -14.9812  -14.9753
  -14.5667  -14.4601  -13.6977  -13.6959  -13.5184  -13.4109  -13.4085  -13.4065  -12.9761  -12.9761
  -12.8805  -12.8805  -11.8993  -11.8993  -11.8398  -11.8398  -11.4384  -11.3964   -9.8004   -9.8004
   -9.7980   -9.7980   -7.1947   -7.1947   -7.1772   -7.1772   -5.3658   -5.3186   -4.5491   -4.5491
   -4.5085   -4.5085   -2.4933   -2.4933   -2.4680   -2.4680   -1.2730   -1.2532    0.3180    0.3510
    0.3615    0.3654    0.6386    0.7269    0.8502    0.8512    1.1531    1.1531    1.1756    1.1756
    1.3192    1.3192    1.3832    1.3832    1.6982    1.7020    4.0554    4.0581    5.0336    5.0336
    5.0524    5.0524    5.4567    5.4571    5.8753    5.8753    5.9313    5.9313    7.2655    7.3383
    7.6795    7.6795    7.6970    7.6970    8.2942    8.2942    8.3370    8.3370    9.2953    9.2953
    9.3313    9.3313    9.8579    9.8590   11.4282   11.4282   11.4768   11.4768   11.6725   11.7508
   14.1524   14.1524   14.1538   14.1538
  16  1  -27.8448  -27.8242  -27.1295  -27.1295  -27.1161  -27.1161  -25.1826  -25.1826  -25.1705  -25.1705
         -24.0577  -24.0317  -23.6490  -23.6490  -23.6267  -23.6267  -23.0332  -23.0202  -21.5926  -21.5648
  -21.3984  -21.3984  -21.3619  -21.3619  -20.0083  -19.9956  -19.0138  -19.0138  -18.9984  -18.9984
  -18.1905  -18.1898  -17.7291  -17.7197  -17.0196  -17.0196  -17.0130  -17.0130  -16.6314  -16.6314
  -16.6239  -16.6239  -16.2457  -16.2456  -16.2418  -16.2418  -14.9274  -14.9274  -14.9238  -14.9238
  -14.6776  -14.6755  -14.3094  -14.1990  -14.0183  -14.0175  -13.7839  -13.7839  -13.6732  -13.6732
  -12.1404  -12.1404  -12.0720  -12.0720  -11.0191  -10.9900  -10.8246  -10.8246  -10.8028  -10.8028
  -10.2053  -10.1963   -6.8468   -6.8252   -6.2023   -6.2023   -6.1627   -6.1627   -5.6922   -5.6698
   -4.0305   -4.0305   -4.0061   -4.0061   -0.5842   -0.5842   -0.5719   -0.5719    0.8883    0.8947
    0.9387    1.0265    1.0265    1.0370    1.0371    1.0416    1.3842    1.3842    1.4895    1.4895
    1.7476    1.7479    2.8593    2.8612    3.0778    3.0778    3.1110    3.1110    3.4147    3.4147
    3.4512    3.4512    4.6816    4.6986    4.9543    4.9561    5.8583    5.8583    5.9384    5.9384
    6.4449    6.4925    6.9231    6.9231    6.9348    6.9348    9.0311    9.0409    9.8224    9.8224
    9.8364    9.8364   11.5578   11.5578   11.5670   11.5670   12.7656   12.7656   12.7910   12.7910
   13.2502   13.2523   13.6824   13.6826
  17  1  -28.2129  -28.1894  -26.7833  -26.7738  -26.1139  -26.1139  -26.1130  -26.1130  -24.8957  -24.8957
         -24.8805  -24.8805  -24.3552  -24.3349  -22.8785  -22.8785  -22.8492  -22.8492  -21.1609  -21.1609
  -21.1383  -21.1383  -20.7453  -20.7094  -19.8747  -19.8747  -19.8459  -19.8459  -18.7846  -18.7846
  -18.7740  -18.7740  -18.0740  -18.0740  -18.0606  -18.0606  -17.0936  -17.0844  -16.3319  -16.3319
  -16.3257  -16.3257  -16.0825  -16.0741  -15.7476  -15.7476  -15.7428  -15.7428  -14.9812  -14.9753
  -14.5667  -14.4601  -13.6977  -13.6959  -13.5184  -13.4109  -13.4085  -13.4065  -12.9761  -12.9761
  -12.8805  -12.8805  -11.8993  -11.8993  -11.8398  -11.8398  -11.4384  -11.3964   -9.8004   -9.8004
   -9.7980   -9.7980   -7.1947   -7.1947   -7.1772   -7.1772   -5.3658   -5.3186   -4.5491   -4.5491
   -4.5085   -4.5085   -2.4933   -2.4933   -2.4680   -2.4680   -1.2730   -1.2532    0.3180    0.3510
    0.3615    0.3654    0.6386    0.7269    0.8502    0.8512    1.1531    1.1531    1.1756    1.1756
    1.3192    1.3192    1.3832    1.3832    1.6982    1.7020    4.0554    4.0581    5.0336    5.0336
    5.0524    5.0524    5.4567    5.4571    5.8753    5.8753    5.9313    5.9313    7.2655    7.3383
    7.6795    7.6795    7.6970    7.6970    8.2942    8.2942    8.3370    8.3370    9.2953    9.2953
    9.3313    9.3313    9.8579    9.8590   11.4282   11.4282   11.4768   11.4768   11.6725   11.7508
   14.1524   14.1524   14.1538   14.1538
  18  1  -28.3993  -28.3746  -25.6407  -25.6407  -25.6407  -25.6407  -25.6407  -25.6407  -25.6354  -25.6354
         -25.6354  -25.6354  -25.6354  -25.6354  -21.8787  -21.8787  -21.8623  -21.8623  -21.8623  -21.8623
  -21.8459  -21.8459  -19.3402  -19.3402  -19.3402  -19.3402  -19.0083  -19.0083  -19.0083  -19.0083
  -19.0083  -19.0083  -18.9862  -18.9862  -18.9862  -18.9861  -18.9861  -18.9861  -15.6551  -15.6551
  -15.6551  -15.6551  -15.6551  -15.6551  -15.6477  -15.6477  -15.6477  -15.6477  -15.6477  -15.6477
  -14.6945  -14.5908  -13.0864  -13.0864  -13.0864  -13.0864  -12.5748  -12.5748  -12.5748  -12.5748
  -12.5748  -12.5748  -12.4914  -12.4914  -12.4914  -12.4914  -12.4914  -12.4914   -8.5301   -8.5301
   -8.5177   -8.5177   -8.5177   -8.5177   -8.5056   -8.5056   -3.3596   -3.3596   -3.3596   -3.3596
   -3.3596   -3.3596   -3.3221   -3.3221   -3.3221   -3.3221   -3.3221   -3.3221    0.0844    0.0844
    0.0847    0.0847    0.5088    0.5088    0.5088    0.5088    0.5088    0.5088    0.5499    0.5499
    0.5499    0.5499    0.5499    0.5499    2.1242    2.1264    3.7131    3.7173    6.7086    6.7086
    6.7344    6.7344    6.7344    6.7344    6.7601    6.7601    8.0044    8.0045    8.0045    8.0045
    8.0045    8.0045    8.0055    8.0055    8.0055    8.0055    8.0055    8.0055    9.6251    9.6251
    9.6251    9.6251    9.6251    9.6251    9.7283    9.7283    9.7283    9.7283    9.7283    9.7283
   14.5063   14.5063   14.5063   14.5063
  19  1  -28.2129  -28.1894  -26.7833  -26.7738  -26.1139  -26.1139  -26.1130  -26.1130  -24.8957  -24.8957
         -24.8805  -24.8805  -24.3552  -24.3349  -22.8785  -22.8785  -22.8492  -22.8492  -21.1609  -21.1609
  -21.1383  -21.1383  -20.7453  -20.7094  -19.8747  -19.8747  -19.8459  -19.8459  -18.7846  -18.7846
  -18.7740  -18.7740  -18.0740  -18.0740  -18.0606  -18.0606  -17.0936  -17.0844  -16.3319  -16.3319
  -16.3257  -16.3257  -16.0825  -16.0741  -15.7476  -15.7476  -15.7428  -15.7428  -14.9812  -14.9753
  -14.5667  -14.4601  -13.6977  -13.6959  -13.5184  -13.4109  -13.4085  -13.4065  -12.9761  -12.9761
  -12.8805  -12.8805  -11.8993  -11.8993  -11.8398  -11.8398  -11.4384  -11.3964   -9.8004   -9.8004
   -9.7980   -9.7980   -7.1947   -7.1947   -7.1772   -7.1772   -5.3658   -5.3186   -4.5491   -4.5491
   -4.5085   -4.5085   -2.4933   -2.4933   -2.4680   -2.4680   -1.2730   -1.2532    0.3180    0.3510
    0.3615    0.3654    0.6386    0.7269    0.8502    0.8512    1.1531    1.1531    1.1756    1.1756
    1.3192    1.3192    1.3832    1.3832    1.6982    1.7020    4.0554    4.0581    5.0336    5.0336
    5.0524    5.0524    5.4567    5.4571    5.8753    5.8753    5.9313    5.9313    7.2655    7.3383
    7.6795    7.6795    7.6970    7.6970    8.2942    8.2942    8.3370    8.3370    9.2953    9.2953
    9.3313    9.3313    9.8579    9.8590   11.4282   11.4282   11.4768   11.4768   11.6725   11.7508
   14.1524   14.1524   14.1538   14.1538
  20  1  -27.6633  -27.6633  -27.6444  -27.6444  -26.2774  -26.2774  -26.2745  -26.2745  -23.9431  -23.9431
         -23.9431  -23.9431  -23.9173  -23.9173  -23.9173  -23.9173  -23.4334  -23.4230  -21.7961  -21.7628
  -20.5808  -20.5808  -20.5808  -20.5808  -20.5499  -20.5499  -20.5499  -20.5499  -17.5559  -17.5559
  -17.5559  -17.5559  -17.5479  -17.5479  -17.5479  -17.5479  -17.5043  -17.5043  -17.4994  -17.4994
  -16.2278  -16.2191  -16.0814  -16.0814  -16.0731  -16.0731  -15.2075  -15.2075  -15.2042  -15.2042
  -14.1789  -14.1789  -14.1586  -14.1586  -14.1545  -14.1545  -14.0674  -14.0674  -13.1087  -13.1087
  -13.0097  -13.0097  -10.9579  -10.9579  -10.9579  -10.9579  -10.9312  -10.9312  -10.9312  -10.9312
  -10.7512  -10.7322   -6.3765   -6.3363   -5.8613   -5.8613   -5.8613   -5.8613   -5.8295   -5.8295
   -5.8295   -5.8295   -2.1703   -2.1703   -2.1547   -2.1547    0.2765    0.2945    0.5000    0.5000
    0.5086    0.5086    0.6096    0.6096    0.7102    0.7102    2.8486    2.8486    2.8498    2.8498
    2.9181    2.9182    2.9182    2.9182    2.9309    2.9309    2.9309    2.9309    3.2507    3.2507
    3.2553    3.2553    3.3692    3.3692    3.5194    3.5194    5.2591    5.2591    5.2801    5.2801
    8.1041    8.1041    8.1041    8.1042    8.1432    8.1432    8.1432    8.1432    9.3483    9.3483
    9.3509    9.3509   10.5366   10.5367   12.5389   12.5451   13.1069   13.1069   13.1069   13.1069
   13.1196   13.1196   13.1196   13.1196
  21  1  -28.2129  -28.1894  -26.7833  -26.7738  -26.1139  -26.1139  -26.1130  -26.1130  -24.8957  -24.8957
         -24.8805  -24.8805  -24.3552  -24.3349  -22.8785  -22.8785  -22.8492  -22.8492  -21.1609  -21.1609
  -21.1383  -21.1383  -20.7453  -20.7094  -19.8747  -19.8747  -19.8459  -19.8459  -18.7846  -18.7846
  -18.7740  -18.7740  -18.0740  -18.0740  -18.0606  -18.0606  -17.0936  -17.0844  -16.3319  -16.3319
  -16.3257  -16.3257  -16.0825  -16.0741  -15.7476  -15.7476  -15.7428  -15.7428  -14.9812  -14.9753
  -14.5667  -14.4601  -13.6977  -13.6959  -13.5184  -13.4109  -13.4085  -13.4065  -12.9761  -12.9761
  -12.8805  -12.8805  -11.8993  -11.8993  -11.8398  -11.8398  -11.4384  -11.3964   -9.8004   -9.8004
   -9.7980   -9.7980   -7.1947   -7.1947   -7.1772   -7.1772   -5.3658   -5.3186   -4.5491   -4.5491
   -4.5085   -4.5085   -2.4933   -2.4933   -2.4680   -2.4680   -1.2730   -1.2532    0.3180    0.3510
    0.3615    0.3654    0.6386    0.7269    0.8502    0.8512    1.1531    1.1531    1.1756    1.1756
    1.3192    1.3192    1.3832    1.3832    1.6982    1.7020    4.0554    4.0581    5.0336    5.0336
    5.0524    5.0524    5.4567    5.4571    5.8753    5.8753    5.9313    5.9313    7.2655    7.3383
    7.6795    7.6795    7.6970    7.6970    8.2942    8.2942    8.3370    8.3370    9.2953    9.2953
    9.3313    9.3313    9.8579    9.8590   11.4282   11.4282   11.4768   11.4768   11.6725   11.7508
   14.1524   14.1524   14.1538   14.1538
  22  1  -28.2129  -28.1894  -26.7833  -26.7738  -26.1139  -26.1139  -26.1130  -26.1130  -24.8957  -24.8957
         -24.8805  -24.8805  -24.3552  -24.3349  -22.8785  -22.8785  -22.8492  -22.8492  -21.1609  -21.1609
  -21.1383  -21.1383  -20.7453  -20.7094  -19.8747  -19.8747  -19.8459  -19.8459  -18.7846  -18.7846
  -18.7740  -18.7740  -18.0740  -18.0740  -18.0606  -18.0606  -17.0936  -17.0844  -16.3319  -16.3319
  -16.3257  -16.3257  -16.0825  -16.0741  -15.7476  -15.7476  -15.7428  -15.7428  -14.9812  -14.9753
  -14.5667  -14.4601  -13.6977  -13.6959  -13.5184  -13.4109  -13.4085  -13.4065  -12.9761  -12.9761
  -12.8805  -12.8805  -11.8993  -11.8993  -11.8398  -11.8398  -11.4384  -11.3964   -9.8004   -9.8004
   -9.7980   -9.7980   -7.1947   -7.1947   -7.1772   -7.1772   -5.3658   -5.3186   -4.5491   -4.5491
   -4.5085   -4.5085   -2.4933   -2.4933   -2.4680   -2.4680   -1.2730   -1.2532    0.3180    0.3510
    0.3615    0.3654    0.6386    0.7269    0.8502    0.8512    1.1531    1.1531    1.1756    1.1756
    1.3192    1.3192    1.3832    1.3832    1.6982    1.7020    4.0554    4.0581    5.0336    5.0336
    5.0524    5.0524    5.4567    5.4571    5.8753    5.8753    5.9313    5.9313    7.2655    7.3383
    7.6795    7.6795    7.6970    7.6970    8.2942    8.2942    8.3370    8.3370    9.2953    9.2953
    9.3313    9.3313    9.8579    9.8590   11.4282   11.4282   11.4768   11.4768   11.6725   11.7508
   14.1524   14.1524   14.1538   14.1538
  23  1  -27.8448  -27.8242  -27.1295  -27.1295  -27.1161  -27.1161  -25.1826  -25.1826  -25.1705  -25.1705
         -24.0577  -24.0317  -23.6490  -23.6490  -23.6267  -23.6267  -23.0332  -23.0202  -21.5926  -21.5648
  -21.3984  -21.3984  -21.3619  -21.3619  -20.0083  -19.9956  -19.0138  -19.0138  -18.9984  -18.9984
  -18.1905  -18.1898  -17.7291  -17.7197  -17.0196  -17.0196  -17.0130  -17.0130  -16.6314  -16.6314
  -16.6239  -16.6239  -16.2457  -16.2456  -16.2418  -16.2418  -14.9274  -14.9274  -14.9238  -14.9238
  -14.6776  -14.6755  -14.3094  -14.1990  -14.0183  -14.0175  -13.7839  -13.7839  -13.6732  -13.6732
  -12.1404  -12.1404  -12.0720  -12.0720  -11.0191  -10.9900  -10.8246  -10.8246  -10.8028  -10.8028
  -10.2053  -10.1963   -6.8468   -6.8252   -6.2023   -6.2023   -6.1627   -6.1627   -5.6922   -5.6698
   -4.0305   -4.0305   -4.0061   -4.0061   -0.5842   -0.5842   -0.5719   -0.5719    0.8883    0.8947
    0.9387    1.0265    1.0265    1.0370    1.0371    1.0416    1.3842    1.3842    1.4895    1.4895
    1.7476    1.7479    2.8593    2.8612    3.0778    3.0778    3.1110    3.1110    3.4147    3.4147
    3.4512    3.4512    4.6816    4.6986    4.9543    4.9561    5.8583    5.8583    5.9384    5.9384
    6.4449    6.4925    6.9231    6.9231    6.9348    6.9348    9.0311    9.0409    9.8224    9.8224
    9.8364    9.8364   11.5578   11.5578   11.5670   11.5670   12.7656   12.7656   12.7910   12.7910
   13.2502   13.2523   13.6824   13.6826
  24  1  -27.8448  -27.8242  -27.1295  -27.1295  -27.1161  -27.1161  -25.1826  -25.1826  -25.1705  -25.1705
         -24.0577  -24.0317  -23.6490  -23.6490  -23.6267  -23.6267  -23.0332  -23.0202  -21.5926  -21.5648
  -21.3984  -21.3984  -21.3619  -21.3619  -20.0083  -19.9956  -19.0138  -19.0138  -18.9984  -18.9984
  -18.1905  -18.1898  -17.7291  -17.7197  -17.0196  -17.0196  -17.0130  -17.0130  -16.6314  -16.6314
  -16.6239  -16.6239  -16.2457  -16.2456  -16.2418  -16.2418  -14.9274  -14.9274  -14.9238  -14.9238
  -14.6776  -14.6755  -14.3094  -14.1990  -14.0183  -14.0175  -13.7839  -13.7839  -13.6732  -13.6732
  -12.1404  -12.1404  -12.0720  -12.0720  -11.0191  -10.9900  -10.8246  -10.8246  -10.8028  -10.8028
  -10.2053  -10.1963   -6.8468   -6.8252   -6.2023   -6.2023   -6.1627   -6.1627   -5.6922   -5.6698
   -4.0305   -4.0305   -4.0061   -4.0061   -0.5842   -0.5842   -0.5719   -0.5719    0.8883    0.8947
    0.9387    1.0265    1.0265    1.0370    1.0371    1.0416    1.3842    1.3842    1.4895    1.4895
    1.7476    1.7479    2.8593    2.8612    3.0778    3.0778    3.1110    3.1110    3.4147    3.4147
    3.4512    3.4512    4.6816    4.6986    4.9543    4.9561    5.8583    5.8583    5.9384    5.9384
    6.4449    6.4925    6.9231    6.9231    6.9348    6.9348    9.0311    9.0409    9.8224    9.8224
    9.8364    9.8364   11.5578   11.5578   11.5670   11.5670   12.7656   12.7656   12.7910   12.7910
   13.2502   13.2523   13.6824   13.6826
  25  1  -27.8448  -27.8242  -27.1295  -27.1295  -27.1161  -27.1161  -25.1826  -25.1826  -25.1705  -25.1705
         -24.0577  -24.0317  -23.6490  -23.6490  -23.6267  -23.6267  -23.0332  -23.0202  -21.5926  -21.5648
  -21.3984  -21.3984  -21.3619  -21.3619  -20.0083  -19.9956  -19.0138  -19.0138  -18.9984  -18.9984
  -18.1905  -18.1898  -17.7291  -17.7197  -17.0196  -17.0196  -17.0130  -17.0130  -16.6314  -16.6314
  -16.6239  -16.6239  -16.2457  -16.2456  -16.2418  -16.2418  -14.9274  -14.9274  -14.9238  -14.9238
  -14.6776  -14.6755  -14.3094  -14.1990  -14.0183  -14.0175  -13.7839  -13.7839  -13.6732  -13.6732
  -12.1404  -12.1404  -12.0720  -12.0720  -11.0191  -10.9900  -10.8246  -10.8246  -10.8028  -10.8028
  -10.2053  -10.1963   -6.8468   -6.8252   -6.2023   -6.2023   -6.1627   -6.1627   -5.6922   -5.6698
   -4.0305   -4.0305   -4.0061   -4.0061   -0.5842   -0.5842   -0.5719   -0.5719    0.8883    0.8947
    0.9387    1.0265    1.0265    1.0370    1.0371    1.0416    1.3842    1.3842    1.4895    1.4895
    1.7476    1.7479    2.8593    2.8612    3.0778    3.0778    3.1110    3.1110    3.4147    3.4147
    3.4512    3.4512    4.6816    4.6986    4.9543    4.9561    5.8583    5.8583    5.9384    5.9384
    6.4449    6.4925    6.9231    6.9231    6.9348    6.9348    9.0311    9.0409    9.8224    9.8224
    9.8364    9.8364   11.5578   11.5578   11.5670   11.5670   12.7656   12.7656   12.7910   12.7910
   13.2502   13.2523   13.6824   13.6826
  26  1  -27.6633  -27.6633  -27.6444  -27.6444  -26.2774  -26.2774  -26.2745  -26.2745  -23.9431  -23.9431
         -23.9431  -23.9431  -23.9173  -23.9173  -23.9173  -23.9173  -23.4334  -23.4230  -21.7961  -21.7628
  -20.5808  -20.5808  -20.5808  -20.5808  -20.5499  -20.5499  -20.5499  -20.5499  -17.5559  -17.5559
  -17.5559  -17.5559  -17.5479  -17.5479  -17.5479  -17.5479  -17.5043  -17.5043  -17.4994  -17.4994
  -16.2278  -16.2191  -16.0814  -16.0814  -16.0731  -16.0731  -15.2075  -15.2075  -15.2042  -15.2042
  -14.1789  -14.1789  -14.1586  -14.1586  -14.1545  -14.1545  -14.0674  -14.0674  -13.1087  -13.1087
  -13.0097  -13.0097  -10.9579  -10.9579  -10.9579  -10.9579  -10.9312  -10.9312  -10.9312  -10.9312
  -10.7512  -10.7322   -6.3765   -6.3363   -5.8613   -5.8613   -5.8613   -5.8613   -5.8295   -5.8295
   -5.8295   -5.8295   -2.1703   -2.1703   -2.1547   -2.1547    0.2765    0.2945    0.5000    0.5000
    0.5086    0.5086    0.6096    0.6096    0.7102    0.7102    2.8486    2.8486    2.8498    2.8498
    2.9181    2.9182    2.9182    2.9182    2.9309    2.9309    2.9309    2.9309    3.2507    3.2507
    3.2553    3.2553    3.3692    3.3692    3.5194    3.5194    5.2591    5.2591    5.2801    5.2801
    8.1041    8.1041    8.1041    8.1042    8.1432    8.1432    8.1432    8.1432    9.3483    9.3483
    9.3509    9.3509   10.5366   10.5367   12.5389   12.5451   13.1069   13.1069   13.1069   13.1069
   13.1196   13.1196   13.1196   13.1196
  27  1  -27.8448  -27.8242  -27.1295  -27.1295  -27.1161  -27.1161  -25.1826  -25.1826  -25.1705  -25.1705
         -24.0577  -24.0317  -23.6490  -23.6490  -23.6267  -23.6267  -23.0332  -23.0202  -21.5926  -21.5648
  -21.3984  -21.3984  -21.3619  -21.3619  -20.0083  -19.9956  -19.0138  -19.0138  -18.9984  -18.9984
  -18.1905  -18.1898  -17.7291  -17.7197  -17.0196  -17.0196  -17.0130  -17.0130  -16.6314  -16.6314
  -16.6239  -16.6239  -16.2457  -16.2456  -16.2418  -16.2418  -14.9274  -14.9274  -14.9238  -14.9238
  -14.6776  -14.6755  -14.3094  -14.1990  -14.0183  -14.0175  -13.7839  -13.7839  -13.6732  -13.6732
  -12.1404  -12.1404  -12.0720  -12.0720  -11.0191  -10.9900  -10.8246  -10.8246  -10.8028  -10.8028
  -10.2053  -10.1963   -6.8468   -6.8252   -6.2023   -6.2023   -6.1627   -6.1627   -5.6922   -5.6698
   -4.0305   -4.0305   -4.0061   -4.0061   -0.5842   -0.5842   -0.5719   -0.5719    0.8883    0.8947
    0.9387    1.0265    1.0265    1.0370    1.0371    1.0416    1.3842    1.3842    1.4895    1.4895
    1.7476    1.7479    2.8593    2.8612    3.0778    3.0778    3.1110    3.1110    3.4147    3.4147
    3.4512    3.4512    4.6816    4.6986    4.9543    4.9561    5.8583    5.8583    5.9384    5.9384
    6.4449    6.4925    6.9231    6.9231    6.9348    6.9348    9.0311    9.0409    9.8224    9.8224
    9.8364    9.8364   11.5578   11.5578   11.5670   11.5670   12.7656   12.7656   12.7910   12.7910
   13.2502   13.2523   13.6824   13.6826
  28  1  -27.6633  -27.6633  -27.6444  -27.6444  -26.2774  -26.2774  -26.2745  -26.2745  -23.9431  -23.9431
         -23.9431  -23.9431  -23.9173  -23.9173  -23.9173  -23.9173  -23.4334  -23.4230  -21.7961  -21.7628
  -20.5808  -20.5808  -20.5808  -20.5808  -20.5499  -20.5499  -20.5499  -20.5499  -17.5559  -17.5559
  -17.5559  -17.5559  -17.5479  -17.5479  -17.5479  -17.5479  -17.5043  -17.5043  -17.4994  -17.4994
  -16.2278  -16.2191  -16.0814  -16.0814  -16.0731  -16.0731  -15.2075  -15.2075  -15.2042  -15.2042
  -14.1789  -14.1789  -14.1586  -14.1586  -14.1545  -14.1545  -14.0674  -14.0674  -13.1087  -13.1087
  -13.0097  -13.0097  -10.9579  -10.9579  -10.9579  -10.9579  -10.9312  -10.9312  -10.9312  -10.9312
  -10.7512  -10.7322   -6.3765   -6.3363   -5.8613   -5.8613   -5.8613   -5.8613   -5.8295   -5.8295
   -5.8295   -5.8295   -2.1703   -2.1703   -2.1547   -2.1547    0.2765    0.2945    0.5000    0.5000
    0.5086    0.5086    0.6096    0.6096    0.7102    0.7102    2.8486    2.8486    2.8498    2.8498
    2.9181    2.9182    2.9182    2.9182    2.9309    2.9309    2.9309    2.9309    3.2507    3.2507
    3.2553    3.2553    3.3692    3.3692    3.5194    3.5194    5.2591    5.2591    5.2801    5.2801
    8.1041    8.1041    8.1041    8.1042    8.1432    8.1432    8.1432    8.1432    9.3483    9.3483
    9.3509    9.3509   10.5366   10.5367   12.5389   12.5451   13.1069   13.1069   13.1069   13.1069
   13.1196   13.1196   13.1196   13.1196
  29  1  -27.8348  -27.8348  -27.1232  -27.1232  -27.1232  -27.1232  -25.1771  -25.1771  -25.1771  -25.1771
         -24.0451  -24.0451  -23.6380  -23.6380  -23.6380  -23.6380  -23.0266  -23.0266  -21.5793  -21.5793
  -21.3806  -21.3806  -21.3806  -21.3806  -20.0019  -20.0019  -19.0062  -19.0062  -19.0062  -19.0062
  -18.1905  -18.1905  -17.7245  -17.7245  -17.0166  -17.0166  -17.0166  -17.0166  -16.6277  -16.6277
  -16.6277  -16.6277  -16.2438  -16.2438  -16.2438  -16.2438  -14.9259  -14.9259  -14.9259  -14.9259
  -14.6765  -14.6765  -14.2511  -14.2511  -14.0175  -14.0175  -13.7254  -13.7254  -13.7254  -13.7254
  -12.1051  -12.1051  -12.1051  -12.1051  -11.0043  -11.0043  -10.8136  -10.8136  -10.8136  -10.8136
  -10.2008  -10.2008   -6.8363   -6.8363   -6.1830   -6.1830   -6.1830   -6.1830   -5.6810   -5.6810
   -4.0184   -4.0184   -4.0184   -4.0184   -0.5781   -0.5781   -0.5781   -0.5781    0.8915    0.8915
    0.9925    0.9925    1.0319    1.0319    1.0319    1.0319    1.4393    1.4393    1.4393    1.4393
    1.7477    1.7477    2.8604    2.8604    3.0950    3.0950    3.0950    3.0950    3.4331    3.4331
    3.4331    3.4331    4.6901    4.6901    4.9552    4.9552    5.8992    5.8992    5.8993    5.8993
    6.4694    6.4694    6.9290    6.9290    6.9291    6.9291    9.0361    9.0361    9.8296    9.8296
    9.8296    9.8296   11.5624   11.5624   11.5624   11.5624   12.7785   12.7785   12.7785   12.7785
   13.2512   13.2512   13.6826   13.6826
  30  1  -28.2013  -28.2013  -26.7790  -26.7790  -26.1139  -26.1139  -26.1139  -26.1139  -24.8886  -24.8886
         -24.8886  -24.8886  -24.3455  -24.3455  -22.8639  -22.8639  -22.8639  -22.8639  -21.1497  -21.1497
  -21.1497  -21.1497  -20.7277  -20.7277  -19.8606  -19.8606  -19.8606  -19.8606  -18.7796  -18.7796
  -18.7796  -18.7796  -18.0675  -18.0675  -18.0675  -18.0675  -17.0892  -17.0892  -16.3289  -16.3289
  -16.3289  -16.3289  -16.0783  -16.0783  -15.7453  -15.7453  -15.7453  -15.7453  -14.9783  -14.9783
  -14.5094  -14.5094  -13.6968  -13.6968  -13.4619  -13.4619  -13.4075  -13.4075  -12.9263  -12.9263
  -12.9263  -12.9263  -11.8688  -11.8688  -11.8688  -11.8688  -11.4170  -11.4170   -9.7993   -9.7993
   -9.7993   -9.7993   -7.1861   -7.1861   -7.1861   -7.1861   -5.3426   -5.3426   -4.5290   -4.5290
   -4.5290   -4.5290   -2.4808   -2.4807   -2.4807   -2.4807   -1.2631   -1.2631    0.3409    0.3409
    0.3584    0.3584    0.6845    0.6845    0.8507    0.8507    1.1648    1.1648    1.1648    1.1648
    1.3524    1.3524    1.3524    1.3524    1.7001    1.7001    4.0567    4.0567    5.0430    5.0430
    5.0431    5.0431    5.4569    5.4569    5.9040    5.9040    5.9040    5.9040    7.3028    7.3028
    7.6883    7.6883    7.6884    7.6884    8.3162    8.3162    8.3162    8.3162    9.3135    9.3135
    9.3135    9.3135    9.8585    9.8585   11.4527   11.4527   11.4527   11.4527   11.7123   11.7123
   14.1531   14.1531   14.1531   14.1531
  31  1  -28.2013  -28.2013  -26.7790  -26.7790  -26.1139  -26.1139  -26.1139  -26.1139  -24.8886  -24.8886
         -24.8886  -24.8886  -24.3455  -24.3455  -22.8639  -22.8639  -22.8639  -22.8639  -21.1497  -21.1497
  -21.1497  -21.1497  -20.7277  -20.7277  -19.8606  -19.8606  -19.8606  -19.8606  -18.7796  -18.7796
  -18.7796  -18.7796  -18.0675  -18.0675  -18.0675  -18.0675  -17.0892  -17.0892  -16.3289  -16.3289
  -16.3289  -16.3289  -16.0783  -16.0783  -15.7453  -15.7453  -15.7453  -15.7453  -14.9783  -14.9783
  -14.5094  -14.5094  -13.6968  -13.6968  -13.4619  -13.4619  -13.4075  -13.4075  -12.9263  -12.9263
  -12.9263  -12.9263  -11.8688  -11.8688  -11.8688  -11.8688  -11.4170  -11.4170   -9.7993   -9.7993
   -9.7993   -9.7993   -7.1861   -7.1861   -7.1861   -7.1861   -5.3426   -5.3426   -4.5290   -4.5290
   -4.5290   -4.5290   -2.4808   -2.4807   -2.4807   -2.4807   -1.2631   -1.2631    0.3409    0.3409
    0.3584    0.3584    0.6845    0.6845    0.8507    0.8507    1.1648    1.1648    1.1648    1.1648
    1.3524    1.3524    1.3524    1.3524    1.7001    1.7001    4.0567    4.0567    5.0430    5.0430
    5.0431    5.0431    5.4569    5.4569    5.9040    5.9040    5.9040    5.9040    7.3028    7.3028
    7.6883    7.6883    7.6884    7.6884    8.3162    8.3162    8.3162    8.3162    9.3135    9.3135
    9.3135    9.3135    9.8585    9.8585   11.4527   11.4527   11.4527   11.4527   11.7123   11.7123
   14.1531   14.1531   14.1531   14.1531
  32  1  -27.8348  -27.8348  -27.1232  -27.1232  -27.1232  -27.1232  -25.1771  -25.1771  -25.1771  -25.1771
         -24.0451  -24.0451  -23.6380  -23.6380  -23.6380  -23.6380  -23.0266  -23.0266  -21.5793  -21.5793
  -21.3806  -21.3806  -21.3806  -21.3806  -20.0019  -20.0019  -19.0062  -19.0062  -19.0062  -19.0062
  -18.1905  -18.1905  -17.7245  -17.7245  -17.0166  -17.0166  -17.0166  -17.0166  -16.6277  -16.6277
  -16.6277  -16.6277  -16.2438  -16.2438  -16.2438  -16.2438  -14.9259  -14.9259  -14.9259  -14.9259
  -14.6765  -14.6765  -14.2511  -14.2511  -14.0175  -14.0175  -13.7254  -13.7254  -13.7254  -13.7254
  -12.1051  -12.1051  -12.1051  -12.1051  -11.0043  -11.0043  -10.8136  -10.8136  -10.8136  -10.8136
  -10.2008  -10.2008   -6.8363   -6.8363   -6.1830   -6.1830   -6.1830   -6.1830   -5.6810   -5.6810
   -4.0184   -4.0184   -4.0184   -4.0184   -0.5781   -0.5781   -0.5781   -0.5781    0.8915    0.8915
    0.9925    0.9925    1.0319    1.0319    1.0319    1.0319    1.4393    1.4393    1.4393    1.4393
    1.7477    1.7477    2.8604    2.8604    3.0950    3.0950    3.0950    3.0950    3.4331    3.4331
    3.4331    3.4331    4.6901    4.6901    4.9552    4.9552    5.8992    5.8992    5.8993    5.8993
    6.4694    6.4694    6.9290    6.9290    6.9291    6.9291    9.0361    9.0361    9.8296    9.8296
    9.8296    9.8296   11.5624   11.5624   11.5624   11.5624   12.7785   12.7785   12.7785   12.7785
   13.2512   13.2512   13.6826   13.6826
  33  1  -28.2013  -28.2013  -26.7790  -26.7790  -26.1139  -26.1139  -26.1139  -26.1139  -24.8886  -24.8886
         -24.8886  -24.8886  -24.3455  -24.3455  -22.8639  -22.8639  -22.8639  -22.8639  -21.1497  -21.1497
  -21.1497  -21.1497  -20.7277  -20.7277  -19.8606  -19.8606  -19.8606  -19.8606  -18.7796  -18.7796
  -18.7796  -18.7796  -18.0675  -18.0675  -18.0675  -18.0675  -17.0892  -17.0892  -16.3289  -16.3289
  -16.3289  -16.3289  -16.0783  -16.0783  -15.7453  -15.7453  -15.7453  -15.7453  -14.9783  -14.9783
  -14.5094  -14.5094  -13.6968  -13.6968  -13.4619  -13.4619  -13.4075  -13.4075  -12.9263  -12.9263
  -12.9263  -12.9263  -11.8688  -11.8688  -11.8688  -11.8688  -11.4170  -11.4170   -9.7993   -9.7993
   -9.7993   -9.7993   -7.1861   -7.1861   -7.1861   -7.1861   -5.3426   -5.3426   -4.5290   -4.5290
   -4.5290   -4.5290   -2.4808   -2.4807   -2.4807   -2.4807   -1.2631   -1.2631    0.3409    0.3409
    0.3584    0.3584    0.6845    0.6845    0.8507    0.8507    1.1648    1.1648    1.1648    1.1648
    1.3524    1.3524    1.3524    1.3524    1.7001    1.7001    4.0567    4.0567    5.0430    5.0430
    5.0431    5.0431    5.4569    5.4569    5.9040    5.9040    5.9040    5.9040    7.3028    7.3028
    7.6883    7.6883    7.6884    7.6884    8.3162    8.3162    8.3162    8.3162    9.3135    9.3135
    9.3135    9.3135    9.8585    9.8585   11.4527   11.4527   11.4527   11.4527   11.7123   11.7123
   14.1531   14.1531   14.1531   14.1531
  34  1  -28.3871  -28.3871  -25.6386  -25.6386  -25.6386  -25.6386  -25.6386  -25.6386  -25.6386  -25.6386
         -25.6386  -25.6386  -25.6386  -25.6386  -21.8625  -21.8625  -21.8625  -21.8625  -21.8620  -21.8620
  -21.8620  -21.8620  -19.3408  -19.3408  -19.3408  -19.3408  -18.9975  -18.9975  -18.9975  -18.9975
  -18.9975  -18.9975  -18.9975  -18.9975  -18.9975  -18.9975  -18.9975  -18.9975  -15.6514  -15.6514
  -15.6514  -15.6514  -15.6514  -15.6514  -15.6514  -15.6514  -15.6514  -15.6514  -15.6514  -15.6514
  -14.6385  -14.6385  -13.0864  -13.0864  -13.0864  -13.0864  -12.5317  -12.5317  -12.5317  -12.5317
  -12.5317  -12.5317  -12.5316  -12.5316  -12.5316  -12.5316  -12.5316  -12.5316   -8.5180   -8.5180
   -8.5180   -8.5180   -8.5177   -8.5177   -8.5177   -8.5177   -3.3410   -3.3410   -3.3410   -3.3410
   -3.3410   -3.3410   -3.3410   -3.3410   -3.3410   -3.3410   -3.3410   -3.3410    0.0846    0.0846
    0.0846    0.0846    0.5301    0.5301    0.5301    0.5301    0.5301    0.5301    0.5302    0.5302
    0.5302    0.5302    0.5302    0.5302    2.1253    2.1253    3.7152    3.7152    6.7343    6.7343
    6.7344    6.7344    6.7344    6.7344    6.7344    6.7344    8.0050    8.0050    8.0050    8.0050
    8.0050    8.0050    8.0050    8.0050    8.0050    8.0050    8.0050    8.0050    9.6778    9.6778
    9.6778    9.6778    9.6778    9.6778    9.6778    9.6778    9.6778    9.6778    9.6778    9.6778
   14.5063   14.5063   14.5063   14.5063
  35  1  -28.2013  -28.2013  -26.7790  -26.7790  -26.1139  -26.1139  -26.1139  -26.1139  -24.8886  -24.8886
         -24.8886  -24.8886  -24.3455  -24.3455  -22.8639  -22.8639  -22.8639  -22.8639  -21.1497  -21.1497
  -21.1497  -21.1497  -20.7277  -20.7277  -19.8606  -19.8606  -19.8606  -19.8606  -18.7796  -18.7796
  -18.7796  -18.7796  -18.0675  -18.0675  -18.0675  -18.0675  -17.0892  -17.0892  -16.3289  -16.3289
  -16.3289  -16.3289  -16.0783  -16.0783  -15.7453  -15.7453  -15.7453  -15.7453  -14.9783  -14.9783
  -14.5094  -14.5094  -13.6968  -13.6968  -13.4619  -13.4619  -13.4075  -13.4075  -12.9263  -12.9263
  -12.9263  -12.9263  -11.8688  -11.8688  -11.8688  -11.8688  -11.4170  -11.4170   -9.7993   -9.7993
   -9.7993   -9.7993   -7.1861   -7.1861   -7.1861   -7.1861   -5.3426   -5.3426   -4.5290   -4.5290
   -4.5290   -4.5290   -2.4808   -2.4807   -2.4807   -2.4807   -1.2631   -1.2631    0.3409    0.3409
    0.3584    0.3584    0.6845    0.6845    0.8507    0.8507    1.1648    1.1648    1.1648    1.1648
    1.3524    1.3524    1.3524    1.3524    1.7001    1.7001    4.0567    4.0567    5.0430    5.0430
    5.0431    5.0431    5.4569    5.4569    5.9040    5.9040    5.9040    5.9040    7.3028    7.3028
    7.6883    7.6883    7.6884    7.6884    8.3162    8.3162    8.3162    8.3162    9.3135    9.3135
    9.3135    9.3135    9.8585    9.8585   11.4527   11.4527   11.4527   11.4527   11.7123   11.7123
   14.1531   14.1531   14.1531   14.1531
  36  1  -27.6542  -27.6542  -27.6542  -27.6542  -26.2765  -26.2765  -26.2765  -26.2765  -23.9306  -23.9306
         -23.9306  -23.9306  -23.9306  -23.9306  -23.9306  -23.9306  -23.4281  -23.4281  -21.7802  -21.7802
  -20.5655  -20.5655  -20.5655  -20.5655  -20.5655  -20.5655  -20.5655  -20.5655  -17.5521  -17.5521
  -17.5521  -17.5521  -17.5521  -17.5521  -17.5521  -17.5521  -17.5019  -17.5019  -17.5019  -17.5019
  -16.2234  -16.2234  -16.0777  -16.0777  -16.0777  -16.0777  -15.2061  -15.2061  -15.2061  -15.2061
  -14.1565  -14.1565  -14.1565  -14.1565  -14.1195  -14.1195  -14.1195  -14.1195  -13.0569  -13.0569
  -13.0569  -13.0569  -10.9443  -10.9443  -10.9443  -10.9443  -10.9443  -10.9443  -10.9443  -10.9443
  -10.7417  -10.7417   -6.3570   -6.3570   -5.8456   -5.8456   -5.8456   -5.8456   -5.8456   -5.8456
   -5.8456   -5.8456   -2.1625   -2.1625   -2.1625   -2.1625    0.2856    0.2856    0.5042    0.5042
    0.5042    0.5042    0.6621    0.6621    0.6621    0.6621    2.8492    2.8492    2.8492    2.8492
    2.9247    2.9247    2.9247    2.9247    2.9247    2.9247    2.9247    2.9247    3.2530    3.2530
    3.2530    3.2530    3.4466    3.4466    3.4466    3.4466    5.2699    5.2699    5.2700    5.2700
    8.1240    8.1240    8.1240    8.1240    8.1241    8.1241    8.1241    8.1241    9.3496    9.3496
    9.3496    9.3496   10.5366   10.5366   12.5423   12.5423   13.1133   13.1133   13.1133   13.1133
   13.1133   13.1133   13.1133   13.1133
  37  1  -28.2013  -28.2013  -26.7790  -26.7790  -26.1139  -26.1139  -26.1139  -26.1139  -24.8886  -24.8886
         -24.8886  -24.8886  -24.3455  -24.3455  -22.8639  -22.8639  -22.8639  -22.8639  -21.1497  -21.1497
  -21.1497  -21.1497  -20.7277  -20.7277  -19.8606  -19.8606  -19.8606  -19.8606  -18.7796  -18.7796
  -18.7796  -18.7796  -18.0675  -18.0675  -18.0675  -18.0675  -17.0892  -17.0892  -16.3289  -16.3289
  -16.3289  -16.3289  -16.0783  -16.0783  -15.7453  -15.7453  -15.7453  -15.7453  -14.9783  -14.9783
  -14.5094  -14.5094  -13.6968  -13.6968  -13.4619  -13.4619  -13.4075  -13.4075  -12.9263  -12.9263
  -12.9263  -12.9263  -11.8688  -11.8688  -11.8688  -11.8688  -11.4170  -11.4170   -9.7993   -9.7993
   -9.7993   -9.7993   -7.1861   -7.1861   -7.1861   -7.1861   -5.3426   -5.3426   -4.5290   -4.5290
   -4.5290   -4.5290   -2.4808   -2.4807   -2.4807   -2.4807   -1.2631   -1.2631    0.3409    0.3409
    0.3584    0.3584    0.6845    0.6845    0.8507    0.8507    1.1648    1.1648    1.1648    1.1648
    1.3524    1.3524    1.3524    1.3524    1.7001    1.7001    4.0567    4.0567    5.0430    5.0430
    5.0431    5.0431    5.4569    5.4569    5.9040    5.9040    5.9040    5.9040    7.3028    7.3028
    7.6883    7.6883    7.6884    7.6884    8.3162    8.3162    8.3162    8.3162    9.3135    9.3135
    9.3135    9.3135    9.8585    9.8585   11.4527   11.4527   11.4527   11.4527   11.7123   11.7123
   14.1531   14.1531   14.1531   14.1531
  38  1  -28.2013  -28.2013  -26.7790  -26.7790  -26.1139  -26.1139  -26.1139  -26.1139  -24.8886  -24.8886
         -24.8886  -24.8886  -24.3455  -24.3455  -22.8639  -22.8639  -22.8639  -22.8639  -21.1497  -21.1497
  -21.1497  -21.1497  -20.7277  -20.7277  -19.8606  -19.8606  -19.8606  -19.8606  -18.7796  -18.7796
  -18.7796  -18.7796  -18.0675  -18.0675  -18.0675  -18.0675  -17.0892  -17.0892  -16.3289  -16.3289
  -16.3289  -16.3289  -16.0783  -16.0783  -15.7453  -15.7453  -15.7453  -15.7453  -14.9783  -14.9783
  -14.5094  -14.5094  -13.6968  -13.6968  -13.4619  -13.4619  -13.4075  -13.4075  -12.9263  -12.9263
  -12.9263  -12.9263  -11.8688  -11.8688  -11.8688  -11.8688  -11.4170  -11.4170   -9.7993   -9.7993
   -9.7993   -9.7993   -7.1861   -7.1861   -7.1861   -7.1861   -5.3426   -5.3426   -4.5290   -4.5290
   -4.5290   -4.5290   -2.4808   -2.4807   -2.4807   -2.4807   -1.2631   -1.2631    0.3409    0.3409
    0.3584    0.3584    0.6845    0.6845    0.8507    0.8507    1.1648    1.1648    1.1648    1.1648
    1.3524    1.3524    1.3524    1.3524    1.7001    1.7001    4.0567    4.0567    5.0430    5.0430
    5.0431    5.0431    5.4569    5.4569    5.9040    5.9040    5.9040    5.9040    7.3028    7.3028
    7.6883    7.6883    7.6884    7.6884    8.3162    8.3162    8.3162    8.3162    9.3135    9.3135
    9.3135    9.3135    9.8585    9.8585   11.4527   11.4527   11.4527   11.4527   11.7123   11.7123
   14.1531   14.1531   14.1531   14.1531
  39  1  -27.8348  -27.8348  -27.1232  -27.1232  -27.1232  -27.1232  -25.1771  -25.1771  -25.1771  -25.1771
         -24.0451  -24.0451  -23.6380  -23.6380  -23.6380  -23.6380  -23.0266  -23.0266  -21.5793  -21.5793
  -21.3806  -21.3806  -21.3806  -21.3806  -20.0019  -20.0019  -19.0062  -19.0062  -19.0062  -19.0062
  -18.1905  -18.1905  -17.7245  -17.7245  -17.0166  -17.0166  -17.0166  -17.0166  -16.6277  -16.6277
  -16.6277  -16.6277  -16.2438  -16.2438  -16.2438  -16.2438  -14.9259  -14.9259  -14.9259  -14.9259
  -14.6765  -14.6765  -14.2511  -14.2511  -14.0175  -14.0175  -13.7254  -13.7254  -13.7254  -13.7254
  -12.1051  -12.1051  -12.1051  -12.1051  -11.0043  -11.0043  -10.8136  -10.8136  -10.8136  -10.8136
  -10.2008  -10.2008   -6.8363   -6.8363   -6.1830   -6.1830   -6.1830   -6.1830   -5.6810   -5.6810
   -4.0184   -4.0184   -4.0184   -4.0184   -0.5781   -0.5781   -0.5781   -0.5781    0.8915    0.8915
    0.9925    0.9925    1.0319    1.0319    1.0319    1.0319    1.4393    1.4393    1.4393    1.4393
    1.7477    1.7477    2.8604    2.8604    3.0950    3.0950    3.0950    3.0950    3.4331    3.4331
    3.4331    3.4331    4.6901    4.6901    4.9552    4.9552    5.8992    5.8992    5.8993    5.8993
    6.4694    6.4694    6.9290    6.9290    6.9291    6.9291    9.0361    9.0361    9.8296    9.8296
    9.8296    9.8296   11.5624   11.5624   11.5624   11.5624   12.7785   12.7785   12.7785   12.7785
   13.2512   13.2512   13.6826   13.6826
  40  1  -27.8348  -27.8348  -27.1232  -27.1232  -27.1232  -27.1232  -25.1771  -25.1771  -25.1771  -25.1771
         -24.0451  -24.0451  -23.6380  -23.6380  -23.6380  -23.6380  -23.0266  -23.0266  -21.5793  -21.5793
  -21.3806  -21.3806  -21.3806  -21.3806  -20.0019  -20.0019  -19.0062  -19.0062  -19.0062  -19.0062
  -18.1905  -18.1905  -17.7245  -17.7245  -17.0166  -17.0166  -17.0166  -17.0166  -16.6277  -16.6277
  -16.6277  -16.6277  -16.2438  -16.2438  -16.2438  -16.2438  -14.9259  -14.9259  -14.9259  -14.9259
  -14.6765  -14.6765  -14.2511  -14.2511  -14.0175  -14.0175  -13.7254  -13.7254  -13.7254  -13.7254
  -12.1051  -12.1051  -12.1051  -12.1051  -11.0043  -11.0043  -10.8136  -10.8136  -10.8136  -10.8136
  -10.2008  -10.2008   -6.8363   -6.8363   -6.1830   -6.1830   -6.1830   -6.1830   -5.6810   -5.6810
   -4.0184   -4.0184   -4.0184   -4.0184   -0.5781   -0.5781   -0.5781   -0.5781    0.8915    0.8915
    0.9925    0.9925    1.0319    1.0319    1.0319    1.0319    1.4393    1.4393    1.4393    1.4393
    1.7477    1.7477    2.8604    2.8604    3.0950    3.0950    3.0950    3.0950    3.4331    3.4331
    3.4331    3.4331    4.6901    4.6901    4.9552    4.9552    5.8992    5.8992    5.8993    5.8993
    6.4694    6.4694    6.9290    6.9290    6.9291    6.9291    9.0361    9.0361    9.8296    9.8296
    9.8296    9.8296   11.5624   11.5624   11.5624   11.5624   12.7785   12.7785   12.7785   12.7785
   13.2512   13.2512   13.6826   13.6826
  41  1  -27.8348  -27.8348  -27.1232  -27.1232  -27.1232  -27.1232  -25.1771  -25.1771  -25.1771  -25.1771
         -24.0451  -24.0451  -23.6380  -23.6380  -23.6380  -23.6380  -23.0266  -23.0266  -21.5793  -21.5793
  -21.3806  -21.3806  -21.3806  -21.3806  -20.0019  -20.0019  -19.0062  -19.0062  -19.0062  -19.0062
  -18.1905  -18.1905  -17.7245  -17.7245  -17.0166  -17.0166  -17.0166  -17.0166  -16.6277  -16.6277
  -16.6277  -16.6277  -16.2438  -16.2438  -16.2438  -16.2438  -14.9259  -14.9259  -14.9259  -14.9259
  -14.6765  -14.6765  -14.2511  -14.2511  -14.0175  -14.0175  -13.7254  -13.7254  -13.7254  -13.7254
  -12.1051  -12.1051  -12.1051  -12.1051  -11.0043  -11.0043  -10.8136  -10.8136  -10.8136  -10.8136
  -10.2008  -10.2008   -6.8363   -6.8363   -6.1830   -6.1830   -6.1830   -6.1830   -5.6810   -5.6810
   -4.0184   -4.0184   -4.0184   -4.0184   -0.5781   -0.5781   -0.5781   -0.5781    0.8915    0.8915
    0.9925    0.9925    1.0319    1.0319    1.0319    1.0319    1.4393    1.4393    1.4393    1.4393
    1.7477    1.7477    2.8604    2.8604    3.0950    3.0950    3.0950    3.0950    3.4331    3.4331
    3.4331    3.4331    4.6901    4.6901    4.9552    4.9552    5.8992    5.8992    5.8993    5.8993
    6.4694    6.4694    6.9290    6.9290    6.9291    6.9291    9.0361    9.0361    9.8296    9.8296
    9.8296    9.8296   11.5624   11.5624   11.5624   11.5624   12.7785   12.7785   12.7785   12.7785
   13.2512   13.2512   13.6826   13.6826
  42  1  -27.6542  -27.6542  -27.6542  -27.6542  -26.2765  -26.2765  -26.2765  -26.2765  -23.9306  -23.9306
         -23.9306  -23.9306  -23.9306  -23.9306  -23.9306  -23.9306  -23.4281  -23.4281  -21.7802  -21.7802
  -20.5655  -20.5655  -20.5655  -20.5655  -20.5655  -20.5655  -20.5655  -20.5655  -17.5521  -17.5521
  -17.5521  -17.5521  -17.5521  -17.5521  -17.5521  -17.5521  -17.5019  -17.5019  -17.5019  -17.5019
  -16.2234  -16.2234  -16.0777  -16.0777  -16.0777  -16.0777  -15.2061  -15.2061  -15.2061  -15.2061
  -14.1565  -14.1565  -14.1565  -14.1565  -14.1195  -14.1195  -14.1195  -14.1195  -13.0569  -13.0569
  -13.0569  -13.0569  -10.9443  -10.9443  -10.9443  -10.9443  -10.9443  -10.9443  -10.9443  -10.9443
  -10.7417  -10.7417   -6.3570   -6.3570   -5.8456   -5.8456   -5.8456   -5.8456   -5.8456   -5.8456
   -5.8456   -5.8456   -2.1625   -2.1625   -2.1625   -2.1625    0.2856    0.2856    0.5042    0.5042
    0.5042    0.5042    0.6621    0.6621    0.6621    0.6621    2.8492    2.8492    2.8492    2.8492
    2.9247    2.9247    2.9247    2.9247    2.9247    2.9247    2.9247    2.9247    3.2530    3.2530
    3.2530    3.2530    3.4466    3.4466    3.4466    3.4466    5.2699    5.2699    5.2700    5.2700
    8.1240    8.1240    8.1240    8.1240    8.1241    8.1241    8.1241    8.1241    9.3496    9.3496
    9.3496    9.3496   10.5366   10.5366   12.5423   12.5423   13.1133   13.1133   13.1133   13.1133
   13.1133   13.1133   13.1133   13.1133
  43  1  -27.8348  -27.8348  -27.1232  -27.1232  -27.1232  -27.1232  -25.1771  -25.1771  -25.1771  -25.1771
         -24.0451  -24.0451  -23.6380  -23.6380  -23.6380  -23.6380  -23.0266  -23.0266  -21.5793  -21.5793
  -21.3806  -21.3806  -21.3806  -21.3806  -20.0019  -20.0019  -19.0062  -19.0062  -19.0062  -19.0062
  -18.1905  -18.1905  -17.7245  -17.7245  -17.0166  -17.0166  -17.0166  -17.0166  -16.6277  -16.6277
  -16.6277  -16.6277  -16.2438  -16.2438  -16.2438  -16.2438  -14.9259  -14.9259  -14.9259  -14.9259
  -14.6765  -14.6765  -14.2511  -14.2511  -14.0175  -14.0175  -13.7254  -13.7254  -13.7254  -13.7254
  -12.1051  -12.1051  -12.1051  -12.1051  -11.0043  -11.0043  -10.8136  -10.8136  -10.8136  -10.8136
  -10.2008  -10.2008   -6.8363   -6.8363   -6.1830   -6.1830   -6.1830   -6.1830   -5.6810   -5.6810
   -4.0184   -4.0184   -4.0184   -4.0184   -0.5781   -0.5781   -0.5781   -0.5781    0.8915    0.8915
    0.9925    0.9925    1.0319    1.0319    1.0319    1.0319    1.4393    1.4393    1.4393    1.4393
    1.7477    1.7477    2.8604    2.8604    3.0950    3.0950    3.0950    3.0950    3.4331    3.4331
    3.4331    3.4331    4.6901    4.6901    4.9552    4.9552    5.8992    5.8992    5.8993    5.8993
    6.4694    6.4694    6.9290    6.9290    6.9291    6.9291    9.0361    9.0361    9.8296    9.8296
    9.8296    9.8296   11.5624   11.5624   11.5624   11.5624   12.7785   12.7785   12.7785   12.7785
   13.2512   13.2512   13.6826   13.6826
  44  1  -27.6542  -27.6542  -27.6542  -27.6542  -26.2765  -26.2765  -26.2765  -26.2765  -23.9306  -23.9306
         -23.9306  -23.9306  -23.9306  -23.9306  -23.9306  -23.9306  -23.4281  -23.4281  -21.7802  -21.7802
  -20.5655  -20.5655  -20.5655  -20.5655  -20.5655  -20.5655  -20.5655  -20.5655  -17.5521  -17.5521
  -17.5521  -17.5521  -17.5521  -17.5521  -17.5521  -17.5521  -17.5019  -17.5019  -17.5019  -17.5019
  -16.2234  -16.2234  -16.0777  -16.0777  -16.0777  -16.0777  -15.2061  -15.2061  -15.2061  -15.2061
  -14.1565  -14.1565  -14.1565  -14.1565  -14.1195  -14.1195  -14.1195  -14.1195  -13.0569  -13.0569
  -13.0569  -13.0569  -10.9443  -10.9443  -10.9443  -10.9443  -10.9443  -10.9443  -10.9443  -10.9443
  -10.7417  -10.7417   -6.3570   -6.3570   -5.8456   -5.8456   -5.8456   -5.8456   -5.8456   -5.8456
   -5.8456   -5.8456   -2.1625   -2.1625   -2.1625   -2.1625    0.2856    0.2856    0.5042    0.5042
    0.5042    0.5042    0.6621    0.6621    0.6621    0.6621    2.8492    2.8492    2.8492    2.8492
    2.9247    2.9247    2.9247    2.9247    2.9247    2.9247    2.9247    2.9247    3.2530    3.2530
    3.2530    3.2530    3.4466    3.4466    3.4466    3.4466    5.2699    5.2699    5.2700    5.2700
    8.1240    8.1240    8.1240    8.1240    8.1241    8.1241    8.1241    8.1241    9.3496    9.3496
    9.3496    9.3496   10.5366   10.5366   12.5423   12.5423   13.1133   13.1133   13.1133   13.1133
   13.1133   13.1133   13.1133   13.1133
siesta: Fermi energy =      -8.517786 eV

siesta: Program's energy decomposition (eV):
siesta: Ebs     =     -2606.946508
siesta: Eions   =      9434.507561
siesta: Ena     =      2271.211210
siesta: Ekin    =      3580.949619
siesta: Enl     =      -332.812149
siesta: Eso     =         0.000000
siesta: Edftu   =         0.000000
siesta: DEna    =        26.005635
siesta: DUscf   =         2.893766
siesta: DUext   =         0.000000
siesta: Exc     =     -1618.148366
siesta: eta*DQ  =         0.000000
siesta: Emadel  =         0.000000
siesta: Emeta   =         0.000000
siesta: Emolmec =        -2.637436
siesta: Ekinion =         0.000000
siesta: Eharris =     -5507.045283
siesta: Etot    =     -5507.045283
siesta: FreeEng =     -5507.062851

siesta: Final energy (eV):
siesta:  Band Struct. =   -2606.946508
siesta:       Kinetic =    3580.949619
siesta:       Hartree =    2768.659057
siesta:       Edftu   =       0.000000
siesta:       Eso     =       0.000000
siesta:    Ext. field =       0.000000
siesta:   Exch.-corr. =   -1618.148366
siesta:  Ion-electron =   -9610.361394
siesta:       Ion-ion =    -625.506762
siesta:       Ekinion =       0.000000
siesta:         Total =   -5507.045283
siesta:         Fermi =      -8.517786

siesta: Stress tensor (static) (eV/Ang**3):
siesta:    -0.194570    0.000000    0.000000
siesta:     0.000000   -0.194570   -0.000000
siesta:    -0.000000   -0.000000    0.028490

siesta: Cell volume =        435.073222 Ang**3

siesta: Pressure (static):
siesta:                Solid            Molecule  Units
siesta:           0.00130931          0.00130933  Ry/Bohr**3
siesta:           0.12021649          0.12021847  eV/Ang**3
siesta:         192.61013675        192.61329880  kBar
(Free)E+ p_basis*V_orbitals  =       -5488.759804
(Free)Eharris+ p_basis*V_orbitals  =       -5488.759804

cite: Please see "graphite_scf.bib" for an exhaustive BiBTeX file.
cite: Please clearly indicate Siesta version in published work: 4.1.5
cite: This calculation has made use of the following articles
cite: which are encouraged to be cited in a published work.
        Primary SIESTA paper
          DOI: www.doi.org/10.1088/0953-8984/14/11/302

>> End of run:   1-NOV-2022  14:33:52
Job completed
