Siesta Version  : 4.1.5
Architecture    : x86_64-unknown-linux-gnu--unknown
Compiler version: GNU Fortran (GCC) 11.3.0
Compiler flags  : mpif90 -g -O2 -fallow-argument-mismatch
PP flags        : -DMPI -DFC_HAVE_FLUSH -DFC_HAVE_ABORT
Libraries       :  -I/global/software/sl-7.x86_64/modules/intel/2020.4.304/mkl/include  /globall/software/sl-7.x86_64/modules/intel/2020.4.304/mkl/lib/intel64/libmkl_scalapack_lp64.a -Wl,--start-group /global/software/sl-7.x86_64/modules/intel/2020.4.304/mkl/lib/intel64/libmkl_intel_lp64.a /global/software/sl-7.x86_64/modules/intel/2020.4.304/mkl/lib/intel64/libmkl_sequential.a /global/software/sl-7.x86_64/modules/intel/2020.4.304/mkl/lib/intel64/libmkl_core.a /global/software/sl-7.x86_64/modules/intel/2020.4.304/mkl/lib/intel64/libmkl_blacs_openmpi_lp64.a -Wl,--end-group -lpthread -lm -ldl
PARALLEL version

* Running on 20 nodes in parallel
>> Start of run:   1-NOV-2022  14:20:26

                           ***********************       
                           *  WELCOME TO SIESTA  *       
                           ***********************       

reinit: Reading from standard input
reinit: Dumped input in INPUT_TMP.11558
************************** Dump of input data file ****************************
SystemName graphite_scf
SystemLabel graphite_scf
NumberOfAtoms   36
NumberOfSpecies 1
%block ChemicalSpeciesLabel
1  6   C-gga
%endblock ChemicalSpeciesLabel
PAO.BasisSize  SZ
PAO.EnergyShift  10 meV
%block PS.Lmax
C-gga   2
%endblock PS.Lmax
LatticeConstant 1.000000 Ang
%block LatticeVectors
	7.3920000000	0.0000000000	0.0000000000
	-3.6960000000	6.4016597848	0.0000000000
	0.0000000000	0.0000000000	5.6372400000
%endblock LatticeVectors
AtomicCoordinatesFormat Ang
%block AtomicCoordinatesAndAtomicSpecies
	0.00000000	0.00000000	1.40931000	1
	0.00000000	0.00000000	4.22793000	1
	-1.23200000	2.13388659	1.40931000	1
	-2.46400000	4.26777319	4.22793000	1
	2.46400000	4.26777319	1.40931000	1
	1.23200000	2.13388659	4.22793000	1
	2.46400000	0.00000000	1.40931000	1
	4.92800000	0.00000000	4.22793000	1
	2.46400000	0.00000000	4.22793000	1
	4.92800000	0.00000000	1.40931000	1
	2.46400000	4.26777319	4.22793000	1
	1.23200000	2.13388659	1.40931000	1
	-1.23200000	2.13388659	4.22793000	1
	-2.46400000	4.26777319	1.40931000	1
	0.00000000	4.26777319	1.40931000	1
	3.69600000	2.13388659	4.22793000	1
	3.69600000	2.13388659	1.40931000	1
	0.00000000	4.26777319	4.22793000	1
	0.00000000	1.42258964	1.40931000	1
	3.69600000	4.97907014	4.22793000	1
	2.46400123	5.69036496	1.40931000	1
	1.23199877	0.71129482	4.22793000	1
	-2.46400123	5.69036496	1.40931000	1
	6.16000123	0.71129482	4.22793000	1
	-1.23200000	3.55647624	1.40931000	1
	4.92800000	2.84518355	4.22793000	1
	1.23200123	3.55647837	1.40931000	1
	2.46399877	2.84518142	4.22793000	1
	-0.00000123	5.69036496	1.40931000	1
	3.69600123	0.71129482	4.22793000	1
	2.46400000	1.42258964	1.40931000	1
	1.23200000	4.97907014	4.22793000	1
	4.92800123	1.42259177	1.40931000	1
	-1.23200123	4.97906801	4.22793000	1
	3.69599877	3.55647837	1.40931000	1
	0.00000123	2.84518142	4.22793000	1
%endblock AtomicCoordinatesAndAtomicSpecies
Kgrid_NoTRS  T
%block kgrid_MonkhorstPack
4       0       0       0.0
0       4       0       0.0
0       0       4       0.0
%endblock kgrid_MonkhorstPack
AtomCoorFormatOut Ang
BlockSize 1
#ProcessorY 12
Diag.ParallelOverK   T
Diag.DivideAndConquer F
MeshCutoff   300 Ry
SCF.FreeE.Tolerance 1E-3 eV
SCF.EDM.Tolerance   5E-3 eV
DM.Tolerance  1E-3
DM.Require.Energy.Convergence T
DM.NumberPulay 4
#XC.Functional GGA
#CX.Authors    PBE
UseSaveData        F
SolutionMethod     diagon
MD.TypeOfRun       CG
MD.VariableCell    F
MD.NumCGsteps      00
MD.MaxCGDispl      0.200000 Bohr
#MD.MaxStressTol    1.000000 GPa
#MD.MaxForceTol     0.010000 eV/Ang
WriteMDHistory T
WriteCoorStep T
WriteForces T
WriteCoorStep    T
WriteEigenValues T
WriteDM    F
MM.UnitsDistance Ang  # what this program prints out DO NOT CHANGE
MM.UnitsEnergy    eV  # what this program prints out DO NOT CHANGE
MM.Grimme.S6     0.75 # Grimme-paper for PBE (correct for your functional)
MM.Grimme.D     20.   # Grimme-paper (correct for your functional)
%block MM.Potentials
  1   1 Grimme     18.14      2.904 # C, 10.1002/jcc.20495
%endblock MM.Potentials
#%block ProjectedDensityOfStates
# -200.0  120.0  0.4  12800  eV
#%endblock ProjectedDensityOfStates
************************** End of input data file *****************************

reinit: -----------------------------------------------------------------------
reinit: System Name: graphite_scf
reinit: -----------------------------------------------------------------------
reinit: System Label: graphite_scf
reinit: -----------------------------------------------------------------------
Reading two-body potentials
Grimme - two-body potential between 1 and 1

initatom: Reading input for the pseudopotentials and atomic orbitals ----------
Species number:   1 Atomic number:    6 Label: C-gga

Ground state valence configuration:   2s02  2p02
Reading pseudopotential information in formatted form from C-gga.psf

Valence configuration for pseudopotential generation:
2s( 2.00) rc: 1.56
2p( 2.00) rc: 1.56
3d( 0.00) rc: 1.56
4f( 0.00) rc: 1.56
relmxkb: Read Max KB Ang. Momentum=    2 for species C-gga

<basis_specs>
===============================================================================
C-gga                Z=   6    Mass=  12.010        Charge= 0.17977+309
Lmxo=1 Lmxkb= 2    BasisType=split      Semic=F
L=0  Nsemic=0  Cnfigmx=2
          i=1  nzeta=1  polorb=0  (2s)
            splnorm:   0.15000    
               vcte:    0.0000    
               rinn:    0.0000    
               qcoe:    0.0000    
               qyuk:    0.0000    
               qwid:   0.10000E-01
                rcs:    0.0000    
            lambdas:    1.0000    
L=1  Nsemic=0  Cnfigmx=2
          i=1  nzeta=1  polorb=0  (2p)
            splnorm:   0.15000    
               vcte:    0.0000    
               rinn:    0.0000    
               qcoe:    0.0000    
               qyuk:    0.0000    
               qwid:   0.10000E-01
                rcs:    0.0000    
            lambdas:    1.0000    
-------------------------------------------------------------------------------
L=0  Nkbl=1  erefs: 0.17977+309
L=1  Nkbl=1  erefs: 0.17977+309
L=2  Nkbl=1  erefs: 0.17977+309
===============================================================================
</basis_specs>

atom: Called for C-gga                 (Z =   6)

read_vps: Pseudopotential generation method:
read_vps: ATM 3.2.2 Troullier-Martins                       
Valence charge for ps generation:    4.00000

xc_check: Exchange-correlation functional:
xc_check: Ceperley-Alder
xc_check: WARNING: Pseudopotential generated with GGA PBE functional
V l=0 = -2*Zval/r beyond r=  1.5227
V l=1 = -2*Zval/r beyond r=  1.5227
V l=2 = -2*Zval/r beyond r=  1.5227
All V_l potentials equal beyond r=  1.4851
This should be close to max(r_c) in ps generation
All pots = -2*Zval/r beyond r=  1.5227

VLOCAL1: 99.0% of the norm of Vloc inside     19.682 Ry
VLOCAL1: 99.9% of the norm of Vloc inside     44.856 Ry
atom: Maximum radius for 4*pi*r*r*local-pseudopot. charge    1.79142
atom: Maximum radius for r*vlocal+2*Zval:    1.54183
GHOST: No ghost state for L =  0
GHOST: No ghost state for L =  1
GHOST: No ghost state for L =  2

KBgen: Kleinman-Bylander projectors: 
   l= 0   rc=  1.661951   el= -0.994756   Ekb=  5.296364   kbcos=  0.313951
   l= 1   rc=  1.661951   el= -0.376633   Ekb= -4.104879   kbcos= -0.344765
   l= 2   rc=  1.747182   el=  0.002326   Ekb= -1.006421   kbcos= -0.008606

KBgen: Total number of Kleinman-Bylander projectors:    9
atom: -------------------------------------------------------------------------

atom: SANKEY-TYPE ORBITALS:

SPLIT: Orbitals with angular momentum L= 0

SPLIT: Basis orbitals for state 2s

SPLIT: PAO cut-off radius determined from an
SPLIT: energy shift=  0.000735 Ry

   izeta = 1
                 lambda =    1.000000
                     rc =    5.948690
                 energy =   -0.994108
                kinetic =    0.809152
    potential(screened) =   -1.803260
       potential(ionic) =   -5.360717

SPLIT: Orbitals with angular momentum L= 1

SPLIT: Basis orbitals for state 2p

SPLIT: PAO cut-off radius determined from an
SPLIT: energy shift=  0.000735 Ry

   izeta = 1
                 lambda =    1.000000
                     rc =    7.638387
                 energy =   -0.375915
                kinetic =    2.245823
    potential(screened) =   -2.621738
       potential(ionic) =   -5.993382
atom: Total number of Sankey-type orbitals:  4

atm_pop: Valence configuration (for local Pseudopot. screening):
 2s( 2.00)                                                            
 2p( 2.00)                                                            
Vna: chval, zval:    4.00000   4.00000

Vna:  Cut-off radius for the neutral-atom potential:   7.638387

atom: _________________________________________________________________________

prinput: Basis input ----------------------------------------------------------

PAO.BasisType split     

%block ChemicalSpeciesLabel
    1    6 C-gga                   # Species index, atomic number, species label
%endblock ChemicalSpeciesLabel

%block PAO.Basis                 # Define Basis set
C-gga                 2                    # Species label, number of l-shells
 n=2   0   1                         # n, l, Nzeta 
   5.949   
   1.000   
 n=2   1   1                         # n, l, Nzeta 
   7.638   
   1.000   
%endblock PAO.Basis

prinput: ----------------------------------------------------------------------

coor:   Atomic-coordinates input format  =     Cartesian coordinates
coor:                                          (in Angstroms)

siesta: Atomic coordinates (Bohr) and species
siesta:      0.00000   0.00000   2.66321  1        1
siesta:      0.00000   0.00000   7.98963  1        2
siesta:     -2.32814   4.03246   2.66321  1        3
siesta:     -4.65629   8.06493   7.98963  1        4
siesta:      4.65629   8.06493   2.66321  1        5
siesta:      2.32814   4.03246   7.98963  1        6
siesta:      4.65629   0.00000   2.66321  1        7
siesta:      9.31257   0.00000   7.98963  1        8
siesta:      4.65629   0.00000   7.98963  1        9
siesta:      9.31257   0.00000   2.66321  1       10
siesta:      4.65629   8.06493   7.98963  1       11
siesta:      2.32814   4.03246   2.66321  1       12
siesta:     -2.32814   4.03246   7.98963  1       13
siesta:     -4.65629   8.06493   2.66321  1       14
siesta:      0.00000   8.06493   2.66321  1       15
siesta:      6.98443   4.03246   7.98963  1       16
siesta:      6.98443   4.03246   2.66321  1       17
siesta:      0.00000   8.06493   7.98963  1       18
siesta:      0.00000   2.68831   2.66321  1       19
siesta:      6.98443   9.40908   7.98963  1       20
siesta:      4.65629  10.75324   2.66321  1       21
siesta:      2.32814   1.34415   7.98963  1       22
siesta:     -4.65629  10.75324   2.66321  1       23
siesta:     11.64072   1.34415   7.98963  1       24
siesta:     -2.32814   6.72077   2.66321  1       25
siesta:      9.31257   5.37662   7.98963  1       26
siesta:      2.32815   6.72077   2.66321  1       27
siesta:      4.65628   5.37662   7.98963  1       28
siesta:     -0.00000  10.75324   2.66321  1       29
siesta:      6.98443   1.34415   7.98963  1       30
siesta:      4.65629   2.68831   2.66321  1       31
siesta:      2.32814   9.40908   7.98963  1       32
siesta:      9.31258   2.68831   2.66321  1       33
siesta:     -2.32815   9.40908   7.98963  1       34
siesta:      6.98443   6.72077   2.66321  1       35
siesta:      0.00000   5.37662   7.98963  1       36

siesta: System type = bulk      

initatomlists: Number of atoms, orbitals, and projectors:     36   144   324

siesta: ******************** Simulation parameters ****************************
siesta:
siesta: The following are some of the parameters of the simulation.
siesta: A complete list of the parameters used, including default values,
siesta: can be found in file out.fdf
siesta:
redata: Spin configuration                          = none
redata: Number of spin components                   = 1
redata: Time-Reversal Symmetry                      = T
redata: Spin spiral                                 = F
redata: Long output                                 =   F
redata: Number of Atomic Species                    =        1
redata: Charge density info will appear in .RHO file
redata: Write Mulliken Pop.                         = NO
redata: Matel table size (NRTAB)                    =     1024
redata: Mesh Cutoff                                 =   300.0000 Ry
redata: Net charge of the system                    =     0.0000 |e|
redata: Min. number of SCF Iter                     =        0
redata: Max. number of SCF Iter                     =     1000
redata: SCF convergence failure will abort job
redata: SCF mix quantity                            = Hamiltonian
redata: Mix DM or H after convergence               =   F
redata: Recompute H after scf cycle                 =   F
redata: Mix DM in first SCF step                    =   T
redata: Write Pulay info on disk                    =   F
redata: New DM Occupancy tolerance                  = 0.000000000001
redata: No kicks to SCF
redata: DM Mixing Weight for Kicks                  =     0.5000
redata: Require Harris convergence for SCF          =   F
redata: Harris energy tolerance for SCF             =     0.000100 eV
redata: Require DM convergence for SCF              =   T
redata: DM tolerance for SCF                        =     0.001000
redata: Require EDM convergence for SCF             =   F
redata: EDM tolerance for SCF                       =     0.005000 eV
redata: Require H convergence for SCF               =   T
redata: Hamiltonian tolerance for SCF               =     0.001000 eV
redata: Require (free) Energy convergence for SCF   =   T
redata: (free) Energy tolerance for SCF             =     0.001000 eV
redata: Using Saved Data (generic)                  =   F
redata: Use continuation files for DM               =   F
redata: Neglect nonoverlap interactions             =   F
redata: Method of Calculation                       = Diagonalization
redata: Electronic Temperature                      =   299.9869 K
redata: Fix the spin of the system                  =   F
redata: Dynamics option                             = Single-point calculation
mix.SCF: Pulay mixing                            = Pulay
mix.SCF:    Variant                              = stable
mix.SCF:    History steps                        = 4
mix.SCF:    Linear mixing weight                 =     0.250000
mix.SCF:    Mixing weight                        =     0.250000
mix.SCF:    SVD condition                        = 0.1000E-07
redata: ***********************************************************************

%block SCF.Mixers
  Pulay
%endblock SCF.Mixers

%block SCF.Mixer.Pulay
  # Mixing method
  method pulay
  variant stable

  # Mixing options
  weight 0.2500
  weight.linear 0.2500
  history 4
%endblock SCF.Mixer.Pulay

DM_history_depth set to one: no extrapolation allowed by default for geometry relaxation
Size of DM history Fstack: 1
Total number of electrons:   144.000000
Total ionic charge:   144.000000

* ProcessorY, Blocksize:    4   1


* Orbital distribution balance (max,min):     8     7

k-point displ. along   1 input, could be:     0.00    0.50
k-point displ. along   2 input, could be:     0.00    0.50
k-point displ. along   3 input, could be:     0.00    0.50
 Kpoints in:           48 . Kpoints trimmed:           44

siesta: k-grid: Number of k-points =    44
siesta: k-grid: Cutoff (effective) =    11.274 Ang
siesta: k-grid: Supercell and displacements
siesta: k-grid:    4   0   0      0.000
siesta: k-grid:    0   4   0      0.000
siesta: k-grid:    0   0   4      0.000

diag: Algorithm                                     = Expert
diag: Parallel over k                               =   T
diag: Use parallel 2D distribution                  =   T
diag: Parallel block-size                           = 1
diag: Parallel distribution                         =     4 x     5
diag: Used triangular part                          = Lower
diag: Absolute tolerance                            =  0.100E-15
diag: Orthogonalization factor                      =  0.100E-05
diag: Memory factor                                 =  1.0000

superc: Internal auxiliary supercell:     5 x     5 x     3  =      75
superc: Number of atoms, orbitals, and projectors:   2700  10800  24300


ts: **************************************************************
ts: Save H and S matrices                           =    F
ts: Save DM and EDM matrices                        =    F
ts: Only save the overlap matrix S                  =    F
ts: **************************************************************

************************ Begin: TS CHECKS AND WARNINGS ************************
************************ End: TS CHECKS AND WARNINGS **************************


                     ====================================
                        Single-point calculation
                     ====================================

outcoor: Atomic coordinates (Ang):                          
    0.00000000    0.00000000    1.40931000   1       1  C-gga
    0.00000000    0.00000000    4.22793000   1       2  C-gga
   -1.23200000    2.13388659    1.40931000   1       3  C-gga
   -2.46400000    4.26777319    4.22793000   1       4  C-gga
    2.46400000    4.26777319    1.40931000   1       5  C-gga
    1.23200000    2.13388659    4.22793000   1       6  C-gga
    2.46400000    0.00000000    1.40931000   1       7  C-gga
    4.92800000    0.00000000    4.22793000   1       8  C-gga
    2.46400000    0.00000000    4.22793000   1       9  C-gga
    4.92800000    0.00000000    1.40931000   1      10  C-gga
    2.46400000    4.26777319    4.22793000   1      11  C-gga
    1.23200000    2.13388659    1.40931000   1      12  C-gga
   -1.23200000    2.13388659    4.22793000   1      13  C-gga
   -2.46400000    4.26777319    1.40931000   1      14  C-gga
    0.00000000    4.26777319    1.40931000   1      15  C-gga
    3.69600000    2.13388659    4.22793000   1      16  C-gga
    3.69600000    2.13388659    1.40931000   1      17  C-gga
    0.00000000    4.26777319    4.22793000   1      18  C-gga
    0.00000000    1.42258964    1.40931000   1      19  C-gga
    3.69600000    4.97907014    4.22793000   1      20  C-gga
    2.46400123    5.69036496    1.40931000   1      21  C-gga
    1.23199877    0.71129482    4.22793000   1      22  C-gga
   -2.46400123    5.69036496    1.40931000   1      23  C-gga
    6.16000123    0.71129482    4.22793000   1      24  C-gga
   -1.23200000    3.55647624    1.40931000   1      25  C-gga
    4.92800000    2.84518355    4.22793000   1      26  C-gga
    1.23200123    3.55647837    1.40931000   1      27  C-gga
    2.46399877    2.84518142    4.22793000   1      28  C-gga
   -0.00000123    5.69036496    1.40931000   1      29  C-gga
    3.69600123    0.71129482    4.22793000   1      30  C-gga
    2.46400000    1.42258964    1.40931000   1      31  C-gga
    1.23200000    4.97907014    4.22793000   1      32  C-gga
    4.92800123    1.42259177    1.40931000   1      33  C-gga
   -1.23200123    4.97906801    4.22793000   1      34  C-gga
    3.69599877    3.55647837    1.40931000   1      35  C-gga
    0.00000123    2.84518142    4.22793000   1      36  C-gga

superc: Internal auxiliary supercell:     5 x     5 x     3  =      75
superc: Number of atoms, orbitals, and projectors:   2700  10800  24300

outcell: Unit cell vectors (Ang):
        7.392000    0.000000    0.000000
       -3.696000    6.401660    0.000000
        0.000000    0.000000    5.637240

outcell: Cell vector modules (Ang)   :    7.392000    7.392000    5.637240
outcell: Cell angles (23,13,12) (deg):     90.0000     90.0000    120.0000
outcell: Cell volume (Ang**3)        :    266.7602
<dSpData1D:S at geom step 0
  <sparsity:sparsity for geom step 0
    nrows_g=144 nrows=8 sparsity=.4900 nnzs=10160, refcount: 7>
  <dData1D:(new from dSpData1D) n=10160, refcount: 1>
refcount: 1>
new_DM -- step:     1
Initializing Density Matrix...
DM filled with atomic data:
<dSpData2D:DM initialized from atoms
  <sparsity:sparsity for geom step 0
    nrows_g=144 nrows=8 sparsity=.4900 nnzs=10160, refcount: 8>
  <dData2D:DM n=10160 m=1, refcount: 1>
refcount: 1>
No. of atoms with KB's overlaping orbs in proc 0. Max # of overlaps:     144     280
New grid distribution:   1
           1       1:   36    1:    9    1:    6
           2       1:   36    1:    9    7:   12
           3       1:   36    1:    9   13:   18
           4       1:   36    1:    9   19:   24
           5       1:   36    1:    9   25:   30
           6       1:   36   10:   18    1:    6
           7       1:   36   10:   18    7:   12
           8       1:   36   10:   18   13:   18
           9       1:   36   10:   18   19:   24
          10       1:   36   10:   18   25:   30
          11       1:   36   19:   27    1:    6
          12       1:   36   19:   27    7:   12
          13       1:   36   19:   27   13:   18
          14       1:   36   19:   27   19:   24
          15       1:   36   19:   27   25:   30
          16       1:   36   28:   36    1:    6
          17       1:   36   28:   36    7:   12
          18       1:   36   28:   36   13:   18
          19       1:   36   28:   36   19:   24
          20       1:   36   28:   36   25:   30

InitMesh: MESH =    72 x    72 x    60 =      311040
InitMesh: (bp) =    36 x    36 x    30 =       38880
InitMesh: Mesh cutoff (required, used) =   300.000   313.091 Ry
ExtMesh (bp) on 0 =   128 x   101 x    94 =     1215232
New grid distribution:   2
           1      10:   18   25:   36   13:   30
           2      28:   36   25:   36   13:   30
           3       1:   18    1:    6   13:   30
           4      19:   36    1:    6   13:   30
           5       1:   18   28:   36    1:   12
           6      19:   36   28:   36    1:   12
           7      28:   36    7:   18   13:   30
           8       1:    9    7:   18   13:   30
           9      10:   18    7:   18   13:   30
          10      19:   27    7:   18   13:   30
          11       1:   18   19:   27    1:   12
          12      19:   36   19:   27    1:   12
          13       1:   18   19:   24   13:   30
          14      19:   36   19:   24   13:   30
          15       1:   18    1:    9    1:   12
          16      19:   36    1:    9    1:   12
          17       1:   18   10:   18    1:   12
          18       1:    9   25:   36   13:   30
          19      19:   27   25:   36   13:   30
          20      19:   36   10:   18    1:   12
New grid distribution:   3
           1      10:   18   25:   36   13:   30
           2      28:   36   25:   36   13:   30
           3       1:   18    1:    6   13:   30
           4      19:   36    1:    6   13:   30
           5       1:   18   28:   36    1:   12
           6      19:   36   28:   36    1:   12
           7      28:   36    7:   18   13:   30
           8       1:    9    7:   18   13:   30
           9      10:   18    7:   18   13:   30
          10      19:   27    7:   18   13:   30
          11       1:   18   19:   27    1:   12
          12      19:   36   19:   27    1:   12
          13       1:   18   19:   24   13:   30
          14      19:   36   19:   24   13:   30
          15       1:   18    1:    9    1:   12
          16      19:   36    1:    9    1:   12
          17       1:   18   10:   18    1:   12
          18       1:    9   25:   36   13:   30
          19      19:   27   25:   36   13:   30
          20      19:   36   10:   18    1:   12
Setting up quadratic distribution...
ExtMesh (bp) on 0 =   101 x   104 x   106 =     1113424
PhiOnMesh: Number of (b)points on node 0 =                 1944
PhiOnMesh: nlist on node 0 =               265604

stepf: Fermi-Dirac step function

siesta: Program's energy decomposition (eV):
siesta: Ebs     =     -2548.298773
siesta: Eions   =      9434.507561
siesta: Ena     =      2259.437738
siesta: Ekin    =      3694.191916
siesta: Enl     =      -351.228118
siesta: Eso     =         0.000000
siesta: Edftu   =         0.000000
siesta: DEna    =       -37.334819
siesta: DUscf   =         3.008194
siesta: DUext   =         0.000000
siesta: Exc     =     -1652.849418
siesta: eta*DQ  =         0.000000
siesta: Emadel  =         0.000000
siesta: Emeta   =         0.000000
siesta: Emolmec =        -6.269829
siesta: Ekinion =         0.000000
siesta: Eharris =     -5360.269699
siesta: Etot    =     -5525.551896
siesta: FreeEng =     -5525.560772

        iscf     Eharris(eV)        E_KS(eV)     FreeEng(eV)     dDmax    Ef(eV) dHmax(eV)
   scf:    1    -5360.269699    -5525.551896    -5525.560772  1.333016 -8.529258  0.401646
timer: Routine,Calls,Time,% = IterSCF        1       1.530  51.27
   scf:    2    -5525.587745    -5525.572689    -5525.581629  0.007526 -8.456612  0.286633
   scf:    3    -5525.583505    -5525.580365    -5525.588656  0.006097 -8.266746  0.028950
   scf:    4    -5525.583442    -5525.582765    -5525.591398  0.004419 -8.263544  0.000970
   scf:    5    -5525.582665    -5525.582725    -5525.591383  0.000445 -8.264698  0.001752
   scf:    6    -5525.582787    -5525.582762    -5525.591400  0.000359 -8.264223  0.000014

SCF Convergence by FreeE+DM+H criterion
|FreeE_i-FreeE_(i-1)| (eV) <     0.00100000
max |DM_out - DM_in|         :     0.0003592366
max |H_out - H_in|      (eV) :     0.0000142349
SCF cycle converged after 6 iterations

Using DM_out to compute the final energy and forces
No. of atoms with KB's overlaping orbs in proc 0. Max # of overlaps:     144     280

MM-Stress (kbar):       25.56       25.56       55.72        0.00        0.00       -0.00

siesta: E_KS(eV) =            -5525.5828

siesta: E_KS - E_eggbox =     -5525.5828

siesta: Atomic forces (eV/Ang):
     1   -0.000000   -0.000000   -0.000000
     2   -0.000000   -0.000000   -0.000000
     3    0.000071   -0.000054   -0.000000
     4   -0.000071    0.000054   -0.000000
     5    0.000011    0.000089   -0.000000
     6   -0.000011   -0.000089   -0.000000
     7   -0.000083   -0.000035   -0.000000
     8    0.000083    0.000034   -0.000000
     9   -0.000015   -0.000014   -0.000000
    10    0.000015    0.000013   -0.000000
    11   -0.000004    0.000020   -0.000000
    12    0.000004   -0.000019   -0.000000
    13    0.000019   -0.000006   -0.000000
    14   -0.000019    0.000006   -0.000000
    15   -0.000000   -0.000000   -0.000000
    16    0.000000    0.000000   -0.000000
    17   -0.000000    0.000000   -0.000000
    18    0.000000    0.000000   -0.000000
    19    0.000009    0.000126    0.000000
    20   -0.000009   -0.000126    0.000000
    21   -0.000113   -0.000055    0.000000
    22    0.000113    0.000055    0.000000
    23    0.000105   -0.000070    0.000000
    24   -0.000105    0.000070    0.000000
    25    0.000007    0.000113    0.000000
    26   -0.000007   -0.000114    0.000000
    27   -0.000102   -0.000051    0.000000
    28    0.000102    0.000050    0.000000
    29    0.000094   -0.000063    0.000000
    30   -0.000094    0.000063    0.000000
    31    0.000007    0.000114    0.000000
    32   -0.000008   -0.000113    0.000000
    33   -0.000102   -0.000050    0.000000
    34    0.000102    0.000050    0.000000
    35    0.000094   -0.000063    0.000000
    36   -0.000094    0.000063    0.000000
----------------------------------------
   Tot   -0.000000   -0.000001    0.000000
----------------------------------------
   Max    0.000126
   Res    0.000053    sqrt( Sum f_i^2 / 3N )
----------------------------------------
   Max    0.000126    constrained

Stress tensor Voigt[x,y,z,yz,xz,xy] (kbar):     -373.67     -373.67      234.34       -0.00       -0.00        0.00
(Free)E + p*V (eV/cell)    -5497.1200
Target enthalpy (eV/cell)    -5525.5914

siesta: Eigenvalues (eV):
  ik is       eps
   1  1  -27.6920  -27.1514  -26.9570  -26.9570  -26.4907  -26.4906  -24.9379  -24.9379  -24.6266  -24.6266
         -23.7556  -23.4940  -23.3081  -23.3081  -23.0557  -23.0557  -22.6407  -22.4303  -21.1446  -21.1214
  -21.0324  -21.0324  -20.8340  -20.8340  -19.4945  -19.3045  -18.5076  -18.5076  -18.2578  -18.2578
  -17.6981  -17.5321  -17.2089  -16.9695  -16.4780  -16.4779  -16.2546  -16.2546  -16.0690  -16.0319
  -16.0319  -15.8191  -15.8191  -15.6534  -15.6534  -15.4550  -15.4550  -15.4239  -15.4239  -14.2757
  -14.2757  -14.1060  -14.1060  -13.9910  -13.8762  -13.5622  -13.5622  -13.3027  -13.2063  -12.9494
  -12.2940  -12.2940  -12.2623  -11.8228  -11.8228  -11.0212  -10.4742  -10.4742   -9.9491   -9.9491
   -9.6658   -9.4320   -6.1211   -6.0449   -5.9582   -5.9580   -5.9580   -4.9903   -4.9903   -4.5818
   -4.2003   -4.2003   -2.9442   -2.9442   -0.5143   -0.5143    0.3883    0.3883    1.0647    1.3371
    1.3371    1.6771    1.8110    1.8661    1.9405    1.9406    2.0922    2.0922    2.4473    2.4473
    2.4764    2.6233    3.2968    3.5691    3.5691    3.8703    4.0883    4.0883    4.0985    4.0985
    4.3840    4.3840    5.3442    5.5365    5.5424    5.8530    6.5408    6.5408    6.8976    6.8976
    7.1121    7.4519    7.6216    7.6216    7.8510    7.8510    9.8236    9.9113   10.6635   10.6635
   10.7297   10.7297   12.4081   12.4081   12.4869   12.4869   13.6060   13.6060   13.7168   13.7168
   14.1410   14.1679   14.5650   14.6039
   2  1  -28.0699  -27.4882  -26.6010  -26.1669  -25.9118  -25.9118  -25.5349  -25.5349  -24.6365  -24.6365
         -24.3365  -24.3365  -24.0651  -23.7849  -22.5045  -22.5045  -22.2672  -22.2672  -20.7029  -20.7029
  -20.5202  -20.5202  -20.3728  -20.0991  -19.4598  -19.4598  -19.1565  -19.1565  -18.3302  -18.3302
  -18.1518  -18.1518  -17.5842  -17.5842  -17.2706  -17.2706  -16.5828  -16.3739  -16.2594  -15.7285
  -15.7285  -15.5153  -15.5153  -15.4440  -15.2555  -15.1460  -15.1315  -15.1315  -14.9255  -14.9255
  -14.5205  -14.5205  -14.3185  -14.1423  -13.2812  -13.2584  -13.2584  -12.9889  -12.8664  -12.6811
  -12.6604  -12.5797  -11.9772  -11.3574  -11.3574  -10.7546  -10.7546  -10.3250  -10.3250  -10.1127
   -8.8173   -8.8173   -7.2384   -7.2384   -6.0102   -6.0102   -5.4916   -4.7707   -4.7707   -4.0160
   -3.2982   -3.2982   -2.5900   -2.5900   -1.4064   -1.4064   -1.2820   -0.2344    0.6138    1.0406
    1.0653    1.2207    1.4337    1.4840    1.4840    1.6015    1.7114    1.7253    1.7289    1.7289
    1.9287    2.2242    2.2242    2.4005    2.4005    2.5992    4.5559    4.9499    5.6549    5.6549
    5.9547    5.9547    6.2434    6.3773    6.6060    6.6060    6.8772    6.8772    7.9492    8.2810
    8.4106    8.4106    8.5722    8.5722    9.0881    9.0881    9.2649    9.2649   10.0826   10.0826
   10.2596   10.2596   10.7052   10.7930   12.2804   12.2804   12.3891   12.3891   12.4960   12.6620
   15.0618   15.0618   15.0686   15.0686
   3  1  -28.0699  -27.4882  -26.6010  -26.1669  -25.9118  -25.9118  -25.5349  -25.5349  -24.6365  -24.6365
         -24.3365  -24.3365  -24.0651  -23.7849  -22.5045  -22.5045  -22.2672  -22.2672  -20.7029  -20.7029
  -20.5202  -20.5202  -20.3728  -20.0991  -19.4598  -19.4598  -19.1565  -19.1565  -18.3302  -18.3302
  -18.1518  -18.1518  -17.5842  -17.5842  -17.2706  -17.2706  -16.5828  -16.3739  -16.2594  -15.7285
  -15.7285  -15.5153  -15.5153  -15.4440  -15.2555  -15.1460  -15.1315  -15.1315  -14.9255  -14.9255
  -14.5205  -14.5205  -14.3185  -14.1423  -13.2812  -13.2584  -13.2584  -12.9889  -12.8664  -12.6811
  -12.6604  -12.5797  -11.9772  -11.3574  -11.3574  -10.7546  -10.7546  -10.3250  -10.3250  -10.1127
   -8.8173   -8.8173   -7.2384   -7.2384   -6.0102   -6.0102   -5.4916   -4.7707   -4.7707   -4.0160
   -3.2982   -3.2982   -2.5900   -2.5900   -1.4064   -1.4064   -1.2820   -0.2344    0.6138    1.0406
    1.0653    1.2207    1.4337    1.4840    1.4840    1.6015    1.7114    1.7253    1.7289    1.7289
    1.9287    2.2242    2.2242    2.4005    2.4005    2.5992    4.5559    4.9499    5.6549    5.6549
    5.9547    5.9547    6.2434    6.3773    6.6060    6.6060    6.8772    6.8772    7.9492    8.2810
    8.4106    8.4106    8.5722    8.5722    9.0881    9.0881    9.2649    9.2649   10.0826   10.0826
   10.2596   10.2596   10.7052   10.7930   12.2804   12.2804   12.3891   12.3891   12.4960   12.6620
   15.0618   15.0618   15.0686   15.0686
   4  1  -27.6920  -27.1514  -26.9570  -26.9570  -26.4907  -26.4906  -24.9379  -24.9379  -24.6266  -24.6266
         -23.7556  -23.4940  -23.3081  -23.3081  -23.0557  -23.0557  -22.6407  -22.4303  -21.1446  -21.1214
  -21.0324  -21.0324  -20.8340  -20.8340  -19.4945  -19.3045  -18.5076  -18.5076  -18.2578  -18.2578
  -17.6981  -17.5321  -17.2089  -16.9695  -16.4780  -16.4779  -16.2546  -16.2546  -16.0690  -16.0319
  -16.0319  -15.8191  -15.8191  -15.6534  -15.6534  -15.4550  -15.4550  -15.4239  -15.4239  -14.2757
  -14.2757  -14.1060  -14.1060  -13.9910  -13.8762  -13.5622  -13.5622  -13.3027  -13.2063  -12.9494
  -12.2940  -12.2940  -12.2623  -11.8228  -11.8228  -11.0212  -10.4742  -10.4742   -9.9491   -9.9491
   -9.6658   -9.4320   -6.1211   -6.0449   -5.9582   -5.9580   -5.9580   -4.9903   -4.9903   -4.5818
   -4.2003   -4.2003   -2.9442   -2.9442   -0.5143   -0.5143    0.3883    0.3883    1.0647    1.3371
    1.3371    1.6771    1.8110    1.8661    1.9405    1.9406    2.0922    2.0922    2.4473    2.4473
    2.4764    2.6233    3.2968    3.5691    3.5691    3.8703    4.0883    4.0883    4.0985    4.0985
    4.3840    4.3840    5.3442    5.5365    5.5424    5.8530    6.5408    6.5408    6.8976    6.8976
    7.1121    7.4519    7.6216    7.6216    7.8510    7.8510    9.8236    9.9113   10.6635   10.6635
   10.7297   10.7297   12.4081   12.4081   12.4869   12.4869   13.6060   13.6060   13.7168   13.7168
   14.1410   14.1679   14.5650   14.6039
   5  1  -28.0699  -27.4882  -26.6010  -26.1669  -25.9118  -25.9118  -25.5349  -25.5349  -24.6365  -24.6365
         -24.3365  -24.3365  -24.0651  -23.7849  -22.5045  -22.5045  -22.2672  -22.2672  -20.7029  -20.7029
  -20.5202  -20.5202  -20.3728  -20.0991  -19.4598  -19.4598  -19.1565  -19.1565  -18.3302  -18.3302
  -18.1518  -18.1518  -17.5842  -17.5842  -17.2706  -17.2706  -16.5828  -16.3739  -16.2594  -15.7285
  -15.7285  -15.5153  -15.5153  -15.4440  -15.2555  -15.1460  -15.1315  -15.1315  -14.9255  -14.9255
  -14.5205  -14.5205  -14.3185  -14.1423  -13.2812  -13.2584  -13.2584  -12.9889  -12.8664  -12.6811
  -12.6604  -12.5797  -11.9772  -11.3574  -11.3574  -10.7546  -10.7546  -10.3250  -10.3250  -10.1127
   -8.8173   -8.8173   -7.2384   -7.2384   -6.0102   -6.0102   -5.4916   -4.7707   -4.7707   -4.0160
   -3.2982   -3.2982   -2.5900   -2.5900   -1.4064   -1.4064   -1.2820   -0.2344    0.6138    1.0406
    1.0653    1.2207    1.4337    1.4840    1.4840    1.6015    1.7114    1.7253    1.7289    1.7289
    1.9287    2.2242    2.2242    2.4005    2.4005    2.5992    4.5559    4.9499    5.6549    5.6549
    5.9547    5.9547    6.2434    6.3773    6.6060    6.6060    6.8772    6.8772    7.9492    8.2810
    8.4106    8.4106    8.5722    8.5722    9.0881    9.0881    9.2649    9.2649   10.0826   10.0826
   10.2596   10.2596   10.7052   10.7930   12.2804   12.2804   12.3891   12.3891   12.4960   12.6620
   15.0618   15.0618   15.0686   15.0686
   6  1  -28.2611  -27.6581  -25.4181  -25.4181  -25.4181  -25.4181  -25.4181  -25.4181  -25.0741  -25.0741
         -25.0741  -25.0741  -25.0741  -25.0741  -21.5333  -21.5333  -21.3126  -21.3126  -21.3126  -21.3126
  -21.1495  -21.1495  -18.8732  -18.8732  -18.8732  -18.8732  -18.5768  -18.5768  -18.5768  -18.5767
  -18.5767  -18.5767  -18.2397  -18.2397  -18.2397  -18.2397  -18.2397  -18.2397  -16.5261  -15.0084
  -15.0084  -15.0084  -15.0084  -15.0084  -15.0084  -14.8223  -14.8223  -14.8223  -14.8223  -14.8223
  -14.8223  -14.0511  -14.0511  -14.0511  -14.0511  -14.0511  -14.0511  -13.4476  -12.3317  -12.3317
  -12.2734  -12.2734  -10.9504  -10.9504  -10.9504  -10.9504  -10.9504  -10.9504   -9.6839   -9.6839
   -8.3171   -8.3171   -8.3171   -8.3171   -6.6313   -6.6313   -3.5583   -3.5583   -3.5583   -3.5583
   -3.5583   -3.5583   -2.1444   -2.1444   -2.1444   -2.1444   -2.1444   -2.1444    0.8177    0.8177
    0.8177    0.8177    0.8177    0.8177    0.8303    0.8303    0.9314    0.9314    1.5980    1.5980
    1.5980    1.5981    1.5981    1.5981    2.3832    3.0138    4.1900    4.6039    7.5079    7.5079
    7.5079    7.5079    7.5107    7.5107    7.5454    7.5454    8.8185    8.8185    8.8185    8.8186
    8.8186    8.8186    8.9428    8.9428    8.9428    8.9428    8.9428    8.9428   10.4221   10.4221
   10.4222   10.4222   10.4222   10.4222   10.6508   10.6508   10.6508   10.6508   10.6508   10.6508
   15.4232   15.4232   15.4232   15.4232
   7  1  -27.5057  -27.5056  -26.9845  -26.9845  -26.0803  -26.0803  -25.6914  -25.6914  -23.6323  -23.6323
         -23.6323  -23.6323  -23.3712  -23.3712  -23.3712  -23.3712  -23.0556  -22.8339  -21.3902  -21.3696
  -20.1566  -20.1566  -20.1566  -20.1566  -19.9086  -19.9086  -19.9086  -19.9086  -17.0330  -17.0330
  -17.0330  -17.0330  -16.9102  -16.9102  -16.7946  -16.7946  -16.7946  -16.7946  -16.7356  -16.7356
  -15.9161  -15.9161  -15.5917  -15.4858  -15.4858  -15.4031  -15.2995  -15.2995  -14.6759  -14.6759
  -14.5949  -14.5949  -14.3598  -14.3598  -13.4690  -13.4690  -13.3188  -13.3188  -12.7846  -12.7846
  -12.1398  -12.1398  -12.1398  -12.1398  -11.5887  -11.4979  -11.4979  -10.2302   -9.5690   -9.5690
   -9.5690   -9.5690   -5.9979   -5.9979   -5.9979   -5.9979   -5.8334   -5.2265   -4.6913   -4.6913
   -4.6913   -4.6913   -2.2031   -2.2031   -1.1633   -1.1633    0.5371    0.6446    0.6446    1.2019
    1.2019    1.3614    1.4405    1.4405    1.6362    1.6362    3.3672    3.3672    3.3673    3.3673
    3.6147    3.6147    3.7397    3.7397    3.8157    3.8157    3.9182    3.9182    3.9356    3.9356
    3.9356    3.9356    4.3039    4.3039    4.4693    4.4693    5.8348    5.8348    6.1979    6.1979
    8.8523    8.8523    8.8523    8.8523    9.0577    9.0577    9.0577    9.0577   10.1388   10.1388
   10.2697   10.2697   11.4052   11.4598   13.2948   13.5104   13.9929   13.9929   13.9929   13.9929
   14.0326   14.0326   14.0326   14.0326
   8  1  -27.6920  -27.1514  -26.9570  -26.9570  -26.4907  -26.4906  -24.9379  -24.9379  -24.6266  -24.6266
         -23.7556  -23.4940  -23.3081  -23.3081  -23.0557  -23.0557  -22.6407  -22.4303  -21.1446  -21.1214
  -21.0324  -21.0324  -20.8340  -20.8340  -19.4945  -19.3045  -18.5076  -18.5076  -18.2578  -18.2578
  -17.6981  -17.5321  -17.2089  -16.9695  -16.4780  -16.4779  -16.2546  -16.2546  -16.0690  -16.0319
  -16.0319  -15.8191  -15.8191  -15.6534  -15.6534  -15.4550  -15.4550  -15.4239  -15.4239  -14.2757
  -14.2757  -14.1060  -14.1060  -13.9910  -13.8762  -13.5622  -13.5622  -13.3027  -13.2063  -12.9494
  -12.2940  -12.2940  -12.2623  -11.8228  -11.8228  -11.0212  -10.4742  -10.4742   -9.9491   -9.9491
   -9.6658   -9.4320   -6.1211   -6.0449   -5.9582   -5.9580   -5.9580   -4.9903   -4.9903   -4.5818
   -4.2003   -4.2003   -2.9442   -2.9442   -0.5143   -0.5143    0.3883    0.3883    1.0647    1.3371
    1.3371    1.6771    1.8110    1.8661    1.9405    1.9406    2.0922    2.0922    2.4473    2.4473
    2.4764    2.6233    3.2968    3.5691    3.5691    3.8703    4.0883    4.0883    4.0985    4.0985
    4.3840    4.3840    5.3442    5.5365    5.5424    5.8530    6.5408    6.5408    6.8976    6.8976
    7.1121    7.4519    7.6216    7.6216    7.8510    7.8510    9.8236    9.9113   10.6635   10.6635
   10.7297   10.7297   12.4081   12.4081   12.4869   12.4869   13.6060   13.6060   13.7168   13.7168
   14.1410   14.1679   14.5650   14.6039
   9  1  -27.6920  -27.1514  -26.9570  -26.9570  -26.4907  -26.4906  -24.9379  -24.9379  -24.6266  -24.6266
         -23.7556  -23.4940  -23.3081  -23.3081  -23.0557  -23.0557  -22.6407  -22.4303  -21.1446  -21.1214
  -21.0324  -21.0324  -20.8340  -20.8340  -19.4945  -19.3045  -18.5076  -18.5076  -18.2578  -18.2578
  -17.6981  -17.5321  -17.2089  -16.9695  -16.4780  -16.4779  -16.2546  -16.2546  -16.0690  -16.0319
  -16.0319  -15.8191  -15.8191  -15.6534  -15.6534  -15.4550  -15.4550  -15.4239  -15.4239  -14.2757
  -14.2757  -14.1060  -14.1060  -13.9910  -13.8762  -13.5622  -13.5622  -13.3027  -13.2063  -12.9494
  -12.2940  -12.2940  -12.2623  -11.8228  -11.8228  -11.0212  -10.4742  -10.4742   -9.9491   -9.9491
   -9.6658   -9.4320   -6.1211   -6.0449   -5.9582   -5.9580   -5.9580   -4.9903   -4.9903   -4.5818
   -4.2003   -4.2003   -2.9442   -2.9442   -0.5143   -0.5143    0.3883    0.3883    1.0647    1.3371
    1.3371    1.6771    1.8110    1.8661    1.9405    1.9406    2.0922    2.0922    2.4473    2.4473
    2.4764    2.6233    3.2968    3.5691    3.5691    3.8703    4.0883    4.0883    4.0985    4.0985
    4.3840    4.3840    5.3442    5.5365    5.5424    5.8530    6.5408    6.5408    6.8976    6.8976
    7.1121    7.4519    7.6216    7.6216    7.8510    7.8510    9.8236    9.9113   10.6635   10.6635
   10.7297   10.7297   12.4081   12.4081   12.4869   12.4869   13.6060   13.6060   13.7168   13.7168
   14.1410   14.1679   14.5650   14.6039
  10  1  -27.5057  -27.5056  -26.9845  -26.9845  -26.0803  -26.0803  -25.6914  -25.6914  -23.6323  -23.6323
         -23.6323  -23.6323  -23.3712  -23.3712  -23.3712  -23.3712  -23.0556  -22.8339  -21.3902  -21.3696
  -20.1566  -20.1566  -20.1566  -20.1566  -19.9086  -19.9086  -19.9086  -19.9086  -17.0330  -17.0330
  -17.0330  -17.0330  -16.9102  -16.9102  -16.7946  -16.7946  -16.7946  -16.7946  -16.7356  -16.7356
  -15.9161  -15.9161  -15.5917  -15.4858  -15.4858  -15.4031  -15.2995  -15.2995  -14.6759  -14.6759
  -14.5949  -14.5949  -14.3598  -14.3598  -13.4690  -13.4690  -13.3188  -13.3188  -12.7846  -12.7846
  -12.1398  -12.1398  -12.1398  -12.1398  -11.5887  -11.4979  -11.4979  -10.2302   -9.5690   -9.5690
   -9.5690   -9.5690   -5.9979   -5.9979   -5.9979   -5.9979   -5.8334   -5.2265   -4.6913   -4.6913
   -4.6913   -4.6913   -2.2031   -2.2031   -1.1633   -1.1633    0.5371    0.6446    0.6446    1.2019
    1.2019    1.3614    1.4405    1.4405    1.6362    1.6362    3.3672    3.3672    3.3673    3.3673
    3.6147    3.6147    3.7397    3.7397    3.8157    3.8157    3.9182    3.9182    3.9356    3.9356
    3.9356    3.9356    4.3039    4.3039    4.4693    4.4693    5.8348    5.8348    6.1979    6.1979
    8.8523    8.8523    8.8523    8.8523    9.0577    9.0577    9.0577    9.0577   10.1388   10.1388
   10.2697   10.2697   11.4052   11.4598   13.2948   13.5104   13.9929   13.9929   13.9929   13.9929
   14.0326   14.0326   14.0326   14.0326
  11  1  -27.6920  -27.1514  -26.9570  -26.9570  -26.4907  -26.4906  -24.9379  -24.9379  -24.6266  -24.6266
         -23.7556  -23.4940  -23.3081  -23.3081  -23.0557  -23.0557  -22.6407  -22.4303  -21.1446  -21.1214
  -21.0324  -21.0324  -20.8340  -20.8340  -19.4945  -19.3045  -18.5076  -18.5076  -18.2578  -18.2578
  -17.6981  -17.5321  -17.2089  -16.9695  -16.4780  -16.4779  -16.2546  -16.2546  -16.0690  -16.0319
  -16.0319  -15.8191  -15.8191  -15.6534  -15.6534  -15.4550  -15.4550  -15.4239  -15.4239  -14.2757
  -14.2757  -14.1060  -14.1060  -13.9910  -13.8762  -13.5622  -13.5622  -13.3027  -13.2063  -12.9494
  -12.2940  -12.2940  -12.2623  -11.8228  -11.8228  -11.0212  -10.4742  -10.4742   -9.9491   -9.9491
   -9.6658   -9.4320   -6.1211   -6.0449   -5.9582   -5.9580   -5.9580   -4.9903   -4.9903   -4.5818
   -4.2003   -4.2003   -2.9442   -2.9442   -0.5143   -0.5143    0.3883    0.3883    1.0647    1.3371
    1.3371    1.6771    1.8110    1.8661    1.9405    1.9406    2.0922    2.0922    2.4473    2.4473
    2.4764    2.6233    3.2968    3.5691    3.5691    3.8703    4.0883    4.0883    4.0985    4.0985
    4.3840    4.3840    5.3442    5.5365    5.5424    5.8530    6.5408    6.5408    6.8976    6.8976
    7.1121    7.4519    7.6216    7.6216    7.8510    7.8510    9.8236    9.9113   10.6635   10.6635
   10.7297   10.7297   12.4081   12.4081   12.4869   12.4869   13.6060   13.6060   13.7168   13.7168
   14.1410   14.1679   14.5650   14.6039
  12  1  -27.5057  -27.5056  -26.9845  -26.9845  -26.0803  -26.0803  -25.6914  -25.6914  -23.6323  -23.6323
         -23.6323  -23.6323  -23.3712  -23.3712  -23.3712  -23.3712  -23.0556  -22.8339  -21.3902  -21.3696
  -20.1566  -20.1566  -20.1566  -20.1566  -19.9086  -19.9086  -19.9086  -19.9086  -17.0330  -17.0330
  -17.0330  -17.0330  -16.9102  -16.9102  -16.7946  -16.7946  -16.7946  -16.7946  -16.7356  -16.7356
  -15.9161  -15.9161  -15.5917  -15.4858  -15.4858  -15.4031  -15.2995  -15.2995  -14.6759  -14.6759
  -14.5949  -14.5949  -14.3598  -14.3598  -13.4690  -13.4690  -13.3188  -13.3188  -12.7846  -12.7846
  -12.1398  -12.1398  -12.1398  -12.1398  -11.5887  -11.4979  -11.4979  -10.2302   -9.5690   -9.5690
   -9.5690   -9.5690   -5.9979   -5.9979   -5.9979   -5.9979   -5.8334   -5.2265   -4.6913   -4.6913
   -4.6913   -4.6913   -2.2031   -2.2031   -1.1633   -1.1633    0.5371    0.6446    0.6446    1.2019
    1.2019    1.3614    1.4405    1.4405    1.6362    1.6362    3.3672    3.3672    3.3673    3.3673
    3.6147    3.6147    3.7397    3.7397    3.8157    3.8157    3.9182    3.9182    3.9356    3.9356
    3.9356    3.9356    4.3039    4.3039    4.4693    4.4693    5.8348    5.8348    6.1979    6.1979
    8.8523    8.8523    8.8523    8.8523    9.0577    9.0577    9.0577    9.0577   10.1388   10.1388
   10.2697   10.2697   11.4052   11.4598   13.2948   13.5104   13.9929   13.9929   13.9929   13.9929
   14.0326   14.0326   14.0326   14.0326
  13  1  -27.6441  -27.2563  -26.9152  -26.9151  -26.5824  -26.5824  -24.9056  -24.9056  -24.6865  -24.6865
         -23.7239  -23.5401  -23.2744  -23.2744  -23.0965  -23.0965  -22.6080  -22.4584  -21.1488  -21.1336
  -21.0090  -21.0090  -20.8692  -20.8692  -19.4654  -19.3308  -18.4719  -18.4719  -18.2951  -18.2951
  -17.6808  -17.5628  -17.1757  -17.0065  -16.4510  -16.4509  -16.2924  -16.2924  -16.0014  -16.0014
  -15.8510  -15.8510  -15.6989  -15.6211  -15.6211  -15.4605  -15.4605  -15.0884  -15.0884  -14.2539
  -14.2539  -14.1348  -14.1348  -13.9726  -13.8889  -13.5535  -13.2935  -13.2222  -13.1944  -13.1944
  -12.9090  -12.9089  -11.8968  -11.4940  -11.4940  -11.0286  -11.0286  -10.7104  -10.0948  -10.0948
   -9.8899   -9.6743   -6.3040   -6.2657   -6.0330   -6.0330   -5.7645   -5.2706   -5.2706   -4.8083
   -4.0305   -4.0305   -3.1470   -3.1470   -0.4115   -0.4115    0.2190    0.2191    1.1131    1.4689
    1.4689    1.5750    1.7697    1.9808    2.0067    2.0067    2.0557    2.0558    2.4208    2.4208
    2.4971    2.6029    3.3976    3.6641    3.6641    3.8047    4.0405    4.0405    4.1427    4.1427
    4.3547    4.3547    5.3861    5.5256    5.5882    5.8106    6.6114    6.6114    6.8662    6.8663
    7.1758    7.4176    7.6578    7.6578    7.8210    7.8210    9.8395    9.9019   10.6753   10.6753
   10.7217   10.7217   12.4213   12.4213   12.4771   12.4771   13.6240   13.6240   13.7023   13.7023
   14.1459   14.1649   14.5714   14.5990
  14  1  -28.0186  -27.6001  -26.5615  -26.2526  -25.8761  -25.8761  -25.6093  -25.6093  -24.6041  -24.6041
         -24.3931  -24.3931  -24.0321  -23.8352  -22.4705  -22.4705  -22.3028  -22.3028  -20.6780  -20.6780
  -20.5492  -20.5492  -20.3371  -20.1443  -19.4192  -19.4192  -19.2053  -19.2053  -18.3077  -18.3077
  -18.1814  -18.1814  -17.5420  -17.5420  -17.3206  -17.3206  -16.5404  -16.3125  -15.9974  -15.6984
  -15.6984  -15.5476  -15.5476  -15.4163  -15.2830  -15.1036  -15.1036  -14.9578  -14.9578  -14.7809
  -14.2927  -14.1681  -14.1552  -14.1552  -13.8683  -12.9709  -12.8944  -12.8944  -12.8845  -12.6664
  -12.5947  -12.5910  -12.3073  -11.9566  -11.9566  -10.8197  -10.8197  -10.4686  -10.4143  -10.4143
   -8.9641   -8.9641   -7.1718   -7.1718   -6.3174   -6.3174   -5.4082   -4.6113   -4.6113   -4.3152
   -3.5541   -3.5541   -2.4416   -2.4416   -1.6068   -1.6068   -1.1633   -0.4304    0.7589    1.0616
    1.1943    1.2098    1.3440    1.6164    1.6164    1.6169    1.6812    1.6946    1.8577    1.8577
    2.0236    2.1447    2.1447    2.3386    2.3386    2.4884    4.6301    4.9037    5.7113    5.7113
    5.9227    5.9227    6.2625    6.3572    6.6577    6.6577    6.8517    6.8517    8.0118    8.2514
    8.4422    8.4422    8.5562    8.5562    9.1210    9.1210    9.2463    9.2463   10.1136   10.1136
   10.2409   10.2409   10.7177   10.7798   12.3021   12.3021   12.3794   12.3794   12.5284   12.6451
   15.0633   15.0633   15.0681   15.0681
  15  1  -28.0186  -27.6001  -26.5615  -26.2526  -25.8761  -25.8761  -25.6093  -25.6093  -24.6041  -24.6041
         -24.3931  -24.3931  -24.0321  -23.8352  -22.4705  -22.4705  -22.3028  -22.3028  -20.6780  -20.6780
  -20.5492  -20.5492  -20.3371  -20.1443  -19.4192  -19.4192  -19.2053  -19.2053  -18.3077  -18.3077
  -18.1814  -18.1814  -17.5420  -17.5420  -17.3206  -17.3206  -16.5404  -16.3125  -15.9974  -15.6984
  -15.6984  -15.5476  -15.5476  -15.4163  -15.2830  -15.1036  -15.1036  -14.9578  -14.9578  -14.7809
  -14.2927  -14.1681  -14.1552  -14.1552  -13.8683  -12.9709  -12.8944  -12.8944  -12.8845  -12.6664
  -12.5947  -12.5910  -12.3073  -11.9566  -11.9566  -10.8197  -10.8197  -10.4686  -10.4143  -10.4143
   -8.9641   -8.9641   -7.1718   -7.1718   -6.3174   -6.3174   -5.4082   -4.6113   -4.6113   -4.3152
   -3.5541   -3.5541   -2.4416   -2.4416   -1.6068   -1.6068   -1.1633   -0.4304    0.7589    1.0616
    1.1943    1.2098    1.3440    1.6164    1.6164    1.6169    1.6812    1.6946    1.8577    1.8577
    2.0236    2.1447    2.1447    2.3386    2.3386    2.4884    4.6301    4.9037    5.7113    5.7113
    5.9227    5.9227    6.2625    6.3572    6.6577    6.6577    6.8517    6.8517    8.0118    8.2514
    8.4422    8.4422    8.5562    8.5562    9.1210    9.1210    9.2463    9.2463   10.1136   10.1136
   10.2409   10.2409   10.7177   10.7798   12.3021   12.3021   12.3794   12.3794   12.5284   12.6451
   15.0633   15.0633   15.0681   15.0681
  16  1  -27.6441  -27.2563  -26.9152  -26.9151  -26.5824  -26.5824  -24.9056  -24.9056  -24.6865  -24.6865
         -23.7239  -23.5401  -23.2744  -23.2744  -23.0965  -23.0965  -22.6080  -22.4584  -21.1488  -21.1336
  -21.0090  -21.0090  -20.8692  -20.8692  -19.4654  -19.3308  -18.4719  -18.4719  -18.2951  -18.2951
  -17.6808  -17.5628  -17.1757  -17.0065  -16.4510  -16.4509  -16.2924  -16.2924  -16.0014  -16.0014
  -15.8510  -15.8510  -15.6989  -15.6211  -15.6211  -15.4605  -15.4605  -15.0884  -15.0884  -14.2539
  -14.2539  -14.1348  -14.1348  -13.9726  -13.8889  -13.5535  -13.2935  -13.2222  -13.1944  -13.1944
  -12.9090  -12.9089  -11.8968  -11.4940  -11.4940  -11.0286  -11.0286  -10.7104  -10.0948  -10.0948
   -9.8899   -9.6743   -6.3040   -6.2657   -6.0330   -6.0330   -5.7645   -5.2706   -5.2706   -4.8083
   -4.0305   -4.0305   -3.1470   -3.1470   -0.4115   -0.4115    0.2190    0.2191    1.1131    1.4689
    1.4689    1.5750    1.7697    1.9808    2.0067    2.0067    2.0557    2.0558    2.4208    2.4208
    2.4971    2.6029    3.3976    3.6641    3.6641    3.8047    4.0405    4.0405    4.1427    4.1427
    4.3547    4.3547    5.3861    5.5256    5.5882    5.8106    6.6114    6.6114    6.8662    6.8663
    7.1758    7.4176    7.6578    7.6578    7.8210    7.8210    9.8395    9.9019   10.6753   10.6753
   10.7217   10.7217   12.4213   12.4213   12.4771   12.4771   13.6240   13.6240   13.7023   13.7023
   14.1459   14.1649   14.5714   14.5990
  17  1  -28.0186  -27.6001  -26.5615  -26.2526  -25.8761  -25.8761  -25.6093  -25.6093  -24.6041  -24.6041
         -24.3931  -24.3931  -24.0321  -23.8352  -22.4705  -22.4705  -22.3028  -22.3028  -20.6780  -20.6780
  -20.5492  -20.5492  -20.3371  -20.1443  -19.4192  -19.4192  -19.2053  -19.2053  -18.3077  -18.3077
  -18.1814  -18.1814  -17.5420  -17.5420  -17.3206  -17.3206  -16.5404  -16.3125  -15.9974  -15.6984
  -15.6984  -15.5476  -15.5476  -15.4163  -15.2830  -15.1036  -15.1036  -14.9578  -14.9578  -14.7809
  -14.2927  -14.1681  -14.1552  -14.1552  -13.8683  -12.9709  -12.8944  -12.8944  -12.8845  -12.6664
  -12.5947  -12.5910  -12.3073  -11.9566  -11.9566  -10.8197  -10.8197  -10.4686  -10.4143  -10.4143
   -8.9641   -8.9641   -7.1718   -7.1718   -6.3174   -6.3174   -5.4082   -4.6113   -4.6113   -4.3152
   -3.5541   -3.5541   -2.4416   -2.4416   -1.6068   -1.6068   -1.1633   -0.4304    0.7589    1.0616
    1.1943    1.2098    1.3440    1.6164    1.6164    1.6169    1.6812    1.6946    1.8577    1.8577
    2.0236    2.1447    2.1447    2.3386    2.3386    2.4884    4.6301    4.9037    5.7113    5.7113
    5.9227    5.9227    6.2625    6.3572    6.6577    6.6577    6.8517    6.8517    8.0118    8.2514
    8.4422    8.4422    8.5562    8.5562    9.1210    9.1210    9.2463    9.2463   10.1136   10.1136
   10.2409   10.2409   10.7177   10.7798   12.3021   12.3021   12.3794   12.3794   12.5284   12.6451
   15.0633   15.0633   15.0681   15.0681
  18  1  -28.2082  -27.7737  -25.3841  -25.3841  -25.3841  -25.3841  -25.3841  -25.3841  -25.1414  -25.1414
         -25.1414  -25.1414  -25.1414  -25.1414  -21.4821  -21.4821  -21.3075  -21.3075  -21.3075  -21.3075
  -21.2113  -21.2113  -18.8769  -18.8769  -18.8769  -18.8769  -18.5322  -18.5322  -18.5322  -18.5322
  -18.5322  -18.5322  -18.2946  -18.2946  -18.2946  -18.2946  -18.2946  -18.2946  -16.1454  -14.9811
  -14.9811  -14.9811  -14.9811  -14.9811  -14.9811  -14.8494  -14.8494  -14.8494  -14.8494  -14.8494
  -14.8494  -14.0235  -13.6863  -13.6863  -13.6863  -13.6863  -13.6863  -13.6863  -12.3235  -12.3235
  -12.2822  -12.2822  -11.5173  -11.5173  -11.5173  -11.5173  -11.5173  -11.5173   -9.2931   -9.2931
   -8.2594   -8.2594   -8.2594   -8.2594   -7.1425   -7.1425   -3.3921   -3.3921   -3.3921   -3.3921
   -3.3921   -3.3921   -2.3871   -2.3871   -2.3871   -2.3871   -2.3871   -2.3871    0.8443    0.8443
    0.9158    0.9158    0.9639    0.9639    0.9639    0.9639    0.9639    0.9639    1.5222    1.5222
    1.5222    1.5223    1.5223    1.5223    2.4547    2.8887    4.2791    4.5604    7.5153    7.5153
    7.5153    7.5153    7.5281    7.5281    7.5502    7.5502    8.8363    8.8364    8.8364    8.8364
    8.8364    8.8364    8.9242    8.9242    8.9242    8.9242    8.9242    8.9242   10.4708   10.4708
   10.4708   10.4708   10.4708   10.4708   10.6353   10.6353   10.6353   10.6354   10.6354   10.6354
   15.4233   15.4233   15.4233   15.4233
  19  1  -28.0186  -27.6001  -26.5615  -26.2526  -25.8761  -25.8761  -25.6093  -25.6093  -24.6041  -24.6041
         -24.3931  -24.3931  -24.0321  -23.8352  -22.4705  -22.4705  -22.3028  -22.3028  -20.6780  -20.6780
  -20.5492  -20.5492  -20.3371  -20.1443  -19.4192  -19.4192  -19.2053  -19.2053  -18.3077  -18.3077
  -18.1814  -18.1814  -17.5420  -17.5420  -17.3206  -17.3206  -16.5404  -16.3125  -15.9974  -15.6984
  -15.6984  -15.5476  -15.5476  -15.4163  -15.2830  -15.1036  -15.1036  -14.9578  -14.9578  -14.7809
  -14.2927  -14.1681  -14.1552  -14.1552  -13.8683  -12.9709  -12.8944  -12.8944  -12.8845  -12.6664
  -12.5947  -12.5910  -12.3073  -11.9566  -11.9566  -10.8197  -10.8197  -10.4686  -10.4143  -10.4143
   -8.9641   -8.9641   -7.1718   -7.1718   -6.3174   -6.3174   -5.4082   -4.6113   -4.6113   -4.3152
   -3.5541   -3.5541   -2.4416   -2.4416   -1.6068   -1.6068   -1.1633   -0.4304    0.7589    1.0616
    1.1943    1.2098    1.3440    1.6164    1.6164    1.6169    1.6812    1.6946    1.8577    1.8577
    2.0236    2.1447    2.1447    2.3386    2.3386    2.4884    4.6301    4.9037    5.7113    5.7113
    5.9227    5.9227    6.2625    6.3572    6.6577    6.6577    6.8517    6.8517    8.0118    8.2514
    8.4422    8.4422    8.5562    8.5562    9.1210    9.1210    9.2463    9.2463   10.1136   10.1136
   10.2409   10.2409   10.7177   10.7798   12.3021   12.3021   12.3794   12.3794   12.5284   12.6451
   15.0633   15.0633   15.0681   15.0681
  20  1  -27.4594  -27.4594  -27.0860  -27.0860  -26.0440  -26.0440  -25.7684  -25.7684  -23.5999  -23.5999
         -23.5999  -23.5999  -23.4164  -23.4164  -23.4164  -23.4164  -23.0225  -22.8651  -21.3971  -21.3832
  -20.1229  -20.1229  -20.1229  -20.1229  -19.9478  -19.9478  -19.9478  -19.9478  -17.0007  -17.0007
  -17.0007  -17.0007  -16.8825  -16.8825  -16.8321  -16.8321  -16.8321  -16.8321  -16.7582  -16.7582
  -15.5640  -15.5491  -15.5491  -15.4692  -15.4692  -15.4307  -15.3354  -15.3354  -14.5632  -14.5632
  -14.3959  -14.3958  -14.3098  -14.3098  -13.4471  -13.4470  -13.3908  -13.3908  -13.3409  -13.3409
  -12.1058  -12.1058  -11.7830  -11.7830  -11.7830  -11.7830  -11.2868  -10.2510   -9.9318   -9.9318
   -9.9318   -9.9317   -6.0248   -5.8844   -5.8844   -5.8844   -5.8844   -5.5056   -4.9390   -4.9390
   -4.9390   -4.9390   -2.0670   -2.0670   -1.3369   -1.3369    0.6809    0.6935    0.6935    1.1440
    1.1440    1.2686    1.4272    1.4272    1.6772    1.6772    3.4673    3.4673    3.4673    3.4673
    3.6324    3.6324    3.7208    3.7208    3.8710    3.8710    3.8710    3.8711    3.8874    3.8874
    3.9914    3.9914    4.2824    4.2824    4.4444    4.4444    5.8973    5.8973    6.1556    6.1556
    8.8909    8.8909    8.8909    8.8909    9.0356    9.0356    9.0356    9.0356   10.1586   10.1586
   10.2509   10.2509   11.4129   11.4515   13.3279   13.4806   14.0005   14.0005   14.0005   14.0005
   14.0283   14.0283   14.0283   14.0283
  21  1  -28.0186  -27.6001  -26.5615  -26.2526  -25.8761  -25.8761  -25.6093  -25.6093  -24.6041  -24.6041
         -24.3931  -24.3931  -24.0321  -23.8352  -22.4705  -22.4705  -22.3028  -22.3028  -20.6780  -20.6780
  -20.5492  -20.5492  -20.3371  -20.1443  -19.4192  -19.4192  -19.2053  -19.2053  -18.3077  -18.3077
  -18.1814  -18.1814  -17.5420  -17.5420  -17.3206  -17.3206  -16.5404  -16.3125  -15.9974  -15.6984
  -15.6984  -15.5476  -15.5476  -15.4163  -15.2830  -15.1036  -15.1036  -14.9578  -14.9578  -14.7809
  -14.2927  -14.1681  -14.1552  -14.1552  -13.8683  -12.9709  -12.8944  -12.8944  -12.8845  -12.6664
  -12.5947  -12.5910  -12.3073  -11.9566  -11.9566  -10.8197  -10.8197  -10.4686  -10.4143  -10.4143
   -8.9641   -8.9641   -7.1718   -7.1718   -6.3174   -6.3174   -5.4082   -4.6113   -4.6113   -4.3152
   -3.5541   -3.5541   -2.4416   -2.4416   -1.6068   -1.6068   -1.1633   -0.4304    0.7589    1.0616
    1.1943    1.2098    1.3440    1.6164    1.6164    1.6169    1.6812    1.6946    1.8577    1.8577
    2.0236    2.1447    2.1447    2.3386    2.3386    2.4884    4.6301    4.9037    5.7113    5.7113
    5.9227    5.9227    6.2625    6.3572    6.6577    6.6577    6.8517    6.8517    8.0118    8.2514
    8.4422    8.4422    8.5562    8.5562    9.1210    9.1210    9.2463    9.2463   10.1136   10.1136
   10.2409   10.2409   10.7177   10.7798   12.3021   12.3021   12.3794   12.3794   12.5284   12.6451
   15.0633   15.0633   15.0681   15.0681
  22  1  -28.0186  -27.6001  -26.5615  -26.2526  -25.8761  -25.8761  -25.6093  -25.6093  -24.6041  -24.6041
         -24.3931  -24.3931  -24.0321  -23.8352  -22.4705  -22.4705  -22.3028  -22.3028  -20.6780  -20.6780
  -20.5492  -20.5492  -20.3371  -20.1443  -19.4192  -19.4192  -19.2053  -19.2053  -18.3077  -18.3077
  -18.1814  -18.1814  -17.5420  -17.5420  -17.3206  -17.3206  -16.5404  -16.3125  -15.9974  -15.6984
  -15.6984  -15.5476  -15.5476  -15.4163  -15.2830  -15.1036  -15.1036  -14.9578  -14.9578  -14.7809
  -14.2927  -14.1681  -14.1552  -14.1552  -13.8683  -12.9709  -12.8944  -12.8944  -12.8845  -12.6664
  -12.5947  -12.5910  -12.3073  -11.9566  -11.9566  -10.8197  -10.8197  -10.4686  -10.4143  -10.4143
   -8.9641   -8.9641   -7.1718   -7.1718   -6.3174   -6.3174   -5.4082   -4.6113   -4.6113   -4.3152
   -3.5541   -3.5541   -2.4416   -2.4416   -1.6068   -1.6068   -1.1633   -0.4304    0.7589    1.0616
    1.1943    1.2098    1.3440    1.6164    1.6164    1.6169    1.6812    1.6946    1.8577    1.8577
    2.0236    2.1447    2.1447    2.3386    2.3386    2.4884    4.6301    4.9037    5.7113    5.7113
    5.9227    5.9227    6.2625    6.3572    6.6577    6.6577    6.8517    6.8517    8.0118    8.2514
    8.4422    8.4422    8.5562    8.5562    9.1210    9.1210    9.2463    9.2463   10.1136   10.1136
   10.2409   10.2409   10.7177   10.7798   12.3021   12.3021   12.3794   12.3794   12.5284   12.6451
   15.0633   15.0633   15.0681   15.0681
  23  1  -27.6441  -27.2563  -26.9152  -26.9151  -26.5824  -26.5824  -24.9056  -24.9056  -24.6865  -24.6865
         -23.7239  -23.5401  -23.2744  -23.2744  -23.0965  -23.0965  -22.6080  -22.4584  -21.1488  -21.1336
  -21.0090  -21.0090  -20.8692  -20.8692  -19.4654  -19.3308  -18.4719  -18.4719  -18.2951  -18.2951
  -17.6808  -17.5628  -17.1757  -17.0065  -16.4510  -16.4509  -16.2924  -16.2924  -16.0014  -16.0014
  -15.8510  -15.8510  -15.6989  -15.6211  -15.6211  -15.4605  -15.4605  -15.0884  -15.0884  -14.2539
  -14.2539  -14.1348  -14.1348  -13.9726  -13.8889  -13.5535  -13.2935  -13.2222  -13.1944  -13.1944
  -12.9090  -12.9089  -11.8968  -11.4940  -11.4940  -11.0286  -11.0286  -10.7104  -10.0948  -10.0948
   -9.8899   -9.6743   -6.3040   -6.2657   -6.0330   -6.0330   -5.7645   -5.2706   -5.2706   -4.8083
   -4.0305   -4.0305   -3.1470   -3.1470   -0.4115   -0.4115    0.2190    0.2191    1.1131    1.4689
    1.4689    1.5750    1.7697    1.9808    2.0067    2.0067    2.0557    2.0558    2.4208    2.4208
    2.4971    2.6029    3.3976    3.6641    3.6641    3.8047    4.0405    4.0405    4.1427    4.1427
    4.3547    4.3547    5.3861    5.5256    5.5882    5.8106    6.6114    6.6114    6.8662    6.8663
    7.1758    7.4176    7.6578    7.6578    7.8210    7.8210    9.8395    9.9019   10.6753   10.6753
   10.7217   10.7217   12.4213   12.4213   12.4771   12.4771   13.6240   13.6240   13.7023   13.7023
   14.1459   14.1649   14.5714   14.5990
  24  1  -27.6441  -27.2563  -26.9152  -26.9151  -26.5824  -26.5824  -24.9056  -24.9056  -24.6865  -24.6865
         -23.7239  -23.5401  -23.2744  -23.2744  -23.0965  -23.0965  -22.6080  -22.4584  -21.1488  -21.1336
  -21.0090  -21.0090  -20.8692  -20.8692  -19.4654  -19.3308  -18.4719  -18.4719  -18.2951  -18.2951
  -17.6808  -17.5628  -17.1757  -17.0065  -16.4510  -16.4509  -16.2924  -16.2924  -16.0014  -16.0014
  -15.8510  -15.8510  -15.6989  -15.6211  -15.6211  -15.4605  -15.4605  -15.0884  -15.0884  -14.2539
  -14.2539  -14.1348  -14.1348  -13.9726  -13.8889  -13.5535  -13.2935  -13.2222  -13.1944  -13.1944
  -12.9090  -12.9089  -11.8968  -11.4940  -11.4940  -11.0286  -11.0286  -10.7104  -10.0948  -10.0948
   -9.8899   -9.6743   -6.3040   -6.2657   -6.0330   -6.0330   -5.7645   -5.2706   -5.2706   -4.8083
   -4.0305   -4.0305   -3.1470   -3.1470   -0.4115   -0.4115    0.2190    0.2191    1.1131    1.4689
    1.4689    1.5750    1.7697    1.9808    2.0067    2.0067    2.0557    2.0558    2.4208    2.4208
    2.4971    2.6029    3.3976    3.6641    3.6641    3.8047    4.0405    4.0405    4.1427    4.1427
    4.3547    4.3547    5.3861    5.5256    5.5882    5.8106    6.6114    6.6114    6.8662    6.8663
    7.1758    7.4176    7.6578    7.6578    7.8210    7.8210    9.8395    9.9019   10.6753   10.6753
   10.7217   10.7217   12.4213   12.4213   12.4771   12.4771   13.6240   13.6240   13.7023   13.7023
   14.1459   14.1649   14.5714   14.5990
  25  1  -27.6441  -27.2563  -26.9152  -26.9151  -26.5824  -26.5824  -24.9056  -24.9056  -24.6865  -24.6865
         -23.7239  -23.5401  -23.2744  -23.2744  -23.0965  -23.0965  -22.6080  -22.4584  -21.1488  -21.1336
  -21.0090  -21.0090  -20.8692  -20.8692  -19.4654  -19.3308  -18.4719  -18.4719  -18.2951  -18.2951
  -17.6808  -17.5628  -17.1757  -17.0065  -16.4510  -16.4509  -16.2924  -16.2924  -16.0014  -16.0014
  -15.8510  -15.8510  -15.6989  -15.6211  -15.6211  -15.4605  -15.4605  -15.0884  -15.0884  -14.2539
  -14.2539  -14.1348  -14.1348  -13.9726  -13.8889  -13.5535  -13.2935  -13.2222  -13.1944  -13.1944
  -12.9090  -12.9089  -11.8968  -11.4940  -11.4940  -11.0286  -11.0286  -10.7104  -10.0948  -10.0948
   -9.8899   -9.6743   -6.3040   -6.2657   -6.0330   -6.0330   -5.7645   -5.2706   -5.2706   -4.8083
   -4.0305   -4.0305   -3.1470   -3.1470   -0.4115   -0.4115    0.2190    0.2191    1.1131    1.4689
    1.4689    1.5750    1.7697    1.9808    2.0067    2.0067    2.0557    2.0558    2.4208    2.4208
    2.4971    2.6029    3.3976    3.6641    3.6641    3.8047    4.0405    4.0405    4.1427    4.1427
    4.3547    4.3547    5.3861    5.5256    5.5882    5.8106    6.6114    6.6114    6.8662    6.8663
    7.1758    7.4176    7.6578    7.6578    7.8210    7.8210    9.8395    9.9019   10.6753   10.6753
   10.7217   10.7217   12.4213   12.4213   12.4771   12.4771   13.6240   13.6240   13.7023   13.7023
   14.1459   14.1649   14.5714   14.5990
  26  1  -27.4594  -27.4594  -27.0860  -27.0860  -26.0440  -26.0440  -25.7684  -25.7684  -23.5999  -23.5999
         -23.5999  -23.5999  -23.4164  -23.4164  -23.4164  -23.4164  -23.0225  -22.8651  -21.3971  -21.3832
  -20.1229  -20.1229  -20.1229  -20.1229  -19.9478  -19.9478  -19.9478  -19.9478  -17.0007  -17.0007
  -17.0007  -17.0007  -16.8825  -16.8825  -16.8321  -16.8321  -16.8321  -16.8321  -16.7582  -16.7582
  -15.5640  -15.5491  -15.5491  -15.4692  -15.4692  -15.4307  -15.3354  -15.3354  -14.5632  -14.5632
  -14.3959  -14.3958  -14.3098  -14.3098  -13.4471  -13.4470  -13.3908  -13.3908  -13.3409  -13.3409
  -12.1058  -12.1058  -11.7830  -11.7830  -11.7830  -11.7830  -11.2868  -10.2510   -9.9318   -9.9318
   -9.9318   -9.9317   -6.0248   -5.8844   -5.8844   -5.8844   -5.8844   -5.5056   -4.9390   -4.9390
   -4.9390   -4.9390   -2.0670   -2.0670   -1.3369   -1.3369    0.6809    0.6935    0.6935    1.1440
    1.1440    1.2686    1.4272    1.4272    1.6772    1.6772    3.4673    3.4673    3.4673    3.4673
    3.6324    3.6324    3.7208    3.7208    3.8710    3.8710    3.8710    3.8711    3.8874    3.8874
    3.9914    3.9914    4.2824    4.2824    4.4444    4.4444    5.8973    5.8973    6.1556    6.1556
    8.8909    8.8909    8.8909    8.8909    9.0356    9.0356    9.0356    9.0356   10.1586   10.1586
   10.2509   10.2509   11.4129   11.4515   13.3279   13.4806   14.0005   14.0005   14.0005   14.0005
   14.0283   14.0283   14.0283   14.0283
  27  1  -27.6441  -27.2563  -26.9152  -26.9151  -26.5824  -26.5824  -24.9056  -24.9056  -24.6865  -24.6865
         -23.7239  -23.5401  -23.2744  -23.2744  -23.0965  -23.0965  -22.6080  -22.4584  -21.1488  -21.1336
  -21.0090  -21.0090  -20.8692  -20.8692  -19.4654  -19.3308  -18.4719  -18.4719  -18.2951  -18.2951
  -17.6808  -17.5628  -17.1757  -17.0065  -16.4510  -16.4509  -16.2924  -16.2924  -16.0014  -16.0014
  -15.8510  -15.8510  -15.6989  -15.6211  -15.6211  -15.4605  -15.4605  -15.0884  -15.0884  -14.2539
  -14.2539  -14.1348  -14.1348  -13.9726  -13.8889  -13.5535  -13.2935  -13.2222  -13.1944  -13.1944
  -12.9090  -12.9089  -11.8968  -11.4940  -11.4940  -11.0286  -11.0286  -10.7104  -10.0948  -10.0948
   -9.8899   -9.6743   -6.3040   -6.2657   -6.0330   -6.0330   -5.7645   -5.2706   -5.2706   -4.8083
   -4.0305   -4.0305   -3.1470   -3.1470   -0.4115   -0.4115    0.2190    0.2191    1.1131    1.4689
    1.4689    1.5750    1.7697    1.9808    2.0067    2.0067    2.0557    2.0558    2.4208    2.4208
    2.4971    2.6029    3.3976    3.6641    3.6641    3.8047    4.0405    4.0405    4.1427    4.1427
    4.3547    4.3547    5.3861    5.5256    5.5882    5.8106    6.6114    6.6114    6.8662    6.8663
    7.1758    7.4176    7.6578    7.6578    7.8210    7.8210    9.8395    9.9019   10.6753   10.6753
   10.7217   10.7217   12.4213   12.4213   12.4771   12.4771   13.6240   13.6240   13.7023   13.7023
   14.1459   14.1649   14.5714   14.5990
  28  1  -27.4594  -27.4594  -27.0860  -27.0860  -26.0440  -26.0440  -25.7684  -25.7684  -23.5999  -23.5999
         -23.5999  -23.5999  -23.4164  -23.4164  -23.4164  -23.4164  -23.0225  -22.8651  -21.3971  -21.3832
  -20.1229  -20.1229  -20.1229  -20.1229  -19.9478  -19.9478  -19.9478  -19.9478  -17.0007  -17.0007
  -17.0007  -17.0007  -16.8825  -16.8825  -16.8321  -16.8321  -16.8321  -16.8321  -16.7582  -16.7582
  -15.5640  -15.5491  -15.5491  -15.4692  -15.4692  -15.4307  -15.3354  -15.3354  -14.5632  -14.5632
  -14.3959  -14.3958  -14.3098  -14.3098  -13.4471  -13.4470  -13.3908  -13.3908  -13.3409  -13.3409
  -12.1058  -12.1058  -11.7830  -11.7830  -11.7830  -11.7830  -11.2868  -10.2510   -9.9318   -9.9318
   -9.9318   -9.9317   -6.0248   -5.8844   -5.8844   -5.8844   -5.8844   -5.5056   -4.9390   -4.9390
   -4.9390   -4.9390   -2.0670   -2.0670   -1.3369   -1.3369    0.6809    0.6935    0.6935    1.1440
    1.1440    1.2686    1.4272    1.4272    1.6772    1.6772    3.4673    3.4673    3.4673    3.4673
    3.6324    3.6324    3.7208    3.7208    3.8710    3.8710    3.8710    3.8711    3.8874    3.8874
    3.9914    3.9914    4.2824    4.2824    4.4444    4.4444    5.8973    5.8973    6.1556    6.1556
    8.8909    8.8909    8.8909    8.8909    9.0356    9.0356    9.0356    9.0356   10.1586   10.1586
   10.2509   10.2509   11.4129   11.4515   13.3279   13.4806   14.0005   14.0005   14.0005   14.0005
   14.0283   14.0283   14.0283   14.0283
  29  1  -27.4771  -27.4771  -26.7730  -26.7730  -26.7730  -26.7730  -24.8099  -24.8099  -24.8099  -24.8099
         -23.6393  -23.6393  -23.1891  -23.1891  -23.1890  -23.1890  -22.5310  -22.5310  -21.1492  -21.1492
  -20.9449  -20.9449  -20.9449  -20.9449  -19.3967  -19.3967  -18.3844  -18.3844  -18.3843  -18.3843
  -17.6284  -17.6284  -17.0931  -17.0931  -16.3770  -16.3770  -16.3770  -16.3770  -15.9269  -15.9269
  -15.9269  -15.9269  -15.5410  -15.5410  -15.5410  -15.5410  -14.7301  -14.7301  -14.2197  -14.2197
  -14.2197  -14.2197  -14.0927  -14.0927  -14.0926  -14.0926  -13.9258  -13.9258  -13.2631  -13.2631
  -12.2047  -12.2047  -12.2047  -12.2047  -10.9428  -10.9428  -10.7147  -10.7147  -10.7147  -10.7147
  -10.0376  -10.0376   -6.4896   -6.4896   -5.8168   -5.8168   -5.8168   -5.8168   -5.2992   -5.2992
   -3.6031   -3.6031   -3.6031   -3.6031   -0.1275   -0.1275   -0.1275   -0.1275    1.2912    1.2912
    1.7604    1.7604    1.7604    1.7604    1.9348    1.9348    2.2785    2.2785    2.2785    2.2785
    2.5508    2.5508    3.6185    3.6185    3.8703    3.8703    3.8703    3.8703    4.2607    4.2607
    4.2608    4.2608    5.4681    5.4681    5.7037    5.7037    6.7581    6.7581    6.7582    6.7582
    7.3116    7.3116    7.7420    7.7420    7.7421    7.7421    9.8739    9.8739   10.7004   10.7004
   10.7004   10.7004   12.4508   12.4508   12.4508   12.4508   13.6649   13.6649   13.6649   13.6649
   14.1564   14.1564   14.5859   14.5859
  30  1  -27.8375  -27.8375  -26.4298  -26.4298  -25.7620  -25.7620  -25.7620  -25.7620  -24.5107  -24.5107
         -24.5107  -24.5107  -23.9423  -23.9423  -22.3875  -22.3875  -22.3875  -22.3875  -20.6156  -20.6156
  -20.6156  -20.6156  -20.2455  -20.2455  -19.3163  -19.3163  -19.3163  -19.3163  -18.2481  -18.2481
  -18.2481  -18.2481  -17.4352  -17.4352  -17.4352  -17.4352  -16.4315  -16.4315  -15.6240  -15.6240
  -15.6240  -15.6240  -15.3496  -15.3496  -15.0327  -15.0327  -15.0327  -15.0327  -15.0239  -15.0239
  -14.2303  -14.2303  -13.8024  -13.8024  -13.1687  -13.1687  -13.1687  -13.1687  -12.9280  -12.9280
  -12.6308  -12.6308  -11.9268  -11.9268  -11.9268  -11.9268  -11.4015  -11.4015   -9.6074   -9.6074
   -9.6074   -9.6074   -6.8493   -6.8493   -6.8493   -6.8493   -4.9559   -4.9559   -4.1244   -4.1244
   -4.1244   -4.1244   -2.0484   -2.0484   -2.0484   -2.0484   -0.8321   -0.8321    1.0783    1.0783
    1.1240    1.1240    1.4908    1.4908    1.6550    1.6550    1.9062    1.9062    1.9062    1.9062
    2.1300    2.1300    2.1300    2.1300    2.2491    2.2491    4.7798    4.7798    5.8291    5.8291
    5.8291    5.8291    6.3094    6.3094    6.7673    6.7673    6.7673    6.7673    8.1472    8.1472
    8.5070    8.5070    8.5070    8.5070    9.1907    9.1907    9.1907    9.1907   10.1831   10.1831
   10.1831   10.1831   10.7485   10.7485   12.3467   12.3467   12.3467   12.3467   12.5944   12.5944
   15.0662   15.0662   15.0662   15.0662
  31  1  -27.8375  -27.8375  -26.4298  -26.4298  -25.7620  -25.7620  -25.7620  -25.7620  -24.5107  -24.5107
         -24.5107  -24.5107  -23.9423  -23.9423  -22.3875  -22.3875  -22.3875  -22.3875  -20.6156  -20.6156
  -20.6156  -20.6156  -20.2455  -20.2455  -19.3163  -19.3163  -19.3163  -19.3163  -18.2481  -18.2481
  -18.2481  -18.2481  -17.4352  -17.4352  -17.4352  -17.4352  -16.4315  -16.4315  -15.6240  -15.6240
  -15.6240  -15.6240  -15.3496  -15.3496  -15.0327  -15.0327  -15.0327  -15.0327  -15.0239  -15.0239
  -14.2303  -14.2303  -13.8024  -13.8024  -13.1687  -13.1687  -13.1687  -13.1687  -12.9280  -12.9280
  -12.6308  -12.6308  -11.9268  -11.9268  -11.9268  -11.9268  -11.4015  -11.4015   -9.6074   -9.6074
   -9.6074   -9.6074   -6.8493   -6.8493   -6.8493   -6.8493   -4.9559   -4.9559   -4.1244   -4.1244
   -4.1244   -4.1244   -2.0484   -2.0484   -2.0484   -2.0484   -0.8321   -0.8321    1.0783    1.0783
    1.1240    1.1240    1.4908    1.4908    1.6550    1.6550    1.9062    1.9062    1.9062    1.9062
    2.1300    2.1300    2.1300    2.1300    2.2491    2.2491    4.7798    4.7798    5.8291    5.8291
    5.8291    5.8291    6.3094    6.3094    6.7673    6.7673    6.7673    6.7673    8.1472    8.1472
    8.5070    8.5070    8.5070    8.5070    9.1907    9.1907    9.1907    9.1907   10.1831   10.1831
   10.1831   10.1831   10.7485   10.7485   12.3467   12.3467   12.3467   12.3467   12.5944   12.5944
   15.0662   15.0662   15.0662   15.0662
  32  1  -27.4771  -27.4771  -26.7730  -26.7730  -26.7730  -26.7730  -24.8099  -24.8099  -24.8099  -24.8099
         -23.6393  -23.6393  -23.1891  -23.1891  -23.1890  -23.1890  -22.5310  -22.5310  -21.1492  -21.1492
  -20.9449  -20.9449  -20.9449  -20.9449  -19.3967  -19.3967  -18.3844  -18.3844  -18.3843  -18.3843
  -17.6284  -17.6284  -17.0931  -17.0931  -16.3770  -16.3770  -16.3770  -16.3770  -15.9269  -15.9269
  -15.9269  -15.9269  -15.5410  -15.5410  -15.5410  -15.5410  -14.7301  -14.7301  -14.2197  -14.2197
  -14.2197  -14.2197  -14.0927  -14.0927  -14.0926  -14.0926  -13.9258  -13.9258  -13.2631  -13.2631
  -12.2047  -12.2047  -12.2047  -12.2047  -10.9428  -10.9428  -10.7147  -10.7147  -10.7147  -10.7147
  -10.0376  -10.0376   -6.4896   -6.4896   -5.8168   -5.8168   -5.8168   -5.8168   -5.2992   -5.2992
   -3.6031   -3.6031   -3.6031   -3.6031   -0.1275   -0.1275   -0.1275   -0.1275    1.2912    1.2912
    1.7604    1.7604    1.7604    1.7604    1.9348    1.9348    2.2785    2.2785    2.2785    2.2785
    2.5508    2.5508    3.6185    3.6185    3.8703    3.8703    3.8703    3.8703    4.2607    4.2607
    4.2608    4.2608    5.4681    5.4681    5.7037    5.7037    6.7581    6.7581    6.7582    6.7582
    7.3116    7.3116    7.7420    7.7420    7.7421    7.7421    9.8739    9.8739   10.7004   10.7004
   10.7004   10.7004   12.4508   12.4508   12.4508   12.4508   13.6649   13.6649   13.6649   13.6649
   14.1564   14.1564   14.5859   14.5859
  33  1  -27.8375  -27.8375  -26.4298  -26.4298  -25.7620  -25.7620  -25.7620  -25.7620  -24.5107  -24.5107
         -24.5107  -24.5107  -23.9423  -23.9423  -22.3875  -22.3875  -22.3875  -22.3875  -20.6156  -20.6156
  -20.6156  -20.6156  -20.2455  -20.2455  -19.3163  -19.3163  -19.3163  -19.3163  -18.2481  -18.2481
  -18.2481  -18.2481  -17.4352  -17.4352  -17.4352  -17.4352  -16.4315  -16.4315  -15.6240  -15.6240
  -15.6240  -15.6240  -15.3496  -15.3496  -15.0327  -15.0327  -15.0327  -15.0327  -15.0239  -15.0239
  -14.2303  -14.2303  -13.8024  -13.8024  -13.1687  -13.1687  -13.1687  -13.1687  -12.9280  -12.9280
  -12.6308  -12.6308  -11.9268  -11.9268  -11.9268  -11.9268  -11.4015  -11.4015   -9.6074   -9.6074
   -9.6074   -9.6074   -6.8493   -6.8493   -6.8493   -6.8493   -4.9559   -4.9559   -4.1244   -4.1244
   -4.1244   -4.1244   -2.0484   -2.0484   -2.0484   -2.0484   -0.8321   -0.8321    1.0783    1.0783
    1.1240    1.1240    1.4908    1.4908    1.6550    1.6550    1.9062    1.9062    1.9062    1.9062
    2.1300    2.1300    2.1300    2.1300    2.2491    2.2491    4.7798    4.7798    5.8291    5.8291
    5.8291    5.8291    6.3094    6.3094    6.7673    6.7673    6.7673    6.7673    8.1472    8.1472
    8.5070    8.5070    8.5070    8.5070    9.1907    9.1907    9.1907    9.1907   10.1831   10.1831
   10.1831   10.1831   10.7485   10.7485   12.3467   12.3467   12.3467   12.3467   12.5944   12.5944
   15.0662   15.0662   15.0662   15.0662
  34  1  -28.0196  -28.0196  -25.2794  -25.2794  -25.2794  -25.2794  -25.2794  -25.2794  -25.2794  -25.2794
         -25.2794  -25.2794  -25.2794  -25.2794  -21.3520  -21.3520  -21.3520  -21.3520  -21.3024  -21.3024
  -21.3024  -21.3024  -18.8807  -18.8807  -18.8807  -18.8807  -18.4185  -18.4185  -18.4185  -18.4185
  -18.4185  -18.4185  -18.4185  -18.4185  -18.4185  -18.4185  -18.4185  -18.4185  -15.1682  -15.1682
  -14.9152  -14.9152  -14.9152  -14.9152  -14.9152  -14.9152  -14.9151  -14.9151  -14.9151  -14.9151
  -14.9151  -14.9151  -12.7021  -12.7021  -12.7021  -12.7021  -12.7021  -12.7021  -12.7021  -12.7021
  -12.7021  -12.7021  -12.7021  -12.7021  -12.3031  -12.3031  -12.3031  -12.3031   -8.2776   -8.2776
   -8.2776   -8.2776   -8.2012   -8.2012   -8.2012   -8.2012   -2.9238   -2.9238   -2.9238   -2.9238
   -2.9238   -2.9238   -2.9238   -2.9238   -2.9238   -2.9238   -2.9238   -2.9238    0.8793    0.8793
    0.8793    0.8793    1.2765    1.2765    1.2765    1.2765    1.2765    1.2765    1.2766    1.2766
    1.2766    1.2766    1.2766    1.2766    2.6482    2.6482    4.4395    4.4395    7.5227    7.5227
    7.5227    7.5227    7.5500    7.5500    7.5500    7.5500    8.8799    8.8799    8.8799    8.8799
    8.8799    8.8799    8.8799    8.8799    8.8799    8.8799    8.8799    8.8799   10.5693   10.5693
   10.5693   10.5693   10.5693   10.5693   10.5693   10.5693   10.5693   10.5693   10.5693   10.5693
   15.4234   15.4234   15.4234   15.4234
  35  1  -27.8375  -27.8375  -26.4298  -26.4298  -25.7620  -25.7620  -25.7620  -25.7620  -24.5107  -24.5107
         -24.5107  -24.5107  -23.9423  -23.9423  -22.3875  -22.3875  -22.3875  -22.3875  -20.6156  -20.6156
  -20.6156  -20.6156  -20.2455  -20.2455  -19.3163  -19.3163  -19.3163  -19.3163  -18.2481  -18.2481
  -18.2481  -18.2481  -17.4352  -17.4352  -17.4352  -17.4352  -16.4315  -16.4315  -15.6240  -15.6240
  -15.6240  -15.6240  -15.3496  -15.3496  -15.0327  -15.0327  -15.0327  -15.0327  -15.0239  -15.0239
  -14.2303  -14.2303  -13.8024  -13.8024  -13.1687  -13.1687  -13.1687  -13.1687  -12.9280  -12.9280
  -12.6308  -12.6308  -11.9268  -11.9268  -11.9268  -11.9268  -11.4015  -11.4015   -9.6074   -9.6074
   -9.6074   -9.6074   -6.8493   -6.8493   -6.8493   -6.8493   -4.9559   -4.9559   -4.1244   -4.1244
   -4.1244   -4.1244   -2.0484   -2.0484   -2.0484   -2.0484   -0.8321   -0.8321    1.0783    1.0783
    1.1240    1.1240    1.4908    1.4908    1.6550    1.6550    1.9062    1.9062    1.9062    1.9062
    2.1300    2.1300    2.1300    2.1300    2.2491    2.2491    4.7798    4.7798    5.8291    5.8291
    5.8291    5.8291    6.3094    6.3094    6.7673    6.7673    6.7673    6.7673    8.1472    8.1472
    8.5070    8.5070    8.5070    8.5070    9.1907    9.1907    9.1907    9.1907   10.1831   10.1831
   10.1831   10.1831   10.7485   10.7485   12.3467   12.3467   12.3467   12.3467   12.5944   12.5944
   15.0662   15.0662   15.0662   15.0662
  36  1  -27.2990  -27.2990  -27.2990  -27.2990  -25.9264  -25.9264  -25.9264  -25.9264  -23.5146  -23.5146
         -23.5146  -23.5146  -23.5146  -23.5146  -23.5146  -23.5146  -22.9429  -22.9429  -21.4003  -21.4003
  -20.0380  -20.0380  -20.0380  -20.0380  -20.0380  -20.0380  -20.0380  -20.0380  -16.9190  -16.9190
  -16.9190  -16.9190  -16.9190  -16.9190  -16.9190  -16.9190  -16.8178  -16.8178  -16.8178  -16.8178
  -15.4972  -15.4972  -15.4114  -15.4114  -15.4114  -15.4114  -14.6050  -14.6050  -14.6050  -14.6050
  -14.4535  -14.4535  -14.4535  -14.4535  -13.3940  -13.3940  -13.3940  -13.3940  -13.3235  -13.3235
  -13.3235  -13.3235  -10.8711  -10.8711  -10.8711  -10.8711  -10.8711  -10.8711  -10.8711  -10.8711
  -10.6286  -10.6286   -5.9993   -5.9993   -5.4675   -5.4675   -5.4675   -5.4675   -5.4675   -5.4675
   -5.4675   -5.4675   -1.7200   -1.7200   -1.7199   -1.7199    0.8801    0.8801    0.8801    0.8801
    0.9994    0.9994    1.5977    1.5977    1.5977    1.5977    3.6760    3.6760    3.6760    3.6760
    3.6866    3.6866    3.6867    3.6867    3.6867    3.6867    3.6867    3.6867    4.0153    4.0153
    4.0153    4.0153    4.3346    4.3346    4.3346    4.3346    6.0357    6.0357    6.0358    6.0358
    8.9715    8.9715    8.9715    8.9715    8.9715    8.9715    8.9715    8.9715   10.2051   10.2051
   10.2051   10.2051   11.4319   11.4319   13.4058   13.4058   14.0160   14.0160   14.0160   14.0160
   14.0160   14.0160   14.0160   14.0160
  37  1  -27.8375  -27.8375  -26.4298  -26.4298  -25.7620  -25.7620  -25.7620  -25.7620  -24.5107  -24.5107
         -24.5107  -24.5107  -23.9423  -23.9423  -22.3875  -22.3875  -22.3875  -22.3875  -20.6156  -20.6156
  -20.6156  -20.6156  -20.2455  -20.2455  -19.3163  -19.3163  -19.3163  -19.3163  -18.2481  -18.2481
  -18.2481  -18.2481  -17.4352  -17.4352  -17.4352  -17.4352  -16.4315  -16.4315  -15.6240  -15.6240
  -15.6240  -15.6240  -15.3496  -15.3496  -15.0327  -15.0327  -15.0327  -15.0327  -15.0239  -15.0239
  -14.2303  -14.2303  -13.8024  -13.8024  -13.1687  -13.1687  -13.1687  -13.1687  -12.9280  -12.9280
  -12.6308  -12.6308  -11.9268  -11.9268  -11.9268  -11.9268  -11.4015  -11.4015   -9.6074   -9.6074
   -9.6074   -9.6074   -6.8493   -6.8493   -6.8493   -6.8493   -4.9559   -4.9559   -4.1244   -4.1244
   -4.1244   -4.1244   -2.0484   -2.0484   -2.0484   -2.0484   -0.8321   -0.8321    1.0783    1.0783
    1.1240    1.1240    1.4908    1.4908    1.6550    1.6550    1.9062    1.9062    1.9062    1.9062
    2.1300    2.1300    2.1300    2.1300    2.2491    2.2491    4.7798    4.7798    5.8291    5.8291
    5.8291    5.8291    6.3094    6.3094    6.7673    6.7673    6.7673    6.7673    8.1472    8.1472
    8.5070    8.5070    8.5070    8.5070    9.1907    9.1907    9.1907    9.1907   10.1831   10.1831
   10.1831   10.1831   10.7485   10.7485   12.3467   12.3467   12.3467   12.3467   12.5944   12.5944
   15.0662   15.0662   15.0662   15.0662
  38  1  -27.8375  -27.8375  -26.4298  -26.4298  -25.7620  -25.7620  -25.7620  -25.7620  -24.5107  -24.5107
         -24.5107  -24.5107  -23.9423  -23.9423  -22.3875  -22.3875  -22.3875  -22.3875  -20.6156  -20.6156
  -20.6156  -20.6156  -20.2455  -20.2455  -19.3163  -19.3163  -19.3163  -19.3163  -18.2481  -18.2481
  -18.2481  -18.2481  -17.4352  -17.4352  -17.4352  -17.4352  -16.4315  -16.4315  -15.6240  -15.6240
  -15.6240  -15.6240  -15.3496  -15.3496  -15.0327  -15.0327  -15.0327  -15.0327  -15.0239  -15.0239
  -14.2303  -14.2303  -13.8024  -13.8024  -13.1687  -13.1687  -13.1687  -13.1687  -12.9280  -12.9280
  -12.6308  -12.6308  -11.9268  -11.9268  -11.9268  -11.9268  -11.4015  -11.4015   -9.6074   -9.6074
   -9.6074   -9.6074   -6.8493   -6.8493   -6.8493   -6.8493   -4.9559   -4.9559   -4.1244   -4.1244
   -4.1244   -4.1244   -2.0484   -2.0484   -2.0484   -2.0484   -0.8321   -0.8321    1.0783    1.0783
    1.1240    1.1240    1.4908    1.4908    1.6550    1.6550    1.9062    1.9062    1.9062    1.9062
    2.1300    2.1300    2.1300    2.1300    2.2491    2.2491    4.7798    4.7798    5.8291    5.8291
    5.8291    5.8291    6.3094    6.3094    6.7673    6.7673    6.7673    6.7673    8.1472    8.1472
    8.5070    8.5070    8.5070    8.5070    9.1907    9.1907    9.1907    9.1907   10.1831   10.1831
   10.1831   10.1831   10.7485   10.7485   12.3467   12.3467   12.3467   12.3467   12.5944   12.5944
   15.0662   15.0662   15.0662   15.0662
  39  1  -27.4771  -27.4771  -26.7730  -26.7730  -26.7730  -26.7730  -24.8099  -24.8099  -24.8099  -24.8099
         -23.6393  -23.6393  -23.1891  -23.1891  -23.1890  -23.1890  -22.5310  -22.5310  -21.1492  -21.1492
  -20.9449  -20.9449  -20.9449  -20.9449  -19.3967  -19.3967  -18.3844  -18.3844  -18.3843  -18.3843
  -17.6284  -17.6284  -17.0931  -17.0931  -16.3770  -16.3770  -16.3770  -16.3770  -15.9269  -15.9269
  -15.9269  -15.9269  -15.5410  -15.5410  -15.5410  -15.5410  -14.7301  -14.7301  -14.2197  -14.2197
  -14.2197  -14.2197  -14.0927  -14.0927  -14.0926  -14.0926  -13.9258  -13.9258  -13.2631  -13.2631
  -12.2047  -12.2047  -12.2047  -12.2047  -10.9428  -10.9428  -10.7147  -10.7147  -10.7147  -10.7147
  -10.0376  -10.0376   -6.4896   -6.4896   -5.8168   -5.8168   -5.8168   -5.8168   -5.2992   -5.2992
   -3.6031   -3.6031   -3.6031   -3.6031   -0.1275   -0.1275   -0.1275   -0.1275    1.2912    1.2912
    1.7604    1.7604    1.7604    1.7604    1.9348    1.9348    2.2785    2.2785    2.2785    2.2785
    2.5508    2.5508    3.6185    3.6185    3.8703    3.8703    3.8703    3.8703    4.2607    4.2607
    4.2608    4.2608    5.4681    5.4681    5.7037    5.7037    6.7581    6.7581    6.7582    6.7582
    7.3116    7.3116    7.7420    7.7420    7.7421    7.7421    9.8739    9.8739   10.7004   10.7004
   10.7004   10.7004   12.4508   12.4508   12.4508   12.4508   13.6649   13.6649   13.6649   13.6649
   14.1564   14.1564   14.5859   14.5859
  40  1  -27.4771  -27.4771  -26.7730  -26.7730  -26.7730  -26.7730  -24.8099  -24.8099  -24.8099  -24.8099
         -23.6393  -23.6393  -23.1891  -23.1891  -23.1890  -23.1890  -22.5310  -22.5310  -21.1492  -21.1492
  -20.9449  -20.9449  -20.9449  -20.9449  -19.3967  -19.3967  -18.3844  -18.3844  -18.3843  -18.3843
  -17.6284  -17.6284  -17.0931  -17.0931  -16.3770  -16.3770  -16.3770  -16.3770  -15.9269  -15.9269
  -15.9269  -15.9269  -15.5410  -15.5410  -15.5410  -15.5410  -14.7301  -14.7301  -14.2197  -14.2197
  -14.2197  -14.2197  -14.0927  -14.0927  -14.0926  -14.0926  -13.9258  -13.9258  -13.2631  -13.2631
  -12.2047  -12.2047  -12.2047  -12.2047  -10.9428  -10.9428  -10.7147  -10.7147  -10.7147  -10.7147
  -10.0376  -10.0376   -6.4896   -6.4896   -5.8168   -5.8168   -5.8168   -5.8168   -5.2992   -5.2992
   -3.6031   -3.6031   -3.6031   -3.6031   -0.1275   -0.1275   -0.1275   -0.1275    1.2912    1.2912
    1.7604    1.7604    1.7604    1.7604    1.9348    1.9348    2.2785    2.2785    2.2785    2.2785
    2.5508    2.5508    3.6185    3.6185    3.8703    3.8703    3.8703    3.8703    4.2607    4.2607
    4.2608    4.2608    5.4681    5.4681    5.7037    5.7037    6.7581    6.7581    6.7582    6.7582
    7.3116    7.3116    7.7420    7.7420    7.7421    7.7421    9.8739    9.8739   10.7004   10.7004
   10.7004   10.7004   12.4508   12.4508   12.4508   12.4508   13.6649   13.6649   13.6649   13.6649
   14.1564   14.1564   14.5859   14.5859
  41  1  -27.4771  -27.4771  -26.7730  -26.7730  -26.7730  -26.7730  -24.8099  -24.8099  -24.8099  -24.8099
         -23.6393  -23.6393  -23.1891  -23.1891  -23.1890  -23.1890  -22.5310  -22.5310  -21.1492  -21.1492
  -20.9449  -20.9449  -20.9449  -20.9449  -19.3967  -19.3967  -18.3844  -18.3844  -18.3843  -18.3843
  -17.6284  -17.6284  -17.0931  -17.0931  -16.3770  -16.3770  -16.3770  -16.3770  -15.9269  -15.9269
  -15.9269  -15.9269  -15.5410  -15.5410  -15.5410  -15.5410  -14.7301  -14.7301  -14.2197  -14.2197
  -14.2197  -14.2197  -14.0927  -14.0927  -14.0926  -14.0926  -13.9258  -13.9258  -13.2631  -13.2631
  -12.2047  -12.2047  -12.2047  -12.2047  -10.9428  -10.9428  -10.7147  -10.7147  -10.7147  -10.7147
  -10.0376  -10.0376   -6.4896   -6.4896   -5.8168   -5.8168   -5.8168   -5.8168   -5.2992   -5.2992
   -3.6031   -3.6031   -3.6031   -3.6031   -0.1275   -0.1275   -0.1275   -0.1275    1.2912    1.2912
    1.7604    1.7604    1.7604    1.7604    1.9348    1.9348    2.2785    2.2785    2.2785    2.2785
    2.5508    2.5508    3.6185    3.6185    3.8703    3.8703    3.8703    3.8703    4.2607    4.2607
    4.2608    4.2608    5.4681    5.4681    5.7037    5.7037    6.7581    6.7581    6.7582    6.7582
    7.3116    7.3116    7.7420    7.7420    7.7421    7.7421    9.8739    9.8739   10.7004   10.7004
   10.7004   10.7004   12.4508   12.4508   12.4508   12.4508   13.6649   13.6649   13.6649   13.6649
   14.1564   14.1564   14.5859   14.5859
  42  1  -27.2990  -27.2990  -27.2990  -27.2990  -25.9264  -25.9264  -25.9264  -25.9264  -23.5146  -23.5146
         -23.5146  -23.5146  -23.5146  -23.5146  -23.5146  -23.5146  -22.9429  -22.9429  -21.4003  -21.4003
  -20.0380  -20.0380  -20.0380  -20.0380  -20.0380  -20.0380  -20.0380  -20.0380  -16.9190  -16.9190
  -16.9190  -16.9190  -16.9190  -16.9190  -16.9190  -16.9190  -16.8178  -16.8178  -16.8178  -16.8178
  -15.4972  -15.4972  -15.4114  -15.4114  -15.4114  -15.4114  -14.6050  -14.6050  -14.6050  -14.6050
  -14.4535  -14.4535  -14.4535  -14.4535  -13.3940  -13.3940  -13.3940  -13.3940  -13.3235  -13.3235
  -13.3235  -13.3235  -10.8711  -10.8711  -10.8711  -10.8711  -10.8711  -10.8711  -10.8711  -10.8711
  -10.6286  -10.6286   -5.9993   -5.9993   -5.4675   -5.4675   -5.4675   -5.4675   -5.4675   -5.4675
   -5.4675   -5.4675   -1.7200   -1.7200   -1.7199   -1.7199    0.8801    0.8801    0.8801    0.8801
    0.9994    0.9994    1.5977    1.5977    1.5977    1.5977    3.6760    3.6760    3.6760    3.6760
    3.6866    3.6866    3.6867    3.6867    3.6867    3.6867    3.6867    3.6867    4.0153    4.0153
    4.0153    4.0153    4.3346    4.3346    4.3346    4.3346    6.0357    6.0357    6.0358    6.0358
    8.9715    8.9715    8.9715    8.9715    8.9715    8.9715    8.9715    8.9715   10.2051   10.2051
   10.2051   10.2051   11.4319   11.4319   13.4058   13.4058   14.0160   14.0160   14.0160   14.0160
   14.0160   14.0160   14.0160   14.0160
  43  1  -27.4771  -27.4771  -26.7730  -26.7730  -26.7730  -26.7730  -24.8099  -24.8099  -24.8099  -24.8099
         -23.6393  -23.6393  -23.1891  -23.1891  -23.1890  -23.1890  -22.5310  -22.5310  -21.1492  -21.1492
  -20.9449  -20.9449  -20.9449  -20.9449  -19.3967  -19.3967  -18.3844  -18.3844  -18.3843  -18.3843
  -17.6284  -17.6284  -17.0931  -17.0931  -16.3770  -16.3770  -16.3770  -16.3770  -15.9269  -15.9269
  -15.9269  -15.9269  -15.5410  -15.5410  -15.5410  -15.5410  -14.7301  -14.7301  -14.2197  -14.2197
  -14.2197  -14.2197  -14.0927  -14.0927  -14.0926  -14.0926  -13.9258  -13.9258  -13.2631  -13.2631
  -12.2047  -12.2047  -12.2047  -12.2047  -10.9428  -10.9428  -10.7147  -10.7147  -10.7147  -10.7147
  -10.0376  -10.0376   -6.4896   -6.4896   -5.8168   -5.8168   -5.8168   -5.8168   -5.2992   -5.2992
   -3.6031   -3.6031   -3.6031   -3.6031   -0.1275   -0.1275   -0.1275   -0.1275    1.2912    1.2912
    1.7604    1.7604    1.7604    1.7604    1.9348    1.9348    2.2785    2.2785    2.2785    2.2785
    2.5508    2.5508    3.6185    3.6185    3.8703    3.8703    3.8703    3.8703    4.2607    4.2607
    4.2608    4.2608    5.4681    5.4681    5.7037    5.7037    6.7581    6.7581    6.7582    6.7582
    7.3116    7.3116    7.7420    7.7420    7.7421    7.7421    9.8739    9.8739   10.7004   10.7004
   10.7004   10.7004   12.4508   12.4508   12.4508   12.4508   13.6649   13.6649   13.6649   13.6649
   14.1564   14.1564   14.5859   14.5859
  44  1  -27.2990  -27.2990  -27.2990  -27.2990  -25.9264  -25.9264  -25.9264  -25.9264  -23.5146  -23.5146
         -23.5146  -23.5146  -23.5146  -23.5146  -23.5146  -23.5146  -22.9429  -22.9429  -21.4003  -21.4003
  -20.0380  -20.0380  -20.0380  -20.0380  -20.0380  -20.0380  -20.0380  -20.0380  -16.9190  -16.9190
  -16.9190  -16.9190  -16.9190  -16.9190  -16.9190  -16.9190  -16.8178  -16.8178  -16.8178  -16.8178
  -15.4972  -15.4972  -15.4114  -15.4114  -15.4114  -15.4114  -14.6050  -14.6050  -14.6050  -14.6050
  -14.4535  -14.4535  -14.4535  -14.4535  -13.3940  -13.3940  -13.3940  -13.3940  -13.3235  -13.3235
  -13.3235  -13.3235  -10.8711  -10.8711  -10.8711  -10.8711  -10.8711  -10.8711  -10.8711  -10.8711
  -10.6286  -10.6286   -5.9993   -5.9993   -5.4675   -5.4675   -5.4675   -5.4675   -5.4675   -5.4675
   -5.4675   -5.4675   -1.7200   -1.7200   -1.7199   -1.7199    0.8801    0.8801    0.8801    0.8801
    0.9994    0.9994    1.5977    1.5977    1.5977    1.5977    3.6760    3.6760    3.6760    3.6760
    3.6866    3.6866    3.6867    3.6867    3.6867    3.6867    3.6867    3.6867    4.0153    4.0153
    4.0153    4.0153    4.3346    4.3346    4.3346    4.3346    6.0357    6.0357    6.0358    6.0358
    8.9715    8.9715    8.9715    8.9715    8.9715    8.9715    8.9715    8.9715   10.2051   10.2051
   10.2051   10.2051   11.4319   11.4319   13.4058   13.4058   14.0160   14.0160   14.0160   14.0160
   14.0160   14.0160   14.0160   14.0160
siesta: Fermi energy =      -8.264223 eV

siesta: Program's energy decomposition (eV):
siesta: Ebs     =     -2549.186063
siesta: Eions   =      9434.507561
siesta: Ena     =      2259.437738
siesta: Ekin    =      3692.236357
siesta: Enl     =      -350.818566
siesta: Eso     =         0.000000
siesta: Edftu   =         0.000000
siesta: DEna    =       -36.011046
siesta: DUscf   =         2.922543
siesta: DUext   =         0.000000
siesta: Exc     =     -1652.572399
siesta: eta*DQ  =         0.000000
siesta: Emadel  =         0.000000
siesta: Emeta   =         0.000000
siesta: Emolmec =        -6.269829
siesta: Ekinion =         0.000000
siesta: Eharris =     -5525.582787
siesta: Etot    =     -5525.582762
siesta: FreeEng =     -5525.591400

siesta: Final energy (eV):
siesta:  Band Struct. =   -2549.186063
siesta:       Kinetic =    3692.236357
siesta:       Hartree =     839.068911
siesta:       Edftu   =       0.000000
siesta:       Eso     =       0.000000
siesta:    Ext. field =       0.000000
siesta:   Exch.-corr. =   -1652.572399
siesta:  Ion-electron =   -5759.539816
siesta:       Ion-ion =   -2638.505987
siesta:       Ekinion =       0.000000
siesta:         Total =   -5525.582762
siesta:         Fermi =      -8.264223

siesta: Stress tensor (static) (eV/Ang**3):
siesta:    -0.233225    0.000000   -0.000000
siesta:     0.000000   -0.233225   -0.000000
siesta:    -0.000000   -0.000000    0.146259

siesta: Cell volume =        266.760224 Ang**3

siesta: Pressure (static):
siesta:                Solid            Molecule  Units
siesta:           0.00116243          0.00116246  Ry/Bohr**3
siesta:           0.10673023          0.10673335  eV/Ang**3
siesta:         171.00252577        171.00752605  kBar
(Free)E+ p_basis*V_orbitals  =       -5507.288354
(Free)Eharris+ p_basis*V_orbitals  =       -5507.288379

cite: Please see "graphite_scf.bib" for an exhaustive BiBTeX file.
cite: Please clearly indicate Siesta version in published work: 4.1.5
cite: This calculation has made use of the following articles
cite: which are encouraged to be cited in a published work.
        Primary SIESTA paper
          DOI: www.doi.org/10.1088/0953-8984/14/11/302

>> End of run:   1-NOV-2022  14:20:37
Job completed
