Siesta Version  : 4.1.5
Architecture    : x86_64-unknown-linux-gnu--unknown
Compiler version: GNU Fortran (GCC) 11.3.0
Compiler flags  : mpif90 -g -O2 -fallow-argument-mismatch
PP flags        : -DMPI -DFC_HAVE_FLUSH -DFC_HAVE_ABORT
Libraries       :  -I/global/software/sl-7.x86_64/modules/intel/2020.4.304/mkl/include  /globall/software/sl-7.x86_64/modules/intel/2020.4.304/mkl/lib/intel64/libmkl_scalapack_lp64.a -Wl,--start-group /global/software/sl-7.x86_64/modules/intel/2020.4.304/mkl/lib/intel64/libmkl_intel_lp64.a /global/software/sl-7.x86_64/modules/intel/2020.4.304/mkl/lib/intel64/libmkl_sequential.a /global/software/sl-7.x86_64/modules/intel/2020.4.304/mkl/lib/intel64/libmkl_core.a /global/software/sl-7.x86_64/modules/intel/2020.4.304/mkl/lib/intel64/libmkl_blacs_openmpi_lp64.a -Wl,--end-group -lpthread -lm -ldl
PARALLEL version

* Running on 20 nodes in parallel
>> Start of run:   1-NOV-2022  14:31:01

                           ***********************       
                           *  WELCOME TO SIESTA  *       
                           ***********************       

reinit: Reading from standard input
reinit: Dumped input in INPUT_TMP.46865
************************** Dump of input data file ****************************
SystemName graphite_scf
SystemLabel graphite_scf
NumberOfAtoms   36
NumberOfSpecies 1
%block ChemicalSpeciesLabel
1  6   C-gga
%endblock ChemicalSpeciesLabel
PAO.BasisSize  SZ
PAO.EnergyShift  10 meV
%block PS.Lmax
C-gga   2
%endblock PS.Lmax
LatticeConstant 1.000000 Ang
%block LatticeVectors
	7.3920000000	0.0000000000	0.0000000000
	-3.6960000000	6.4016597848	0.0000000000
	0.0000000000	0.0000000000	7.5163200000
%endblock LatticeVectors
AtomicCoordinatesFormat Ang
%block AtomicCoordinatesAndAtomicSpecies
	0.00000000	0.00000000	1.87908000	1
	0.00000000	0.00000000	5.63724000	1
	-1.23200000	2.13388659	1.87908000	1
	-2.46400000	4.26777319	5.63724000	1
	2.46400000	4.26777319	1.87908000	1
	1.23200000	2.13388659	5.63724000	1
	2.46400000	0.00000000	1.87908000	1
	4.92800000	0.00000000	5.63724000	1
	2.46400000	0.00000000	5.63724000	1
	4.92800000	0.00000000	1.87908000	1
	2.46400000	4.26777319	5.63724000	1
	1.23200000	2.13388659	1.87908000	1
	-1.23200000	2.13388659	5.63724000	1
	-2.46400000	4.26777319	1.87908000	1
	0.00000000	4.26777319	1.87908000	1
	3.69600000	2.13388659	5.63724000	1
	3.69600000	2.13388659	1.87908000	1
	0.00000000	4.26777319	5.63724000	1
	0.00000000	1.42258964	1.87908000	1
	3.69600000	4.97907014	5.63724000	1
	2.46400123	5.69036496	1.87908000	1
	1.23199877	0.71129482	5.63724000	1
	-2.46400123	5.69036496	1.87908000	1
	6.16000123	0.71129482	5.63724000	1
	-1.23200000	3.55647624	1.87908000	1
	4.92800000	2.84518355	5.63724000	1
	1.23200123	3.55647837	1.87908000	1
	2.46399877	2.84518142	5.63724000	1
	-0.00000123	5.69036496	1.87908000	1
	3.69600123	0.71129482	5.63724000	1
	2.46400000	1.42258964	1.87908000	1
	1.23200000	4.97907014	5.63724000	1
	4.92800123	1.42259177	1.87908000	1
	-1.23200123	4.97906801	5.63724000	1
	3.69599877	3.55647837	1.87908000	1
	0.00000123	2.84518142	5.63724000	1
%endblock AtomicCoordinatesAndAtomicSpecies
Kgrid_NoTRS  T
%block kgrid_MonkhorstPack
4       0       0       0.0
0       4       0       0.0
0       0       4       0.0
%endblock kgrid_MonkhorstPack
AtomCoorFormatOut Ang
BlockSize 1
#ProcessorY 12
Diag.ParallelOverK   T
Diag.DivideAndConquer F
MeshCutoff   300 Ry
SCF.FreeE.Tolerance 1E-3 eV
SCF.EDM.Tolerance   5E-3 eV
DM.Tolerance  1E-3
DM.Require.Energy.Convergence T
DM.NumberPulay 4
#XC.Functional GGA
#CX.Authors    PBE
UseSaveData        F
SolutionMethod     diagon
MD.TypeOfRun       CG
MD.VariableCell    F
MD.NumCGsteps      00
MD.MaxCGDispl      0.200000 Bohr
#MD.MaxStressTol    1.000000 GPa
#MD.MaxForceTol     0.010000 eV/Ang
WriteMDHistory T
WriteCoorStep T
WriteForces T
WriteCoorStep    T
WriteEigenValues T
WriteDM    F
MM.UnitsDistance Ang  # what this program prints out DO NOT CHANGE
MM.UnitsEnergy    eV  # what this program prints out DO NOT CHANGE
MM.Grimme.S6     0.75 # Grimme-paper for PBE (correct for your functional)
MM.Grimme.D     20.   # Grimme-paper (correct for your functional)
%block MM.Potentials
  1   1 Grimme     18.14      2.904 # C, 10.1002/jcc.20495
%endblock MM.Potentials
#%block ProjectedDensityOfStates
# -200.0  120.0  0.4  12800  eV
#%endblock ProjectedDensityOfStates
************************** End of input data file *****************************

reinit: -----------------------------------------------------------------------
reinit: System Name: graphite_scf
reinit: -----------------------------------------------------------------------
reinit: System Label: graphite_scf
reinit: -----------------------------------------------------------------------
Reading two-body potentials
Grimme - two-body potential between 1 and 1

initatom: Reading input for the pseudopotentials and atomic orbitals ----------
Species number:   1 Atomic number:    6 Label: C-gga

Ground state valence configuration:   2s02  2p02
Reading pseudopotential information in formatted form from C-gga.psf

Valence configuration for pseudopotential generation:
2s( 2.00) rc: 1.56
2p( 2.00) rc: 1.56
3d( 0.00) rc: 1.56
4f( 0.00) rc: 1.56
relmxkb: Read Max KB Ang. Momentum=    2 for species C-gga

<basis_specs>
===============================================================================
C-gga                Z=   6    Mass=  12.010        Charge= 0.17977+309
Lmxo=1 Lmxkb= 2    BasisType=split      Semic=F
L=0  Nsemic=0  Cnfigmx=2
          i=1  nzeta=1  polorb=0  (2s)
            splnorm:   0.15000    
               vcte:    0.0000    
               rinn:    0.0000    
               qcoe:    0.0000    
               qyuk:    0.0000    
               qwid:   0.10000E-01
                rcs:    0.0000    
            lambdas:    1.0000    
L=1  Nsemic=0  Cnfigmx=2
          i=1  nzeta=1  polorb=0  (2p)
            splnorm:   0.15000    
               vcte:    0.0000    
               rinn:    0.0000    
               qcoe:    0.0000    
               qyuk:    0.0000    
               qwid:   0.10000E-01
                rcs:    0.0000    
            lambdas:    1.0000    
-------------------------------------------------------------------------------
L=0  Nkbl=1  erefs: 0.17977+309
L=1  Nkbl=1  erefs: 0.17977+309
L=2  Nkbl=1  erefs: 0.17977+309
===============================================================================
</basis_specs>

atom: Called for C-gga                 (Z =   6)

read_vps: Pseudopotential generation method:
read_vps: ATM 3.2.2 Troullier-Martins                       
Valence charge for ps generation:    4.00000

xc_check: Exchange-correlation functional:
xc_check: Ceperley-Alder
xc_check: WARNING: Pseudopotential generated with GGA PBE functional
V l=0 = -2*Zval/r beyond r=  1.5227
V l=1 = -2*Zval/r beyond r=  1.5227
V l=2 = -2*Zval/r beyond r=  1.5227
All V_l potentials equal beyond r=  1.4851
This should be close to max(r_c) in ps generation
All pots = -2*Zval/r beyond r=  1.5227

VLOCAL1: 99.0% of the norm of Vloc inside     19.682 Ry
VLOCAL1: 99.9% of the norm of Vloc inside     44.856 Ry
atom: Maximum radius for 4*pi*r*r*local-pseudopot. charge    1.79142
atom: Maximum radius for r*vlocal+2*Zval:    1.54183
GHOST: No ghost state for L =  0
GHOST: No ghost state for L =  1
GHOST: No ghost state for L =  2

KBgen: Kleinman-Bylander projectors: 
   l= 0   rc=  1.661951   el= -0.994756   Ekb=  5.296364   kbcos=  0.313951
   l= 1   rc=  1.661951   el= -0.376633   Ekb= -4.104879   kbcos= -0.344765
   l= 2   rc=  1.747182   el=  0.002326   Ekb= -1.006421   kbcos= -0.008606

KBgen: Total number of Kleinman-Bylander projectors:    9
atom: -------------------------------------------------------------------------

atom: SANKEY-TYPE ORBITALS:

SPLIT: Orbitals with angular momentum L= 0

SPLIT: Basis orbitals for state 2s

SPLIT: PAO cut-off radius determined from an
SPLIT: energy shift=  0.000735 Ry

   izeta = 1
                 lambda =    1.000000
                     rc =    5.948690
                 energy =   -0.994108
                kinetic =    0.809152
    potential(screened) =   -1.803260
       potential(ionic) =   -5.360717

SPLIT: Orbitals with angular momentum L= 1

SPLIT: Basis orbitals for state 2p

SPLIT: PAO cut-off radius determined from an
SPLIT: energy shift=  0.000735 Ry

   izeta = 1
                 lambda =    1.000000
                     rc =    7.638387
                 energy =   -0.375915
                kinetic =    2.245823
    potential(screened) =   -2.621738
       potential(ionic) =   -5.993382
atom: Total number of Sankey-type orbitals:  4

atm_pop: Valence configuration (for local Pseudopot. screening):
 2s( 2.00)                                                            
 2p( 2.00)                                                            
Vna: chval, zval:    4.00000   4.00000

Vna:  Cut-off radius for the neutral-atom potential:   7.638387

atom: _________________________________________________________________________

prinput: Basis input ----------------------------------------------------------

PAO.BasisType split     

%block ChemicalSpeciesLabel
    1    6 C-gga                   # Species index, atomic number, species label
%endblock ChemicalSpeciesLabel

%block PAO.Basis                 # Define Basis set
C-gga                 2                    # Species label, number of l-shells
 n=2   0   1                         # n, l, Nzeta 
   5.949   
   1.000   
 n=2   1   1                         # n, l, Nzeta 
   7.638   
   1.000   
%endblock PAO.Basis

prinput: ----------------------------------------------------------------------

coor:   Atomic-coordinates input format  =     Cartesian coordinates
coor:                                          (in Angstroms)

siesta: Atomic coordinates (Bohr) and species
siesta:      0.00000   0.00000   3.55095  1        1
siesta:      0.00000   0.00000  10.65284  1        2
siesta:     -2.32814   4.03246   3.55095  1        3
siesta:     -4.65629   8.06493  10.65284  1        4
siesta:      4.65629   8.06493   3.55095  1        5
siesta:      2.32814   4.03246  10.65284  1        6
siesta:      4.65629   0.00000   3.55095  1        7
siesta:      9.31257   0.00000  10.65284  1        8
siesta:      4.65629   0.00000  10.65284  1        9
siesta:      9.31257   0.00000   3.55095  1       10
siesta:      4.65629   8.06493  10.65284  1       11
siesta:      2.32814   4.03246   3.55095  1       12
siesta:     -2.32814   4.03246  10.65284  1       13
siesta:     -4.65629   8.06493   3.55095  1       14
siesta:      0.00000   8.06493   3.55095  1       15
siesta:      6.98443   4.03246  10.65284  1       16
siesta:      6.98443   4.03246   3.55095  1       17
siesta:      0.00000   8.06493  10.65284  1       18
siesta:      0.00000   2.68831   3.55095  1       19
siesta:      6.98443   9.40908  10.65284  1       20
siesta:      4.65629  10.75324   3.55095  1       21
siesta:      2.32814   1.34415  10.65284  1       22
siesta:     -4.65629  10.75324   3.55095  1       23
siesta:     11.64072   1.34415  10.65284  1       24
siesta:     -2.32814   6.72077   3.55095  1       25
siesta:      9.31257   5.37662  10.65284  1       26
siesta:      2.32815   6.72077   3.55095  1       27
siesta:      4.65628   5.37662  10.65284  1       28
siesta:     -0.00000  10.75324   3.55095  1       29
siesta:      6.98443   1.34415  10.65284  1       30
siesta:      4.65629   2.68831   3.55095  1       31
siesta:      2.32814   9.40908  10.65284  1       32
siesta:      9.31258   2.68831   3.55095  1       33
siesta:     -2.32815   9.40908  10.65284  1       34
siesta:      6.98443   6.72077   3.55095  1       35
siesta:      0.00000   5.37662  10.65284  1       36

siesta: System type = bulk      

initatomlists: Number of atoms, orbitals, and projectors:     36   144   324

siesta: ******************** Simulation parameters ****************************
siesta:
siesta: The following are some of the parameters of the simulation.
siesta: A complete list of the parameters used, including default values,
siesta: can be found in file out.fdf
siesta:
redata: Spin configuration                          = none
redata: Number of spin components                   = 1
redata: Time-Reversal Symmetry                      = T
redata: Spin spiral                                 = F
redata: Long output                                 =   F
redata: Number of Atomic Species                    =        1
redata: Charge density info will appear in .RHO file
redata: Write Mulliken Pop.                         = NO
redata: Matel table size (NRTAB)                    =     1024
redata: Mesh Cutoff                                 =   300.0000 Ry
redata: Net charge of the system                    =     0.0000 |e|
redata: Min. number of SCF Iter                     =        0
redata: Max. number of SCF Iter                     =     1000
redata: SCF convergence failure will abort job
redata: SCF mix quantity                            = Hamiltonian
redata: Mix DM or H after convergence               =   F
redata: Recompute H after scf cycle                 =   F
redata: Mix DM in first SCF step                    =   T
redata: Write Pulay info on disk                    =   F
redata: New DM Occupancy tolerance                  = 0.000000000001
redata: No kicks to SCF
redata: DM Mixing Weight for Kicks                  =     0.5000
redata: Require Harris convergence for SCF          =   F
redata: Harris energy tolerance for SCF             =     0.000100 eV
redata: Require DM convergence for SCF              =   T
redata: DM tolerance for SCF                        =     0.001000
redata: Require EDM convergence for SCF             =   F
redata: EDM tolerance for SCF                       =     0.005000 eV
redata: Require H convergence for SCF               =   T
redata: Hamiltonian tolerance for SCF               =     0.001000 eV
redata: Require (free) Energy convergence for SCF   =   T
redata: (free) Energy tolerance for SCF             =     0.001000 eV
redata: Using Saved Data (generic)                  =   F
redata: Use continuation files for DM               =   F
redata: Neglect nonoverlap interactions             =   F
redata: Method of Calculation                       = Diagonalization
redata: Electronic Temperature                      =   299.9869 K
redata: Fix the spin of the system                  =   F
redata: Dynamics option                             = Single-point calculation
mix.SCF: Pulay mixing                            = Pulay
mix.SCF:    Variant                              = stable
mix.SCF:    History steps                        = 4
mix.SCF:    Linear mixing weight                 =     0.250000
mix.SCF:    Mixing weight                        =     0.250000
mix.SCF:    SVD condition                        = 0.1000E-07
redata: ***********************************************************************

%block SCF.Mixers
  Pulay
%endblock SCF.Mixers

%block SCF.Mixer.Pulay
  # Mixing method
  method pulay
  variant stable

  # Mixing options
  weight 0.2500
  weight.linear 0.2500
  history 4
%endblock SCF.Mixer.Pulay

DM_history_depth set to one: no extrapolation allowed by default for geometry relaxation
Size of DM history Fstack: 1
Total number of electrons:   144.000000
Total ionic charge:   144.000000

* ProcessorY, Blocksize:    4   1


* Orbital distribution balance (max,min):     8     7

k-point displ. along   1 input, could be:     0.00    0.50
k-point displ. along   2 input, could be:     0.00    0.50
k-point displ. along   3 input, could be:     0.00    0.50
 Kpoints in:           48 . Kpoints trimmed:           44

siesta: k-grid: Number of k-points =    44
siesta: k-grid: Cutoff (effective) =    14.784 Ang
siesta: k-grid: Supercell and displacements
siesta: k-grid:    4   0   0      0.000
siesta: k-grid:    0   4   0      0.000
siesta: k-grid:    0   0   4      0.000

diag: Algorithm                                     = Expert
diag: Parallel over k                               =   T
diag: Use parallel 2D distribution                  =   T
diag: Parallel block-size                           = 1
diag: Parallel distribution                         =     4 x     5
diag: Used triangular part                          = Lower
diag: Absolute tolerance                            =  0.100E-15
diag: Orthogonalization factor                      =  0.100E-05
diag: Memory factor                                 =  1.0000

superc: Internal auxiliary supercell:     5 x     5 x     3  =      75
superc: Number of atoms, orbitals, and projectors:   2700  10800  24300


ts: **************************************************************
ts: Save H and S matrices                           =    F
ts: Save DM and EDM matrices                        =    F
ts: Only save the overlap matrix S                  =    F
ts: **************************************************************

************************ Begin: TS CHECKS AND WARNINGS ************************
************************ End: TS CHECKS AND WARNINGS **************************


                     ====================================
                        Single-point calculation
                     ====================================

outcoor: Atomic coordinates (Ang):                          
    0.00000000    0.00000000    1.87908000   1       1  C-gga
    0.00000000    0.00000000    5.63724000   1       2  C-gga
   -1.23200000    2.13388659    1.87908000   1       3  C-gga
   -2.46400000    4.26777319    5.63724000   1       4  C-gga
    2.46400000    4.26777319    1.87908000   1       5  C-gga
    1.23200000    2.13388659    5.63724000   1       6  C-gga
    2.46400000    0.00000000    1.87908000   1       7  C-gga
    4.92800000    0.00000000    5.63724000   1       8  C-gga
    2.46400000    0.00000000    5.63724000   1       9  C-gga
    4.92800000    0.00000000    1.87908000   1      10  C-gga
    2.46400000    4.26777319    5.63724000   1      11  C-gga
    1.23200000    2.13388659    1.87908000   1      12  C-gga
   -1.23200000    2.13388659    5.63724000   1      13  C-gga
   -2.46400000    4.26777319    1.87908000   1      14  C-gga
    0.00000000    4.26777319    1.87908000   1      15  C-gga
    3.69600000    2.13388659    5.63724000   1      16  C-gga
    3.69600000    2.13388659    1.87908000   1      17  C-gga
    0.00000000    4.26777319    5.63724000   1      18  C-gga
    0.00000000    1.42258964    1.87908000   1      19  C-gga
    3.69600000    4.97907014    5.63724000   1      20  C-gga
    2.46400123    5.69036496    1.87908000   1      21  C-gga
    1.23199877    0.71129482    5.63724000   1      22  C-gga
   -2.46400123    5.69036496    1.87908000   1      23  C-gga
    6.16000123    0.71129482    5.63724000   1      24  C-gga
   -1.23200000    3.55647624    1.87908000   1      25  C-gga
    4.92800000    2.84518355    5.63724000   1      26  C-gga
    1.23200123    3.55647837    1.87908000   1      27  C-gga
    2.46399877    2.84518142    5.63724000   1      28  C-gga
   -0.00000123    5.69036496    1.87908000   1      29  C-gga
    3.69600123    0.71129482    5.63724000   1      30  C-gga
    2.46400000    1.42258964    1.87908000   1      31  C-gga
    1.23200000    4.97907014    5.63724000   1      32  C-gga
    4.92800123    1.42259177    1.87908000   1      33  C-gga
   -1.23200123    4.97906801    5.63724000   1      34  C-gga
    3.69599877    3.55647837    1.87908000   1      35  C-gga
    0.00000123    2.84518142    5.63724000   1      36  C-gga

superc: Internal auxiliary supercell:     5 x     5 x     3  =      75
superc: Number of atoms, orbitals, and projectors:   2700  10800  24300

outcell: Unit cell vectors (Ang):
        7.392000    0.000000    0.000000
       -3.696000    6.401660    0.000000
        0.000000    0.000000    7.516320

outcell: Cell vector modules (Ang)   :    7.392000    7.392000    7.516320
outcell: Cell angles (23,13,12) (deg):     90.0000     90.0000    120.0000
outcell: Cell volume (Ang**3)        :    355.6803
<dSpData1D:S at geom step 0
  <sparsity:sparsity for geom step 0
    nrows_g=144 nrows=8 sparsity=.3383 nnzs=7016, refcount: 7>
  <dData1D:(new from dSpData1D) n=7016, refcount: 1>
refcount: 1>
new_DM -- step:     1
Initializing Density Matrix...
DM filled with atomic data:
<dSpData2D:DM initialized from atoms
  <sparsity:sparsity for geom step 0
    nrows_g=144 nrows=8 sparsity=.3383 nnzs=7016, refcount: 8>
  <dData2D:DM n=7016 m=1, refcount: 1>
refcount: 1>
No. of atoms with KB's overlaping orbs in proc 0. Max # of overlaps:     110     198
New grid distribution:   1
           1       1:   36    1:    9    1:    8
           2       1:   36    1:    9    9:   16
           3       1:   36    1:    9   17:   24
           4       1:   36    1:    9   25:   32
           5       1:   36    1:    9   33:   40
           6       1:   36   10:   18    1:    8
           7       1:   36   10:   18    9:   16
           8       1:   36   10:   18   17:   24
           9       1:   36   10:   18   25:   32
          10       1:   36   10:   18   33:   40
          11       1:   36   19:   27    1:    8
          12       1:   36   19:   27    9:   16
          13       1:   36   19:   27   17:   24
          14       1:   36   19:   27   25:   32
          15       1:   36   19:   27   33:   40
          16       1:   36   28:   36    1:    8
          17       1:   36   28:   36    9:   16
          18       1:   36   28:   36   17:   24
          19       1:   36   28:   36   25:   32
          20       1:   36   28:   36   33:   40

InitMesh: MESH =    72 x    72 x    80 =      414720
InitMesh: (bp) =    36 x    36 x    40 =       51840
InitMesh: Mesh cutoff (required, used) =   300.000   313.091 Ry
ExtMesh (bp) on 0 =   128 x   101 x    96 =     1241088
New grid distribution:   2
           1       1:   15   19:   36   31:   40
           2       1:   15    1:   18   11:   20
           3       1:   14    1:   18   31:   40
           4       1:   14    1:   18   21:   30
           5      15:   36    1:    9   27:   40
           6       1:   15    1:   18    1:   10
           7      16:   36   10:   18    7:   20
           8      15:   36    1:   18   21:   26
           9      16:   36    1:    9    7:   20
          10      15:   36   10:   18   27:   40
          11      16:   36   19:   36    1:    6
          12      16:   36   19:   27    7:   20
          13      16:   36    1:   18    1:    6
          14       1:   15   19:   36   21:   30
          15      16:   36   19:   27   27:   40
          16       1:   15   19:   36    1:   10
          17       1:   15   19:   36   11:   20
          18      16:   36   28:   36    7:   20
          19      16:   36   19:   36   21:   26
          20      16:   36   28:   36   27:   40
New grid distribution:   3
           1       1:   15    1:   18    1:   10
           2      16:   36   19:   27    8:   20
           3      16:   36    1:   18   21:   27
           4       1:   15    1:   18   21:   30
           5       1:   15   19:   36   31:   40
           6      16:   36   10:   18   28:   40
           7       1:   15    1:   18   11:   20
           8      16:   36   10:   18    8:   20
           9      16:   36    1:    9   28:   40
          10       1:   15    1:   18   31:   40
          11      16:   36   19:   36    1:    7
          12       1:   15   19:   36   11:   20
          13      16:   36   19:   36   21:   27
          14      16:   36    1:    9    8:   20
          15      16:   36   19:   27   28:   40
          16       1:   15   19:   36    1:   10
          17      16:   36    1:   18    1:    7
          18      16:   36   28:   36    8:   20
          19       1:   15   19:   36   21:   30
          20      16:   36   28:   36   28:   40
Setting up quadratic distribution...
ExtMesh (bp) on 0 =   107 x   110 x    98 =     1153460
PhiOnMesh: Number of (b)points on node 0 =                 2700
PhiOnMesh: nlist on node 0 =               277726

stepf: Fermi-Dirac step function

siesta: Program's energy decomposition (eV):
siesta: Ebs     =     -2579.232349
siesta: Eions   =      9434.507561
siesta: Ena     =      2270.521424
siesta: Ekin    =      3596.280662
siesta: Enl     =      -335.021373
siesta: Eso     =         0.000000
siesta: Edftu   =         0.000000
siesta: DEna    =        15.870568
siesta: DUscf   =         2.661678
siesta: DUext   =         0.000000
siesta: Exc     =     -1624.201227
siesta: eta*DQ  =         0.000000
siesta: Emadel  =         0.000000
siesta: Emeta   =         0.000000
siesta: Emolmec =        -3.510176
siesta: Ekinion =         0.000000
siesta: Eharris =     -5361.900118
siesta: Etot    =     -5511.906005
siesta: FreeEng =     -5511.917243

        iscf     Eharris(eV)        E_KS(eV)     FreeEng(eV)     dDmax    Ef(eV) dHmax(eV)
   scf:    1    -5361.900118    -5511.906005    -5511.917243  1.338035 -8.282912  0.105044
timer: Routine,Calls,Time,% = IterSCF        1       1.113  46.55
   scf:    2    -5511.909090    -5511.907554    -5511.918791  0.000604 -8.298209  0.078721
   scf:    3    -5511.911333    -5511.909463    -5511.920703  0.001828 -8.346064  0.001893
   scf:    4    -5511.909466    -5511.909466    -5511.920709  0.000206 -8.346761  0.000677

SCF Convergence by FreeE+DM+H criterion
|FreeE_i-FreeE_(i-1)| (eV) <     0.00100000
max |DM_out - DM_in|         :     0.0002058737
max |H_out - H_in|      (eV) :     0.0006768108
SCF cycle converged after 4 iterations

Using DM_out to compute the final energy and forces
No. of atoms with KB's overlaping orbs in proc 0. Max # of overlaps:     110     198

MM-Stress (kbar):        7.41        7.41       28.28        0.00        0.00       -0.00

siesta: E_KS(eV) =            -5511.9095

siesta: E_KS - E_eggbox =     -5511.9095

siesta: Atomic forces (eV/Ang):
     1   -0.000000   -0.000000   -0.000000
     2   -0.000000   -0.000000    0.000000
     3    0.000075   -0.000056   -0.000000
     4   -0.000075    0.000056   -0.000000
     5    0.000011    0.000093   -0.000000
     6   -0.000011   -0.000093   -0.000000
     7   -0.000086   -0.000037   -0.000000
     8    0.000086    0.000037   -0.000000
     9   -0.000015   -0.000013    0.000000
    10    0.000015    0.000012    0.000000
    11   -0.000003    0.000019   -0.000000
    12    0.000003   -0.000019   -0.000000
    13    0.000018   -0.000007   -0.000000
    14   -0.000018    0.000007   -0.000000
    15   -0.000000   -0.000000    0.000000
    16    0.000000    0.000000   -0.000000
    17   -0.000000    0.000000   -0.000000
    18    0.000000    0.000000   -0.000000
    19    0.000007    0.000130   -0.000000
    20   -0.000007   -0.000130    0.000000
    21   -0.000116   -0.000058   -0.000000
    22    0.000116    0.000058   -0.000000
    23    0.000109   -0.000071    0.000000
    24   -0.000109    0.000071    0.000000
    25    0.000009    0.000115    0.000000
    26   -0.000009   -0.000115    0.000000
    27   -0.000104   -0.000050    0.000000
    28    0.000104    0.000049    0.000000
    29    0.000095   -0.000065    0.000000
    30   -0.000095    0.000065   -0.000000
    31    0.000009    0.000115    0.000000
    32   -0.000009   -0.000115    0.000000
    33   -0.000104   -0.000050    0.000000
    34    0.000104    0.000050   -0.000000
    35    0.000095   -0.000065   -0.000000
    36   -0.000095    0.000064    0.000000
----------------------------------------
   Tot   -0.000000   -0.000001   -0.000000
----------------------------------------
   Max    0.000130
   Res    0.000054    sqrt( Sum f_i^2 / 3N )
----------------------------------------
   Max    0.000130    constrained

Stress tensor Voigt[x,y,z,yz,xz,xy] (kbar):     -364.82     -364.82      166.22       -0.00        0.00        0.00
(Free)E + p*V (eV/cell)    -5470.2280
Target enthalpy (eV/cell)    -5511.9207

siesta: Eigenvalues (eV):
  ik is       eps
   1  1  -27.6314  -27.6132  -26.9273  -26.9272  -26.8987  -26.8987  -25.0393  -25.0393  -24.8974  -24.8974
         -23.9214  -23.7447  -23.4918  -23.4918  -23.3525  -23.3525  -22.8413  -22.7745  -21.4240  -21.2959
  -21.2421  -21.2421  -21.0841  -21.0841  -19.7835  -19.7432  -18.7876  -18.7876  -18.7407  -18.7407
  -17.9628  -17.9496  -17.4889  -17.4735  -16.7888  -16.7888  -16.7548  -16.7547  -16.3786  -16.3786
  -16.3705  -16.3705  -15.9969  -15.9969  -15.9826  -15.9826  -14.6862  -14.6862  -14.6509  -14.6509
  -14.4219  -14.4112  -14.3459  -14.2547  -13.8150  -13.8150  -13.7712  -13.7444  -13.6673  -13.6673
  -12.1919  -12.1919  -11.8601  -11.8601  -11.0829  -10.8305  -10.8305  -10.6792  -10.5427  -10.5427
  -10.1740   -9.9526   -6.6906   -6.5719   -6.1247   -6.1247   -5.8264   -5.8264   -5.5954   -5.3642
   -3.9136   -3.9136   -3.7007   -3.7007   -0.4076   -0.4076   -0.2981   -0.2981    1.0864    1.1566
    1.1741    1.2085    1.2085    1.3017    1.3430    1.3430    1.6300    1.6300    1.7257    1.7258
    2.0064    2.0191    3.0662    3.1571    3.3195    3.3195    3.3715    3.3715    3.6771    3.6771
    3.7123    3.7123    4.9424    4.9598    5.1911    5.2332    6.1423    6.1423    6.1664    6.1664
    6.6718    6.7762    7.1863    7.1863    7.2020    7.2020    9.2507    9.3599   10.0784   10.0784
   10.1278   10.1278   11.8333   11.8333   11.8460   11.8460   13.0133   13.0133   13.0946   13.0946
   13.5286   13.5346   13.9458   13.9792
   2  1  -28.0081  -27.9665  -26.5949  -26.5442  -25.9515  -25.9515  -25.8594  -25.8594  -24.7539  -24.7539
         -24.6042  -24.6042  -24.2123  -24.0550  -22.7194  -22.7194  -22.5693  -22.5693  -20.9670  -20.9670
  -20.8745  -20.8745  -20.5754  -20.4342  -19.6797  -19.6797  -19.5787  -19.5787  -18.5651  -18.5651
  -18.5342  -18.5342  -17.8428  -17.8428  -17.8041  -17.8041  -16.8582  -16.8243  -16.0831  -16.0831
  -16.0672  -16.0672  -15.8286  -15.8139  -15.5039  -15.5039  -15.4766  -15.4766  -14.7303  -14.7067
  -14.6109  -14.5428  -13.5494  -13.4439  -13.4245  -13.3707  -13.1545  -13.1330  -13.0127  -13.0127
  -12.7697  -12.7697  -11.9483  -11.9483  -11.6074  -11.6074  -11.4767  -11.1378   -9.8232   -9.8232
   -9.4756   -9.4756   -7.0970   -7.0970   -6.8856   -6.8856   -5.3170   -4.9497   -4.4764   -4.4764
   -4.1603   -4.1603   -2.3625   -2.3625   -2.1618   -2.1618   -1.1201   -0.9599    0.5263    0.5722
    0.6219    0.6690    0.8928    0.9433    1.1128    1.1228    1.3493    1.3493    1.4623    1.4623
    1.5649    1.5649    1.6164    1.6164    1.9042    1.9605    4.2899    4.3267    5.2969    5.2969
    5.3065    5.3065    5.7283    5.7327    6.1409    6.1409    6.1939    6.1939    7.5247    7.5984
    7.8889    7.8889    8.0185    8.0185    8.5670    8.5670    8.6035    8.6035    9.5671    9.5671
    9.6004    9.6004   10.1368   10.1374   11.6924   11.6924   11.7599   11.7599   11.9166   12.0452
   14.4308   14.4308   14.4386   14.4386
   3  1  -28.0081  -27.9665  -26.5949  -26.5442  -25.9515  -25.9515  -25.8594  -25.8594  -24.7539  -24.7539
         -24.6042  -24.6042  -24.2123  -24.0550  -22.7194  -22.7194  -22.5693  -22.5693  -20.9670  -20.9670
  -20.8745  -20.8745  -20.5754  -20.4342  -19.6797  -19.6797  -19.5787  -19.5787  -18.5651  -18.5651
  -18.5342  -18.5342  -17.8428  -17.8428  -17.8041  -17.8041  -16.8582  -16.8243  -16.0831  -16.0831
  -16.0672  -16.0672  -15.8286  -15.8139  -15.5039  -15.5039  -15.4766  -15.4766  -14.7303  -14.7067
  -14.6109  -14.5428  -13.5494  -13.4439  -13.4245  -13.3707  -13.1545  -13.1330  -13.0127  -13.0127
  -12.7697  -12.7697  -11.9483  -11.9483  -11.6074  -11.6074  -11.4767  -11.1378   -9.8232   -9.8232
   -9.4756   -9.4756   -7.0970   -7.0970   -6.8856   -6.8856   -5.3170   -4.9497   -4.4764   -4.4764
   -4.1603   -4.1603   -2.3625   -2.3625   -2.1618   -2.1618   -1.1201   -0.9599    0.5263    0.5722
    0.6219    0.6690    0.8928    0.9433    1.1128    1.1228    1.3493    1.3493    1.4623    1.4623
    1.5649    1.5649    1.6164    1.6164    1.9042    1.9605    4.2899    4.3267    5.2969    5.2969
    5.3065    5.3065    5.7283    5.7327    6.1409    6.1409    6.1939    6.1939    7.5247    7.5984
    7.8889    7.8889    8.0185    8.0185    8.5670    8.5670    8.6035    8.6035    9.5671    9.5671
    9.6004    9.6004   10.1368   10.1374   11.6924   11.6924   11.7599   11.7599   11.9166   12.0452
   14.4308   14.4308   14.4386   14.4386
   4  1  -27.6314  -27.6132  -26.9273  -26.9272  -26.8987  -26.8987  -25.0393  -25.0393  -24.8974  -24.8974
         -23.9214  -23.7447  -23.4918  -23.4918  -23.3525  -23.3525  -22.8413  -22.7745  -21.4240  -21.2959
  -21.2421  -21.2421  -21.0841  -21.0841  -19.7835  -19.7432  -18.7876  -18.7876  -18.7407  -18.7407
  -17.9628  -17.9496  -17.4889  -17.4735  -16.7888  -16.7888  -16.7548  -16.7547  -16.3786  -16.3786
  -16.3705  -16.3705  -15.9969  -15.9969  -15.9826  -15.9826  -14.6862  -14.6862  -14.6509  -14.6509
  -14.4219  -14.4112  -14.3459  -14.2547  -13.8150  -13.8150  -13.7712  -13.7444  -13.6673  -13.6673
  -12.1919  -12.1919  -11.8601  -11.8601  -11.0829  -10.8305  -10.8305  -10.6792  -10.5427  -10.5427
  -10.1740   -9.9526   -6.6906   -6.5719   -6.1247   -6.1247   -5.8264   -5.8264   -5.5954   -5.3642
   -3.9136   -3.9136   -3.7007   -3.7007   -0.4076   -0.4076   -0.2981   -0.2981    1.0864    1.1566
    1.1741    1.2085    1.2085    1.3017    1.3430    1.3430    1.6300    1.6300    1.7257    1.7258
    2.0064    2.0191    3.0662    3.1571    3.3195    3.3195    3.3715    3.3715    3.6771    3.6771
    3.7123    3.7123    4.9424    4.9598    5.1911    5.2332    6.1423    6.1423    6.1664    6.1664
    6.6718    6.7762    7.1863    7.1863    7.2020    7.2020    9.2507    9.3599   10.0784   10.0784
   10.1278   10.1278   11.8333   11.8333   11.8460   11.8460   13.0133   13.0133   13.0946   13.0946
   13.5286   13.5346   13.9458   13.9792
   5  1  -28.0081  -27.9665  -26.5949  -26.5442  -25.9515  -25.9515  -25.8594  -25.8594  -24.7539  -24.7539
         -24.6042  -24.6042  -24.2123  -24.0550  -22.7194  -22.7194  -22.5693  -22.5693  -20.9670  -20.9670
  -20.8745  -20.8745  -20.5754  -20.4342  -19.6797  -19.6797  -19.5787  -19.5787  -18.5651  -18.5651
  -18.5342  -18.5342  -17.8428  -17.8428  -17.8041  -17.8041  -16.8582  -16.8243  -16.0831  -16.0831
  -16.0672  -16.0672  -15.8286  -15.8139  -15.5039  -15.5039  -15.4766  -15.4766  -14.7303  -14.7067
  -14.6109  -14.5428  -13.5494  -13.4439  -13.4245  -13.3707  -13.1545  -13.1330  -13.0127  -13.0127
  -12.7697  -12.7697  -11.9483  -11.9483  -11.6074  -11.6074  -11.4767  -11.1378   -9.8232   -9.8232
   -9.4756   -9.4756   -7.0970   -7.0970   -6.8856   -6.8856   -5.3170   -4.9497   -4.4764   -4.4764
   -4.1603   -4.1603   -2.3625   -2.3625   -2.1618   -2.1618   -1.1201   -0.9599    0.5263    0.5722
    0.6219    0.6690    0.8928    0.9433    1.1128    1.1228    1.3493    1.3493    1.4623    1.4623
    1.5649    1.5649    1.6164    1.6164    1.9042    1.9605    4.2899    4.3267    5.2969    5.2969
    5.3065    5.3065    5.7283    5.7327    6.1409    6.1409    6.1939    6.1939    7.5247    7.5984
    7.8889    7.8889    8.0185    8.0185    8.5670    8.5670    8.6035    8.6035    9.5671    9.5671
    9.6004    9.6004   10.1368   10.1374   11.6924   11.6924   11.7599   11.7599   11.9166   12.0452
   14.4308   14.4308   14.4386   14.4386
   6  1  -28.1988  -28.1458  -25.4887  -25.4887  -25.4887  -25.4887  -25.4887  -25.4887  -25.3715  -25.3715
         -25.3715  -25.3715  -25.3715  -25.3715  -21.7008  -21.7008  -21.6361  -21.6361  -21.6361  -21.6361
  -21.5670  -21.5670  -19.1191  -19.1191  -19.1191  -19.1191  -18.7963  -18.7963  -18.7963  -18.7963
  -18.7963  -18.7963  -18.7256  -18.7256  -18.7256  -18.7256  -18.7256  -18.7256  -15.4028  -15.4028
  -15.4028  -15.4028  -15.4028  -15.4028  -15.3838  -15.3838  -15.3838  -15.3838  -15.3838  -15.3838
  -14.7435  -14.6854  -12.8303  -12.8303  -12.8133  -12.8133  -12.6160  -12.6160  -12.6160  -12.6160
  -12.6160  -12.6160  -12.3311  -12.3311  -12.3311  -12.3311  -12.3311  -12.3311   -8.5935   -8.5935
   -8.3479   -8.3479   -8.3479   -8.3479   -8.0822   -8.0822   -3.2674   -3.2674   -3.2674   -3.2674
   -3.2674   -3.2674   -2.9828   -2.9828   -2.9828   -2.9828   -2.9828   -2.9828    0.3442    0.3442
    0.3566    0.3566    0.7178    0.7178    0.7178    0.7178    0.7178    0.7178    0.8128    0.8128
    0.8128    0.8128    0.8128    0.8128    2.3339    2.3837    3.9502    3.9805    6.8904    6.8904
    6.9976    6.9976    6.9976    6.9976    7.1077    7.1077    8.2799    8.2799    8.2799    8.2799
    8.2799    8.2799    8.2832    8.2832    8.2832    8.2833    8.2833    8.2833    9.8808    9.8809
    9.8809    9.8809    9.8809    9.8809   10.0014   10.0014   10.0014   10.0015   10.0015   10.0015
   14.7886   14.7886   14.7886   14.7886
   7  1  -27.4456  -27.4456  -27.4391  -27.4391  -26.1094  -26.1094  -26.0264  -26.0264  -23.8029  -23.8029
         -23.8029  -23.8029  -23.6321  -23.6321  -23.6321  -23.6321  -23.2413  -23.1796  -21.6448  -21.4899
  -20.3962  -20.3962  -20.3962  -20.3962  -20.2775  -20.2775  -20.2774  -20.2774  -17.3164  -17.3164
  -17.3164  -17.3164  -17.3005  -17.3005  -17.3005  -17.3005  -17.2538  -17.2538  -17.2480  -17.2480
  -15.9732  -15.9602  -15.8552  -15.8552  -15.8021  -15.8021  -14.9610  -14.9610  -14.9371  -14.9371
  -14.2135  -14.2135  -14.1093  -14.1093  -13.9074  -13.9074  -13.8822  -13.8822  -13.1442  -13.1442
  -12.9160  -12.9160  -11.0080  -11.0080  -11.0080  -11.0080  -10.7150  -10.6310  -10.6310  -10.6310
  -10.6310  -10.5141   -6.2841   -6.0085   -5.7800   -5.7800   -5.7800   -5.7800   -5.5053   -5.5052
   -5.5052   -5.5052   -2.0143   -2.0143   -1.8721   -1.8721    0.4526    0.6010    0.6909    0.6909
    0.7752    0.7752    0.8491    0.8491    0.9554    0.9554    3.1167    3.1167    3.1220    3.1220
    3.1335    3.1335    3.1335    3.1335    3.2174    3.2174    3.2174    3.2175    3.4956    3.4956
    3.5260    3.5260    3.6265    3.6265    3.7472    3.7472    5.5157    5.5158    5.5346    5.5347
    8.3546    8.3546    8.3546    8.3546    8.4236    8.4236    8.4236    8.4236    9.6160    9.6160
    9.6296    9.6296   10.8155   10.8165   12.7471   12.8795   13.3773   13.3773   13.3773   13.3773
   13.4077   13.4077   13.4077   13.4077
   8  1  -27.6314  -27.6132  -26.9273  -26.9272  -26.8987  -26.8987  -25.0393  -25.0393  -24.8974  -24.8974
         -23.9214  -23.7447  -23.4918  -23.4918  -23.3525  -23.3525  -22.8413  -22.7745  -21.4240  -21.2959
  -21.2421  -21.2421  -21.0841  -21.0841  -19.7835  -19.7432  -18.7876  -18.7876  -18.7407  -18.7407
  -17.9628  -17.9496  -17.4889  -17.4735  -16.7888  -16.7888  -16.7548  -16.7547  -16.3786  -16.3786
  -16.3705  -16.3705  -15.9969  -15.9969  -15.9826  -15.9826  -14.6862  -14.6862  -14.6509  -14.6509
  -14.4219  -14.4112  -14.3459  -14.2547  -13.8150  -13.8150  -13.7712  -13.7444  -13.6673  -13.6673
  -12.1919  -12.1919  -11.8601  -11.8601  -11.0829  -10.8305  -10.8305  -10.6792  -10.5427  -10.5427
  -10.1740   -9.9526   -6.6906   -6.5719   -6.1247   -6.1247   -5.8264   -5.8264   -5.5954   -5.3642
   -3.9136   -3.9136   -3.7007   -3.7007   -0.4076   -0.4076   -0.2981   -0.2981    1.0864    1.1566
    1.1741    1.2085    1.2085    1.3017    1.3430    1.3430    1.6300    1.6300    1.7257    1.7258
    2.0064    2.0191    3.0662    3.1571    3.3195    3.3195    3.3715    3.3715    3.6771    3.6771
    3.7123    3.7123    4.9424    4.9598    5.1911    5.2332    6.1423    6.1423    6.1664    6.1664
    6.6718    6.7762    7.1863    7.1863    7.2020    7.2020    9.2507    9.3599   10.0784   10.0784
   10.1278   10.1278   11.8333   11.8333   11.8460   11.8460   13.0133   13.0133   13.0946   13.0946
   13.5286   13.5346   13.9458   13.9792
   9  1  -27.6314  -27.6132  -26.9273  -26.9272  -26.8987  -26.8987  -25.0393  -25.0393  -24.8974  -24.8974
         -23.9214  -23.7447  -23.4918  -23.4918  -23.3525  -23.3525  -22.8413  -22.7745  -21.4240  -21.2959
  -21.2421  -21.2421  -21.0841  -21.0841  -19.7835  -19.7432  -18.7876  -18.7876  -18.7407  -18.7407
  -17.9628  -17.9496  -17.4889  -17.4735  -16.7888  -16.7888  -16.7548  -16.7547  -16.3786  -16.3786
  -16.3705  -16.3705  -15.9969  -15.9969  -15.9826  -15.9826  -14.6862  -14.6862  -14.6509  -14.6509
  -14.4219  -14.4112  -14.3459  -14.2547  -13.8150  -13.8150  -13.7712  -13.7444  -13.6673  -13.6673
  -12.1919  -12.1919  -11.8601  -11.8601  -11.0829  -10.8305  -10.8305  -10.6792  -10.5427  -10.5427
  -10.1740   -9.9526   -6.6906   -6.5719   -6.1247   -6.1247   -5.8264   -5.8264   -5.5954   -5.3642
   -3.9136   -3.9136   -3.7007   -3.7007   -0.4076   -0.4076   -0.2981   -0.2981    1.0864    1.1566
    1.1741    1.2085    1.2085    1.3017    1.3430    1.3430    1.6300    1.6300    1.7257    1.7258
    2.0064    2.0191    3.0662    3.1571    3.3195    3.3195    3.3715    3.3715    3.6771    3.6771
    3.7123    3.7123    4.9424    4.9598    5.1911    5.2332    6.1423    6.1423    6.1664    6.1664
    6.6718    6.7762    7.1863    7.1863    7.2020    7.2020    9.2507    9.3599   10.0784   10.0784
   10.1278   10.1278   11.8333   11.8333   11.8460   11.8460   13.0133   13.0133   13.0946   13.0946
   13.5286   13.5346   13.9458   13.9792
  10  1  -27.4456  -27.4456  -27.4391  -27.4391  -26.1094  -26.1094  -26.0264  -26.0264  -23.8029  -23.8029
         -23.8029  -23.8029  -23.6321  -23.6321  -23.6321  -23.6321  -23.2413  -23.1796  -21.6448  -21.4899
  -20.3962  -20.3962  -20.3962  -20.3962  -20.2775  -20.2775  -20.2774  -20.2774  -17.3164  -17.3164
  -17.3164  -17.3164  -17.3005  -17.3005  -17.3005  -17.3005  -17.2538  -17.2538  -17.2480  -17.2480
  -15.9732  -15.9602  -15.8552  -15.8552  -15.8021  -15.8021  -14.9610  -14.9610  -14.9371  -14.9371
  -14.2135  -14.2135  -14.1093  -14.1093  -13.9074  -13.9074  -13.8822  -13.8822  -13.1442  -13.1442
  -12.9160  -12.9160  -11.0080  -11.0080  -11.0080  -11.0080  -10.7150  -10.6310  -10.6310  -10.6310
  -10.6310  -10.5141   -6.2841   -6.0085   -5.7800   -5.7800   -5.7800   -5.7800   -5.5053   -5.5052
   -5.5052   -5.5052   -2.0143   -2.0143   -1.8721   -1.8721    0.4526    0.6010    0.6909    0.6909
    0.7752    0.7752    0.8491    0.8491    0.9554    0.9554    3.1167    3.1167    3.1220    3.1220
    3.1335    3.1335    3.1335    3.1335    3.2174    3.2174    3.2174    3.2175    3.4956    3.4956
    3.5260    3.5260    3.6265    3.6265    3.7472    3.7472    5.5157    5.5158    5.5346    5.5347
    8.3546    8.3546    8.3546    8.3546    8.4236    8.4236    8.4236    8.4236    9.6160    9.6160
    9.6296    9.6296   10.8155   10.8165   12.7471   12.8795   13.3773   13.3773   13.3773   13.3773
   13.4077   13.4077   13.4077   13.4077
  11  1  -27.6314  -27.6132  -26.9273  -26.9272  -26.8987  -26.8987  -25.0393  -25.0393  -24.8974  -24.8974
         -23.9214  -23.7447  -23.4918  -23.4918  -23.3525  -23.3525  -22.8413  -22.7745  -21.4240  -21.2959
  -21.2421  -21.2421  -21.0841  -21.0841  -19.7835  -19.7432  -18.7876  -18.7876  -18.7407  -18.7407
  -17.9628  -17.9496  -17.4889  -17.4735  -16.7888  -16.7888  -16.7548  -16.7547  -16.3786  -16.3786
  -16.3705  -16.3705  -15.9969  -15.9969  -15.9826  -15.9826  -14.6862  -14.6862  -14.6509  -14.6509
  -14.4219  -14.4112  -14.3459  -14.2547  -13.8150  -13.8150  -13.7712  -13.7444  -13.6673  -13.6673
  -12.1919  -12.1919  -11.8601  -11.8601  -11.0829  -10.8305  -10.8305  -10.6792  -10.5427  -10.5427
  -10.1740   -9.9526   -6.6906   -6.5719   -6.1247   -6.1247   -5.8264   -5.8264   -5.5954   -5.3642
   -3.9136   -3.9136   -3.7007   -3.7007   -0.4076   -0.4076   -0.2981   -0.2981    1.0864    1.1566
    1.1741    1.2085    1.2085    1.3017    1.3430    1.3430    1.6300    1.6300    1.7257    1.7258
    2.0064    2.0191    3.0662    3.1571    3.3195    3.3195    3.3715    3.3715    3.6771    3.6771
    3.7123    3.7123    4.9424    4.9598    5.1911    5.2332    6.1423    6.1423    6.1664    6.1664
    6.6718    6.7762    7.1863    7.1863    7.2020    7.2020    9.2507    9.3599   10.0784   10.0784
   10.1278   10.1278   11.8333   11.8333   11.8460   11.8460   13.0133   13.0133   13.0946   13.0946
   13.5286   13.5346   13.9458   13.9792
  12  1  -27.4456  -27.4456  -27.4391  -27.4391  -26.1094  -26.1094  -26.0264  -26.0264  -23.8029  -23.8029
         -23.8029  -23.8029  -23.6321  -23.6321  -23.6321  -23.6321  -23.2413  -23.1796  -21.6448  -21.4899
  -20.3962  -20.3962  -20.3962  -20.3962  -20.2775  -20.2775  -20.2774  -20.2774  -17.3164  -17.3164
  -17.3164  -17.3164  -17.3005  -17.3005  -17.3005  -17.3005  -17.2538  -17.2538  -17.2480  -17.2480
  -15.9732  -15.9602  -15.8552  -15.8552  -15.8021  -15.8021  -14.9610  -14.9610  -14.9371  -14.9371
  -14.2135  -14.2135  -14.1093  -14.1093  -13.9074  -13.9074  -13.8822  -13.8822  -13.1442  -13.1442
  -12.9160  -12.9160  -11.0080  -11.0080  -11.0080  -11.0080  -10.7150  -10.6310  -10.6310  -10.6310
  -10.6310  -10.5141   -6.2841   -6.0085   -5.7800   -5.7800   -5.7800   -5.7800   -5.5053   -5.5052
   -5.5052   -5.5052   -2.0143   -2.0143   -1.8721   -1.8721    0.4526    0.6010    0.6909    0.6909
    0.7752    0.7752    0.8491    0.8491    0.9554    0.9554    3.1167    3.1167    3.1220    3.1220
    3.1335    3.1335    3.1335    3.1335    3.2174    3.2174    3.2174    3.2175    3.4956    3.4956
    3.5260    3.5260    3.6265    3.6265    3.7472    3.7472    5.5157    5.5158    5.5346    5.5347
    8.3546    8.3546    8.3546    8.3546    8.4236    8.4236    8.4236    8.4236    9.6160    9.6160
    9.6296    9.6296   10.8155   10.8165   12.7471   12.8795   13.3773   13.3773   13.3773   13.3773
   13.4077   13.4077   13.4077   13.4077
  13  1  -27.6361  -27.6212  -26.9285  -26.9285  -26.9100  -26.9100  -25.0227  -25.0227  -24.9230  -24.9230
         -23.8980  -23.7732  -23.4718  -23.4718  -23.3731  -23.3731  -22.8294  -22.7817  -21.4100  -21.3188
  -21.2225  -21.2225  -21.1104  -21.1103  -19.7770  -19.7485  -18.7811  -18.7811  -18.7478  -18.7478
  -17.9630  -17.9539  -17.4874  -17.4765  -16.7855  -16.7855  -16.7617  -16.7617  -16.3776  -16.3776
  -16.3719  -16.3719  -15.9955  -15.9955  -15.9856  -15.9856  -14.6833  -14.6833  -14.6590  -14.6590
  -14.4204  -14.4129  -14.3208  -14.2522  -13.7848  -13.7848  -13.7662  -13.7463  -13.6775  -13.6775
  -12.1470  -12.1470  -11.9130  -11.9130  -11.0291  -10.7892  -10.7892  -10.7443  -10.5854  -10.5854
  -10.1393   -9.9821   -6.6856   -6.6004   -6.0930   -6.0930   -5.8810   -5.8810   -5.5620   -5.3986
   -3.8830   -3.8829   -3.7324   -3.7324   -0.3916   -0.3916   -0.3142   -0.3142    1.0951    1.1410
    1.2138    1.2299    1.2299    1.2965    1.3252    1.3253    1.6592    1.6592    1.7236    1.7236
    2.0083    2.0173    3.0809    3.1452    3.3304    3.3304    3.3676    3.3676    3.6864    3.6864
    3.7107    3.7107    4.9449    4.9572    5.1973    5.2271    6.1541    6.1541    6.1699    6.1699
    6.6920    6.7664    7.1896    7.1896    7.2009    7.2009    9.2664    9.3437   10.0863   10.0863
   10.1213   10.1213   11.8355   11.8356   11.8445   11.8445   13.0260   13.0260   13.0836   13.0836
   13.5295   13.5337   13.9506   13.9743
  14  1  -28.0095  -27.9779  -26.5929  -26.5585  -25.9431  -25.9431  -25.8791  -25.8791  -24.7356  -24.7356
         -24.6302  -24.6302  -24.1917  -24.0807  -22.6974  -22.6974  -22.5911  -22.5911  -20.9537  -20.9537
  -20.8881  -20.8881  -20.5572  -20.4571  -19.6666  -19.6666  -19.5950  -19.5950  -18.5628  -18.5628
  -18.5408  -18.5408  -17.8385  -17.8385  -17.8111  -17.8111  -16.8550  -16.8315  -16.0811  -16.0811
  -16.0699  -16.0699  -15.8264  -15.8160  -15.5008  -15.5008  -15.4817  -15.4817  -14.7268  -14.7102
  -14.5839  -14.5285  -13.5186  -13.4410  -13.4272  -13.3907  -13.1513  -13.1362  -12.9766  -12.9766
  -12.8046  -12.8046  -11.9025  -11.9025  -11.6620  -11.6620  -11.4306  -11.1913   -9.7734   -9.7734
   -9.5272   -9.5272   -7.0707   -7.0707   -6.9212   -6.9212   -5.2713   -5.0108   -4.4337   -4.4337
   -4.2098   -4.2098   -2.3339   -2.3339   -2.1919   -2.1919   -1.0973   -0.9839    0.5497    0.5863
    0.6196    0.6510    0.9123    0.9466    1.1143    1.1213    1.3694    1.3694    1.4498    1.4498
    1.5801    1.5801    1.6172    1.6172    1.9131    1.9529    4.2955    4.3216    5.2991    5.2991
    5.3059    5.3059    5.7289    5.7320    6.1548    6.1548    6.1912    6.1912    7.5436    7.5943
    7.9074    7.9074    7.9992    7.9992    8.5758    8.5758    8.6013    8.6013    9.5751    9.5751
    9.5982    9.5982   10.1369   10.1373   11.7053   11.7053   11.7528   11.7528   11.9397   12.0305
   14.4319   14.4319   14.4374   14.4374
  15  1  -28.0095  -27.9779  -26.5929  -26.5585  -25.9431  -25.9431  -25.8791  -25.8791  -24.7356  -24.7356
         -24.6302  -24.6302  -24.1917  -24.0807  -22.6974  -22.6974  -22.5911  -22.5911  -20.9537  -20.9537
  -20.8881  -20.8881  -20.5572  -20.4571  -19.6666  -19.6666  -19.5950  -19.5950  -18.5628  -18.5628
  -18.5408  -18.5408  -17.8385  -17.8385  -17.8111  -17.8111  -16.8550  -16.8315  -16.0811  -16.0811
  -16.0699  -16.0699  -15.8264  -15.8160  -15.5008  -15.5008  -15.4817  -15.4817  -14.7268  -14.7102
  -14.5839  -14.5285  -13.5186  -13.4410  -13.4273  -13.3907  -13.1513  -13.1362  -12.9766  -12.9766
  -12.8046  -12.8046  -11.9025  -11.9025  -11.6620  -11.6620  -11.4306  -11.1913   -9.7734   -9.7734
   -9.5272   -9.5272   -7.0707   -7.0707   -6.9212   -6.9212   -5.2713   -5.0108   -4.4337   -4.4337
   -4.2098   -4.2098   -2.3339   -2.3339   -2.1919   -2.1919   -1.0973   -0.9839    0.5497    0.5863
    0.6196    0.6510    0.9123    0.9466    1.1143    1.1213    1.3694    1.3694    1.4498    1.4498
    1.5801    1.5801    1.6172    1.6172    1.9131    1.9529    4.2955    4.3216    5.2991    5.2991
    5.3059    5.3059    5.7289    5.7320    6.1548    6.1548    6.1912    6.1912    7.5436    7.5942
    7.9074    7.9074    7.9992    7.9992    8.5758    8.5758    8.6013    8.6013    9.5751    9.5751
    9.5982    9.5982   10.1369   10.1373   11.7053   11.7053   11.7528   11.7528   11.9397   12.0305
   14.4319   14.4319   14.4374   14.4374
  16  1  -27.6361  -27.6212  -26.9285  -26.9285  -26.9100  -26.9100  -25.0227  -25.0227  -24.9230  -24.9230
         -23.8980  -23.7732  -23.4718  -23.4718  -23.3731  -23.3731  -22.8294  -22.7817  -21.4100  -21.3188
  -21.2225  -21.2225  -21.1104  -21.1103  -19.7770  -19.7485  -18.7811  -18.7811  -18.7478  -18.7478
  -17.9630  -17.9539  -17.4874  -17.4765  -16.7855  -16.7855  -16.7617  -16.7617  -16.3776  -16.3776
  -16.3719  -16.3719  -15.9955  -15.9955  -15.9856  -15.9856  -14.6833  -14.6833  -14.6590  -14.6590
  -14.4204  -14.4129  -14.3208  -14.2522  -13.7848  -13.7848  -13.7662  -13.7463  -13.6775  -13.6775
  -12.1470  -12.1470  -11.9130  -11.9130  -11.0291  -10.7892  -10.7892  -10.7443  -10.5854  -10.5854
  -10.1393   -9.9821   -6.6856   -6.6004   -6.0930   -6.0930   -5.8810   -5.8810   -5.5620   -5.3986
   -3.8830   -3.8829   -3.7324   -3.7324   -0.3916   -0.3916   -0.3142   -0.3142    1.0951    1.1410
    1.2138    1.2299    1.2299    1.2965    1.3252    1.3253    1.6592    1.6592    1.7236    1.7236
    2.0083    2.0173    3.0809    3.1452    3.3304    3.3304    3.3676    3.3676    3.6864    3.6864
    3.7107    3.7107    4.9449    4.9572    5.1973    5.2271    6.1541    6.1541    6.1699    6.1699
    6.6920    6.7664    7.1896    7.1896    7.2009    7.2009    9.2664    9.3437   10.0863   10.0863
   10.1213   10.1213   11.8355   11.8356   11.8445   11.8445   13.0260   13.0260   13.0836   13.0836
   13.5295   13.5337   13.9506   13.9743
  17  1  -28.0095  -27.9779  -26.5929  -26.5585  -25.9431  -25.9431  -25.8791  -25.8791  -24.7356  -24.7356
         -24.6302  -24.6302  -24.1917  -24.0807  -22.6974  -22.6974  -22.5911  -22.5911  -20.9537  -20.9537
  -20.8881  -20.8881  -20.5572  -20.4571  -19.6666  -19.6666  -19.5950  -19.5950  -18.5628  -18.5628
  -18.5408  -18.5408  -17.8385  -17.8385  -17.8111  -17.8111  -16.8550  -16.8315  -16.0811  -16.0811
  -16.0699  -16.0699  -15.8264  -15.8160  -15.5008  -15.5008  -15.4817  -15.4817  -14.7268  -14.7102
  -14.5839  -14.5285  -13.5186  -13.4410  -13.4273  -13.3907  -13.1513  -13.1362  -12.9766  -12.9766
  -12.8046  -12.8046  -11.9025  -11.9025  -11.6620  -11.6620  -11.4306  -11.1913   -9.7734   -9.7734
   -9.5272   -9.5272   -7.0707   -7.0707   -6.9212   -6.9212   -5.2713   -5.0108   -4.4337   -4.4337
   -4.2098   -4.2098   -2.3339   -2.3339   -2.1919   -2.1919   -1.0973   -0.9839    0.5497    0.5863
    0.6196    0.6510    0.9123    0.9466    1.1143    1.1213    1.3694    1.3694    1.4498    1.4498
    1.5801    1.5801    1.6172    1.6172    1.9131    1.9529    4.2955    4.3216    5.2991    5.2991
    5.3059    5.3059    5.7289    5.7320    6.1548    6.1548    6.1912    6.1912    7.5436    7.5942
    7.9074    7.9074    7.9992    7.9992    8.5758    8.5758    8.6013    8.6013    9.5751    9.5751
    9.5982    9.5982   10.1369   10.1373   11.7053   11.7053   11.7528   11.7528   11.9397   12.0305
   14.4319   14.4319   14.4374   14.4374
  18  1  -28.1986  -28.1587  -25.4761  -25.4761  -25.4761  -25.4761  -25.4761  -25.4761  -25.3941  -25.3941
         -25.3941  -25.3941  -25.3941  -25.3941  -21.6820  -21.6820  -21.6333  -21.6333  -21.6333  -21.6333
  -21.5874  -21.5874  -19.1227  -19.1227  -19.1227  -19.1227  -18.7879  -18.7879  -18.7879  -18.7879
  -18.7879  -18.7879  -18.7378  -18.7378  -18.7378  -18.7378  -18.7378  -18.7378  -15.4000  -15.4000
  -15.4000  -15.4000  -15.3999  -15.3999  -15.3865  -15.3865  -15.3865  -15.3865  -15.3865  -15.3865
  -14.7155  -14.6657  -12.8278  -12.8278  -12.8157  -12.8157  -12.5763  -12.5763  -12.5763  -12.5763
  -12.5763  -12.5763  -12.3752  -12.3752  -12.3752  -12.3752  -12.3752  -12.3752   -8.5239   -8.5239
   -8.3462   -8.3462   -8.3462   -8.3462   -8.1628   -8.1628   -3.2281   -3.2281   -3.2281   -3.2281
   -3.2281   -3.2281   -3.0265   -3.0265   -3.0265   -3.0265   -3.0265   -3.0265    0.3460    0.3460
    0.3548    0.3548    0.7372    0.7372    0.7372    0.7373    0.7373    0.7373    0.8054    0.8054
    0.8054    0.8054    0.8054    0.8054    2.3417    2.3769    3.9549    3.9763    6.9217    6.9217
    6.9969    6.9969    6.9969    6.9969    7.0754    7.0754    8.2804    8.2804    8.2804    8.2804
    8.2804    8.2804    8.2827    8.2827    8.2827    8.2828    8.2828    8.2828    9.9075    9.9075
    9.9075    9.9075    9.9075    9.9075    9.9914    9.9914    9.9914    9.9914    9.9914    9.9914
   14.7886   14.7886   14.7886   14.7886
  19  1  -28.0095  -27.9779  -26.5929  -26.5585  -25.9431  -25.9431  -25.8791  -25.8791  -24.7356  -24.7356
         -24.6302  -24.6302  -24.1917  -24.0807  -22.6974  -22.6974  -22.5911  -22.5911  -20.9537  -20.9537
  -20.8881  -20.8881  -20.5572  -20.4571  -19.6666  -19.6666  -19.5950  -19.5950  -18.5628  -18.5628
  -18.5408  -18.5408  -17.8385  -17.8385  -17.8111  -17.8111  -16.8550  -16.8315  -16.0811  -16.0811
  -16.0699  -16.0699  -15.8264  -15.8160  -15.5008  -15.5008  -15.4817  -15.4817  -14.7268  -14.7102
  -14.5839  -14.5285  -13.5186  -13.4410  -13.4273  -13.3907  -13.1513  -13.1362  -12.9766  -12.9766
  -12.8046  -12.8046  -11.9025  -11.9025  -11.6620  -11.6620  -11.4306  -11.1913   -9.7734   -9.7734
   -9.5272   -9.5272   -7.0707   -7.0707   -6.9212   -6.9212   -5.2713   -5.0108   -4.4337   -4.4337
   -4.2098   -4.2098   -2.3339   -2.3339   -2.1919   -2.1919   -1.0973   -0.9839    0.5497    0.5863
    0.6196    0.6510    0.9123    0.9466    1.1143    1.1213    1.3694    1.3694    1.4498    1.4498
    1.5801    1.5801    1.6172    1.6172    1.9131    1.9529    4.2955    4.3216    5.2991    5.2991
    5.3059    5.3059    5.7289    5.7320    6.1548    6.1548    6.1912    6.1912    7.5436    7.5942
    7.9074    7.9074    7.9992    7.9992    8.5758    8.5758    8.6013    8.6013    9.5751    9.5751
    9.5982    9.5982   10.1369   10.1373   11.7053   11.7053   11.7528   11.7528   11.9397   12.0305
   14.4319   14.4319   14.4374   14.4374
  20  1  -27.4519  -27.4519  -27.4454  -27.4454  -26.1025  -26.1025  -26.0450  -26.0450  -23.7799  -23.7799
         -23.7799  -23.7799  -23.6592  -23.6592  -23.6592  -23.6592  -23.2304  -23.1864  -21.6283  -21.5180
  -20.3800  -20.3800  -20.3800  -20.3800  -20.2958  -20.2958  -20.2958  -20.2958  -17.3150  -17.3150
  -17.3150  -17.3150  -17.3038  -17.3038  -17.3038  -17.3038  -17.2529  -17.2529  -17.2488  -17.2488
  -15.9713  -15.9621  -15.8501  -15.8501  -15.8131  -15.8131  -14.9595  -14.9595  -14.9433  -14.9433
  -14.1855  -14.1855  -14.1070  -14.1070  -13.9037  -13.9037  -13.8858  -13.8858  -13.1090  -13.1090
  -12.9471  -12.9471  -10.9570  -10.9570  -10.9570  -10.9570  -10.6907  -10.6907  -10.6907  -10.6907
  -10.6839  -10.5413   -6.2603   -6.0644   -5.7438   -5.7438   -5.7438   -5.7438   -5.5491   -5.5491
   -5.5491   -5.5491   -1.9935   -1.9935   -1.8929   -1.8929    0.4759    0.5810    0.7014    0.7014
    0.7589    0.7589    0.8837    0.8837    0.9531    0.9531    3.1175    3.1175    3.1212    3.1212
    3.1477    3.1477    3.1477    3.1477    3.2071    3.2072    3.2072    3.2072    3.5011    3.5011
    3.5223    3.5223    3.6620    3.6620    3.7442    3.7442    5.5209    5.5209    5.5347    5.5347
    8.3669    8.3669    8.3669    8.3669    8.4159    8.4159    8.4159    8.4159    9.6180    9.6180
    9.6276    9.6276   10.8156   10.8163   12.7676   12.8614   13.3821   13.3821   13.3821   13.3821
   13.4036   13.4036   13.4036   13.4036
  21  1  -28.0095  -27.9779  -26.5929  -26.5585  -25.9431  -25.9431  -25.8791  -25.8791  -24.7356  -24.7356
         -24.6302  -24.6302  -24.1917  -24.0807  -22.6974  -22.6974  -22.5911  -22.5911  -20.9537  -20.9537
  -20.8881  -20.8881  -20.5572  -20.4571  -19.6666  -19.6666  -19.5950  -19.5950  -18.5628  -18.5628
  -18.5408  -18.5408  -17.8385  -17.8385  -17.8111  -17.8111  -16.8550  -16.8315  -16.0811  -16.0811
  -16.0699  -16.0699  -15.8264  -15.8160  -15.5008  -15.5008  -15.4817  -15.4817  -14.7268  -14.7102
  -14.5839  -14.5285  -13.5186  -13.4410  -13.4273  -13.3907  -13.1513  -13.1362  -12.9766  -12.9766
  -12.8046  -12.8046  -11.9025  -11.9025  -11.6620  -11.6620  -11.4306  -11.1913   -9.7734   -9.7734
   -9.5272   -9.5272   -7.0707   -7.0707   -6.9212   -6.9212   -5.2713   -5.0108   -4.4337   -4.4337
   -4.2098   -4.2098   -2.3339   -2.3339   -2.1919   -2.1919   -1.0973   -0.9839    0.5497    0.5863
    0.6196    0.6510    0.9123    0.9466    1.1143    1.1213    1.3694    1.3694    1.4498    1.4498
    1.5801    1.5801    1.6172    1.6172    1.9131    1.9529    4.2955    4.3216    5.2991    5.2991
    5.3059    5.3059    5.7289    5.7320    6.1548    6.1548    6.1912    6.1912    7.5436    7.5942
    7.9074    7.9074    7.9992    7.9992    8.5758    8.5758    8.6013    8.6013    9.5751    9.5751
    9.5982    9.5982   10.1369   10.1373   11.7053   11.7053   11.7528   11.7528   11.9397   12.0305
   14.4319   14.4319   14.4374   14.4374
  22  1  -28.0095  -27.9779  -26.5929  -26.5585  -25.9431  -25.9431  -25.8791  -25.8791  -24.7356  -24.7356
         -24.6302  -24.6302  -24.1917  -24.0807  -22.6974  -22.6974  -22.5911  -22.5911  -20.9537  -20.9537
  -20.8881  -20.8881  -20.5572  -20.4571  -19.6666  -19.6666  -19.5950  -19.5950  -18.5628  -18.5628
  -18.5408  -18.5408  -17.8385  -17.8385  -17.8111  -17.8111  -16.8550  -16.8315  -16.0811  -16.0811
  -16.0699  -16.0699  -15.8264  -15.8160  -15.5008  -15.5008  -15.4817  -15.4817  -14.7268  -14.7102
  -14.5839  -14.5285  -13.5186  -13.4410  -13.4272  -13.3907  -13.1513  -13.1362  -12.9766  -12.9766
  -12.8046  -12.8046  -11.9025  -11.9025  -11.6620  -11.6620  -11.4306  -11.1913   -9.7734   -9.7734
   -9.5272   -9.5272   -7.0707   -7.0707   -6.9212   -6.9212   -5.2713   -5.0108   -4.4337   -4.4337
   -4.2098   -4.2098   -2.3339   -2.3339   -2.1919   -2.1919   -1.0973   -0.9839    0.5497    0.5863
    0.6196    0.6510    0.9123    0.9466    1.1143    1.1213    1.3694    1.3694    1.4498    1.4498
    1.5801    1.5801    1.6172    1.6172    1.9131    1.9529    4.2955    4.3216    5.2991    5.2991
    5.3059    5.3059    5.7289    5.7320    6.1548    6.1548    6.1912    6.1912    7.5436    7.5943
    7.9074    7.9074    7.9992    7.9992    8.5758    8.5758    8.6013    8.6013    9.5751    9.5751
    9.5982    9.5982   10.1369   10.1373   11.7053   11.7053   11.7528   11.7528   11.9397   12.0305
   14.4319   14.4319   14.4374   14.4374
  23  1  -27.6361  -27.6212  -26.9285  -26.9285  -26.9100  -26.9100  -25.0227  -25.0227  -24.9230  -24.9230
         -23.8980  -23.7732  -23.4718  -23.4718  -23.3731  -23.3731  -22.8294  -22.7817  -21.4100  -21.3188
  -21.2225  -21.2225  -21.1104  -21.1103  -19.7770  -19.7485  -18.7811  -18.7811  -18.7478  -18.7478
  -17.9630  -17.9539  -17.4874  -17.4765  -16.7855  -16.7855  -16.7617  -16.7617  -16.3776  -16.3776
  -16.3719  -16.3719  -15.9955  -15.9955  -15.9856  -15.9856  -14.6833  -14.6833  -14.6590  -14.6590
  -14.4204  -14.4129  -14.3208  -14.2522  -13.7848  -13.7848  -13.7662  -13.7463  -13.6775  -13.6775
  -12.1470  -12.1470  -11.9130  -11.9130  -11.0291  -10.7892  -10.7892  -10.7443  -10.5854  -10.5854
  -10.1393   -9.9821   -6.6856   -6.6004   -6.0930   -6.0930   -5.8810   -5.8810   -5.5620   -5.3986
   -3.8830   -3.8829   -3.7324   -3.7324   -0.3916   -0.3916   -0.3142   -0.3142    1.0951    1.1410
    1.2138    1.2299    1.2299    1.2965    1.3252    1.3253    1.6592    1.6592    1.7236    1.7236
    2.0083    2.0173    3.0809    3.1452    3.3304    3.3304    3.3676    3.3676    3.6864    3.6864
    3.7107    3.7107    4.9449    4.9572    5.1973    5.2271    6.1541    6.1541    6.1699    6.1699
    6.6920    6.7664    7.1896    7.1896    7.2009    7.2009    9.2664    9.3437   10.0863   10.0863
   10.1213   10.1213   11.8355   11.8356   11.8445   11.8445   13.0260   13.0260   13.0836   13.0836
   13.5295   13.5337   13.9506   13.9743
  24  1  -27.6361  -27.6212  -26.9285  -26.9285  -26.9100  -26.9100  -25.0227  -25.0227  -24.9230  -24.9230
         -23.8980  -23.7732  -23.4718  -23.4718  -23.3731  -23.3731  -22.8294  -22.7817  -21.4100  -21.3188
  -21.2225  -21.2225  -21.1104  -21.1103  -19.7770  -19.7485  -18.7811  -18.7811  -18.7478  -18.7478
  -17.9630  -17.9539  -17.4874  -17.4765  -16.7855  -16.7855  -16.7617  -16.7617  -16.3776  -16.3776
  -16.3719  -16.3719  -15.9955  -15.9955  -15.9856  -15.9856  -14.6833  -14.6833  -14.6590  -14.6590
  -14.4204  -14.4129  -14.3208  -14.2522  -13.7848  -13.7848  -13.7662  -13.7463  -13.6775  -13.6775
  -12.1470  -12.1470  -11.9130  -11.9130  -11.0291  -10.7892  -10.7892  -10.7443  -10.5854  -10.5854
  -10.1393   -9.9821   -6.6856   -6.6004   -6.0930   -6.0930   -5.8810   -5.8810   -5.5620   -5.3986
   -3.8830   -3.8829   -3.7324   -3.7324   -0.3916   -0.3916   -0.3142   -0.3142    1.0951    1.1410
    1.2138    1.2299    1.2299    1.2965    1.3252    1.3253    1.6592    1.6592    1.7236    1.7236
    2.0083    2.0173    3.0809    3.1452    3.3304    3.3304    3.3676    3.3676    3.6864    3.6864
    3.7107    3.7107    4.9449    4.9572    5.1973    5.2271    6.1541    6.1541    6.1699    6.1699
    6.6920    6.7664    7.1896    7.1896    7.2009    7.2009    9.2664    9.3437   10.0863   10.0863
   10.1213   10.1213   11.8355   11.8356   11.8445   11.8445   13.0260   13.0260   13.0836   13.0836
   13.5295   13.5337   13.9506   13.9743
  25  1  -27.6361  -27.6212  -26.9285  -26.9285  -26.9100  -26.9100  -25.0227  -25.0227  -24.9230  -24.9230
         -23.8980  -23.7732  -23.4718  -23.4718  -23.3731  -23.3731  -22.8294  -22.7817  -21.4100  -21.3188
  -21.2225  -21.2225  -21.1104  -21.1103  -19.7770  -19.7485  -18.7811  -18.7811  -18.7478  -18.7478
  -17.9630  -17.9539  -17.4874  -17.4765  -16.7855  -16.7855  -16.7617  -16.7617  -16.3776  -16.3776
  -16.3719  -16.3719  -15.9955  -15.9955  -15.9856  -15.9856  -14.6833  -14.6833  -14.6590  -14.6590
  -14.4204  -14.4129  -14.3208  -14.2522  -13.7848  -13.7848  -13.7662  -13.7463  -13.6775  -13.6775
  -12.1470  -12.1470  -11.9130  -11.9130  -11.0291  -10.7892  -10.7892  -10.7443  -10.5854  -10.5854
  -10.1393   -9.9821   -6.6856   -6.6004   -6.0930   -6.0930   -5.8810   -5.8810   -5.5620   -5.3986
   -3.8830   -3.8829   -3.7324   -3.7324   -0.3916   -0.3916   -0.3142   -0.3142    1.0951    1.1410
    1.2138    1.2299    1.2299    1.2965    1.3252    1.3253    1.6592    1.6592    1.7236    1.7236
    2.0083    2.0173    3.0809    3.1452    3.3304    3.3304    3.3676    3.3676    3.6864    3.6864
    3.7107    3.7107    4.9449    4.9572    5.1973    5.2271    6.1541    6.1541    6.1699    6.1699
    6.6920    6.7664    7.1896    7.1896    7.2009    7.2009    9.2664    9.3437   10.0863   10.0863
   10.1213   10.1213   11.8355   11.8356   11.8445   11.8445   13.0260   13.0260   13.0836   13.0836
   13.5295   13.5337   13.9506   13.9743
  26  1  -27.4519  -27.4519  -27.4454  -27.4454  -26.1025  -26.1025  -26.0450  -26.0450  -23.7799  -23.7799
         -23.7799  -23.7799  -23.6592  -23.6592  -23.6592  -23.6592  -23.2304  -23.1864  -21.6283  -21.5180
  -20.3800  -20.3800  -20.3800  -20.3800  -20.2958  -20.2958  -20.2958  -20.2958  -17.3150  -17.3150
  -17.3150  -17.3150  -17.3038  -17.3038  -17.3038  -17.3038  -17.2529  -17.2529  -17.2488  -17.2488
  -15.9713  -15.9621  -15.8501  -15.8501  -15.8131  -15.8131  -14.9595  -14.9595  -14.9433  -14.9433
  -14.1855  -14.1855  -14.1070  -14.1070  -13.9037  -13.9037  -13.8858  -13.8858  -13.1090  -13.1090
  -12.9471  -12.9471  -10.9570  -10.9570  -10.9570  -10.9570  -10.6907  -10.6907  -10.6907  -10.6907
  -10.6839  -10.5413   -6.2603   -6.0644   -5.7438   -5.7438   -5.7438   -5.7438   -5.5491   -5.5491
   -5.5491   -5.5491   -1.9935   -1.9935   -1.8929   -1.8929    0.4759    0.5810    0.7014    0.7014
    0.7589    0.7589    0.8837    0.8837    0.9531    0.9531    3.1175    3.1175    3.1212    3.1212
    3.1477    3.1477    3.1477    3.1477    3.2071    3.2072    3.2072    3.2072    3.5011    3.5011
    3.5223    3.5223    3.6620    3.6620    3.7442    3.7442    5.5209    5.5209    5.5347    5.5347
    8.3669    8.3669    8.3669    8.3669    8.4159    8.4159    8.4159    8.4159    9.6180    9.6180
    9.6276    9.6276   10.8156   10.8163   12.7676   12.8614   13.3821   13.3821   13.3821   13.3821
   13.4036   13.4036   13.4036   13.4036
  27  1  -27.6361  -27.6212  -26.9285  -26.9285  -26.9100  -26.9100  -25.0227  -25.0227  -24.9230  -24.9230
         -23.8980  -23.7732  -23.4718  -23.4718  -23.3731  -23.3731  -22.8294  -22.7817  -21.4100  -21.3188
  -21.2225  -21.2225  -21.1104  -21.1103  -19.7770  -19.7485  -18.7811  -18.7811  -18.7478  -18.7478
  -17.9630  -17.9539  -17.4874  -17.4765  -16.7855  -16.7855  -16.7617  -16.7617  -16.3776  -16.3776
  -16.3719  -16.3719  -15.9955  -15.9955  -15.9856  -15.9856  -14.6833  -14.6833  -14.6590  -14.6590
  -14.4204  -14.4129  -14.3208  -14.2522  -13.7848  -13.7848  -13.7662  -13.7463  -13.6775  -13.6775
  -12.1470  -12.1470  -11.9130  -11.9130  -11.0291  -10.7892  -10.7892  -10.7443  -10.5854  -10.5854
  -10.1393   -9.9821   -6.6856   -6.6004   -6.0930   -6.0930   -5.8810   -5.8810   -5.5620   -5.3986
   -3.8830   -3.8829   -3.7324   -3.7324   -0.3916   -0.3916   -0.3142   -0.3142    1.0951    1.1410
    1.2138    1.2299    1.2299    1.2965    1.3252    1.3253    1.6592    1.6592    1.7236    1.7236
    2.0083    2.0173    3.0809    3.1452    3.3304    3.3304    3.3676    3.3676    3.6864    3.6864
    3.7107    3.7107    4.9449    4.9572    5.1973    5.2271    6.1541    6.1541    6.1699    6.1699
    6.6920    6.7664    7.1896    7.1896    7.2009    7.2009    9.2664    9.3437   10.0863   10.0863
   10.1213   10.1213   11.8355   11.8356   11.8445   11.8445   13.0260   13.0260   13.0836   13.0836
   13.5295   13.5337   13.9506   13.9743
  28  1  -27.4519  -27.4519  -27.4454  -27.4454  -26.1025  -26.1025  -26.0450  -26.0450  -23.7799  -23.7799
         -23.7799  -23.7799  -23.6592  -23.6592  -23.6592  -23.6592  -23.2304  -23.1864  -21.6283  -21.5180
  -20.3800  -20.3800  -20.3800  -20.3800  -20.2958  -20.2958  -20.2958  -20.2958  -17.3150  -17.3150
  -17.3150  -17.3150  -17.3038  -17.3038  -17.3038  -17.3038  -17.2529  -17.2529  -17.2488  -17.2488
  -15.9713  -15.9621  -15.8501  -15.8501  -15.8131  -15.8131  -14.9595  -14.9595  -14.9433  -14.9433
  -14.1855  -14.1855  -14.1070  -14.1070  -13.9037  -13.9037  -13.8858  -13.8858  -13.1090  -13.1090
  -12.9471  -12.9471  -10.9570  -10.9570  -10.9570  -10.9570  -10.6907  -10.6907  -10.6907  -10.6907
  -10.6839  -10.5413   -6.2603   -6.0644   -5.7438   -5.7438   -5.7438   -5.7438   -5.5491   -5.5491
   -5.5491   -5.5491   -1.9935   -1.9935   -1.8929   -1.8929    0.4759    0.5810    0.7014    0.7014
    0.7589    0.7589    0.8837    0.8837    0.9531    0.9531    3.1175    3.1175    3.1212    3.1212
    3.1477    3.1477    3.1477    3.1477    3.2071    3.2072    3.2072    3.2072    3.5011    3.5011
    3.5223    3.5223    3.6620    3.6620    3.7442    3.7442    5.5209    5.5209    5.5347    5.5347
    8.3669    8.3669    8.3669    8.3669    8.4159    8.4159    8.4159    8.4159    9.6180    9.6180
    9.6276    9.6276   10.8156   10.8163   12.7676   12.8614   13.3821   13.3821   13.3821   13.3821
   13.4036   13.4036   13.4036   13.4036
  29  1  -27.6347  -27.6347  -26.9253  -26.9253  -26.9253  -26.9253  -24.9773  -24.9773  -24.9773  -24.9773
         -23.8382  -23.8382  -23.4228  -23.4228  -23.4227  -23.4227  -22.8033  -22.8033  -21.3688  -21.3688
  -21.1698  -21.1698  -21.1698  -21.1698  -19.7621  -19.7621  -18.7647  -18.7647  -18.7647  -18.7647
  -17.9608  -17.9608  -17.4827  -17.4827  -16.7755  -16.7755  -16.7755  -16.7755  -16.3749  -16.3749
  -16.3749  -16.3749  -15.9913  -15.9913  -15.9913  -15.9913  -14.6736  -14.6736  -14.6736  -14.6736
  -14.4167  -14.4167  -14.2734  -14.2734  -13.7548  -13.7548  -13.7217  -13.7217  -13.7217  -13.7217
  -12.0340  -12.0340  -12.0340  -12.0340  -10.8923  -10.8923  -10.6880  -10.6880  -10.6880  -10.6880
  -10.0581  -10.0581   -6.6547   -6.6547   -5.9983   -5.9983   -5.9983   -5.9983   -5.4809   -5.4809
   -3.8081   -3.8081   -3.8081   -3.8081   -0.3530   -0.3530   -0.3530   -0.3530    1.1170    1.1170
    1.2695    1.2695    1.2794    1.2794    1.2795    1.2795    1.7044    1.7044    1.7044    1.7044
    2.0128    2.0128    3.1144    3.1144    3.3525    3.3525    3.3525    3.3525    3.7024    3.7024
    3.7024    3.7024    4.9510    4.9510    5.2123    5.2123    6.1696    6.1696    6.1696    6.1696
    6.7344    6.7344    7.1964    7.1964    7.1964    7.1964    9.3048    9.3048   10.1045   10.1045
   10.1045   10.1045   11.8404   11.8404   11.8404   11.8404   13.0557   13.0557   13.0557   13.0557
   13.5316   13.5316   13.9624   13.9624
  30  1  -27.9997  -27.9997  -26.5817  -26.5816  -25.9167  -25.9167  -25.9166  -25.9166  -24.6868  -24.6868
         -24.6868  -24.6868  -24.1387  -24.1387  -22.6442  -22.6442  -22.6442  -22.6442  -20.9211  -20.9211
  -20.9211  -20.9211  -20.5095  -20.5095  -19.6323  -19.6323  -19.6323  -19.6323  -18.5539  -18.5539
  -18.5539  -18.5539  -17.8261  -17.8261  -17.8261  -17.8261  -16.8452  -16.8452  -16.0759  -16.0759
  -16.0759  -16.0759  -15.8211  -15.8211  -15.4922  -15.4922  -15.4922  -15.4922  -14.7185  -14.7185
  -14.5367  -14.5367  -13.4495  -13.4495  -13.4340  -13.4340  -13.1437  -13.1437  -12.8900  -12.8900
  -12.8900  -12.8900  -11.7866  -11.7866  -11.7866  -11.7866  -11.3147  -11.3147   -9.6513   -9.6513
   -9.6513   -9.6513   -7.0006   -7.0006   -7.0006   -7.0006   -5.1487   -5.1487   -4.3251   -4.3251
   -4.3251   -4.3251   -2.2636   -2.2636   -2.2635   -2.2635   -1.0412   -1.0412    0.6029    0.6029
    0.6085    0.6085    0.9405    0.9405    1.1178    1.1178    1.4133    1.4133    1.4133    1.4133
    1.6066    1.6066    1.6066    1.6066    1.9337    1.9337    4.3088    4.3088    5.3033    5.3033
    5.3033    5.3033    5.7305    5.7305    6.1785    6.1785    6.1785    6.1785    7.5761    7.5761
    7.9528    7.9528    7.9529    7.9529    8.5918    8.5918    8.5918    8.5918    9.5895    9.5895
    9.5895    9.5895   10.1371   10.1371   11.7318   11.7318   11.7318   11.7318   11.9893   11.9893
   14.4347   14.4347   14.4347   14.4347
  31  1  -27.9997  -27.9997  -26.5817  -26.5816  -25.9167  -25.9167  -25.9166  -25.9166  -24.6868  -24.6868
         -24.6868  -24.6868  -24.1387  -24.1387  -22.6442  -22.6442  -22.6442  -22.6442  -20.9211  -20.9211
  -20.9211  -20.9211  -20.5095  -20.5095  -19.6323  -19.6323  -19.6323  -19.6323  -18.5539  -18.5539
  -18.5539  -18.5539  -17.8261  -17.8261  -17.8261  -17.8261  -16.8452  -16.8452  -16.0759  -16.0759
  -16.0759  -16.0759  -15.8211  -15.8211  -15.4922  -15.4922  -15.4922  -15.4922  -14.7185  -14.7185
  -14.5367  -14.5367  -13.4495  -13.4495  -13.4340  -13.4340  -13.1437  -13.1437  -12.8900  -12.8900
  -12.8900  -12.8900  -11.7866  -11.7866  -11.7866  -11.7866  -11.3147  -11.3147   -9.6513   -9.6513
   -9.6513   -9.6513   -7.0006   -7.0006   -7.0006   -7.0006   -5.1487   -5.1487   -4.3251   -4.3251
   -4.3251   -4.3251   -2.2636   -2.2636   -2.2635   -2.2635   -1.0412   -1.0412    0.6029    0.6029
    0.6085    0.6085    0.9405    0.9405    1.1178    1.1178    1.4133    1.4133    1.4133    1.4133
    1.6066    1.6066    1.6066    1.6066    1.9337    1.9337    4.3088    4.3088    5.3033    5.3033
    5.3033    5.3033    5.7305    5.7305    6.1785    6.1785    6.1785    6.1785    7.5761    7.5761
    7.9528    7.9528    7.9529    7.9529    8.5918    8.5918    8.5918    8.5918    9.5895    9.5895
    9.5895    9.5895   10.1371   10.1371   11.7318   11.7318   11.7318   11.7318   11.9893   11.9893
   14.4347   14.4347   14.4347   14.4347
  32  1  -27.6347  -27.6347  -26.9253  -26.9253  -26.9253  -26.9253  -24.9773  -24.9773  -24.9773  -24.9773
         -23.8382  -23.8382  -23.4228  -23.4228  -23.4227  -23.4227  -22.8033  -22.8033  -21.3688  -21.3688
  -21.1698  -21.1698  -21.1698  -21.1698  -19.7621  -19.7621  -18.7647  -18.7647  -18.7647  -18.7647
  -17.9608  -17.9608  -17.4827  -17.4827  -16.7755  -16.7755  -16.7755  -16.7755  -16.3749  -16.3749
  -16.3749  -16.3749  -15.9913  -15.9913  -15.9913  -15.9913  -14.6736  -14.6736  -14.6736  -14.6736
  -14.4167  -14.4167  -14.2734  -14.2734  -13.7548  -13.7548  -13.7217  -13.7217  -13.7217  -13.7217
  -12.0340  -12.0340  -12.0340  -12.0340  -10.8923  -10.8923  -10.6880  -10.6880  -10.6880  -10.6880
  -10.0581  -10.0581   -6.6547   -6.6547   -5.9983   -5.9983   -5.9983   -5.9983   -5.4809   -5.4809
   -3.8081   -3.8081   -3.8081   -3.8081   -0.3530   -0.3530   -0.3530   -0.3530    1.1170    1.1170
    1.2695    1.2695    1.2794    1.2794    1.2795    1.2795    1.7044    1.7044    1.7044    1.7044
    2.0128    2.0128    3.1144    3.1144    3.3525    3.3525    3.3525    3.3525    3.7024    3.7024
    3.7024    3.7024    4.9510    4.9510    5.2123    5.2123    6.1696    6.1696    6.1696    6.1696
    6.7344    6.7344    7.1964    7.1964    7.1964    7.1964    9.3048    9.3048   10.1045   10.1045
   10.1045   10.1045   11.8404   11.8404   11.8404   11.8404   13.0557   13.0557   13.0557   13.0557
   13.5316   13.5316   13.9624   13.9624
  33  1  -27.9997  -27.9997  -26.5817  -26.5816  -25.9167  -25.9167  -25.9166  -25.9166  -24.6868  -24.6868
         -24.6868  -24.6868  -24.1387  -24.1387  -22.6442  -22.6442  -22.6442  -22.6442  -20.9211  -20.9211
  -20.9211  -20.9211  -20.5095  -20.5095  -19.6323  -19.6323  -19.6323  -19.6323  -18.5539  -18.5539
  -18.5539  -18.5539  -17.8261  -17.8261  -17.8261  -17.8261  -16.8452  -16.8452  -16.0759  -16.0759
  -16.0759  -16.0759  -15.8211  -15.8211  -15.4922  -15.4922  -15.4922  -15.4922  -14.7185  -14.7185
  -14.5367  -14.5367  -13.4495  -13.4495  -13.4340  -13.4340  -13.1437  -13.1437  -12.8900  -12.8900
  -12.8900  -12.8900  -11.7866  -11.7866  -11.7866  -11.7866  -11.3147  -11.3147   -9.6513   -9.6513
   -9.6513   -9.6513   -7.0006   -7.0006   -7.0006   -7.0006   -5.1487   -5.1487   -4.3251   -4.3251
   -4.3251   -4.3251   -2.2636   -2.2636   -2.2635   -2.2635   -1.0412   -1.0412    0.6029    0.6029
    0.6085    0.6085    0.9405    0.9405    1.1178    1.1178    1.4133    1.4133    1.4133    1.4133
    1.6066    1.6066    1.6066    1.6066    1.9337    1.9337    4.3088    4.3088    5.3033    5.3033
    5.3033    5.3033    5.7305    5.7305    6.1785    6.1785    6.1785    6.1785    7.5761    7.5761
    7.9528    7.9528    7.9529    7.9529    8.5918    8.5918    8.5918    8.5918    9.5895    9.5895
    9.5895    9.5895   10.1371   10.1371   11.7318   11.7318   11.7318   11.7318   11.9893   11.9893
   14.4347   14.4347   14.4347   14.4347
  34  1  -28.1846  -28.1846  -25.4401  -25.4401  -25.4401  -25.4401  -25.4401  -25.4401  -25.4401  -25.4401
         -25.4401  -25.4401  -25.4401  -25.4401  -21.6355  -21.6355  -21.6355  -21.6355  -21.6304  -21.6304
  -21.6304  -21.6304  -19.1263  -19.1263  -19.1263  -19.1263  -18.7647  -18.7647  -18.7647  -18.7647
  -18.7647  -18.7647  -18.7647  -18.7647  -18.7647  -18.7647  -18.7647  -18.7647  -15.3932  -15.3932
  -15.3932  -15.3932  -15.3932  -15.3932  -15.3932  -15.3932  -15.3932  -15.3932  -15.3932  -15.3932
  -14.6682  -14.6682  -12.8217  -12.8217  -12.8217  -12.8217  -12.4780  -12.4780  -12.4780  -12.4780
  -12.4780  -12.4780  -12.4780  -12.4780  -12.4780  -12.4780  -12.4780  -12.4780   -8.3489   -8.3489
   -8.3489   -8.3489   -8.3446   -8.3446   -8.3446   -8.3446   -3.1295   -3.1295   -3.1295   -3.1295
   -3.1295   -3.1295   -3.1295   -3.1295   -3.1295   -3.1295   -3.1295   -3.1295    0.3504    0.3504
    0.3504    0.3504    0.7773    0.7773    0.7773    0.7773    0.7773    0.7773    0.7773    0.7773
    0.7773    0.7773    0.7773    0.7773    2.3599    2.3599    3.9659    3.9659    6.9962    6.9962
    6.9962    6.9962    6.9980    6.9980    6.9981    6.9981    8.2815    8.2815    8.2815    8.2815
    8.2815    8.2815    8.2816    8.2816    8.2816    8.2816    8.2816    8.2816    9.9576    9.9576
    9.9576    9.9576    9.9576    9.9576    9.9576    9.9576    9.9576    9.9576    9.9576    9.9576
   14.7886   14.7886   14.7886   14.7886
  35  1  -27.9997  -27.9997  -26.5817  -26.5816  -25.9167  -25.9167  -25.9166  -25.9166  -24.6868  -24.6868
         -24.6868  -24.6868  -24.1387  -24.1387  -22.6442  -22.6442  -22.6442  -22.6442  -20.9211  -20.9211
  -20.9211  -20.9211  -20.5095  -20.5095  -19.6323  -19.6323  -19.6323  -19.6323  -18.5539  -18.5539
  -18.5539  -18.5539  -17.8261  -17.8261  -17.8261  -17.8261  -16.8452  -16.8452  -16.0759  -16.0759
  -16.0759  -16.0759  -15.8211  -15.8211  -15.4922  -15.4922  -15.4922  -15.4922  -14.7185  -14.7185
  -14.5367  -14.5367  -13.4495  -13.4495  -13.4340  -13.4340  -13.1437  -13.1437  -12.8900  -12.8900
  -12.8900  -12.8900  -11.7866  -11.7866  -11.7866  -11.7866  -11.3147  -11.3147   -9.6513   -9.6513
   -9.6513   -9.6513   -7.0006   -7.0006   -7.0006   -7.0006   -5.1487   -5.1487   -4.3251   -4.3251
   -4.3251   -4.3251   -2.2636   -2.2636   -2.2635   -2.2635   -1.0412   -1.0412    0.6029    0.6029
    0.6085    0.6085    0.9405    0.9405    1.1178    1.1178    1.4133    1.4133    1.4133    1.4133
    1.6066    1.6066    1.6066    1.6066    1.9337    1.9337    4.3088    4.3088    5.3033    5.3033
    5.3033    5.3033    5.7305    5.7305    6.1785    6.1785    6.1785    6.1785    7.5761    7.5761
    7.9528    7.9528    7.9529    7.9529    8.5918    8.5918    8.5918    8.5918    9.5895    9.5895
    9.5895    9.5895   10.1371   10.1371   11.7318   11.7318   11.7318   11.7318   11.9893   11.9893
   14.4347   14.4347   14.4347   14.4347
  36  1  -27.4547  -27.4547  -27.4547  -27.4547  -26.0794  -26.0794  -26.0794  -26.0794  -23.7216  -23.7216
         -23.7216  -23.7216  -23.7216  -23.7216  -23.7216  -23.7216  -23.2063  -23.2063  -21.5790  -21.5790
  -20.3389  -20.3389  -20.3389  -20.3389  -20.3389  -20.3389  -20.3389  -20.3389  -17.3104  -17.3104
  -17.3104  -17.3104  -17.3104  -17.3104  -17.3104  -17.3104  -17.2507  -17.2507  -17.2507  -17.2507
  -15.9666  -15.9666  -15.8345  -15.8345  -15.8345  -15.8345  -14.9536  -14.9536  -14.9535  -14.9535
  -14.1319  -14.1319  -14.1319  -14.1319  -13.8947  -13.8947  -13.8947  -13.8947  -13.0261  -13.0261
  -13.0261  -13.0261  -10.8282  -10.8282  -10.8282  -10.8282  -10.8282  -10.8282  -10.8282  -10.8282
  -10.6107  -10.6107   -6.1784   -6.1784   -5.6502   -5.6502   -5.6502   -5.6502   -5.6502   -5.6502
   -5.6502   -5.6502   -1.9431   -1.9431   -1.9431   -1.9431    0.5301    0.5301    0.7284    0.7284
    0.7284    0.7284    0.9330    0.9330    0.9330    0.9330    3.1193    3.1193    3.1194    3.1194
    3.1793    3.1793    3.1794    3.1794    3.1794    3.1794    3.1794    3.1794    3.5124    3.5124
    3.5124    3.5124    3.7191    3.7191    3.7191    3.7191    5.5303    5.5303    5.5303    5.5303
    8.3936    8.3936    8.3936    8.3936    8.3936    8.3936    8.3936    8.3936    9.6228    9.6228
    9.6228    9.6228   10.8160   10.8160   12.8157   12.8157   13.3932   13.3932   13.3932   13.3932
   13.3932   13.3932   13.3932   13.3932
  37  1  -27.9997  -27.9997  -26.5817  -26.5816  -25.9167  -25.9167  -25.9166  -25.9166  -24.6868  -24.6868
         -24.6868  -24.6868  -24.1387  -24.1387  -22.6442  -22.6442  -22.6442  -22.6442  -20.9211  -20.9211
  -20.9211  -20.9211  -20.5095  -20.5095  -19.6323  -19.6323  -19.6323  -19.6323  -18.5539  -18.5539
  -18.5539  -18.5539  -17.8261  -17.8261  -17.8261  -17.8261  -16.8452  -16.8452  -16.0759  -16.0759
  -16.0759  -16.0759  -15.8211  -15.8211  -15.4922  -15.4922  -15.4922  -15.4922  -14.7185  -14.7185
  -14.5367  -14.5367  -13.4495  -13.4495  -13.4340  -13.4340  -13.1437  -13.1437  -12.8900  -12.8900
  -12.8900  -12.8900  -11.7866  -11.7866  -11.7866  -11.7866  -11.3147  -11.3147   -9.6513   -9.6513
   -9.6513   -9.6513   -7.0006   -7.0006   -7.0006   -7.0006   -5.1487   -5.1487   -4.3251   -4.3251
   -4.3251   -4.3251   -2.2636   -2.2636   -2.2635   -2.2635   -1.0412   -1.0412    0.6029    0.6029
    0.6085    0.6085    0.9405    0.9405    1.1178    1.1178    1.4133    1.4133    1.4133    1.4133
    1.6066    1.6066    1.6066    1.6066    1.9337    1.9337    4.3088    4.3088    5.3033    5.3033
    5.3033    5.3033    5.7305    5.7305    6.1785    6.1785    6.1785    6.1785    7.5761    7.5761
    7.9528    7.9528    7.9529    7.9529    8.5918    8.5918    8.5918    8.5918    9.5895    9.5895
    9.5895    9.5895   10.1371   10.1371   11.7318   11.7318   11.7318   11.7318   11.9893   11.9893
   14.4347   14.4347   14.4347   14.4347
  38  1  -27.9997  -27.9997  -26.5817  -26.5816  -25.9167  -25.9167  -25.9166  -25.9166  -24.6868  -24.6868
         -24.6868  -24.6868  -24.1387  -24.1387  -22.6442  -22.6442  -22.6442  -22.6442  -20.9211  -20.9211
  -20.9211  -20.9211  -20.5095  -20.5095  -19.6323  -19.6323  -19.6323  -19.6323  -18.5539  -18.5539
  -18.5539  -18.5539  -17.8261  -17.8261  -17.8261  -17.8261  -16.8452  -16.8452  -16.0759  -16.0759
  -16.0759  -16.0759  -15.8211  -15.8211  -15.4922  -15.4922  -15.4922  -15.4922  -14.7185  -14.7185
  -14.5367  -14.5367  -13.4495  -13.4495  -13.4340  -13.4340  -13.1437  -13.1437  -12.8900  -12.8900
  -12.8900  -12.8900  -11.7866  -11.7866  -11.7866  -11.7866  -11.3147  -11.3147   -9.6513   -9.6513
   -9.6513   -9.6513   -7.0006   -7.0006   -7.0006   -7.0006   -5.1487   -5.1487   -4.3251   -4.3251
   -4.3251   -4.3251   -2.2636   -2.2636   -2.2635   -2.2635   -1.0412   -1.0412    0.6029    0.6029
    0.6085    0.6085    0.9405    0.9405    1.1178    1.1178    1.4133    1.4133    1.4133    1.4133
    1.6066    1.6066    1.6066    1.6066    1.9337    1.9337    4.3088    4.3088    5.3033    5.3033
    5.3033    5.3033    5.7305    5.7305    6.1785    6.1785    6.1785    6.1785    7.5761    7.5761
    7.9528    7.9528    7.9529    7.9529    8.5918    8.5918    8.5918    8.5918    9.5895    9.5895
    9.5895    9.5895   10.1371   10.1371   11.7318   11.7318   11.7318   11.7318   11.9893   11.9893
   14.4347   14.4347   14.4347   14.4347
  39  1  -27.6347  -27.6347  -26.9253  -26.9253  -26.9253  -26.9253  -24.9773  -24.9773  -24.9773  -24.9773
         -23.8382  -23.8382  -23.4228  -23.4228  -23.4227  -23.4227  -22.8033  -22.8033  -21.3688  -21.3688
  -21.1698  -21.1698  -21.1698  -21.1698  -19.7621  -19.7621  -18.7647  -18.7647  -18.7647  -18.7647
  -17.9608  -17.9608  -17.4827  -17.4827  -16.7755  -16.7755  -16.7755  -16.7755  -16.3749  -16.3749
  -16.3749  -16.3749  -15.9913  -15.9913  -15.9913  -15.9913  -14.6736  -14.6736  -14.6736  -14.6736
  -14.4167  -14.4167  -14.2734  -14.2734  -13.7548  -13.7548  -13.7217  -13.7217  -13.7217  -13.7217
  -12.0340  -12.0340  -12.0340  -12.0340  -10.8923  -10.8923  -10.6880  -10.6880  -10.6880  -10.6880
  -10.0581  -10.0581   -6.6547   -6.6547   -5.9983   -5.9983   -5.9983   -5.9983   -5.4809   -5.4809
   -3.8081   -3.8081   -3.8081   -3.8081   -0.3530   -0.3530   -0.3530   -0.3530    1.1170    1.1170
    1.2695    1.2695    1.2794    1.2794    1.2795    1.2795    1.7044    1.7044    1.7044    1.7044
    2.0128    2.0128    3.1144    3.1144    3.3525    3.3525    3.3525    3.3525    3.7024    3.7024
    3.7024    3.7024    4.9510    4.9510    5.2123    5.2123    6.1696    6.1696    6.1696    6.1696
    6.7344    6.7344    7.1964    7.1964    7.1964    7.1964    9.3048    9.3048   10.1045   10.1045
   10.1045   10.1045   11.8404   11.8404   11.8404   11.8404   13.0557   13.0557   13.0557   13.0557
   13.5316   13.5316   13.9624   13.9624
  40  1  -27.6347  -27.6347  -26.9253  -26.9253  -26.9253  -26.9253  -24.9773  -24.9773  -24.9773  -24.9773
         -23.8382  -23.8382  -23.4228  -23.4228  -23.4227  -23.4227  -22.8033  -22.8033  -21.3688  -21.3688
  -21.1698  -21.1698  -21.1698  -21.1698  -19.7621  -19.7621  -18.7647  -18.7647  -18.7647  -18.7647
  -17.9608  -17.9608  -17.4827  -17.4827  -16.7755  -16.7755  -16.7755  -16.7755  -16.3749  -16.3749
  -16.3749  -16.3749  -15.9913  -15.9913  -15.9913  -15.9913  -14.6736  -14.6736  -14.6736  -14.6736
  -14.4167  -14.4167  -14.2734  -14.2734  -13.7548  -13.7548  -13.7217  -13.7217  -13.7217  -13.7217
  -12.0340  -12.0340  -12.0340  -12.0340  -10.8923  -10.8923  -10.6880  -10.6880  -10.6880  -10.6880
  -10.0581  -10.0581   -6.6547   -6.6547   -5.9983   -5.9983   -5.9983   -5.9983   -5.4809   -5.4809
   -3.8081   -3.8081   -3.8081   -3.8081   -0.3530   -0.3530   -0.3530   -0.3530    1.1170    1.1170
    1.2695    1.2695    1.2794    1.2794    1.2795    1.2795    1.7044    1.7044    1.7044    1.7044
    2.0128    2.0128    3.1144    3.1144    3.3525    3.3525    3.3525    3.3525    3.7024    3.7024
    3.7024    3.7024    4.9510    4.9510    5.2123    5.2123    6.1696    6.1696    6.1696    6.1696
    6.7344    6.7344    7.1964    7.1964    7.1964    7.1964    9.3048    9.3048   10.1045   10.1045
   10.1045   10.1045   11.8404   11.8404   11.8404   11.8404   13.0557   13.0557   13.0557   13.0557
   13.5316   13.5316   13.9624   13.9624
  41  1  -27.6347  -27.6347  -26.9253  -26.9253  -26.9253  -26.9253  -24.9773  -24.9773  -24.9773  -24.9773
         -23.8382  -23.8382  -23.4228  -23.4228  -23.4227  -23.4227  -22.8033  -22.8033  -21.3688  -21.3688
  -21.1698  -21.1698  -21.1698  -21.1698  -19.7621  -19.7621  -18.7647  -18.7647  -18.7647  -18.7647
  -17.9608  -17.9608  -17.4827  -17.4827  -16.7755  -16.7755  -16.7755  -16.7755  -16.3749  -16.3749
  -16.3749  -16.3749  -15.9913  -15.9913  -15.9913  -15.9913  -14.6736  -14.6736  -14.6736  -14.6736
  -14.4167  -14.4167  -14.2734  -14.2734  -13.7548  -13.7548  -13.7217  -13.7217  -13.7217  -13.7217
  -12.0340  -12.0340  -12.0340  -12.0340  -10.8923  -10.8923  -10.6880  -10.6880  -10.6880  -10.6880
  -10.0581  -10.0581   -6.6547   -6.6547   -5.9983   -5.9983   -5.9983   -5.9983   -5.4809   -5.4809
   -3.8081   -3.8081   -3.8081   -3.8081   -0.3530   -0.3530   -0.3530   -0.3530    1.1170    1.1170
    1.2695    1.2695    1.2794    1.2794    1.2795    1.2795    1.7044    1.7044    1.7044    1.7044
    2.0128    2.0128    3.1144    3.1144    3.3525    3.3525    3.3525    3.3525    3.7024    3.7024
    3.7024    3.7024    4.9510    4.9510    5.2123    5.2123    6.1696    6.1696    6.1696    6.1696
    6.7344    6.7344    7.1964    7.1964    7.1964    7.1964    9.3048    9.3048   10.1045   10.1045
   10.1045   10.1045   11.8404   11.8404   11.8404   11.8404   13.0557   13.0557   13.0557   13.0557
   13.5316   13.5316   13.9624   13.9624
  42  1  -27.4547  -27.4547  -27.4547  -27.4547  -26.0794  -26.0794  -26.0794  -26.0794  -23.7216  -23.7216
         -23.7216  -23.7216  -23.7216  -23.7216  -23.7216  -23.7216  -23.2063  -23.2063  -21.5790  -21.5790
  -20.3389  -20.3389  -20.3389  -20.3389  -20.3389  -20.3389  -20.3389  -20.3389  -17.3104  -17.3104
  -17.3104  -17.3104  -17.3104  -17.3104  -17.3104  -17.3104  -17.2507  -17.2507  -17.2507  -17.2507
  -15.9666  -15.9666  -15.8345  -15.8345  -15.8345  -15.8345  -14.9536  -14.9536  -14.9535  -14.9535
  -14.1319  -14.1319  -14.1319  -14.1319  -13.8947  -13.8947  -13.8947  -13.8947  -13.0261  -13.0261
  -13.0261  -13.0261  -10.8282  -10.8282  -10.8282  -10.8282  -10.8282  -10.8282  -10.8282  -10.8282
  -10.6107  -10.6107   -6.1784   -6.1784   -5.6502   -5.6502   -5.6502   -5.6502   -5.6502   -5.6502
   -5.6502   -5.6502   -1.9431   -1.9431   -1.9431   -1.9431    0.5301    0.5301    0.7284    0.7284
    0.7284    0.7284    0.9330    0.9330    0.9330    0.9330    3.1193    3.1193    3.1194    3.1194
    3.1793    3.1793    3.1794    3.1794    3.1794    3.1794    3.1794    3.1794    3.5124    3.5124
    3.5124    3.5124    3.7191    3.7191    3.7191    3.7191    5.5303    5.5303    5.5303    5.5303
    8.3936    8.3936    8.3936    8.3936    8.3936    8.3936    8.3936    8.3936    9.6228    9.6228
    9.6228    9.6228   10.8160   10.8160   12.8157   12.8157   13.3932   13.3932   13.3932   13.3932
   13.3932   13.3932   13.3932   13.3932
  43  1  -27.6347  -27.6347  -26.9253  -26.9253  -26.9253  -26.9253  -24.9773  -24.9773  -24.9773  -24.9773
         -23.8382  -23.8382  -23.4228  -23.4228  -23.4227  -23.4227  -22.8033  -22.8033  -21.3688  -21.3688
  -21.1698  -21.1698  -21.1698  -21.1698  -19.7621  -19.7621  -18.7647  -18.7647  -18.7647  -18.7647
  -17.9608  -17.9608  -17.4827  -17.4827  -16.7755  -16.7755  -16.7755  -16.7755  -16.3749  -16.3749
  -16.3749  -16.3749  -15.9913  -15.9913  -15.9913  -15.9913  -14.6736  -14.6736  -14.6736  -14.6736
  -14.4167  -14.4167  -14.2734  -14.2734  -13.7548  -13.7548  -13.7217  -13.7217  -13.7217  -13.7217
  -12.0340  -12.0340  -12.0340  -12.0340  -10.8923  -10.8923  -10.6880  -10.6880  -10.6880  -10.6880
  -10.0581  -10.0581   -6.6547   -6.6547   -5.9983   -5.9983   -5.9983   -5.9983   -5.4809   -5.4809
   -3.8081   -3.8081   -3.8081   -3.8081   -0.3530   -0.3530   -0.3530   -0.3530    1.1170    1.1170
    1.2695    1.2695    1.2794    1.2794    1.2795    1.2795    1.7044    1.7044    1.7044    1.7044
    2.0128    2.0128    3.1144    3.1144    3.3525    3.3525    3.3525    3.3525    3.7024    3.7024
    3.7024    3.7024    4.9510    4.9510    5.2123    5.2123    6.1696    6.1696    6.1696    6.1696
    6.7344    6.7344    7.1964    7.1964    7.1964    7.1964    9.3048    9.3048   10.1045   10.1045
   10.1045   10.1045   11.8404   11.8404   11.8404   11.8404   13.0557   13.0557   13.0557   13.0557
   13.5316   13.5316   13.9624   13.9624
  44  1  -27.4547  -27.4547  -27.4547  -27.4547  -26.0794  -26.0794  -26.0794  -26.0794  -23.7216  -23.7216
         -23.7216  -23.7216  -23.7216  -23.7216  -23.7216  -23.7216  -23.2063  -23.2063  -21.5790  -21.5790
  -20.3389  -20.3389  -20.3389  -20.3389  -20.3389  -20.3389  -20.3389  -20.3389  -17.3104  -17.3104
  -17.3104  -17.3104  -17.3104  -17.3104  -17.3104  -17.3104  -17.2507  -17.2507  -17.2507  -17.2507
  -15.9666  -15.9666  -15.8345  -15.8345  -15.8345  -15.8345  -14.9536  -14.9536  -14.9535  -14.9535
  -14.1319  -14.1319  -14.1319  -14.1319  -13.8947  -13.8947  -13.8947  -13.8947  -13.0261  -13.0261
  -13.0261  -13.0261  -10.8282  -10.8282  -10.8282  -10.8282  -10.8282  -10.8282  -10.8282  -10.8282
  -10.6107  -10.6107   -6.1784   -6.1784   -5.6502   -5.6502   -5.6502   -5.6502   -5.6502   -5.6502
   -5.6502   -5.6502   -1.9431   -1.9431   -1.9431   -1.9431    0.5301    0.5301    0.7284    0.7284
    0.7284    0.7284    0.9330    0.9330    0.9330    0.9330    3.1193    3.1193    3.1194    3.1194
    3.1793    3.1793    3.1794    3.1794    3.1794    3.1794    3.1794    3.1794    3.5124    3.5124
    3.5124    3.5124    3.7191    3.7191    3.7191    3.7191    5.5303    5.5303    5.5303    5.5303
    8.3936    8.3936    8.3936    8.3936    8.3936    8.3936    8.3936    8.3936    9.6228    9.6228
    9.6228    9.6228   10.8160   10.8160   12.8157   12.8157   13.3932   13.3932   13.3932   13.3932
   13.3932   13.3932   13.3932   13.3932
siesta: Fermi energy =      -8.346761 eV

siesta: Program's energy decomposition (eV):
siesta: Ebs     =     -2579.524489
siesta: Eions   =      9434.507561
siesta: Ena     =      2270.521424
siesta: Ekin    =      3596.237674
siesta: Enl     =      -335.592559
siesta: Eso     =         0.000000
siesta: Edftu   =         0.000000
siesta: DEna    =        16.393425
siesta: DUscf   =         2.646910
siesta: DUext   =         0.000000
siesta: Exc     =     -1624.098602
siesta: eta*DQ  =         0.000000
siesta: Emadel  =         0.000000
siesta: Emeta   =         0.000000
siesta: Emolmec =        -3.510176
siesta: Ekinion =         0.000000
siesta: Eharris =     -5511.909466
siesta: Etot    =     -5511.909466
siesta: FreeEng =     -5511.920709

siesta: Final energy (eV):
siesta:  Band Struct. =   -2579.524489
siesta:       Kinetic =    3596.237674
siesta:       Hartree =    1743.691950
siesta:       Edftu   =       0.000000
siesta:       Eso     =       0.000000
siesta:    Ext. field =       0.000000
siesta:   Exch.-corr. =   -1624.098602
siesta:  Ion-electron =   -7540.499859
siesta:       Ion-ion =   -1683.730453
siesta:       Ekinion =       0.000000
siesta:         Total =   -5511.909466
siesta:         Fermi =      -8.346761

siesta: Stress tensor (static) (eV/Ang**3):
siesta:    -0.227703    0.000000   -0.000000
siesta:     0.000000   -0.227703   -0.000000
siesta:     0.000000   -0.000000    0.103747

siesta: Cell volume =        355.680298 Ang**3

siesta: Pressure (static):
siesta:                Solid            Molecule  Units
siesta:           0.00127667          0.00127670  Ry/Bohr**3
siesta:           0.11721973          0.11722213  eV/Ang**3
siesta:         187.80873568        187.81259173  kBar
(Free)E+ p_basis*V_orbitals  =       -5493.617662
(Free)Eharris+ p_basis*V_orbitals  =       -5493.617662

cite: Please see "graphite_scf.bib" for an exhaustive BiBTeX file.
cite: Please clearly indicate Siesta version in published work: 4.1.5
cite: This calculation has made use of the following articles
cite: which are encouraged to be cited in a published work.
        Primary SIESTA paper
          DOI: www.doi.org/10.1088/0953-8984/14/11/302

>> End of run:   1-NOV-2022  14:31:08
Job completed
