Siesta Version  : 4.1.5
Architecture    : x86_64-unknown-linux-gnu--unknown
Compiler version: GNU Fortran (GCC) 11.3.0
Compiler flags  : mpif90 -g -O2 -fallow-argument-mismatch
PP flags        : -DMPI -DFC_HAVE_FLUSH -DFC_HAVE_ABORT
Libraries       :  -I/global/software/sl-7.x86_64/modules/intel/2020.4.304/mkl/include  /globall/software/sl-7.x86_64/modules/intel/2020.4.304/mkl/lib/intel64/libmkl_scalapack_lp64.a -Wl,--start-group /global/software/sl-7.x86_64/modules/intel/2020.4.304/mkl/lib/intel64/libmkl_intel_lp64.a /global/software/sl-7.x86_64/modules/intel/2020.4.304/mkl/lib/intel64/libmkl_sequential.a /global/software/sl-7.x86_64/modules/intel/2020.4.304/mkl/lib/intel64/libmkl_core.a /global/software/sl-7.x86_64/modules/intel/2020.4.304/mkl/lib/intel64/libmkl_blacs_openmpi_lp64.a -Wl,--end-group -lpthread -lm -ldl
PARALLEL version

* Running on 20 nodes in parallel
>> Start of run:   1-NOV-2022  14:19:02

                           ***********************       
                           *  WELCOME TO SIESTA  *       
                           ***********************       

reinit: Reading from standard input
reinit: Dumped input in INPUT_TMP.27413
************************** Dump of input data file ****************************
SystemName graphite_scf
SystemLabel graphite_scf
NumberOfAtoms   36
NumberOfSpecies 1
%block ChemicalSpeciesLabel
1  6   C-gga
%endblock ChemicalSpeciesLabel
PAO.BasisSize  SZ
PAO.EnergyShift  10 meV
%block PS.Lmax
C-gga   2
%endblock PS.Lmax
LatticeConstant 1.000000 Ang
%block LatticeVectors
	7.3920000000	0.0000000000	0.0000000000
	-3.6960000000	6.4016597848	0.0000000000
	0.0000000000	0.0000000000	6.2412300000
%endblock LatticeVectors
AtomicCoordinatesFormat Ang
%block AtomicCoordinatesAndAtomicSpecies
	0.00000000	0.00000000	1.56030750	1
	0.00000000	0.00000000	4.68092250	1
	-1.23200000	2.13388659	1.56030750	1
	-2.46400000	4.26777319	4.68092250	1
	2.46400000	4.26777319	1.56030750	1
	1.23200000	2.13388659	4.68092250	1
	2.46400000	0.00000000	1.56030750	1
	4.92800000	0.00000000	4.68092250	1
	2.46400000	0.00000000	4.68092250	1
	4.92800000	0.00000000	1.56030750	1
	2.46400000	4.26777319	4.68092250	1
	1.23200000	2.13388659	1.56030750	1
	-1.23200000	2.13388659	4.68092250	1
	-2.46400000	4.26777319	1.56030750	1
	0.00000000	4.26777319	1.56030750	1
	3.69600000	2.13388659	4.68092250	1
	3.69600000	2.13388659	1.56030750	1
	0.00000000	4.26777319	4.68092250	1
	0.00000000	1.42258964	1.56030750	1
	3.69600000	4.97907014	4.68092250	1
	2.46400123	5.69036496	1.56030750	1
	1.23199877	0.71129482	4.68092250	1
	-2.46400123	5.69036496	1.56030750	1
	6.16000123	0.71129482	4.68092250	1
	-1.23200000	3.55647624	1.56030750	1
	4.92800000	2.84518355	4.68092250	1
	1.23200123	3.55647837	1.56030750	1
	2.46399877	2.84518142	4.68092250	1
	-0.00000123	5.69036496	1.56030750	1
	3.69600123	0.71129482	4.68092250	1
	2.46400000	1.42258964	1.56030750	1
	1.23200000	4.97907014	4.68092250	1
	4.92800123	1.42259177	1.56030750	1
	-1.23200123	4.97906801	4.68092250	1
	3.69599877	3.55647837	1.56030750	1
	0.00000123	2.84518142	4.68092250	1
%endblock AtomicCoordinatesAndAtomicSpecies
Kgrid_NoTRS  T
%block kgrid_MonkhorstPack
4       0       0       0.0
0       4       0       0.0
0       0       4       0.0
%endblock kgrid_MonkhorstPack
AtomCoorFormatOut Ang
BlockSize 1
#ProcessorY 12
Diag.ParallelOverK   T
Diag.DivideAndConquer F
MeshCutoff   300 Ry
SCF.FreeE.Tolerance 1E-3 eV
SCF.EDM.Tolerance   5E-3 eV
DM.Tolerance  1E-3
DM.Require.Energy.Convergence T
DM.NumberPulay 4
#XC.Functional GGA
#CX.Authors    PBE
UseSaveData        F
SolutionMethod     diagon
MD.TypeOfRun       CG
MD.VariableCell    F
MD.NumCGsteps      00
MD.MaxCGDispl      0.200000 Bohr
#MD.MaxStressTol    1.000000 GPa
#MD.MaxForceTol     0.010000 eV/Ang
WriteMDHistory T
WriteCoorStep T
WriteForces T
WriteCoorStep    T
WriteEigenValues T
WriteDM    F
MM.UnitsDistance Ang  # what this program prints out DO NOT CHANGE
MM.UnitsEnergy    eV  # what this program prints out DO NOT CHANGE
MM.Grimme.S6     0.75 # Grimme-paper for PBE (correct for your functional)
MM.Grimme.D     20.   # Grimme-paper (correct for your functional)
%block MM.Potentials
  1   1 Grimme     18.14      2.904 # C, 10.1002/jcc.20495
%endblock MM.Potentials
#%block ProjectedDensityOfStates
# -200.0  120.0  0.4  12800  eV
#%endblock ProjectedDensityOfStates
************************** End of input data file *****************************

reinit: -----------------------------------------------------------------------
reinit: System Name: graphite_scf
reinit: -----------------------------------------------------------------------
reinit: System Label: graphite_scf
reinit: -----------------------------------------------------------------------
Reading two-body potentials
Grimme - two-body potential between 1 and 1

initatom: Reading input for the pseudopotentials and atomic orbitals ----------
Species number:   1 Atomic number:    6 Label: C-gga

Ground state valence configuration:   2s02  2p02
Reading pseudopotential information in formatted form from C-gga.psf

Valence configuration for pseudopotential generation:
2s( 2.00) rc: 1.56
2p( 2.00) rc: 1.56
3d( 0.00) rc: 1.56
4f( 0.00) rc: 1.56
relmxkb: Read Max KB Ang. Momentum=    2 for species C-gga

<basis_specs>
===============================================================================
C-gga                Z=   6    Mass=  12.010        Charge= 0.17977+309
Lmxo=1 Lmxkb= 2    BasisType=split      Semic=F
L=0  Nsemic=0  Cnfigmx=2
          i=1  nzeta=1  polorb=0  (2s)
            splnorm:   0.15000    
               vcte:    0.0000    
               rinn:    0.0000    
               qcoe:    0.0000    
               qyuk:    0.0000    
               qwid:   0.10000E-01
                rcs:    0.0000    
            lambdas:    1.0000    
L=1  Nsemic=0  Cnfigmx=2
          i=1  nzeta=1  polorb=0  (2p)
            splnorm:   0.15000    
               vcte:    0.0000    
               rinn:    0.0000    
               qcoe:    0.0000    
               qyuk:    0.0000    
               qwid:   0.10000E-01
                rcs:    0.0000    
            lambdas:    1.0000    
-------------------------------------------------------------------------------
L=0  Nkbl=1  erefs: 0.17977+309
L=1  Nkbl=1  erefs: 0.17977+309
L=2  Nkbl=1  erefs: 0.17977+309
===============================================================================
</basis_specs>

atom: Called for C-gga                 (Z =   6)

read_vps: Pseudopotential generation method:
read_vps: ATM 3.2.2 Troullier-Martins                       
Valence charge for ps generation:    4.00000

xc_check: Exchange-correlation functional:
xc_check: Ceperley-Alder
xc_check: WARNING: Pseudopotential generated with GGA PBE functional
V l=0 = -2*Zval/r beyond r=  1.5227
V l=1 = -2*Zval/r beyond r=  1.5227
V l=2 = -2*Zval/r beyond r=  1.5227
All V_l potentials equal beyond r=  1.4851
This should be close to max(r_c) in ps generation
All pots = -2*Zval/r beyond r=  1.5227

VLOCAL1: 99.0% of the norm of Vloc inside     19.682 Ry
VLOCAL1: 99.9% of the norm of Vloc inside     44.856 Ry
atom: Maximum radius for 4*pi*r*r*local-pseudopot. charge    1.79142
atom: Maximum radius for r*vlocal+2*Zval:    1.54183
GHOST: No ghost state for L =  0
GHOST: No ghost state for L =  1
GHOST: No ghost state for L =  2

KBgen: Kleinman-Bylander projectors: 
   l= 0   rc=  1.661951   el= -0.994756   Ekb=  5.296364   kbcos=  0.313951
   l= 1   rc=  1.661951   el= -0.376633   Ekb= -4.104879   kbcos= -0.344765
   l= 2   rc=  1.747182   el=  0.002326   Ekb= -1.006421   kbcos= -0.008606

KBgen: Total number of Kleinman-Bylander projectors:    9
atom: -------------------------------------------------------------------------

atom: SANKEY-TYPE ORBITALS:

SPLIT: Orbitals with angular momentum L= 0

SPLIT: Basis orbitals for state 2s

SPLIT: PAO cut-off radius determined from an
SPLIT: energy shift=  0.000735 Ry

   izeta = 1
                 lambda =    1.000000
                     rc =    5.948690
                 energy =   -0.994108
                kinetic =    0.809152
    potential(screened) =   -1.803260
       potential(ionic) =   -5.360717

SPLIT: Orbitals with angular momentum L= 1

SPLIT: Basis orbitals for state 2p

SPLIT: PAO cut-off radius determined from an
SPLIT: energy shift=  0.000735 Ry

   izeta = 1
                 lambda =    1.000000
                     rc =    7.638387
                 energy =   -0.375915
                kinetic =    2.245823
    potential(screened) =   -2.621738
       potential(ionic) =   -5.993382
atom: Total number of Sankey-type orbitals:  4

atm_pop: Valence configuration (for local Pseudopot. screening):
 2s( 2.00)                                                            
 2p( 2.00)                                                            
Vna: chval, zval:    4.00000   4.00000

Vna:  Cut-off radius for the neutral-atom potential:   7.638387

atom: _________________________________________________________________________

prinput: Basis input ----------------------------------------------------------

PAO.BasisType split     

%block ChemicalSpeciesLabel
    1    6 C-gga                   # Species index, atomic number, species label
%endblock ChemicalSpeciesLabel

%block PAO.Basis                 # Define Basis set
C-gga                 2                    # Species label, number of l-shells
 n=2   0   1                         # n, l, Nzeta 
   5.949   
   1.000   
 n=2   1   1                         # n, l, Nzeta 
   7.638   
   1.000   
%endblock PAO.Basis

prinput: ----------------------------------------------------------------------

coor:   Atomic-coordinates input format  =     Cartesian coordinates
coor:                                          (in Angstroms)

siesta: Atomic coordinates (Bohr) and species
siesta:      0.00000   0.00000   2.94856  1        1
siesta:      0.00000   0.00000   8.84567  1        2
siesta:     -2.32814   4.03246   2.94856  1        3
siesta:     -4.65629   8.06493   8.84567  1        4
siesta:      4.65629   8.06493   2.94856  1        5
siesta:      2.32814   4.03246   8.84567  1        6
siesta:      4.65629   0.00000   2.94856  1        7
siesta:      9.31257   0.00000   8.84567  1        8
siesta:      4.65629   0.00000   8.84567  1        9
siesta:      9.31257   0.00000   2.94856  1       10
siesta:      4.65629   8.06493   8.84567  1       11
siesta:      2.32814   4.03246   2.94856  1       12
siesta:     -2.32814   4.03246   8.84567  1       13
siesta:     -4.65629   8.06493   2.94856  1       14
siesta:      0.00000   8.06493   2.94856  1       15
siesta:      6.98443   4.03246   8.84567  1       16
siesta:      6.98443   4.03246   2.94856  1       17
siesta:      0.00000   8.06493   8.84567  1       18
siesta:      0.00000   2.68831   2.94856  1       19
siesta:      6.98443   9.40908   8.84567  1       20
siesta:      4.65629  10.75324   2.94856  1       21
siesta:      2.32814   1.34415   8.84567  1       22
siesta:     -4.65629  10.75324   2.94856  1       23
siesta:     11.64072   1.34415   8.84567  1       24
siesta:     -2.32814   6.72077   2.94856  1       25
siesta:      9.31257   5.37662   8.84567  1       26
siesta:      2.32815   6.72077   2.94856  1       27
siesta:      4.65628   5.37662   8.84567  1       28
siesta:     -0.00000  10.75324   2.94856  1       29
siesta:      6.98443   1.34415   8.84567  1       30
siesta:      4.65629   2.68831   2.94856  1       31
siesta:      2.32814   9.40908   8.84567  1       32
siesta:      9.31258   2.68831   2.94856  1       33
siesta:     -2.32815   9.40908   8.84567  1       34
siesta:      6.98443   6.72077   2.94856  1       35
siesta:      0.00000   5.37662   8.84567  1       36

siesta: System type = bulk      

initatomlists: Number of atoms, orbitals, and projectors:     36   144   324

siesta: ******************** Simulation parameters ****************************
siesta:
siesta: The following are some of the parameters of the simulation.
siesta: A complete list of the parameters used, including default values,
siesta: can be found in file out.fdf
siesta:
redata: Spin configuration                          = none
redata: Number of spin components                   = 1
redata: Time-Reversal Symmetry                      = T
redata: Spin spiral                                 = F
redata: Long output                                 =   F
redata: Number of Atomic Species                    =        1
redata: Charge density info will appear in .RHO file
redata: Write Mulliken Pop.                         = NO
redata: Matel table size (NRTAB)                    =     1024
redata: Mesh Cutoff                                 =   300.0000 Ry
redata: Net charge of the system                    =     0.0000 |e|
redata: Min. number of SCF Iter                     =        0
redata: Max. number of SCF Iter                     =     1000
redata: SCF convergence failure will abort job
redata: SCF mix quantity                            = Hamiltonian
redata: Mix DM or H after convergence               =   F
redata: Recompute H after scf cycle                 =   F
redata: Mix DM in first SCF step                    =   T
redata: Write Pulay info on disk                    =   F
redata: New DM Occupancy tolerance                  = 0.000000000001
redata: No kicks to SCF
redata: DM Mixing Weight for Kicks                  =     0.5000
redata: Require Harris convergence for SCF          =   F
redata: Harris energy tolerance for SCF             =     0.000100 eV
redata: Require DM convergence for SCF              =   T
redata: DM tolerance for SCF                        =     0.001000
redata: Require EDM convergence for SCF             =   F
redata: EDM tolerance for SCF                       =     0.005000 eV
redata: Require H convergence for SCF               =   T
redata: Hamiltonian tolerance for SCF               =     0.001000 eV
redata: Require (free) Energy convergence for SCF   =   T
redata: (free) Energy tolerance for SCF             =     0.001000 eV
redata: Using Saved Data (generic)                  =   F
redata: Use continuation files for DM               =   F
redata: Neglect nonoverlap interactions             =   F
redata: Method of Calculation                       = Diagonalization
redata: Electronic Temperature                      =   299.9869 K
redata: Fix the spin of the system                  =   F
redata: Dynamics option                             = Single-point calculation
mix.SCF: Pulay mixing                            = Pulay
mix.SCF:    Variant                              = stable
mix.SCF:    History steps                        = 4
mix.SCF:    Linear mixing weight                 =     0.250000
mix.SCF:    Mixing weight                        =     0.250000
mix.SCF:    SVD condition                        = 0.1000E-07
redata: ***********************************************************************

%block SCF.Mixers
  Pulay
%endblock SCF.Mixers

%block SCF.Mixer.Pulay
  # Mixing method
  method pulay
  variant stable

  # Mixing options
  weight 0.2500
  weight.linear 0.2500
  history 4
%endblock SCF.Mixer.Pulay

DM_history_depth set to one: no extrapolation allowed by default for geometry relaxation
Size of DM history Fstack: 1
Total number of electrons:   144.000000
Total ionic charge:   144.000000

* ProcessorY, Blocksize:    4   1


* Orbital distribution balance (max,min):     8     7

k-point displ. along   1 input, could be:     0.00    0.50
k-point displ. along   2 input, could be:     0.00    0.50
k-point displ. along   3 input, could be:     0.00    0.50
 Kpoints in:           48 . Kpoints trimmed:           44

siesta: k-grid: Number of k-points =    44
siesta: k-grid: Cutoff (effective) =    12.482 Ang
siesta: k-grid: Supercell and displacements
siesta: k-grid:    4   0   0      0.000
siesta: k-grid:    0   4   0      0.000
siesta: k-grid:    0   0   4      0.000

diag: Algorithm                                     = Expert
diag: Parallel over k                               =   T
diag: Use parallel 2D distribution                  =   T
diag: Parallel block-size                           = 1
diag: Parallel distribution                         =     4 x     5
diag: Used triangular part                          = Lower
diag: Absolute tolerance                            =  0.100E-15
diag: Orthogonalization factor                      =  0.100E-05
diag: Memory factor                                 =  1.0000

superc: Internal auxiliary supercell:     5 x     5 x     3  =      75
superc: Number of atoms, orbitals, and projectors:   2700  10800  24300


ts: **************************************************************
ts: Save H and S matrices                           =    F
ts: Save DM and EDM matrices                        =    F
ts: Only save the overlap matrix S                  =    F
ts: **************************************************************

************************ Begin: TS CHECKS AND WARNINGS ************************
************************ End: TS CHECKS AND WARNINGS **************************


                     ====================================
                        Single-point calculation
                     ====================================

outcoor: Atomic coordinates (Ang):                          
    0.00000000    0.00000000    1.56030750   1       1  C-gga
    0.00000000    0.00000000    4.68092250   1       2  C-gga
   -1.23200000    2.13388659    1.56030750   1       3  C-gga
   -2.46400000    4.26777319    4.68092250   1       4  C-gga
    2.46400000    4.26777319    1.56030750   1       5  C-gga
    1.23200000    2.13388659    4.68092250   1       6  C-gga
    2.46400000    0.00000000    1.56030750   1       7  C-gga
    4.92800000    0.00000000    4.68092250   1       8  C-gga
    2.46400000    0.00000000    4.68092250   1       9  C-gga
    4.92800000    0.00000000    1.56030750   1      10  C-gga
    2.46400000    4.26777319    4.68092250   1      11  C-gga
    1.23200000    2.13388659    1.56030750   1      12  C-gga
   -1.23200000    2.13388659    4.68092250   1      13  C-gga
   -2.46400000    4.26777319    1.56030750   1      14  C-gga
    0.00000000    4.26777319    1.56030750   1      15  C-gga
    3.69600000    2.13388659    4.68092250   1      16  C-gga
    3.69600000    2.13388659    1.56030750   1      17  C-gga
    0.00000000    4.26777319    4.68092250   1      18  C-gga
    0.00000000    1.42258964    1.56030750   1      19  C-gga
    3.69600000    4.97907014    4.68092250   1      20  C-gga
    2.46400123    5.69036496    1.56030750   1      21  C-gga
    1.23199877    0.71129482    4.68092250   1      22  C-gga
   -2.46400123    5.69036496    1.56030750   1      23  C-gga
    6.16000123    0.71129482    4.68092250   1      24  C-gga
   -1.23200000    3.55647624    1.56030750   1      25  C-gga
    4.92800000    2.84518355    4.68092250   1      26  C-gga
    1.23200123    3.55647837    1.56030750   1      27  C-gga
    2.46399877    2.84518142    4.68092250   1      28  C-gga
   -0.00000123    5.69036496    1.56030750   1      29  C-gga
    3.69600123    0.71129482    4.68092250   1      30  C-gga
    2.46400000    1.42258964    1.56030750   1      31  C-gga
    1.23200000    4.97907014    4.68092250   1      32  C-gga
    4.92800123    1.42259177    1.56030750   1      33  C-gga
   -1.23200123    4.97906801    4.68092250   1      34  C-gga
    3.69599877    3.55647837    1.56030750   1      35  C-gga
    0.00000123    2.84518142    4.68092250   1      36  C-gga

superc: Internal auxiliary supercell:     5 x     5 x     3  =      75
superc: Number of atoms, orbitals, and projectors:   2700  10800  24300

outcell: Unit cell vectors (Ang):
        7.392000    0.000000    0.000000
       -3.696000    6.401660    0.000000
        0.000000    0.000000    6.241230

outcell: Cell vector modules (Ang)   :    7.392000    7.392000    6.241230
outcell: Cell angles (23,13,12) (deg):     90.0000     90.0000    120.0000
outcell: Cell volume (Ang**3)        :    295.3417
<dSpData1D:S at geom step 0
  <sparsity:sparsity for geom step 0
    nrows_g=144 nrows=8 sparsity=.4309 nnzs=8936, refcount: 7>
  <dData1D:(new from dSpData1D) n=8936, refcount: 1>
refcount: 1>
new_DM -- step:     1
Initializing Density Matrix...
DM filled with atomic data:
<dSpData2D:DM initialized from atoms
  <sparsity:sparsity for geom step 0
    nrows_g=144 nrows=8 sparsity=.4309 nnzs=8936, refcount: 8>
  <dData2D:DM n=8936 m=1, refcount: 1>
refcount: 1>
No. of atoms with KB's overlaping orbs in proc 0. Max # of overlaps:     121     268
New grid distribution:   1
           1       1:   36    1:    9    1:    8
           2       1:   36    1:    9    9:   15
           3       1:   36    1:    9   16:   22
           4       1:   36    1:    9   23:   29
           5       1:   36    1:    9   30:   36
           6       1:   36   10:   18    1:    8
           7       1:   36   10:   18    9:   15
           8       1:   36   10:   18   16:   22
           9       1:   36   10:   18   23:   29
          10       1:   36   10:   18   30:   36
          11       1:   36   19:   27    1:    8
          12       1:   36   19:   27    9:   15
          13       1:   36   19:   27   16:   22
          14       1:   36   19:   27   23:   29
          15       1:   36   19:   27   30:   36
          16       1:   36   28:   36    1:    8
          17       1:   36   28:   36    9:   15
          18       1:   36   28:   36   16:   22
          19       1:   36   28:   36   23:   29
          20       1:   36   28:   36   30:   36

InitMesh: MESH =    72 x    72 x    72 =      373248
InitMesh: (bp) =    36 x    36 x    36 =       46656
InitMesh: Mesh cutoff (required, used) =   300.000   349.608 Ry
ExtMesh (bp) on 0 =   128 x   101 x   104 =     1344512
New grid distribution:   2
           1      16:   36   19:   36   19:   24
           2       1:   15    1:   18   10:   18
           3      16:   36   19:   36    1:    6
           4       1:   15    1:   18   19:   27
           5       1:   15   19:   36   28:   36
           6       1:   15    1:   18    1:    9
           7      16:   36   28:   36    7:   18
           8      16:   36   10:   18    7:   18
           9      16:   36    1:   18    1:    6
          10       1:   15    1:   18   28:   36
          11      16:   36   19:   27    7:   18
          12       1:   15   19:   36   10:   18
          13      16:   36    1:    9   25:   36
          14      16:   36    1:   18   19:   24
          15      16:   36   19:   27   25:   36
          16       1:   15   19:   36    1:    9
          17      16:   36   10:   18   25:   36
          18      16:   36    1:    9    7:   18
          19       1:   15   19:   36   19:   27
          20      16:   36   28:   36   25:   36
New grid distribution:   3
           1      16:   36   19:   36   19:   24
           2       1:   15    1:   18   10:   18
           3      16:   36   19:   36    1:    6
           4       1:   15    1:   18   19:   27
           5       1:   15   19:   36   28:   36
           6       1:   15    1:   18    1:    9
           7      16:   36   28:   36    7:   18
           8      16:   36   10:   18    7:   18
           9      16:   36    1:   18    1:    6
          10       1:   15    1:   18   28:   36
          11      16:   36   19:   27    7:   18
          12       1:   15   19:   36   10:   18
          13      16:   36    1:    9   25:   36
          14      16:   36    1:   18   19:   24
          15      16:   36   19:   27   25:   36
          16       1:   15   19:   36    1:    9
          17      16:   36   10:   18   25:   36
          18      16:   36    1:    9    7:   18
          19       1:   15   19:   36   19:   27
          20      16:   36   28:   36   25:   36
Setting up quadratic distribution...
ExtMesh (bp) on 0 =   113 x   110 x   102 =     1267860
PhiOnMesh: Number of (b)points on node 0 =                 2268
PhiOnMesh: nlist on node 0 =               278589

stepf: Fermi-Dirac step function

siesta: Program's energy decomposition (eV):
siesta: Ebs     =     -2553.944625
siesta: Eions   =      9434.507561
siesta: Ena     =      2266.102732
siesta: Ekin    =      3644.881653
siesta: Enl     =      -343.614654
siesta: Eso     =         0.000000
siesta: Edftu   =         0.000000
siesta: DEna    =       -11.808465
siesta: DUscf   =         2.581784
siesta: DUext   =         0.000000
siesta: Exc     =     -1639.140669
siesta: eta*DQ  =         0.000000
siesta: Emadel  =         0.000000
siesta: Emeta   =         0.000000
siesta: Emolmec =        -5.168292
siesta: Ekinion =         0.000000
siesta: Eharris =     -5366.174279
siesta: Etot    =     -5520.673471
siesta: FreeEng =     -5520.684165

        iscf     Eharris(eV)        E_KS(eV)     FreeEng(eV)     dDmax    Ef(eV) dHmax(eV)
   scf:    1    -5366.174279    -5520.673471    -5520.684165  1.337561 -8.397705  0.224683
timer: Routine,Calls,Time,% = IterSCF        1       1.478  44.11
   scf:    2    -5520.683821    -5520.678959    -5520.689639  0.003009 -8.354738  0.159563
   scf:    3    -5520.687180    -5520.683574    -5520.694107  0.002663 -8.239184  0.010330
   scf:    4    -5520.683769    -5520.683697    -5520.694312  0.001842 -8.239072  0.000462
   scf:    5    -5520.683692    -5520.683695    -5520.694312  0.000054 -8.239665  0.000245

SCF Convergence by FreeE+DM+H criterion
|FreeE_i-FreeE_(i-1)| (eV) <     0.00100000
max |DM_out - DM_in|         :     0.0000540283
max |H_out - H_in|      (eV) :     0.0002454726
SCF cycle converged after 5 iterations

Using DM_out to compute the final energy and forces
No. of atoms with KB's overlaping orbs in proc 0. Max # of overlaps:     121     268

MM-Stress (kbar):       17.95       17.95       60.96        0.00       -0.00       -0.00

siesta: E_KS(eV) =            -5520.6837

siesta: E_KS - E_eggbox =     -5520.6837

siesta: Atomic forces (eV/Ang):
     1    0.000000   -0.000000   -0.000000
     2   -0.000000   -0.000000   -0.000000
     3    0.000074   -0.000055   -0.000000
     4   -0.000074    0.000055   -0.000000
     5    0.000011    0.000092   -0.000000
     6   -0.000011   -0.000091   -0.000000
     7   -0.000085   -0.000036   -0.000000
     8    0.000085    0.000036   -0.000000
     9   -0.000015   -0.000013   -0.000000
    10    0.000015    0.000012   -0.000000
    11   -0.000003    0.000020   -0.000000
    12    0.000003   -0.000019   -0.000000
    13    0.000019   -0.000006   -0.000000
    14   -0.000019    0.000007   -0.000000
    15   -0.000000   -0.000000   -0.000000
    16    0.000000    0.000000   -0.000000
    17   -0.000000    0.000000   -0.000000
    18    0.000000   -0.000000   -0.000000
    19    0.000008    0.000129    0.000000
    20   -0.000008   -0.000128    0.000000
    21   -0.000115   -0.000057    0.000000
    22    0.000115    0.000057    0.000000
    23    0.000107   -0.000071    0.000000
    24   -0.000107    0.000071    0.000000
    25    0.000008    0.000114    0.000000
    26   -0.000008   -0.000115    0.000000
    27   -0.000103   -0.000051    0.000000
    28    0.000103    0.000050    0.000000
    29    0.000095   -0.000064    0.000000
    30   -0.000095    0.000064    0.000000
    31    0.000008    0.000115    0.000000
    32   -0.000008   -0.000114    0.000000
    33   -0.000103   -0.000050    0.000000
    34    0.000103    0.000050    0.000000
    35    0.000095   -0.000065    0.000000
    36   -0.000095    0.000064    0.000000
----------------------------------------
   Tot    0.000000   -0.000001    0.000000
----------------------------------------
   Max    0.000129
   Res    0.000054    sqrt( Sum f_i^2 / 3N )
----------------------------------------
   Max    0.000129    constrained

Stress tensor Voigt[x,y,z,yz,xz,xy] (kbar):     -385.03     -385.03      287.40       -0.00       -0.00        0.00
(Free)E + p*V (eV/cell)    -5491.0377
Target enthalpy (eV/cell)    -5520.6943

siesta: Eigenvalues (eV):
  ik is       eps
   1  1  -27.5095  -27.3712  -26.7727  -26.7727  -26.7021  -26.7021  -24.8295  -24.8295  -24.7600  -24.7600
         -23.6985  -23.5972  -23.2528  -23.2528  -23.1858  -23.1858  -22.5864  -22.5824  -21.2350  -21.1052
  -21.0246  -21.0246  -20.9115  -20.9115  -19.5129  -19.4757  -18.5196  -18.5196  -18.4558  -18.4558
  -17.7418  -17.6703  -17.2415  -17.1611  -16.5395  -16.5395  -16.4340  -16.4339  -16.1131  -16.1131
  -16.0166  -16.0166  -15.7255  -15.7255  -15.6305  -15.6305  -15.2547  -14.6716  -14.6716  -14.3915
  -14.3915  -14.3009  -14.3009  -14.1113  -14.0646  -13.6512  -13.4487  -13.3987  -13.0074  -13.0074
  -12.8769  -12.8769  -11.6451  -11.2667  -11.2667  -11.1344  -11.1343  -10.5061  -10.1319  -10.1319
   -9.9966   -9.6906   -6.4163   -6.2781   -6.0546   -6.0546   -5.6786   -5.3567   -5.3567   -4.9387
   -3.9482   -3.9482   -3.2821   -3.2821   -0.3366   -0.3366    0.0874    0.0874    1.1948    1.3895
    1.3895    1.5329    1.5764    1.6026    1.7657    1.7658    1.9195    1.9195    2.1122    2.1122
    2.3301    2.3919    3.2857    3.5451    3.5451    3.5767    3.8012    3.8012    3.9924    3.9925
    4.1031    4.1031    5.2426    5.3279    5.4778    5.5920    6.4380    6.4380    6.5990    6.5990
    6.9656    7.2017    7.5004    7.5004    7.5927    7.5927    9.6187    9.7271   10.4604   10.4604
   10.5088   10.5088   12.2102   12.2102   12.2423   12.2423   13.3948   13.3948   13.4935   13.4935
   13.9210   13.9308   14.3370   14.3788
   2  1  -27.8885  -27.7137  -26.4164  -26.3756  -25.7398  -25.7398  -25.7279  -25.7279  -24.5402  -24.5402
         -24.4641  -24.4641  -23.9892  -23.9075  -22.4658  -22.4658  -22.3972  -22.3972  -20.7131  -20.7131
  -20.6539  -20.6539  -20.3277  -20.2495  -19.4195  -19.4195  -19.3520  -19.3520  -18.3342  -18.3342
  -18.2941  -18.2941  -17.5950  -17.5950  -17.4869  -17.4869  -16.6126  -16.4807  -15.8137  -15.8137
  -15.7134  -15.7134  -15.5482  -15.5447  -15.4517  -15.2263  -15.2263  -15.1234  -15.1234  -14.4354
  -14.3786  -14.3434  -13.9723  -13.7855  -13.7855  -13.1245  -13.0683  -12.8276  -12.7781  -12.6894
  -12.5944  -12.5944  -12.0576  -12.0576  -12.0403  -10.9171  -10.9171  -10.5440  -10.2161  -10.2161
   -9.0230   -9.0230   -7.1234   -7.1234   -6.4468   -6.4468   -5.3681   -4.5409   -4.5409   -4.4324
   -3.6840   -3.6840   -2.3577   -2.3577   -1.7450   -1.7450   -1.0759   -0.5588    0.6908    0.9215
    0.9711    1.0940    1.0969    1.3753    1.4498    1.4922    1.5286    1.5286    1.7550    1.7550
    1.8947    1.8947    2.0299    2.0615    2.0615    2.3342    4.5493    4.6780    5.5718    5.5718
    5.7049    5.7049    6.0803    6.1275    6.4852    6.4852    6.5888    6.5888    7.8520    7.9862
    8.2360    8.2360    8.3813    8.3813    8.9312    8.9312    8.9983    8.9983    9.9257    9.9257
    9.9930    9.9930   10.5056   10.5462   12.0983   12.0983   12.1300   12.1300   12.3125   12.4216
   14.8297   14.8297   14.8366   14.8366
   3  1  -27.8885  -27.7137  -26.4164  -26.3756  -25.7398  -25.7398  -25.7279  -25.7279  -24.5402  -24.5402
         -24.4641  -24.4641  -23.9892  -23.9075  -22.4658  -22.4658  -22.3972  -22.3972  -20.7131  -20.7131
  -20.6539  -20.6539  -20.3277  -20.2495  -19.4195  -19.4195  -19.3520  -19.3520  -18.3342  -18.3342
  -18.2941  -18.2941  -17.5950  -17.5950  -17.4869  -17.4869  -16.6126  -16.4807  -15.8137  -15.8137
  -15.7134  -15.7134  -15.5482  -15.5447  -15.4517  -15.2263  -15.2263  -15.1234  -15.1234  -14.4354
  -14.3786  -14.3434  -13.9723  -13.7855  -13.7855  -13.1245  -13.0683  -12.8276  -12.7781  -12.6894
  -12.5944  -12.5944  -12.0576  -12.0576  -12.0403  -10.9171  -10.9171  -10.5440  -10.2161  -10.2161
   -9.0230   -9.0230   -7.1234   -7.1234   -6.4468   -6.4468   -5.3681   -4.5409   -4.5409   -4.4324
   -3.6840   -3.6840   -2.3577   -2.3577   -1.7450   -1.7450   -1.0759   -0.5588    0.6908    0.9215
    0.9711    1.0940    1.0969    1.3753    1.4498    1.4922    1.5286    1.5286    1.7550    1.7550
    1.8947    1.8947    2.0299    2.0615    2.0615    2.3342    4.5493    4.6780    5.5718    5.5718
    5.7049    5.7049    6.0803    6.1275    6.4852    6.4852    6.5888    6.5888    7.8520    7.9862
    8.2360    8.2360    8.3813    8.3813    8.9312    8.9312    8.9983    8.9983    9.9257    9.9257
    9.9930    9.9930   10.5056   10.5462   12.0983   12.0983   12.1300   12.1300   12.3125   12.4216
   14.8297   14.8297   14.8366   14.8366
   4  1  -27.5095  -27.3712  -26.7727  -26.7727  -26.7021  -26.7021  -24.8295  -24.8295  -24.7600  -24.7600
         -23.6985  -23.5972  -23.2528  -23.2528  -23.1858  -23.1858  -22.5864  -22.5824  -21.2350  -21.1052
  -21.0246  -21.0246  -20.9115  -20.9115  -19.5129  -19.4757  -18.5196  -18.5196  -18.4558  -18.4558
  -17.7418  -17.6703  -17.2415  -17.1611  -16.5395  -16.5395  -16.4340  -16.4339  -16.1131  -16.1131
  -16.0166  -16.0166  -15.7255  -15.7255  -15.6305  -15.6305  -15.2547  -14.6716  -14.6716  -14.3915
  -14.3915  -14.3009  -14.3009  -14.1113  -14.0646  -13.6512  -13.4487  -13.3987  -13.0074  -13.0074
  -12.8769  -12.8769  -11.6451  -11.2667  -11.2667  -11.1344  -11.1343  -10.5061  -10.1319  -10.1319
   -9.9966   -9.6906   -6.4163   -6.2781   -6.0546   -6.0546   -5.6786   -5.3567   -5.3567   -4.9387
   -3.9482   -3.9482   -3.2821   -3.2821   -0.3366   -0.3366    0.0874    0.0874    1.1948    1.3895
    1.3895    1.5329    1.5764    1.6026    1.7657    1.7658    1.9195    1.9195    2.1122    2.1122
    2.3301    2.3919    3.2857    3.5451    3.5451    3.5767    3.8012    3.8012    3.9924    3.9925
    4.1031    4.1031    5.2426    5.3279    5.4778    5.5920    6.4380    6.4380    6.5990    6.5990
    6.9656    7.2017    7.5004    7.5004    7.5927    7.5927    9.6187    9.7271   10.4604   10.4604
   10.5088   10.5088   12.2102   12.2102   12.2423   12.2423   13.3948   13.3948   13.4935   13.4935
   13.9210   13.9308   14.3370   14.3788
   5  1  -27.8885  -27.7137  -26.4164  -26.3756  -25.7398  -25.7398  -25.7279  -25.7279  -24.5402  -24.5402
         -24.4641  -24.4641  -23.9892  -23.9075  -22.4658  -22.4658  -22.3972  -22.3972  -20.7131  -20.7131
  -20.6539  -20.6539  -20.3277  -20.2495  -19.4195  -19.4195  -19.3520  -19.3520  -18.3342  -18.3342
  -18.2941  -18.2941  -17.5950  -17.5950  -17.4869  -17.4869  -16.6126  -16.4807  -15.8137  -15.8137
  -15.7134  -15.7134  -15.5482  -15.5447  -15.4517  -15.2263  -15.2263  -15.1234  -15.1234  -14.4354
  -14.3786  -14.3434  -13.9723  -13.7855  -13.7855  -13.1245  -13.0683  -12.8276  -12.7781  -12.6894
  -12.5944  -12.5944  -12.0576  -12.0576  -12.0403  -10.9171  -10.9171  -10.5440  -10.2161  -10.2161
   -9.0230   -9.0230   -7.1234   -7.1234   -6.4468   -6.4468   -5.3681   -4.5409   -4.5409   -4.4324
   -3.6840   -3.6840   -2.3577   -2.3577   -1.7450   -1.7450   -1.0759   -0.5588    0.6908    0.9215
    0.9711    1.0940    1.0969    1.3753    1.4498    1.4922    1.5286    1.5286    1.7550    1.7550
    1.8947    1.8947    2.0299    2.0615    2.0615    2.3342    4.5493    4.6780    5.5718    5.5718
    5.7049    5.7049    6.0803    6.1275    6.4852    6.4852    6.5888    6.5888    7.8520    7.9862
    8.2360    8.2360    8.3813    8.3813    8.9312    8.9312    8.9983    8.9983    9.9257    9.9257
    9.9930    9.9930   10.5056   10.5462   12.0983   12.0983   12.1300   12.1300   12.3125   12.4216
   14.8297   14.8297   14.8366   14.8366
   6  1  -28.0803  -27.8869  -25.2781  -25.2781  -25.2781  -25.2780  -25.2780  -25.2780  -25.2371  -25.2371
         -25.2371  -25.2371  -25.2371  -25.2371  -21.4112  -21.4112  -21.3953  -21.3953  -21.3916  -21.3916
  -21.3916  -21.3916  -18.9161  -18.9161  -18.9161  -18.9161  -18.5507  -18.5507  -18.5507  -18.5507
  -18.5507  -18.5507  -18.4518  -18.4518  -18.4518  -18.4518  -18.4518  -18.4518  -15.6894  -15.1172
  -15.1172  -15.1172  -15.1172  -15.1172  -15.1172  -15.0207  -15.0207  -15.0207  -15.0207  -15.0207
  -15.0207  -14.1322  -13.3423  -13.3423  -13.3423  -13.3423  -13.3423  -13.3423  -12.4890  -12.4890
  -12.4672  -12.4672  -11.6176  -11.6176  -11.6176  -11.6176  -11.6176  -11.6176   -9.0524   -9.0524
   -8.2600   -8.2600   -8.2600   -8.2600   -7.3369   -7.3369   -3.3076   -3.3076   -3.3076   -3.3076
   -3.3076   -3.3076   -2.5230   -2.5230   -2.5230   -2.5230   -2.5230   -2.5230    0.6780    0.6780
    0.7212    0.7212    0.8809    0.8809    0.8809    0.8809    0.8809    0.8809    1.2532    1.2532
    1.2532    1.2533    1.2533    1.2533    2.4677    2.7565    4.2019    4.3292    7.2959    7.2959
    7.3393    7.3393    7.3393    7.3393    7.4021    7.4021    8.6394    8.6394    8.6394    8.6394
    8.6394    8.6394    8.6891    8.6891    8.6891    8.6891    8.6891    8.6891   10.2903   10.2903
   10.2904   10.2904   10.2904   10.2904   10.3529   10.3529   10.3529   10.3529   10.3529   10.3529
   15.1889   15.1889   15.1889   15.1889
   7  1  -27.3226  -27.3226  -27.2019  -27.2019  -25.8968  -25.8968  -25.8958  -25.8958  -23.5755  -23.5755
         -23.5755  -23.5755  -23.4812  -23.4812  -23.4811  -23.4811  -22.9958  -22.9866  -21.4740  -21.3211
  -20.1309  -20.1309  -20.1309  -20.1309  -20.0726  -20.0726  -20.0726  -20.0726  -17.0715  -17.0715
  -17.0715  -17.0715  -16.9835  -16.9835  -16.9835  -16.9835  -16.9793  -16.9793  -16.9180  -16.9180
  -15.6945  -15.5985  -15.5855  -15.5855  -15.4740  -15.4740  -15.1095  -15.1095  -14.6812  -14.6812
  -14.5752  -14.5752  -13.9322  -13.9322  -13.5986  -13.5986  -13.5208  -13.5208  -13.4905  -13.4905
  -12.2070  -12.2070  -11.5385  -11.5385  -11.5385  -11.5385  -11.0681  -10.2588  -10.0189  -10.0189
  -10.0189  -10.0189   -6.1087   -5.8297   -5.8297   -5.8297   -5.8297   -5.5541   -5.0574   -5.0574
   -5.0574   -5.0574   -1.9875   -1.9875   -1.4770   -1.4770    0.6189    0.7899    0.7899    1.0214
    1.1538    1.1538    1.1660    1.1660    1.3152    1.3152    3.3530    3.3531    3.3531    3.3531
    3.4607    3.4607    3.5033    3.5033    3.6407    3.6407    3.6407    3.6407    3.7622    3.7622
    3.8520    3.8520    4.0426    4.0426    4.1192    4.1192    5.7836    5.7836    5.9204    5.9204
    8.6965    8.6965    8.6965    8.6966    8.8180    8.8180    8.8180    8.8181    9.9664    9.9664
   10.0250   10.0250   11.1921   11.2217   13.1020   13.2930   13.7742   13.7742   13.7742   13.7743
   13.7983   13.7983   13.7983   13.7983
   8  1  -27.5095  -27.3712  -26.7727  -26.7727  -26.7021  -26.7021  -24.8295  -24.8295  -24.7600  -24.7600
         -23.6985  -23.5972  -23.2528  -23.2528  -23.1858  -23.1858  -22.5864  -22.5824  -21.2350  -21.1052
  -21.0246  -21.0246  -20.9115  -20.9115  -19.5129  -19.4757  -18.5196  -18.5196  -18.4558  -18.4558
  -17.7418  -17.6703  -17.2415  -17.1611  -16.5395  -16.5395  -16.4340  -16.4339  -16.1131  -16.1131
  -16.0166  -16.0166  -15.7255  -15.7255  -15.6305  -15.6305  -15.2547  -14.6716  -14.6716  -14.3915
  -14.3915  -14.3009  -14.3009  -14.1113  -14.0646  -13.6512  -13.4487  -13.3987  -13.0074  -13.0074
  -12.8769  -12.8769  -11.6451  -11.2667  -11.2667  -11.1344  -11.1343  -10.5061  -10.1319  -10.1319
   -9.9966   -9.6906   -6.4163   -6.2781   -6.0546   -6.0546   -5.6786   -5.3567   -5.3567   -4.9387
   -3.9482   -3.9482   -3.2821   -3.2821   -0.3366   -0.3366    0.0874    0.0874    1.1948    1.3895
    1.3895    1.5329    1.5764    1.6026    1.7657    1.7658    1.9195    1.9195    2.1122    2.1122
    2.3301    2.3919    3.2857    3.5451    3.5451    3.5767    3.8012    3.8012    3.9924    3.9925
    4.1031    4.1031    5.2426    5.3279    5.4778    5.5920    6.4380    6.4380    6.5990    6.5990
    6.9656    7.2017    7.5004    7.5004    7.5927    7.5927    9.6187    9.7271   10.4604   10.4604
   10.5088   10.5088   12.2102   12.2102   12.2423   12.2423   13.3948   13.3948   13.4935   13.4935
   13.9210   13.9308   14.3370   14.3788
   9  1  -27.5095  -27.3712  -26.7727  -26.7727  -26.7021  -26.7021  -24.8295  -24.8295  -24.7600  -24.7600
         -23.6985  -23.5972  -23.2528  -23.2528  -23.1858  -23.1858  -22.5864  -22.5824  -21.2350  -21.1052
  -21.0246  -21.0246  -20.9115  -20.9115  -19.5129  -19.4757  -18.5196  -18.5196  -18.4558  -18.4558
  -17.7418  -17.6703  -17.2415  -17.1611  -16.5395  -16.5395  -16.4340  -16.4339  -16.1131  -16.1131
  -16.0166  -16.0166  -15.7255  -15.7255  -15.6305  -15.6305  -15.2547  -14.6716  -14.6716  -14.3915
  -14.3915  -14.3009  -14.3009  -14.1113  -14.0646  -13.6512  -13.4487  -13.3987  -13.0074  -13.0074
  -12.8769  -12.8769  -11.6451  -11.2667  -11.2667  -11.1344  -11.1343  -10.5061  -10.1319  -10.1319
   -9.9966   -9.6906   -6.4163   -6.2781   -6.0546   -6.0546   -5.6786   -5.3567   -5.3567   -4.9387
   -3.9482   -3.9482   -3.2821   -3.2821   -0.3366   -0.3366    0.0874    0.0874    1.1948    1.3895
    1.3895    1.5329    1.5764    1.6026    1.7657    1.7658    1.9195    1.9195    2.1122    2.1122
    2.3301    2.3919    3.2857    3.5451    3.5451    3.5767    3.8012    3.8012    3.9924    3.9925
    4.1031    4.1031    5.2426    5.3279    5.4778    5.5920    6.4380    6.4380    6.5990    6.5990
    6.9656    7.2017    7.5004    7.5004    7.5927    7.5927    9.6187    9.7271   10.4604   10.4604
   10.5088   10.5088   12.2102   12.2102   12.2423   12.2423   13.3948   13.3948   13.4935   13.4935
   13.9210   13.9308   14.3370   14.3788
  10  1  -27.3226  -27.3226  -27.2019  -27.2019  -25.8968  -25.8968  -25.8958  -25.8958  -23.5755  -23.5755
         -23.5755  -23.5755  -23.4812  -23.4812  -23.4811  -23.4811  -22.9958  -22.9866  -21.4740  -21.3211
  -20.1309  -20.1309  -20.1309  -20.1309  -20.0726  -20.0726  -20.0726  -20.0726  -17.0715  -17.0715
  -17.0715  -17.0715  -16.9835  -16.9835  -16.9835  -16.9835  -16.9793  -16.9793  -16.9180  -16.9180
  -15.6945  -15.5985  -15.5855  -15.5855  -15.4740  -15.4740  -15.1095  -15.1095  -14.6812  -14.6812
  -14.5752  -14.5752  -13.9322  -13.9322  -13.5986  -13.5986  -13.5208  -13.5208  -13.4905  -13.4905
  -12.2070  -12.2070  -11.5385  -11.5385  -11.5385  -11.5385  -11.0681  -10.2588  -10.0189  -10.0189
  -10.0189  -10.0189   -6.1087   -5.8297   -5.8297   -5.8297   -5.8297   -5.5541   -5.0574   -5.0574
   -5.0574   -5.0574   -1.9875   -1.9875   -1.4770   -1.4770    0.6189    0.7899    0.7899    1.0214
    1.1538    1.1538    1.1660    1.1660    1.3152    1.3152    3.3530    3.3531    3.3531    3.3531
    3.4607    3.4607    3.5033    3.5033    3.6407    3.6407    3.6407    3.6407    3.7622    3.7622
    3.8520    3.8520    4.0426    4.0426    4.1192    4.1192    5.7836    5.7836    5.9204    5.9204
    8.6965    8.6965    8.6965    8.6966    8.8180    8.8180    8.8180    8.8181    9.9664    9.9664
   10.0250   10.0250   11.1921   11.2217   13.1020   13.2930   13.7742   13.7742   13.7742   13.7743
   13.7983   13.7983   13.7983   13.7983
  11  1  -27.5095  -27.3712  -26.7727  -26.7727  -26.7021  -26.7021  -24.8295  -24.8295  -24.7600  -24.7600
         -23.6985  -23.5972  -23.2528  -23.2528  -23.1858  -23.1858  -22.5864  -22.5824  -21.2350  -21.1052
  -21.0246  -21.0246  -20.9115  -20.9115  -19.5129  -19.4757  -18.5196  -18.5196  -18.4558  -18.4558
  -17.7418  -17.6703  -17.2415  -17.1611  -16.5395  -16.5395  -16.4340  -16.4339  -16.1131  -16.1131
  -16.0166  -16.0166  -15.7255  -15.7255  -15.6305  -15.6305  -15.2547  -14.6716  -14.6716  -14.3915
  -14.3915  -14.3009  -14.3009  -14.1113  -14.0646  -13.6512  -13.4487  -13.3987  -13.0074  -13.0074
  -12.8769  -12.8769  -11.6451  -11.2667  -11.2667  -11.1344  -11.1343  -10.5061  -10.1319  -10.1319
   -9.9966   -9.6906   -6.4163   -6.2781   -6.0546   -6.0546   -5.6786   -5.3567   -5.3567   -4.9387
   -3.9482   -3.9482   -3.2821   -3.2821   -0.3366   -0.3366    0.0874    0.0874    1.1948    1.3895
    1.3895    1.5329    1.5764    1.6026    1.7657    1.7658    1.9195    1.9195    2.1122    2.1122
    2.3301    2.3919    3.2857    3.5451    3.5451    3.5767    3.8012    3.8012    3.9924    3.9925
    4.1031    4.1031    5.2426    5.3279    5.4778    5.5920    6.4380    6.4380    6.5990    6.5990
    6.9656    7.2017    7.5004    7.5004    7.5927    7.5927    9.6187    9.7271   10.4604   10.4604
   10.5088   10.5088   12.2102   12.2102   12.2423   12.2423   13.3948   13.3948   13.4935   13.4935
   13.9210   13.9308   14.3370   14.3788
  12  1  -27.3226  -27.3226  -27.2019  -27.2019  -25.8968  -25.8968  -25.8958  -25.8958  -23.5755  -23.5755
         -23.5755  -23.5755  -23.4812  -23.4812  -23.4811  -23.4811  -22.9958  -22.9866  -21.4740  -21.3211
  -20.1309  -20.1309  -20.1309  -20.1309  -20.0726  -20.0726  -20.0726  -20.0726  -17.0715  -17.0715
  -17.0715  -17.0715  -16.9835  -16.9835  -16.9835  -16.9835  -16.9793  -16.9793  -16.9180  -16.9180
  -15.6945  -15.5985  -15.5855  -15.5855  -15.4740  -15.4740  -15.1095  -15.1095  -14.6812  -14.6812
  -14.5752  -14.5752  -13.9322  -13.9322  -13.5986  -13.5986  -13.5208  -13.5208  -13.4905  -13.4905
  -12.2070  -12.2070  -11.5385  -11.5385  -11.5385  -11.5385  -11.0681  -10.2588  -10.0189  -10.0189
  -10.0189  -10.0189   -6.1087   -5.8297   -5.8297   -5.8297   -5.8297   -5.5541   -5.0574   -5.0574
   -5.0574   -5.0574   -1.9875   -1.9875   -1.4770   -1.4770    0.6189    0.7899    0.7899    1.0214
    1.1538    1.1538    1.1660    1.1660    1.3152    1.3152    3.3530    3.3531    3.3531    3.3531
    3.4607    3.4607    3.5033    3.5033    3.6407    3.6407    3.6407    3.6407    3.7622    3.7622
    3.8520    3.8520    4.0426    4.0426    4.1192    4.1192    5.7836    5.7836    5.9204    5.9204
    8.6965    8.6965    8.6965    8.6966    8.8180    8.8180    8.8180    8.8181    9.9664    9.9664
   10.0250   10.0250   11.1921   11.2217   13.1020   13.2930   13.7742   13.7742   13.7742   13.7743
   13.7983   13.7983   13.7983   13.7983
  13  1  -27.5106  -27.4057  -26.7807  -26.7807  -26.7259  -26.7258  -24.8277  -24.8277  -24.7793  -24.7793
         -23.6878  -23.6159  -23.2442  -23.2442  -23.1964  -23.1964  -22.5842  -22.5819  -21.2192  -21.1266
  -21.0116  -21.0116  -20.9310  -20.9310  -19.5068  -19.4805  -18.5106  -18.5106  -18.4657  -18.4657
  -17.7335  -17.6832  -17.2304  -17.1735  -16.5267  -16.5267  -16.4523  -16.4523  -16.0993  -16.0993
  -16.0310  -16.0310  -15.7131  -15.7131  -15.6461  -15.6460  -15.0479  -14.4792  -14.4792  -14.3692
  -14.3692  -14.3166  -14.3166  -14.1046  -14.0706  -13.9287  -13.4424  -13.4049  -13.3061  -13.3061
  -12.6665  -12.6665  -11.4450  -11.4450  -11.4347  -11.0886  -11.0886  -10.3475  -10.2711  -10.2690
  -10.2690   -9.7496   -6.4896   -6.3656   -6.0331   -6.0331   -5.5709   -5.5171   -5.5170   -5.0508
   -3.8541   -3.8541   -3.3833   -3.3833   -0.2826   -0.2826    0.0168    0.0168    1.2250    1.4484
    1.4529    1.4529    1.6130    1.6580    1.7208    1.7208    1.9709    1.9709    2.1141    2.1141
    2.3399    2.3835    3.3345    3.5410    3.5903    3.5904    3.7731    3.7731    4.0160    4.0160
    4.0964    4.0964    5.2572    5.3175    5.4962    5.5767    6.4740    6.4740    6.5907    6.5907
    7.0091    7.1770    7.5159    7.5159    7.5822    7.5823    9.6331    9.7098   10.4678   10.4678
   10.5019   10.5020   12.2158   12.2158   12.2386   12.2386   13.4086   13.4086   13.4783   13.4783
   13.9227   13.9296   14.3424   14.3719
  14  1  -27.8859  -27.7539  -26.4272  -26.3944  -25.7494  -25.7494  -25.7434  -25.7434  -24.5362  -24.5362
         -24.4827  -24.4827  -23.9819  -23.9239  -22.4556  -22.4556  -22.4068  -22.4068  -20.7042  -20.7042
  -20.6622  -20.6622  -20.3191  -20.2636  -19.4115  -19.4115  -19.3642  -19.3642  -18.3297  -18.3297
  -18.3013  -18.3013  -17.5815  -17.5815  -17.5056  -17.5056  -16.5969  -16.5044  -15.7996  -15.7996
  -15.7287  -15.7287  -15.5341  -15.4658  -15.3334  -15.2128  -15.2128  -15.1400  -15.1400  -14.4218
  -14.3567  -14.2292  -14.1736  -13.5788  -13.5788  -13.1161  -13.0764  -12.9973  -12.8200  -12.7850
  -12.3866  -12.3866  -12.3736  -12.3736  -11.8411  -11.2061  -11.2061  -10.7781  -10.0288  -10.0288
   -9.1668   -9.1668   -7.0605   -7.0605   -6.5837   -6.5837   -5.2789   -4.6033   -4.4351   -4.4351
   -3.8236   -3.8236   -2.2757   -2.2757   -1.8417   -1.8417   -1.0105   -0.6448    0.7598    0.9345
    0.9739    1.0477    1.1597    1.3637    1.4562    1.4862    1.5926    1.5926    1.8154    1.8154
    1.8543    1.8543    2.0372    2.0372    2.0735    2.2877    4.5718    4.6625    5.5949    5.5949
    5.6889    5.6889    6.0871    6.1205    6.5096    6.5096    6.5848    6.5848    7.8838    7.9821
    8.2577    8.2577    8.3601    8.3601    8.9456    8.9456    8.9940    8.9940    9.9400    9.9400
    9.9893    9.9893   10.5117   10.5404   12.1070   12.1070   12.1301   12.1301   12.3326   12.4099
   14.8306   14.8306   14.8355   14.8355
  15  1  -27.8859  -27.7539  -26.4272  -26.3944  -25.7494  -25.7494  -25.7434  -25.7434  -24.5362  -24.5362
         -24.4827  -24.4827  -23.9819  -23.9239  -22.4556  -22.4556  -22.4068  -22.4068  -20.7042  -20.7042
  -20.6622  -20.6622  -20.3191  -20.2636  -19.4115  -19.4115  -19.3642  -19.3642  -18.3297  -18.3297
  -18.3013  -18.3013  -17.5815  -17.5815  -17.5056  -17.5056  -16.5969  -16.5044  -15.7996  -15.7996
  -15.7287  -15.7287  -15.5341  -15.4658  -15.3334  -15.2128  -15.2128  -15.1400  -15.1400  -14.4218
  -14.3567  -14.2292  -14.1736  -13.5788  -13.5788  -13.1161  -13.0764  -12.9973  -12.8200  -12.7850
  -12.3866  -12.3866  -12.3736  -12.3736  -11.8411  -11.2061  -11.2061  -10.7781  -10.0288  -10.0288
   -9.1668   -9.1668   -7.0605   -7.0605   -6.5837   -6.5837   -5.2789   -4.6033   -4.4351   -4.4351
   -3.8236   -3.8236   -2.2757   -2.2757   -1.8417   -1.8417   -1.0105   -0.6448    0.7598    0.9345
    0.9739    1.0477    1.1597    1.3637    1.4562    1.4862    1.5926    1.5926    1.8154    1.8154
    1.8543    1.8543    2.0372    2.0372    2.0735    2.2877    4.5718    4.6625    5.5949    5.5949
    5.6889    5.6889    6.0871    6.1205    6.5096    6.5096    6.5848    6.5848    7.8838    7.9821
    8.2577    8.2577    8.3601    8.3601    8.9456    8.9456    8.9940    8.9940    9.9400    9.9400
    9.9893    9.9893   10.5117   10.5404   12.1070   12.1070   12.1301   12.1301   12.3326   12.4099
   14.8306   14.8306   14.8355   14.8355
  16  1  -27.5106  -27.4057  -26.7807  -26.7807  -26.7259  -26.7258  -24.8277  -24.8277  -24.7793  -24.7793
         -23.6878  -23.6159  -23.2442  -23.2442  -23.1964  -23.1964  -22.5842  -22.5819  -21.2192  -21.1266
  -21.0116  -21.0116  -20.9310  -20.9310  -19.5068  -19.4805  -18.5106  -18.5106  -18.4657  -18.4657
  -17.7335  -17.6832  -17.2304  -17.1735  -16.5267  -16.5267  -16.4523  -16.4523  -16.0993  -16.0993
  -16.0310  -16.0310  -15.7131  -15.7131  -15.6461  -15.6460  -15.0479  -14.4792  -14.4792  -14.3692
  -14.3692  -14.3166  -14.3166  -14.1046  -14.0706  -13.9287  -13.4424  -13.4049  -13.3061  -13.3061
  -12.6665  -12.6665  -11.4450  -11.4450  -11.4347  -11.0886  -11.0886  -10.3475  -10.2711  -10.2690
  -10.2690   -9.7496   -6.4896   -6.3656   -6.0331   -6.0331   -5.5709   -5.5171   -5.5170   -5.0508
   -3.8541   -3.8541   -3.3833   -3.3833   -0.2826   -0.2826    0.0168    0.0168    1.2250    1.4484
    1.4529    1.4529    1.6130    1.6580    1.7208    1.7208    1.9709    1.9709    2.1141    2.1141
    2.3399    2.3835    3.3345    3.5410    3.5903    3.5904    3.7731    3.7731    4.0160    4.0160
    4.0964    4.0964    5.2572    5.3175    5.4962    5.5767    6.4740    6.4740    6.5907    6.5907
    7.0091    7.1770    7.5159    7.5159    7.5822    7.5823    9.6331    9.7098   10.4678   10.4678
   10.5019   10.5020   12.2158   12.2158   12.2386   12.2386   13.4086   13.4086   13.4783   13.4783
   13.9227   13.9296   14.3424   14.3719
  17  1  -27.8859  -27.7539  -26.4272  -26.3944  -25.7494  -25.7494  -25.7434  -25.7434  -24.5362  -24.5362
         -24.4827  -24.4827  -23.9819  -23.9239  -22.4556  -22.4556  -22.4068  -22.4068  -20.7042  -20.7042
  -20.6622  -20.6622  -20.3191  -20.2636  -19.4115  -19.4115  -19.3642  -19.3642  -18.3297  -18.3297
  -18.3013  -18.3013  -17.5815  -17.5815  -17.5056  -17.5056  -16.5969  -16.5044  -15.7996  -15.7996
  -15.7287  -15.7287  -15.5341  -15.4658  -15.3334  -15.2128  -15.2128  -15.1400  -15.1400  -14.4218
  -14.3567  -14.2292  -14.1736  -13.5788  -13.5788  -13.1161  -13.0764  -12.9973  -12.8200  -12.7850
  -12.3866  -12.3866  -12.3736  -12.3736  -11.8411  -11.2061  -11.2061  -10.7781  -10.0288  -10.0288
   -9.1668   -9.1668   -7.0605   -7.0605   -6.5837   -6.5837   -5.2789   -4.6033   -4.4351   -4.4351
   -3.8236   -3.8236   -2.2757   -2.2757   -1.8417   -1.8417   -1.0105   -0.6448    0.7598    0.9345
    0.9739    1.0477    1.1597    1.3637    1.4562    1.4862    1.5926    1.5926    1.8154    1.8154
    1.8543    1.8543    2.0372    2.0372    2.0735    2.2877    4.5718    4.6625    5.5949    5.5949
    5.6889    5.6889    6.0871    6.1205    6.5096    6.5096    6.5848    6.5848    7.8838    7.9821
    8.2577    8.2577    8.3601    8.3601    8.9456    8.9456    8.9940    8.9940    9.9400    9.9400
    9.9893    9.9893   10.5117   10.5404   12.1070   12.1070   12.1301   12.1301   12.3326   12.4099
   14.8306   14.8306   14.8355   14.8355
  18  1  -28.0760  -27.9300  -25.2819  -25.2819  -25.2819  -25.2819  -25.2819  -25.2819  -25.2544  -25.2544
         -25.2544  -25.2544  -25.2544  -25.2544  -21.4102  -21.4102  -21.3991  -21.3991  -21.3871  -21.3871
  -21.3871  -21.3871  -18.9180  -18.9180  -18.9180  -18.9180  -18.5391  -18.5391  -18.5391  -18.5391
  -18.5391  -18.5391  -18.4699  -18.4699  -18.4699  -18.4699  -18.4699  -18.4699  -15.4753  -15.1030
  -15.1030  -15.1030  -15.1030  -15.1030  -15.1030  -15.0348  -15.0348  -15.0347  -15.0347  -15.0347
  -15.0347  -14.3776  -13.1351  -13.1351  -13.1351  -13.1351  -13.1351  -13.1351  -12.4855  -12.4855
  -12.4701  -12.4701  -11.9283  -11.9283  -11.9283  -11.9283  -11.9283  -11.9283   -8.8263   -8.8263
   -8.2378   -8.2378   -8.2378   -8.2378   -7.6150   -7.6150   -3.2068   -3.2068   -3.2068   -3.2067
   -3.2067   -3.2067   -2.6490   -2.6490   -2.6490   -2.6490   -2.6490   -2.6490    0.6846    0.6846
    0.7151    0.7151    0.9496    0.9496    0.9496    0.9496    0.9496    0.9496    1.2176    1.2176
    1.2176    1.2176    1.2176    1.2176    2.5067    2.7099    4.2258    4.3148    7.3114    7.3114
    7.3409    7.3409    7.3409    7.3409    7.3867    7.3867    8.6467    8.6467    8.6467    8.6467
    8.6467    8.6467    8.6818    8.6818    8.6818    8.6818    8.6818    8.6819   10.3120   10.3120
   10.3120   10.3120   10.3120   10.3120   10.3589   10.3589   10.3589   10.3589   10.3589   10.3589
   15.1887   15.1887   15.1887   15.1887
  19  1  -27.8859  -27.7539  -26.4272  -26.3944  -25.7494  -25.7494  -25.7434  -25.7434  -24.5362  -24.5362
         -24.4827  -24.4827  -23.9819  -23.9239  -22.4556  -22.4556  -22.4068  -22.4068  -20.7042  -20.7042
  -20.6622  -20.6622  -20.3191  -20.2636  -19.4115  -19.4115  -19.3642  -19.3642  -18.3297  -18.3297
  -18.3013  -18.3013  -17.5815  -17.5815  -17.5056  -17.5056  -16.5969  -16.5044  -15.7996  -15.7996
  -15.7287  -15.7287  -15.5341  -15.4658  -15.3334  -15.2128  -15.2128  -15.1400  -15.1400  -14.4218
  -14.3567  -14.2292  -14.1736  -13.5788  -13.5788  -13.1161  -13.0764  -12.9973  -12.8200  -12.7850
  -12.3866  -12.3866  -12.3736  -12.3736  -11.8411  -11.2061  -11.2061  -10.7781  -10.0288  -10.0288
   -9.1668   -9.1668   -7.0605   -7.0605   -6.5837   -6.5837   -5.2789   -4.6033   -4.4351   -4.4351
   -3.8236   -3.8236   -2.2757   -2.2757   -1.8417   -1.8417   -1.0105   -0.6448    0.7598    0.9345
    0.9739    1.0477    1.1597    1.3637    1.4562    1.4862    1.5926    1.5926    1.8154    1.8154
    1.8543    1.8543    2.0372    2.0372    2.0735    2.2877    4.5718    4.6625    5.5949    5.5949
    5.6889    5.6889    6.0871    6.1205    6.5096    6.5096    6.5848    6.5848    7.8838    7.9821
    8.2577    8.2577    8.3601    8.3601    8.9456    8.9456    8.9940    8.9940    9.9400    9.9400
    9.9893    9.9893   10.5117   10.5404   12.1070   12.1070   12.1301   12.1301   12.3326   12.4099
   14.8306   14.8306   14.8355   14.8355
  20  1  -27.3255  -27.3255  -27.2337  -27.2337  -25.9105  -25.9105  -25.9084  -25.9084  -23.5651  -23.5651
         -23.5651  -23.5651  -23.4980  -23.4980  -23.4980  -23.4980  -22.9931  -22.9872  -21.4574  -21.3481
  -20.1234  -20.1234  -20.1234  -20.1234  -20.0820  -20.0820  -20.0820  -20.0820  -17.0597  -17.0597
  -17.0597  -17.0597  -16.9975  -16.9975  -16.9975  -16.9975  -16.9701  -16.9701  -16.9267  -16.9267
  -15.6804  -15.6125  -15.5743  -15.5743  -15.4958  -15.4958  -14.9080  -14.9080  -14.6651  -14.6651
  -14.5925  -14.5925  -13.7710  -13.7710  -13.7253  -13.7253  -13.5870  -13.5869  -13.5320  -13.5320
  -12.5231  -12.5231  -11.3355  -11.3355  -11.3355  -11.3355  -10.9152  -10.3234  -10.2564  -10.2564
  -10.2564  -10.2564   -6.1382   -5.7418   -5.7418   -5.7418   -5.7418   -5.7214   -5.1887   -5.1887
   -5.1887   -5.1887   -1.9170   -1.9170   -1.5567   -1.5567    0.6868    0.8210    0.8210    0.9736
    1.0570    1.0570    1.2415    1.2415    1.3414    1.3414    3.4017    3.4017    3.4017    3.4017
    3.4670    3.4670    3.4971    3.4971    3.6061    3.6061    3.6061    3.6061    3.7901    3.7901
    3.8651    3.8651    4.0554    4.0554    4.1319    4.1319    5.8088    5.8088    5.9078    5.9078
    8.7175    8.7175    8.7175    8.7175    8.8035    8.8035    8.8035    8.8035    9.9753    9.9753
   10.0166   10.0166   11.1967   11.2177   13.1276   13.2626   13.7782   13.7782   13.7783   13.7783
   13.7952   13.7952   13.7952   13.7952
  21  1  -27.8859  -27.7539  -26.4272  -26.3944  -25.7494  -25.7494  -25.7434  -25.7434  -24.5362  -24.5362
         -24.4827  -24.4827  -23.9819  -23.9239  -22.4556  -22.4556  -22.4068  -22.4068  -20.7042  -20.7042
  -20.6622  -20.6622  -20.3191  -20.2636  -19.4115  -19.4115  -19.3642  -19.3642  -18.3297  -18.3297
  -18.3013  -18.3013  -17.5815  -17.5815  -17.5056  -17.5056  -16.5969  -16.5044  -15.7996  -15.7996
  -15.7287  -15.7287  -15.5341  -15.4658  -15.3334  -15.2128  -15.2128  -15.1400  -15.1400  -14.4218
  -14.3567  -14.2292  -14.1736  -13.5788  -13.5788  -13.1161  -13.0764  -12.9973  -12.8200  -12.7850
  -12.3866  -12.3866  -12.3736  -12.3736  -11.8411  -11.2061  -11.2061  -10.7781  -10.0288  -10.0288
   -9.1668   -9.1668   -7.0605   -7.0605   -6.5837   -6.5837   -5.2789   -4.6033   -4.4351   -4.4351
   -3.8236   -3.8236   -2.2757   -2.2757   -1.8417   -1.8417   -1.0105   -0.6448    0.7598    0.9345
    0.9739    1.0477    1.1597    1.3637    1.4562    1.4862    1.5926    1.5926    1.8154    1.8154
    1.8543    1.8543    2.0372    2.0372    2.0735    2.2877    4.5718    4.6625    5.5949    5.5949
    5.6889    5.6889    6.0871    6.1205    6.5096    6.5096    6.5848    6.5848    7.8838    7.9821
    8.2577    8.2577    8.3601    8.3601    8.9456    8.9456    8.9940    8.9940    9.9400    9.9400
    9.9893    9.9893   10.5117   10.5404   12.1070   12.1070   12.1301   12.1301   12.3326   12.4099
   14.8306   14.8306   14.8355   14.8355
  22  1  -27.8859  -27.7539  -26.4272  -26.3944  -25.7494  -25.7494  -25.7434  -25.7434  -24.5362  -24.5362
         -24.4827  -24.4827  -23.9819  -23.9239  -22.4556  -22.4556  -22.4068  -22.4068  -20.7042  -20.7042
  -20.6622  -20.6622  -20.3191  -20.2636  -19.4115  -19.4115  -19.3642  -19.3642  -18.3297  -18.3297
  -18.3013  -18.3013  -17.5815  -17.5815  -17.5056  -17.5056  -16.5969  -16.5044  -15.7996  -15.7996
  -15.7287  -15.7287  -15.5341  -15.4658  -15.3334  -15.2128  -15.2128  -15.1400  -15.1400  -14.4218
  -14.3567  -14.2292  -14.1736  -13.5788  -13.5788  -13.1161  -13.0764  -12.9973  -12.8200  -12.7850
  -12.3866  -12.3866  -12.3736  -12.3736  -11.8411  -11.2061  -11.2061  -10.7781  -10.0288  -10.0288
   -9.1668   -9.1668   -7.0605   -7.0605   -6.5837   -6.5837   -5.2789   -4.6033   -4.4351   -4.4351
   -3.8236   -3.8236   -2.2757   -2.2757   -1.8417   -1.8417   -1.0105   -0.6448    0.7598    0.9345
    0.9739    1.0477    1.1597    1.3637    1.4562    1.4862    1.5926    1.5926    1.8154    1.8154
    1.8543    1.8543    2.0372    2.0372    2.0735    2.2877    4.5718    4.6625    5.5949    5.5949
    5.6889    5.6889    6.0871    6.1205    6.5096    6.5096    6.5848    6.5848    7.8838    7.9821
    8.2577    8.2577    8.3601    8.3601    8.9456    8.9456    8.9940    8.9940    9.9400    9.9400
    9.9893    9.9893   10.5117   10.5404   12.1070   12.1070   12.1301   12.1301   12.3326   12.4099
   14.8306   14.8306   14.8355   14.8355
  23  1  -27.5106  -27.4057  -26.7807  -26.7807  -26.7259  -26.7258  -24.8277  -24.8277  -24.7793  -24.7793
         -23.6878  -23.6159  -23.2442  -23.2442  -23.1964  -23.1964  -22.5842  -22.5819  -21.2192  -21.1266
  -21.0116  -21.0116  -20.9310  -20.9310  -19.5068  -19.4805  -18.5106  -18.5106  -18.4657  -18.4657
  -17.7335  -17.6832  -17.2304  -17.1735  -16.5267  -16.5267  -16.4523  -16.4523  -16.0993  -16.0993
  -16.0310  -16.0310  -15.7131  -15.7131  -15.6461  -15.6460  -15.0479  -14.4792  -14.4792  -14.3692
  -14.3692  -14.3166  -14.3166  -14.1046  -14.0706  -13.9287  -13.4424  -13.4049  -13.3061  -13.3061
  -12.6665  -12.6665  -11.4450  -11.4450  -11.4347  -11.0886  -11.0886  -10.3475  -10.2711  -10.2690
  -10.2690   -9.7496   -6.4896   -6.3656   -6.0331   -6.0331   -5.5709   -5.5171   -5.5170   -5.0508
   -3.8541   -3.8541   -3.3833   -3.3833   -0.2826   -0.2826    0.0168    0.0168    1.2250    1.4484
    1.4529    1.4529    1.6130    1.6580    1.7208    1.7208    1.9709    1.9709    2.1141    2.1141
    2.3399    2.3835    3.3345    3.5410    3.5903    3.5904    3.7731    3.7731    4.0160    4.0160
    4.0964    4.0964    5.2572    5.3175    5.4962    5.5767    6.4740    6.4740    6.5907    6.5907
    7.0091    7.1770    7.5159    7.5159    7.5822    7.5823    9.6331    9.7098   10.4678   10.4678
   10.5019   10.5020   12.2158   12.2158   12.2386   12.2386   13.4086   13.4086   13.4783   13.4783
   13.9227   13.9296   14.3424   14.3719
  24  1  -27.5106  -27.4057  -26.7807  -26.7807  -26.7259  -26.7258  -24.8277  -24.8277  -24.7793  -24.7793
         -23.6878  -23.6159  -23.2442  -23.2442  -23.1964  -23.1964  -22.5842  -22.5819  -21.2192  -21.1266
  -21.0116  -21.0116  -20.9310  -20.9310  -19.5068  -19.4805  -18.5106  -18.5106  -18.4657  -18.4657
  -17.7335  -17.6832  -17.2304  -17.1735  -16.5267  -16.5267  -16.4523  -16.4523  -16.0993  -16.0993
  -16.0310  -16.0310  -15.7131  -15.7131  -15.6461  -15.6460  -15.0479  -14.4792  -14.4792  -14.3692
  -14.3692  -14.3166  -14.3166  -14.1046  -14.0706  -13.9287  -13.4424  -13.4049  -13.3061  -13.3061
  -12.6665  -12.6665  -11.4450  -11.4450  -11.4347  -11.0886  -11.0886  -10.3475  -10.2711  -10.2690
  -10.2690   -9.7496   -6.4896   -6.3656   -6.0331   -6.0331   -5.5709   -5.5171   -5.5170   -5.0508
   -3.8541   -3.8541   -3.3833   -3.3833   -0.2826   -0.2826    0.0168    0.0168    1.2250    1.4484
    1.4529    1.4529    1.6130    1.6580    1.7208    1.7208    1.9709    1.9709    2.1141    2.1141
    2.3399    2.3835    3.3345    3.5410    3.5903    3.5904    3.7731    3.7731    4.0160    4.0160
    4.0964    4.0964    5.2572    5.3175    5.4962    5.5767    6.4740    6.4740    6.5907    6.5907
    7.0091    7.1770    7.5159    7.5159    7.5822    7.5823    9.6331    9.7098   10.4678   10.4678
   10.5019   10.5020   12.2158   12.2158   12.2386   12.2386   13.4086   13.4086   13.4783   13.4783
   13.9227   13.9296   14.3424   14.3719
  25  1  -27.5106  -27.4057  -26.7807  -26.7807  -26.7259  -26.7258  -24.8277  -24.8277  -24.7793  -24.7793
         -23.6878  -23.6159  -23.2442  -23.2442  -23.1964  -23.1964  -22.5842  -22.5819  -21.2192  -21.1266
  -21.0116  -21.0116  -20.9310  -20.9310  -19.5068  -19.4805  -18.5106  -18.5106  -18.4657  -18.4657
  -17.7335  -17.6832  -17.2304  -17.1735  -16.5267  -16.5267  -16.4523  -16.4523  -16.0993  -16.0993
  -16.0310  -16.0310  -15.7131  -15.7131  -15.6461  -15.6460  -15.0479  -14.4792  -14.4792  -14.3692
  -14.3692  -14.3166  -14.3166  -14.1046  -14.0706  -13.9287  -13.4424  -13.4049  -13.3061  -13.3061
  -12.6665  -12.6665  -11.4450  -11.4450  -11.4347  -11.0886  -11.0886  -10.3475  -10.2711  -10.2690
  -10.2690   -9.7496   -6.4896   -6.3656   -6.0331   -6.0331   -5.5709   -5.5171   -5.5170   -5.0508
   -3.8541   -3.8541   -3.3833   -3.3833   -0.2826   -0.2826    0.0168    0.0168    1.2250    1.4484
    1.4529    1.4529    1.6130    1.6580    1.7208    1.7208    1.9709    1.9709    2.1141    2.1141
    2.3399    2.3835    3.3345    3.5410    3.5903    3.5904    3.7731    3.7731    4.0160    4.0160
    4.0964    4.0964    5.2572    5.3175    5.4962    5.5767    6.4740    6.4740    6.5907    6.5907
    7.0091    7.1770    7.5159    7.5159    7.5822    7.5823    9.6331    9.7098   10.4678   10.4678
   10.5019   10.5020   12.2158   12.2158   12.2386   12.2386   13.4086   13.4086   13.4783   13.4783
   13.9227   13.9296   14.3424   14.3719
  26  1  -27.3255  -27.3255  -27.2337  -27.2337  -25.9105  -25.9105  -25.9084  -25.9084  -23.5651  -23.5651
         -23.5651  -23.5651  -23.4980  -23.4980  -23.4980  -23.4980  -22.9931  -22.9872  -21.4574  -21.3481
  -20.1234  -20.1234  -20.1234  -20.1234  -20.0820  -20.0820  -20.0820  -20.0820  -17.0597  -17.0597
  -17.0597  -17.0597  -16.9975  -16.9975  -16.9975  -16.9975  -16.9701  -16.9701  -16.9267  -16.9267
  -15.6804  -15.6125  -15.5743  -15.5743  -15.4958  -15.4958  -14.9080  -14.9080  -14.6651  -14.6651
  -14.5925  -14.5925  -13.7710  -13.7710  -13.7253  -13.7253  -13.5870  -13.5869  -13.5320  -13.5320
  -12.5231  -12.5231  -11.3355  -11.3355  -11.3355  -11.3355  -10.9152  -10.3234  -10.2564  -10.2564
  -10.2564  -10.2564   -6.1382   -5.7418   -5.7418   -5.7418   -5.7418   -5.7214   -5.1887   -5.1887
   -5.1887   -5.1887   -1.9170   -1.9170   -1.5567   -1.5567    0.6868    0.8210    0.8210    0.9736
    1.0570    1.0570    1.2415    1.2415    1.3414    1.3414    3.4017    3.4017    3.4017    3.4017
    3.4670    3.4670    3.4971    3.4971    3.6061    3.6061    3.6061    3.6061    3.7901    3.7901
    3.8651    3.8651    4.0554    4.0554    4.1319    4.1319    5.8088    5.8088    5.9078    5.9078
    8.7175    8.7175    8.7175    8.7175    8.8035    8.8035    8.8035    8.8035    9.9753    9.9753
   10.0166   10.0166   11.1967   11.2177   13.1276   13.2626   13.7782   13.7782   13.7783   13.7783
   13.7952   13.7952   13.7952   13.7952
  27  1  -27.5106  -27.4057  -26.7807  -26.7807  -26.7259  -26.7258  -24.8277  -24.8277  -24.7793  -24.7793
         -23.6878  -23.6159  -23.2442  -23.2442  -23.1964  -23.1964  -22.5842  -22.5819  -21.2192  -21.1266
  -21.0116  -21.0116  -20.9310  -20.9310  -19.5068  -19.4805  -18.5106  -18.5106  -18.4657  -18.4657
  -17.7335  -17.6832  -17.2304  -17.1735  -16.5267  -16.5267  -16.4523  -16.4523  -16.0993  -16.0993
  -16.0310  -16.0310  -15.7131  -15.7131  -15.6461  -15.6460  -15.0479  -14.4792  -14.4792  -14.3692
  -14.3692  -14.3166  -14.3166  -14.1046  -14.0706  -13.9287  -13.4424  -13.4049  -13.3061  -13.3061
  -12.6665  -12.6665  -11.4450  -11.4450  -11.4347  -11.0886  -11.0886  -10.3475  -10.2711  -10.2690
  -10.2690   -9.7496   -6.4896   -6.3656   -6.0331   -6.0331   -5.5709   -5.5171   -5.5170   -5.0508
   -3.8541   -3.8541   -3.3833   -3.3833   -0.2826   -0.2826    0.0168    0.0168    1.2250    1.4484
    1.4529    1.4529    1.6130    1.6580    1.7208    1.7208    1.9709    1.9709    2.1141    2.1141
    2.3399    2.3835    3.3345    3.5410    3.5903    3.5904    3.7731    3.7731    4.0160    4.0160
    4.0964    4.0964    5.2572    5.3175    5.4962    5.5767    6.4740    6.4740    6.5907    6.5907
    7.0091    7.1770    7.5159    7.5159    7.5822    7.5823    9.6331    9.7098   10.4678   10.4678
   10.5019   10.5020   12.2158   12.2158   12.2386   12.2386   13.4086   13.4086   13.4783   13.4783
   13.9227   13.9296   14.3424   14.3719
  28  1  -27.3255  -27.3255  -27.2337  -27.2337  -25.9105  -25.9105  -25.9084  -25.9084  -23.5651  -23.5651
         -23.5651  -23.5651  -23.4980  -23.4980  -23.4980  -23.4980  -22.9931  -22.9872  -21.4574  -21.3481
  -20.1234  -20.1234  -20.1234  -20.1234  -20.0820  -20.0820  -20.0820  -20.0820  -17.0597  -17.0597
  -17.0597  -17.0597  -16.9975  -16.9975  -16.9975  -16.9975  -16.9701  -16.9701  -16.9267  -16.9267
  -15.6804  -15.6125  -15.5743  -15.5743  -15.4958  -15.4958  -14.9080  -14.9080  -14.6651  -14.6651
  -14.5925  -14.5925  -13.7710  -13.7710  -13.7253  -13.7253  -13.5870  -13.5869  -13.5320  -13.5320
  -12.5231  -12.5231  -11.3355  -11.3355  -11.3355  -11.3355  -10.9152  -10.3234  -10.2564  -10.2564
  -10.2564  -10.2564   -6.1382   -5.7418   -5.7418   -5.7418   -5.7418   -5.7214   -5.1887   -5.1887
   -5.1887   -5.1887   -1.9170   -1.9170   -1.5567   -1.5567    0.6868    0.8210    0.8210    0.9736
    1.0570    1.0570    1.2415    1.2415    1.3414    1.3414    3.4017    3.4017    3.4017    3.4017
    3.4670    3.4670    3.4971    3.4971    3.6061    3.6061    3.6061    3.6061    3.7901    3.7901
    3.8651    3.8651    4.0554    4.0554    4.1319    4.1319    5.8088    5.8088    5.9078    5.9078
    8.7175    8.7175    8.7175    8.7175    8.8035    8.8035    8.8035    8.8035    9.9753    9.9753
   10.0166   10.0166   11.1967   11.2177   13.1276   13.2626   13.7782   13.7782   13.7783   13.7783
   13.7952   13.7952   13.7952   13.7952
  29  1  -27.4744  -27.4744  -26.7683  -26.7683  -26.7683  -26.7683  -24.8123  -24.8123  -24.8123  -24.8123
         -23.6559  -23.6559  -23.2214  -23.2214  -23.2214  -23.2214  -22.5816  -22.5816  -21.1758  -21.1758
  -20.9745  -20.9745  -20.9745  -20.9745  -19.4930  -19.4930  -18.4886  -18.4886  -18.4886  -18.4886
  -17.7107  -17.7107  -17.2026  -17.2026  -16.4923  -16.4923  -16.4923  -16.4923  -16.0654  -16.0654
  -16.0654  -16.0654  -15.6811  -15.6811  -15.6811  -15.6811  -14.5205  -14.5205  -14.3576  -14.3576
  -14.3576  -14.3576  -14.0861  -14.0861  -13.9243  -13.9243  -13.9243  -13.9243  -13.4250  -13.4250
  -12.1048  -12.1048  -12.1048  -12.1048  -10.8852  -10.8852  -10.6608  -10.6608  -10.6608  -10.6608
   -9.9990   -9.9990   -6.5077   -6.5077   -5.8418   -5.8418   -5.8418   -5.8418   -5.3125   -5.3125
   -3.6220   -3.6220   -3.6220   -3.6220   -0.1411   -0.1411   -0.1411   -0.1411    1.3192    1.3192
    1.5960    1.5960    1.5960    1.5960    1.6694    1.6694    2.0668    2.0668    2.0669    2.0669
    2.3623    2.3623    3.4443    3.4443    3.6901    3.6901    3.6901    3.6901    4.0642    4.0642
    4.0642    4.0642    5.2895    5.2895    5.5380    5.5380    6.5459    6.5459    6.5459    6.5459
    7.1025    7.1025    7.5515    7.5515    7.5515    7.5515    9.6700    9.6700   10.4851   10.4851
   10.4851   10.4851   12.2281   12.2281   12.2281   12.2281   13.4427   13.4427   13.4427   13.4427
   13.9264   13.9264   14.3565   14.3565
  30  1  -27.8367  -27.8367  -26.4250  -26.4250  -25.7586  -25.7586  -25.7586  -25.7586  -24.5168  -24.5168
         -24.5168  -24.5168  -23.9575  -23.9575  -22.4309  -22.4309  -22.4309  -22.4309  -20.6828  -20.6828
  -20.6828  -20.6828  -20.2940  -20.2940  -19.3900  -19.3900  -19.3900  -19.3900  -18.3169  -18.3169
  -18.3168  -18.3168  -17.5461  -17.5461  -17.5461  -17.5461  -16.5546  -16.5546  -15.7647  -15.7647
  -15.7647  -15.7647  -15.4999  -15.4999  -15.1779  -15.1779  -15.1779  -15.1779  -14.8024  -14.8024
  -14.3892  -14.3892  -13.6338  -13.6338  -13.0962  -13.0962  -13.0285  -13.0285  -13.0285  -13.0285
  -12.8022  -12.8022  -11.8370  -11.8370  -11.8370  -11.8370  -11.3288  -11.3288   -9.5790   -9.5790
   -9.5790   -9.5790   -6.8561   -6.8561   -6.8561   -6.8561   -4.9796   -4.9796   -4.1450   -4.1450
   -4.1450   -4.1450   -2.0657   -2.0657   -2.0657   -2.0657   -0.8376   -0.8376    0.9149    0.9149
    0.9607    0.9607    1.2855    1.2855    1.4714    1.4714    1.7349    1.7349    1.7349    1.7349
    1.9433    1.9434    1.9434    1.9434    2.1793    2.1793    4.6205    4.6205    5.6454    5.6454
    5.6454    5.6454    6.1037    6.1037    6.5569    6.5569    6.5569    6.5569    7.9461    7.9461
    8.3091    8.3091    8.3091    8.3091    8.9747    8.9747    8.9747    8.9747    9.9698    9.9698
    9.9698    9.9698   10.5263   10.5263   12.1228   12.1228   12.1228   12.1228   12.3754   12.3754
   14.8329   14.8329   14.8329   14.8329
  31  1  -27.8367  -27.8367  -26.4250  -26.4250  -25.7586  -25.7586  -25.7586  -25.7586  -24.5168  -24.5168
         -24.5168  -24.5168  -23.9575  -23.9575  -22.4309  -22.4309  -22.4309  -22.4309  -20.6828  -20.6828
  -20.6828  -20.6828  -20.2940  -20.2940  -19.3900  -19.3900  -19.3900  -19.3900  -18.3169  -18.3169
  -18.3168  -18.3168  -17.5461  -17.5461  -17.5461  -17.5461  -16.5546  -16.5546  -15.7647  -15.7647
  -15.7647  -15.7647  -15.4999  -15.4999  -15.1779  -15.1779  -15.1779  -15.1779  -14.8024  -14.8024
  -14.3892  -14.3892  -13.6338  -13.6338  -13.0962  -13.0962  -13.0285  -13.0285  -13.0285  -13.0285
  -12.8022  -12.8022  -11.8370  -11.8370  -11.8370  -11.8370  -11.3288  -11.3288   -9.5790   -9.5790
   -9.5790   -9.5790   -6.8561   -6.8561   -6.8561   -6.8561   -4.9796   -4.9796   -4.1450   -4.1450
   -4.1450   -4.1450   -2.0657   -2.0657   -2.0657   -2.0657   -0.8376   -0.8376    0.9149    0.9149
    0.9607    0.9607    1.2855    1.2855    1.4714    1.4714    1.7349    1.7349    1.7349    1.7349
    1.9434    1.9434    1.9434    1.9434    2.1793    2.1793    4.6205    4.6205    5.6454    5.6454
    5.6454    5.6454    6.1037    6.1037    6.5569    6.5569    6.5569    6.5569    7.9461    7.9461
    8.3091    8.3091    8.3091    8.3091    8.9747    8.9747    8.9747    8.9747    9.9698    9.9698
    9.9698    9.9698   10.5263   10.5263   12.1228   12.1228   12.1228   12.1228   12.3754   12.3754
   14.8329   14.8329   14.8329   14.8329
  32  1  -27.4744  -27.4744  -26.7683  -26.7683  -26.7683  -26.7683  -24.8123  -24.8123  -24.8123  -24.8123
         -23.6559  -23.6559  -23.2214  -23.2214  -23.2214  -23.2214  -22.5816  -22.5816  -21.1758  -21.1758
  -20.9745  -20.9745  -20.9745  -20.9745  -19.4930  -19.4930  -18.4886  -18.4886  -18.4886  -18.4886
  -17.7107  -17.7107  -17.2026  -17.2026  -16.4923  -16.4923  -16.4923  -16.4923  -16.0654  -16.0654
  -16.0654  -16.0654  -15.6811  -15.6811  -15.6811  -15.6811  -14.5205  -14.5205  -14.3576  -14.3576
  -14.3576  -14.3576  -14.0861  -14.0861  -13.9243  -13.9243  -13.9243  -13.9243  -13.4250  -13.4250
  -12.1048  -12.1048  -12.1048  -12.1048  -10.8852  -10.8852  -10.6608  -10.6608  -10.6608  -10.6608
   -9.9990   -9.9990   -6.5077   -6.5077   -5.8418   -5.8418   -5.8418   -5.8418   -5.3125   -5.3125
   -3.6220   -3.6220   -3.6220   -3.6220   -0.1411   -0.1411   -0.1411   -0.1411    1.3192    1.3192
    1.5960    1.5960    1.5960    1.5960    1.6694    1.6694    2.0668    2.0668    2.0669    2.0669
    2.3623    2.3623    3.4443    3.4443    3.6901    3.6901    3.6901    3.6901    4.0642    4.0642
    4.0642    4.0642    5.2895    5.2895    5.5380    5.5380    6.5459    6.5459    6.5459    6.5459
    7.1025    7.1025    7.5515    7.5515    7.5515    7.5515    9.6700    9.6700   10.4851   10.4851
   10.4851   10.4851   12.2281   12.2281   12.2281   12.2281   13.4427   13.4427   13.4427   13.4427
   13.9264   13.9264   14.3565   14.3565
  33  1  -27.8367  -27.8367  -26.4250  -26.4250  -25.7586  -25.7586  -25.7586  -25.7586  -24.5168  -24.5168
         -24.5168  -24.5168  -23.9575  -23.9575  -22.4309  -22.4309  -22.4309  -22.4309  -20.6828  -20.6828
  -20.6828  -20.6828  -20.2940  -20.2940  -19.3900  -19.3900  -19.3900  -19.3900  -18.3169  -18.3169
  -18.3168  -18.3168  -17.5461  -17.5461  -17.5461  -17.5461  -16.5546  -16.5546  -15.7647  -15.7647
  -15.7647  -15.7647  -15.4999  -15.4999  -15.1779  -15.1779  -15.1779  -15.1779  -14.8024  -14.8024
  -14.3892  -14.3892  -13.6338  -13.6338  -13.0962  -13.0962  -13.0285  -13.0285  -13.0285  -13.0285
  -12.8022  -12.8022  -11.8370  -11.8370  -11.8370  -11.8370  -11.3288  -11.3288   -9.5790   -9.5790
   -9.5790   -9.5790   -6.8561   -6.8561   -6.8561   -6.8561   -4.9796   -4.9796   -4.1450   -4.1450
   -4.1450   -4.1450   -2.0657   -2.0657   -2.0657   -2.0657   -0.8376   -0.8376    0.9149    0.9149
    0.9607    0.9607    1.2855    1.2855    1.4714    1.4714    1.7349    1.7349    1.7349    1.7349
    1.9434    1.9434    1.9434    1.9434    2.1793    2.1793    4.6205    4.6205    5.6454    5.6454
    5.6454    5.6454    6.1037    6.1037    6.5569    6.5569    6.5569    6.5569    7.9461    7.9461
    8.3091    8.3091    8.3091    8.3091    8.9747    8.9747    8.9747    8.9747    9.9698    9.9698
    9.9698    9.9698   10.5263   10.5263   12.1228   12.1228   12.1228   12.1228   12.3754   12.3754
   14.8329   14.8329   14.8329   14.8329
  34  1  -28.0199  -28.0199  -25.2787  -25.2787  -25.2787  -25.2787  -25.2787  -25.2787  -25.2787  -25.2787
         -25.2787  -25.2787  -25.2787  -25.2787  -21.4060  -21.4060  -21.4060  -21.4060  -21.3826  -21.3826
  -21.3826  -21.3826  -18.9199  -18.9199  -18.9199  -18.9199  -18.5076  -18.5076  -18.5076  -18.5076
  -18.5076  -18.5076  -18.5076  -18.5076  -18.5076  -18.5076  -18.5076  -18.5076  -15.0688  -15.0688
  -15.0688  -15.0688  -15.0688  -15.0688  -15.0688  -15.0688  -15.0688  -15.0688  -15.0688  -15.0688
  -14.9416  -14.9416  -12.5820  -12.5820  -12.5820  -12.5820  -12.5820  -12.5820  -12.5820  -12.5820
  -12.5820  -12.5820  -12.5820  -12.5820  -12.4774  -12.4774  -12.4774  -12.4774   -8.2466   -8.2466
   -8.2466   -8.2466   -8.2155   -8.2155   -8.2155   -8.2155   -2.9397   -2.9397   -2.9397   -2.9397
   -2.9397   -2.9397   -2.9397   -2.9397   -2.9397   -2.9397   -2.9397   -2.9397    0.7002    0.7002
    0.7002    0.7002    1.0994    1.0994    1.0994    1.0994    1.0994    1.0994    1.0994    1.0994
    1.0994    1.0994    1.0994    1.0994    2.6046    2.6046    4.2750    4.2750    7.3425    7.3425
    7.3425    7.3425    7.3492    7.3492    7.3492    7.3492    8.6642    8.6642    8.6642    8.6642
    8.6642    8.6642    8.6643    8.6643    8.6643    8.6643    8.6643    8.6643   10.3488   10.3488
   10.3488   10.3488   10.3488   10.3488   10.3489   10.3489   10.3489   10.3489   10.3489   10.3489
   15.1885   15.1885   15.1885   15.1885
  35  1  -27.8367  -27.8367  -26.4250  -26.4250  -25.7586  -25.7586  -25.7586  -25.7586  -24.5168  -24.5168
         -24.5168  -24.5168  -23.9575  -23.9575  -22.4309  -22.4309  -22.4309  -22.4309  -20.6828  -20.6828
  -20.6828  -20.6828  -20.2940  -20.2940  -19.3900  -19.3900  -19.3900  -19.3900  -18.3169  -18.3169
  -18.3168  -18.3168  -17.5461  -17.5461  -17.5461  -17.5461  -16.5546  -16.5546  -15.7647  -15.7647
  -15.7647  -15.7647  -15.4999  -15.4999  -15.1779  -15.1779  -15.1779  -15.1779  -14.8024  -14.8024
  -14.3892  -14.3892  -13.6338  -13.6338  -13.0962  -13.0962  -13.0285  -13.0285  -13.0285  -13.0285
  -12.8022  -12.8022  -11.8370  -11.8370  -11.8370  -11.8370  -11.3288  -11.3288   -9.5790   -9.5790
   -9.5790   -9.5790   -6.8561   -6.8561   -6.8561   -6.8561   -4.9796   -4.9796   -4.1450   -4.1450
   -4.1450   -4.1450   -2.0657   -2.0657   -2.0657   -2.0657   -0.8376   -0.8376    0.9149    0.9149
    0.9607    0.9607    1.2855    1.2855    1.4714    1.4714    1.7349    1.7349    1.7349    1.7349
    1.9434    1.9434    1.9434    1.9434    2.1793    2.1793    4.6205    4.6205    5.6454    5.6454
    5.6454    5.6454    6.1037    6.1037    6.5569    6.5569    6.5569    6.5569    7.9461    7.9461
    8.3091    8.3091    8.3091    8.3091    8.9747    8.9747    8.9747    8.9747    9.9698    9.9698
    9.9698    9.9698   10.5263   10.5263   12.1228   12.1228   12.1228   12.1228   12.3754   12.3754
   14.8329   14.8329   14.8329   14.8329
  36  1  -27.2956  -27.2956  -27.2956  -27.2956  -25.9222  -25.9222  -25.9222  -25.9222  -23.5348  -23.5348
         -23.5348  -23.5348  -23.5348  -23.5348  -23.5348  -23.5348  -22.9891  -22.9891  -21.4080  -21.4079
  -20.1036  -20.1036  -20.1036  -20.1036  -20.1036  -20.1036  -20.1036  -20.1036  -17.0298  -17.0298
  -17.0298  -17.0298  -17.0298  -17.0298  -17.0298  -17.0298  -16.9481  -16.9481  -16.9481  -16.9481
  -15.6465  -15.6465  -15.5402  -15.5402  -15.5402  -15.5402  -14.6433  -14.6433  -14.6433  -14.6433
  -14.3620  -14.3620  -14.3620  -14.3620  -13.5592  -13.5592  -13.5592  -13.5592  -13.1762  -13.1762
  -13.1762  -13.1762  -10.8148  -10.8148  -10.8148  -10.8148  -10.8148  -10.8148  -10.8148  -10.8148
  -10.5758  -10.5758   -6.0273   -6.0273   -5.4851   -5.4851   -5.4851   -5.4851   -5.4851   -5.4851
   -5.4851   -5.4851   -1.7413   -1.7413   -1.7413   -1.7413    0.8401    0.8401    0.9209    0.9209
    0.9209    0.9209    1.3253    1.3253    1.3253    1.3253    3.4821    3.4821    3.4821    3.4821
    3.5108    3.5108    3.5109    3.5109    3.5109    3.5109    3.5109    3.5109    3.8442    3.8442
    3.8443    3.8443    4.1085    4.1085    4.1085    4.1085    5.8642    5.8642    5.8642    5.8642
    8.7637    8.7637    8.7637    8.7637    8.7637    8.7637    8.7638    8.7638    9.9961    9.9961
    9.9961    9.9961   11.2075   11.2075   13.1927   13.1927   13.7872   13.7872   13.7872   13.7872
   13.7872   13.7872   13.7872   13.7872
  37  1  -27.8367  -27.8367  -26.4250  -26.4250  -25.7586  -25.7586  -25.7586  -25.7586  -24.5168  -24.5168
         -24.5168  -24.5168  -23.9575  -23.9575  -22.4309  -22.4309  -22.4309  -22.4309  -20.6828  -20.6828
  -20.6828  -20.6828  -20.2940  -20.2940  -19.3900  -19.3900  -19.3900  -19.3900  -18.3169  -18.3169
  -18.3168  -18.3168  -17.5461  -17.5461  -17.5461  -17.5461  -16.5546  -16.5546  -15.7647  -15.7647
  -15.7647  -15.7647  -15.4999  -15.4999  -15.1779  -15.1779  -15.1779  -15.1779  -14.8024  -14.8024
  -14.3892  -14.3892  -13.6338  -13.6338  -13.0962  -13.0962  -13.0285  -13.0285  -13.0285  -13.0285
  -12.8022  -12.8022  -11.8370  -11.8370  -11.8370  -11.8370  -11.3288  -11.3288   -9.5790   -9.5790
   -9.5790   -9.5790   -6.8561   -6.8561   -6.8561   -6.8561   -4.9796   -4.9796   -4.1450   -4.1450
   -4.1450   -4.1450   -2.0657   -2.0657   -2.0657   -2.0657   -0.8376   -0.8376    0.9149    0.9149
    0.9607    0.9607    1.2855    1.2855    1.4714    1.4714    1.7349    1.7349    1.7349    1.7349
    1.9434    1.9434    1.9434    1.9434    2.1793    2.1793    4.6205    4.6205    5.6454    5.6454
    5.6454    5.6454    6.1037    6.1037    6.5569    6.5569    6.5569    6.5569    7.9461    7.9461
    8.3091    8.3091    8.3091    8.3091    8.9747    8.9747    8.9747    8.9747    9.9698    9.9698
    9.9698    9.9698   10.5263   10.5263   12.1228   12.1228   12.1228   12.1228   12.3754   12.3754
   14.8329   14.8329   14.8329   14.8329
  38  1  -27.8367  -27.8367  -26.4250  -26.4250  -25.7586  -25.7586  -25.7586  -25.7586  -24.5168  -24.5168
         -24.5168  -24.5168  -23.9575  -23.9575  -22.4309  -22.4309  -22.4309  -22.4309  -20.6828  -20.6828
  -20.6828  -20.6828  -20.2940  -20.2940  -19.3900  -19.3900  -19.3900  -19.3900  -18.3169  -18.3169
  -18.3168  -18.3168  -17.5461  -17.5461  -17.5461  -17.5461  -16.5546  -16.5546  -15.7647  -15.7647
  -15.7647  -15.7647  -15.4999  -15.4999  -15.1779  -15.1779  -15.1779  -15.1779  -14.8024  -14.8024
  -14.3892  -14.3892  -13.6338  -13.6338  -13.0962  -13.0962  -13.0285  -13.0285  -13.0285  -13.0285
  -12.8022  -12.8022  -11.8370  -11.8370  -11.8370  -11.8370  -11.3288  -11.3288   -9.5790   -9.5790
   -9.5790   -9.5790   -6.8561   -6.8561   -6.8561   -6.8561   -4.9796   -4.9796   -4.1450   -4.1450
   -4.1450   -4.1450   -2.0657   -2.0657   -2.0657   -2.0657   -0.8376   -0.8376    0.9149    0.9149
    0.9607    0.9607    1.2855    1.2855    1.4714    1.4714    1.7349    1.7349    1.7349    1.7349
    1.9433    1.9434    1.9434    1.9434    2.1793    2.1793    4.6205    4.6205    5.6454    5.6454
    5.6454    5.6454    6.1037    6.1037    6.5569    6.5569    6.5569    6.5569    7.9461    7.9461
    8.3091    8.3091    8.3091    8.3091    8.9747    8.9747    8.9747    8.9747    9.9698    9.9698
    9.9698    9.9698   10.5263   10.5263   12.1228   12.1228   12.1228   12.1228   12.3754   12.3754
   14.8329   14.8329   14.8329   14.8329
  39  1  -27.4744  -27.4744  -26.7683  -26.7683  -26.7683  -26.7683  -24.8123  -24.8123  -24.8123  -24.8123
         -23.6559  -23.6559  -23.2214  -23.2214  -23.2214  -23.2214  -22.5816  -22.5816  -21.1758  -21.1758
  -20.9745  -20.9745  -20.9745  -20.9745  -19.4930  -19.4930  -18.4886  -18.4886  -18.4886  -18.4886
  -17.7107  -17.7107  -17.2026  -17.2026  -16.4923  -16.4923  -16.4923  -16.4923  -16.0654  -16.0654
  -16.0654  -16.0654  -15.6811  -15.6811  -15.6811  -15.6811  -14.5205  -14.5205  -14.3576  -14.3576
  -14.3576  -14.3576  -14.0861  -14.0861  -13.9243  -13.9243  -13.9243  -13.9243  -13.4250  -13.4250
  -12.1048  -12.1048  -12.1048  -12.1048  -10.8852  -10.8852  -10.6608  -10.6608  -10.6608  -10.6608
   -9.9990   -9.9990   -6.5077   -6.5077   -5.8418   -5.8418   -5.8418   -5.8418   -5.3125   -5.3125
   -3.6220   -3.6220   -3.6220   -3.6220   -0.1411   -0.1411   -0.1411   -0.1411    1.3192    1.3192
    1.5960    1.5960    1.5960    1.5960    1.6694    1.6694    2.0668    2.0668    2.0669    2.0669
    2.3623    2.3623    3.4443    3.4443    3.6901    3.6901    3.6901    3.6901    4.0642    4.0642
    4.0642    4.0642    5.2895    5.2895    5.5380    5.5380    6.5459    6.5459    6.5459    6.5459
    7.1025    7.1025    7.5515    7.5515    7.5515    7.5515    9.6700    9.6700   10.4851   10.4851
   10.4851   10.4851   12.2281   12.2281   12.2281   12.2281   13.4427   13.4427   13.4427   13.4427
   13.9264   13.9264   14.3565   14.3565
  40  1  -27.4744  -27.4744  -26.7683  -26.7683  -26.7683  -26.7683  -24.8123  -24.8123  -24.8123  -24.8123
         -23.6559  -23.6559  -23.2214  -23.2214  -23.2214  -23.2214  -22.5816  -22.5816  -21.1758  -21.1758
  -20.9745  -20.9745  -20.9745  -20.9745  -19.4930  -19.4930  -18.4886  -18.4886  -18.4886  -18.4886
  -17.7107  -17.7107  -17.2026  -17.2026  -16.4923  -16.4923  -16.4923  -16.4923  -16.0654  -16.0654
  -16.0654  -16.0654  -15.6811  -15.6811  -15.6811  -15.6811  -14.5205  -14.5205  -14.3576  -14.3576
  -14.3576  -14.3576  -14.0861  -14.0861  -13.9243  -13.9243  -13.9243  -13.9243  -13.4250  -13.4250
  -12.1048  -12.1048  -12.1048  -12.1048  -10.8852  -10.8852  -10.6608  -10.6608  -10.6608  -10.6608
   -9.9990   -9.9990   -6.5077   -6.5077   -5.8418   -5.8418   -5.8418   -5.8418   -5.3125   -5.3125
   -3.6220   -3.6220   -3.6220   -3.6220   -0.1411   -0.1411   -0.1411   -0.1411    1.3192    1.3192
    1.5960    1.5960    1.5960    1.5960    1.6694    1.6694    2.0668    2.0668    2.0669    2.0669
    2.3623    2.3623    3.4443    3.4443    3.6901    3.6901    3.6901    3.6901    4.0642    4.0642
    4.0642    4.0642    5.2895    5.2895    5.5380    5.5380    6.5459    6.5459    6.5459    6.5459
    7.1025    7.1025    7.5515    7.5515    7.5515    7.5515    9.6700    9.6700   10.4851   10.4851
   10.4851   10.4851   12.2281   12.2281   12.2281   12.2281   13.4427   13.4427   13.4427   13.4427
   13.9264   13.9264   14.3565   14.3565
  41  1  -27.4744  -27.4744  -26.7683  -26.7683  -26.7683  -26.7683  -24.8123  -24.8123  -24.8123  -24.8123
         -23.6559  -23.6559  -23.2214  -23.2214  -23.2214  -23.2214  -22.5816  -22.5816  -21.1758  -21.1758
  -20.9745  -20.9745  -20.9745  -20.9745  -19.4930  -19.4930  -18.4886  -18.4886  -18.4886  -18.4886
  -17.7107  -17.7107  -17.2026  -17.2026  -16.4923  -16.4923  -16.4923  -16.4923  -16.0654  -16.0654
  -16.0654  -16.0654  -15.6811  -15.6811  -15.6811  -15.6811  -14.5205  -14.5205  -14.3576  -14.3576
  -14.3576  -14.3576  -14.0861  -14.0861  -13.9243  -13.9243  -13.9243  -13.9243  -13.4250  -13.4250
  -12.1048  -12.1048  -12.1048  -12.1048  -10.8852  -10.8852  -10.6608  -10.6608  -10.6608  -10.6608
   -9.9990   -9.9990   -6.5077   -6.5077   -5.8418   -5.8418   -5.8418   -5.8418   -5.3125   -5.3125
   -3.6220   -3.6220   -3.6220   -3.6220   -0.1411   -0.1411   -0.1411   -0.1411    1.3192    1.3192
    1.5960    1.5960    1.5960    1.5960    1.6694    1.6694    2.0668    2.0668    2.0669    2.0669
    2.3623    2.3623    3.4443    3.4443    3.6901    3.6901    3.6901    3.6901    4.0642    4.0642
    4.0642    4.0642    5.2895    5.2895    5.5380    5.5380    6.5459    6.5459    6.5459    6.5459
    7.1025    7.1025    7.5515    7.5515    7.5515    7.5515    9.6700    9.6700   10.4851   10.4851
   10.4851   10.4851   12.2281   12.2281   12.2281   12.2281   13.4427   13.4427   13.4427   13.4427
   13.9264   13.9264   14.3565   14.3565
  42  1  -27.2956  -27.2956  -27.2956  -27.2956  -25.9222  -25.9222  -25.9222  -25.9222  -23.5348  -23.5348
         -23.5348  -23.5348  -23.5348  -23.5348  -23.5348  -23.5348  -22.9891  -22.9891  -21.4080  -21.4079
  -20.1036  -20.1036  -20.1036  -20.1036  -20.1036  -20.1036  -20.1036  -20.1036  -17.0298  -17.0298
  -17.0298  -17.0298  -17.0298  -17.0298  -17.0298  -17.0298  -16.9481  -16.9481  -16.9481  -16.9481
  -15.6465  -15.6465  -15.5402  -15.5402  -15.5402  -15.5402  -14.6433  -14.6433  -14.6433  -14.6433
  -14.3620  -14.3620  -14.3620  -14.3620  -13.5592  -13.5592  -13.5592  -13.5592  -13.1762  -13.1762
  -13.1762  -13.1762  -10.8148  -10.8148  -10.8148  -10.8148  -10.8148  -10.8148  -10.8148  -10.8148
  -10.5758  -10.5758   -6.0273   -6.0273   -5.4851   -5.4851   -5.4851   -5.4851   -5.4851   -5.4851
   -5.4851   -5.4851   -1.7413   -1.7413   -1.7413   -1.7413    0.8401    0.8401    0.9209    0.9209
    0.9209    0.9209    1.3253    1.3253    1.3253    1.3253    3.4821    3.4821    3.4821    3.4821
    3.5108    3.5108    3.5109    3.5109    3.5109    3.5109    3.5109    3.5109    3.8442    3.8442
    3.8443    3.8443    4.1085    4.1085    4.1085    4.1085    5.8642    5.8642    5.8642    5.8642
    8.7637    8.7637    8.7637    8.7637    8.7637    8.7637    8.7638    8.7638    9.9961    9.9961
    9.9961    9.9961   11.2075   11.2075   13.1927   13.1927   13.7872   13.7872   13.7872   13.7872
   13.7872   13.7872   13.7872   13.7872
  43  1  -27.4744  -27.4744  -26.7683  -26.7683  -26.7683  -26.7683  -24.8123  -24.8123  -24.8123  -24.8123
         -23.6559  -23.6559  -23.2214  -23.2214  -23.2214  -23.2214  -22.5816  -22.5816  -21.1758  -21.1758
  -20.9745  -20.9745  -20.9745  -20.9745  -19.4930  -19.4930  -18.4886  -18.4886  -18.4886  -18.4886
  -17.7107  -17.7107  -17.2026  -17.2026  -16.4923  -16.4923  -16.4923  -16.4923  -16.0654  -16.0654
  -16.0654  -16.0654  -15.6811  -15.6811  -15.6811  -15.6811  -14.5205  -14.5205  -14.3576  -14.3576
  -14.3576  -14.3576  -14.0861  -14.0861  -13.9243  -13.9243  -13.9243  -13.9243  -13.4250  -13.4250
  -12.1048  -12.1048  -12.1048  -12.1048  -10.8852  -10.8852  -10.6608  -10.6608  -10.6608  -10.6608
   -9.9990   -9.9990   -6.5077   -6.5077   -5.8418   -5.8418   -5.8418   -5.8418   -5.3125   -5.3125
   -3.6220   -3.6220   -3.6220   -3.6220   -0.1411   -0.1411   -0.1411   -0.1411    1.3192    1.3192
    1.5960    1.5960    1.5960    1.5960    1.6694    1.6694    2.0668    2.0668    2.0669    2.0669
    2.3623    2.3623    3.4443    3.4443    3.6901    3.6901    3.6901    3.6901    4.0642    4.0642
    4.0642    4.0642    5.2895    5.2895    5.5380    5.5380    6.5459    6.5459    6.5459    6.5459
    7.1025    7.1025    7.5515    7.5515    7.5515    7.5515    9.6700    9.6700   10.4851   10.4851
   10.4851   10.4851   12.2281   12.2281   12.2281   12.2281   13.4427   13.4427   13.4427   13.4427
   13.9264   13.9264   14.3565   14.3565
  44  1  -27.2956  -27.2956  -27.2956  -27.2956  -25.9222  -25.9222  -25.9222  -25.9222  -23.5348  -23.5348
         -23.5348  -23.5348  -23.5348  -23.5348  -23.5348  -23.5348  -22.9891  -22.9891  -21.4080  -21.4079
  -20.1036  -20.1036  -20.1036  -20.1036  -20.1036  -20.1036  -20.1036  -20.1036  -17.0298  -17.0298
  -17.0298  -17.0298  -17.0298  -17.0298  -17.0298  -17.0298  -16.9481  -16.9481  -16.9481  -16.9481
  -15.6465  -15.6465  -15.5402  -15.5402  -15.5402  -15.5402  -14.6433  -14.6433  -14.6433  -14.6433
  -14.3620  -14.3620  -14.3620  -14.3620  -13.5592  -13.5592  -13.5592  -13.5592  -13.1762  -13.1762
  -13.1762  -13.1762  -10.8148  -10.8148  -10.8148  -10.8148  -10.8148  -10.8148  -10.8148  -10.8148
  -10.5758  -10.5758   -6.0273   -6.0273   -5.4851   -5.4851   -5.4851   -5.4851   -5.4851   -5.4851
   -5.4851   -5.4851   -1.7413   -1.7413   -1.7413   -1.7413    0.8401    0.8401    0.9209    0.9209
    0.9209    0.9209    1.3253    1.3253    1.3253    1.3253    3.4821    3.4821    3.4821    3.4821
    3.5108    3.5108    3.5109    3.5109    3.5109    3.5109    3.5109    3.5109    3.8442    3.8442
    3.8443    3.8443    4.1085    4.1085    4.1085    4.1085    5.8642    5.8642    5.8642    5.8642
    8.7637    8.7637    8.7637    8.7637    8.7637    8.7637    8.7638    8.7638    9.9961    9.9961
    9.9961    9.9961   11.2075   11.2075   13.1927   13.1927   13.7872   13.7872   13.7872   13.7872
   13.7872   13.7872   13.7872   13.7872
siesta: Fermi energy =      -8.239665 eV

siesta: Program's energy decomposition (eV):
siesta: Ebs     =     -2554.575314
siesta: Eions   =      9434.507561
siesta: Ena     =      2266.102732
siesta: Ekin    =      3643.853914
siesta: Enl     =      -343.711689
siesta: Eso     =         0.000000
siesta: Edftu   =         0.000000
siesta: DEna    =       -10.853189
siesta: DUscf   =         2.544970
siesta: DUext   =         0.000000
siesta: Exc     =     -1638.944580
siesta: eta*DQ  =         0.000000
siesta: Emadel  =         0.000000
siesta: Emeta   =         0.000000
siesta: Emolmec =        -5.168292
siesta: Ekinion =         0.000000
siesta: Eharris =     -5520.683692
siesta: Etot    =     -5520.683695
siesta: FreeEng =     -5520.694312

siesta: Final energy (eV):
siesta:  Band Struct. =   -2554.575314
siesta:       Kinetic =    3643.853914
siesta:       Hartree =    1093.561517
siesta:       Edftu   =       0.000000
siesta:       Eso     =       0.000000
siesta:    Ext. field =       0.000000
siesta:   Exch.-corr. =   -1638.944580
siesta:  Ion-electron =   -6243.428381
siesta:       Ion-ion =   -2370.557874
siesta:       Ekinion =       0.000000
siesta:         Total =   -5520.683695
siesta:         Fermi =      -8.239665

siesta: Stress tensor (static) (eV/Ang**3):
siesta:    -0.240312    0.000000    0.000000
siesta:     0.000000   -0.240312   -0.000000
siesta:    -0.000000   -0.000000    0.179380

siesta: Cell volume =        295.341676 Ang**3

siesta: Pressure (static):
siesta:                Solid            Molecule  Units
siesta:           0.00109364          0.00109368  Ry/Bohr**3
siesta:           0.10041473          0.10041760  eV/Ang**3
siesta:         160.88387508        160.88847738  kBar
(Free)E+ p_basis*V_orbitals  =       -5502.391265
(Free)Eharris+ p_basis*V_orbitals  =       -5502.391263

cite: Please see "graphite_scf.bib" for an exhaustive BiBTeX file.
cite: Please clearly indicate Siesta version in published work: 4.1.5
cite: This calculation has made use of the following articles
cite: which are encouraged to be cited in a published work.
        Primary SIESTA paper
          DOI: www.doi.org/10.1088/0953-8984/14/11/302

>> End of run:   1-NOV-2022  14:19:12
Job completed
