Siesta Version  : 4.1.5
Architecture    : x86_64-unknown-linux-gnu--unknown
Compiler version: GNU Fortran (GCC) 11.3.0
Compiler flags  : mpif90 -g -O2 -fallow-argument-mismatch
PP flags        : -DMPI -DFC_HAVE_FLUSH -DFC_HAVE_ABORT
Libraries       :  -I/global/software/sl-7.x86_64/modules/intel/2020.4.304/mkl/include  /globall/software/sl-7.x86_64/modules/intel/2020.4.304/mkl/lib/intel64/libmkl_scalapack_lp64.a -Wl,--start-group /global/software/sl-7.x86_64/modules/intel/2020.4.304/mkl/lib/intel64/libmkl_intel_lp64.a /global/software/sl-7.x86_64/modules/intel/2020.4.304/mkl/lib/intel64/libmkl_sequential.a /global/software/sl-7.x86_64/modules/intel/2020.4.304/mkl/lib/intel64/libmkl_core.a /global/software/sl-7.x86_64/modules/intel/2020.4.304/mkl/lib/intel64/libmkl_blacs_openmpi_lp64.a -Wl,--end-group -lpthread -lm -ldl
PARALLEL version

* Running on 20 nodes in parallel
>> Start of run:   1-NOV-2022  14:33:24

                           ***********************       
                           *  WELCOME TO SIESTA  *       
                           ***********************       

reinit: Reading from standard input
reinit: Dumped input in INPUT_TMP.89028
************************** Dump of input data file ****************************
SystemName graphite_scf
SystemLabel graphite_scf
NumberOfAtoms   36
NumberOfSpecies 1
%block ChemicalSpeciesLabel
1  6   C-gga
%endblock ChemicalSpeciesLabel
PAO.BasisSize  SZ
PAO.EnergyShift  10 meV
%block PS.Lmax
C-gga   2
%endblock PS.Lmax
LatticeConstant 1.000000 Ang
%block LatticeVectors
	7.3920000000	0.0000000000	0.0000000000
	-3.6960000000	6.4016597848	0.0000000000
	0.0000000000	0.0000000000	8.9256300000
%endblock LatticeVectors
AtomicCoordinatesFormat Ang
%block AtomicCoordinatesAndAtomicSpecies
	0.00000000	0.00000000	2.23140750	1
	0.00000000	0.00000000	6.69422250	1
	-1.23200000	2.13388659	2.23140750	1
	-2.46400000	4.26777319	6.69422250	1
	2.46400000	4.26777319	2.23140750	1
	1.23200000	2.13388659	6.69422250	1
	2.46400000	0.00000000	2.23140750	1
	4.92800000	0.00000000	6.69422250	1
	2.46400000	0.00000000	6.69422250	1
	4.92800000	0.00000000	2.23140750	1
	2.46400000	4.26777319	6.69422250	1
	1.23200000	2.13388659	2.23140750	1
	-1.23200000	2.13388659	6.69422250	1
	-2.46400000	4.26777319	2.23140750	1
	0.00000000	4.26777319	2.23140750	1
	3.69600000	2.13388659	6.69422250	1
	3.69600000	2.13388659	2.23140750	1
	0.00000000	4.26777319	6.69422250	1
	0.00000000	1.42258964	2.23140750	1
	3.69600000	4.97907014	6.69422250	1
	2.46400123	5.69036496	2.23140750	1
	1.23199877	0.71129482	6.69422250	1
	-2.46400123	5.69036496	2.23140750	1
	6.16000123	0.71129482	6.69422250	1
	-1.23200000	3.55647624	2.23140750	1
	4.92800000	2.84518355	6.69422250	1
	1.23200123	3.55647837	2.23140750	1
	2.46399877	2.84518142	6.69422250	1
	-0.00000123	5.69036496	2.23140750	1
	3.69600123	0.71129482	6.69422250	1
	2.46400000	1.42258964	2.23140750	1
	1.23200000	4.97907014	6.69422250	1
	4.92800123	1.42259177	2.23140750	1
	-1.23200123	4.97906801	6.69422250	1
	3.69599877	3.55647837	2.23140750	1
	0.00000123	2.84518142	6.69422250	1
%endblock AtomicCoordinatesAndAtomicSpecies
Kgrid_NoTRS  T
%block kgrid_MonkhorstPack
4       0       0       0.0
0       4       0       0.0
0       0       4       0.0
%endblock kgrid_MonkhorstPack
AtomCoorFormatOut Ang
BlockSize 1
#ProcessorY 12
Diag.ParallelOverK   T
Diag.DivideAndConquer F
MeshCutoff   300 Ry
SCF.FreeE.Tolerance 1E-3 eV
SCF.EDM.Tolerance   5E-3 eV
DM.Tolerance  1E-3
DM.Require.Energy.Convergence T
DM.NumberPulay 4
#XC.Functional GGA
#CX.Authors    PBE
UseSaveData        F
SolutionMethod     diagon
MD.TypeOfRun       CG
MD.VariableCell    F
MD.NumCGsteps      00
MD.MaxCGDispl      0.200000 Bohr
#MD.MaxStressTol    1.000000 GPa
#MD.MaxForceTol     0.010000 eV/Ang
WriteMDHistory T
WriteCoorStep T
WriteForces T
WriteCoorStep    T
WriteEigenValues T
WriteDM    F
MM.UnitsDistance Ang  # what this program prints out DO NOT CHANGE
MM.UnitsEnergy    eV  # what this program prints out DO NOT CHANGE
MM.Grimme.S6     0.75 # Grimme-paper for PBE (correct for your functional)
MM.Grimme.D     20.   # Grimme-paper (correct for your functional)
%block MM.Potentials
  1   1 Grimme     18.14      2.904 # C, 10.1002/jcc.20495
%endblock MM.Potentials
#%block ProjectedDensityOfStates
# -200.0  120.0  0.4  12800  eV
#%endblock ProjectedDensityOfStates
************************** End of input data file *****************************

reinit: -----------------------------------------------------------------------
reinit: System Name: graphite_scf
reinit: -----------------------------------------------------------------------
reinit: System Label: graphite_scf
reinit: -----------------------------------------------------------------------
Reading two-body potentials
Grimme - two-body potential between 1 and 1

initatom: Reading input for the pseudopotentials and atomic orbitals ----------
Species number:   1 Atomic number:    6 Label: C-gga

Ground state valence configuration:   2s02  2p02
Reading pseudopotential information in formatted form from C-gga.psf

Valence configuration for pseudopotential generation:
2s( 2.00) rc: 1.56
2p( 2.00) rc: 1.56
3d( 0.00) rc: 1.56
4f( 0.00) rc: 1.56
relmxkb: Read Max KB Ang. Momentum=    2 for species C-gga

<basis_specs>
===============================================================================
C-gga                Z=   6    Mass=  12.010        Charge= 0.17977+309
Lmxo=1 Lmxkb= 2    BasisType=split      Semic=F
L=0  Nsemic=0  Cnfigmx=2
          i=1  nzeta=1  polorb=0  (2s)
            splnorm:   0.15000    
               vcte:    0.0000    
               rinn:    0.0000    
               qcoe:    0.0000    
               qyuk:    0.0000    
               qwid:   0.10000E-01
                rcs:    0.0000    
            lambdas:    1.0000    
L=1  Nsemic=0  Cnfigmx=2
          i=1  nzeta=1  polorb=0  (2p)
            splnorm:   0.15000    
               vcte:    0.0000    
               rinn:    0.0000    
               qcoe:    0.0000    
               qyuk:    0.0000    
               qwid:   0.10000E-01
                rcs:    0.0000    
            lambdas:    1.0000    
-------------------------------------------------------------------------------
L=0  Nkbl=1  erefs: 0.17977+309
L=1  Nkbl=1  erefs: 0.17977+309
L=2  Nkbl=1  erefs: 0.17977+309
===============================================================================
</basis_specs>

atom: Called for C-gga                 (Z =   6)

read_vps: Pseudopotential generation method:
read_vps: ATM 3.2.2 Troullier-Martins                       
Valence charge for ps generation:    4.00000

xc_check: Exchange-correlation functional:
xc_check: Ceperley-Alder
xc_check: WARNING: Pseudopotential generated with GGA PBE functional
V l=0 = -2*Zval/r beyond r=  1.5227
V l=1 = -2*Zval/r beyond r=  1.5227
V l=2 = -2*Zval/r beyond r=  1.5227
All V_l potentials equal beyond r=  1.4851
This should be close to max(r_c) in ps generation
All pots = -2*Zval/r beyond r=  1.5227

VLOCAL1: 99.0% of the norm of Vloc inside     19.682 Ry
VLOCAL1: 99.9% of the norm of Vloc inside     44.856 Ry
atom: Maximum radius for 4*pi*r*r*local-pseudopot. charge    1.79142
atom: Maximum radius for r*vlocal+2*Zval:    1.54183
GHOST: No ghost state for L =  0
GHOST: No ghost state for L =  1
GHOST: No ghost state for L =  2

KBgen: Kleinman-Bylander projectors: 
   l= 0   rc=  1.661951   el= -0.994756   Ekb=  5.296364   kbcos=  0.313951
   l= 1   rc=  1.661951   el= -0.376633   Ekb= -4.104879   kbcos= -0.344765
   l= 2   rc=  1.747182   el=  0.002326   Ekb= -1.006421   kbcos= -0.008606

KBgen: Total number of Kleinman-Bylander projectors:    9
atom: -------------------------------------------------------------------------

atom: SANKEY-TYPE ORBITALS:

SPLIT: Orbitals with angular momentum L= 0

SPLIT: Basis orbitals for state 2s

SPLIT: PAO cut-off radius determined from an
SPLIT: energy shift=  0.000735 Ry

   izeta = 1
                 lambda =    1.000000
                     rc =    5.948690
                 energy =   -0.994108
                kinetic =    0.809152
    potential(screened) =   -1.803260
       potential(ionic) =   -5.360717

SPLIT: Orbitals with angular momentum L= 1

SPLIT: Basis orbitals for state 2p

SPLIT: PAO cut-off radius determined from an
SPLIT: energy shift=  0.000735 Ry

   izeta = 1
                 lambda =    1.000000
                     rc =    7.638387
                 energy =   -0.375915
                kinetic =    2.245823
    potential(screened) =   -2.621738
       potential(ionic) =   -5.993382
atom: Total number of Sankey-type orbitals:  4

atm_pop: Valence configuration (for local Pseudopot. screening):
 2s( 2.00)                                                            
 2p( 2.00)                                                            
Vna: chval, zval:    4.00000   4.00000

Vna:  Cut-off radius for the neutral-atom potential:   7.638387

atom: _________________________________________________________________________

prinput: Basis input ----------------------------------------------------------

PAO.BasisType split     

%block ChemicalSpeciesLabel
    1    6 C-gga                   # Species index, atomic number, species label
%endblock ChemicalSpeciesLabel

%block PAO.Basis                 # Define Basis set
C-gga                 2                    # Species label, number of l-shells
 n=2   0   1                         # n, l, Nzeta 
   5.949   
   1.000   
 n=2   1   1                         # n, l, Nzeta 
   7.638   
   1.000   
%endblock PAO.Basis

prinput: ----------------------------------------------------------------------

coor:   Atomic-coordinates input format  =     Cartesian coordinates
coor:                                          (in Angstroms)

siesta: Atomic coordinates (Bohr) and species
siesta:      0.00000   0.00000   4.21675  1        1
siesta:      0.00000   0.00000  12.65025  1        2
siesta:     -2.32814   4.03246   4.21675  1        3
siesta:     -4.65629   8.06493  12.65025  1        4
siesta:      4.65629   8.06493   4.21675  1        5
siesta:      2.32814   4.03246  12.65025  1        6
siesta:      4.65629   0.00000   4.21675  1        7
siesta:      9.31257   0.00000  12.65025  1        8
siesta:      4.65629   0.00000  12.65025  1        9
siesta:      9.31257   0.00000   4.21675  1       10
siesta:      4.65629   8.06493  12.65025  1       11
siesta:      2.32814   4.03246   4.21675  1       12
siesta:     -2.32814   4.03246  12.65025  1       13
siesta:     -4.65629   8.06493   4.21675  1       14
siesta:      0.00000   8.06493   4.21675  1       15
siesta:      6.98443   4.03246  12.65025  1       16
siesta:      6.98443   4.03246   4.21675  1       17
siesta:      0.00000   8.06493  12.65025  1       18
siesta:      0.00000   2.68831   4.21675  1       19
siesta:      6.98443   9.40908  12.65025  1       20
siesta:      4.65629  10.75324   4.21675  1       21
siesta:      2.32814   1.34415  12.65025  1       22
siesta:     -4.65629  10.75324   4.21675  1       23
siesta:     11.64072   1.34415  12.65025  1       24
siesta:     -2.32814   6.72077   4.21675  1       25
siesta:      9.31257   5.37662  12.65025  1       26
siesta:      2.32815   6.72077   4.21675  1       27
siesta:      4.65628   5.37662  12.65025  1       28
siesta:     -0.00000  10.75324   4.21675  1       29
siesta:      6.98443   1.34415  12.65025  1       30
siesta:      4.65629   2.68831   4.21675  1       31
siesta:      2.32814   9.40908  12.65025  1       32
siesta:      9.31258   2.68831   4.21675  1       33
siesta:     -2.32815   9.40908  12.65025  1       34
siesta:      6.98443   6.72077   4.21675  1       35
siesta:      0.00000   5.37662  12.65025  1       36

siesta: System type = bulk      

initatomlists: Number of atoms, orbitals, and projectors:     36   144   324

siesta: ******************** Simulation parameters ****************************
siesta:
siesta: The following are some of the parameters of the simulation.
siesta: A complete list of the parameters used, including default values,
siesta: can be found in file out.fdf
siesta:
redata: Spin configuration                          = none
redata: Number of spin components                   = 1
redata: Time-Reversal Symmetry                      = T
redata: Spin spiral                                 = F
redata: Long output                                 =   F
redata: Number of Atomic Species                    =        1
redata: Charge density info will appear in .RHO file
redata: Write Mulliken Pop.                         = NO
redata: Matel table size (NRTAB)                    =     1024
redata: Mesh Cutoff                                 =   300.0000 Ry
redata: Net charge of the system                    =     0.0000 |e|
redata: Min. number of SCF Iter                     =        0
redata: Max. number of SCF Iter                     =     1000
redata: SCF convergence failure will abort job
redata: SCF mix quantity                            = Hamiltonian
redata: Mix DM or H after convergence               =   F
redata: Recompute H after scf cycle                 =   F
redata: Mix DM in first SCF step                    =   T
redata: Write Pulay info on disk                    =   F
redata: New DM Occupancy tolerance                  = 0.000000000001
redata: No kicks to SCF
redata: DM Mixing Weight for Kicks                  =     0.5000
redata: Require Harris convergence for SCF          =   F
redata: Harris energy tolerance for SCF             =     0.000100 eV
redata: Require DM convergence for SCF              =   T
redata: DM tolerance for SCF                        =     0.001000
redata: Require EDM convergence for SCF             =   F
redata: EDM tolerance for SCF                       =     0.005000 eV
redata: Require H convergence for SCF               =   T
redata: Hamiltonian tolerance for SCF               =     0.001000 eV
redata: Require (free) Energy convergence for SCF   =   T
redata: (free) Energy tolerance for SCF             =     0.001000 eV
redata: Using Saved Data (generic)                  =   F
redata: Use continuation files for DM               =   F
redata: Neglect nonoverlap interactions             =   F
redata: Method of Calculation                       = Diagonalization
redata: Electronic Temperature                      =   299.9869 K
redata: Fix the spin of the system                  =   F
redata: Dynamics option                             = Single-point calculation
mix.SCF: Pulay mixing                            = Pulay
mix.SCF:    Variant                              = stable
mix.SCF:    History steps                        = 4
mix.SCF:    Linear mixing weight                 =     0.250000
mix.SCF:    Mixing weight                        =     0.250000
mix.SCF:    SVD condition                        = 0.1000E-07
redata: ***********************************************************************

%block SCF.Mixers
  Pulay
%endblock SCF.Mixers

%block SCF.Mixer.Pulay
  # Mixing method
  method pulay
  variant stable

  # Mixing options
  weight 0.2500
  weight.linear 0.2500
  history 4
%endblock SCF.Mixer.Pulay

DM_history_depth set to one: no extrapolation allowed by default for geometry relaxation
Size of DM history Fstack: 1
Total number of electrons:   144.000000
Total ionic charge:   144.000000

* ProcessorY, Blocksize:    4   1


* Orbital distribution balance (max,min):     8     7

k-point displ. along   1 input, could be:     0.00    0.50
k-point displ. along   2 input, could be:     0.00    0.50
k-point displ. along   3 input, could be:     0.00    0.50
 Kpoints in:           48 . Kpoints trimmed:           44

siesta: k-grid: Number of k-points =    44
siesta: k-grid: Cutoff (effective) =    14.784 Ang
siesta: k-grid: Supercell and displacements
siesta: k-grid:    4   0   0      0.000
siesta: k-grid:    0   4   0      0.000
siesta: k-grid:    0   0   4      0.000

diag: Algorithm                                     = Expert
diag: Parallel over k                               =   T
diag: Use parallel 2D distribution                  =   T
diag: Parallel block-size                           = 1
diag: Parallel distribution                         =     4 x     5
diag: Used triangular part                          = Lower
diag: Absolute tolerance                            =  0.100E-15
diag: Orthogonalization factor                      =  0.100E-05
diag: Memory factor                                 =  1.0000

superc: Internal auxiliary supercell:     5 x     5 x     3  =      75
superc: Number of atoms, orbitals, and projectors:   2700  10800  24300


ts: **************************************************************
ts: Save H and S matrices                           =    F
ts: Save DM and EDM matrices                        =    F
ts: Only save the overlap matrix S                  =    F
ts: **************************************************************

************************ Begin: TS CHECKS AND WARNINGS ************************
************************ End: TS CHECKS AND WARNINGS **************************


                     ====================================
                        Single-point calculation
                     ====================================

outcoor: Atomic coordinates (Ang):                          
    0.00000000    0.00000000    2.23140750   1       1  C-gga
    0.00000000    0.00000000    6.69422250   1       2  C-gga
   -1.23200000    2.13388659    2.23140750   1       3  C-gga
   -2.46400000    4.26777319    6.69422250   1       4  C-gga
    2.46400000    4.26777319    2.23140750   1       5  C-gga
    1.23200000    2.13388659    6.69422250   1       6  C-gga
    2.46400000    0.00000000    2.23140750   1       7  C-gga
    4.92800000    0.00000000    6.69422250   1       8  C-gga
    2.46400000    0.00000000    6.69422250   1       9  C-gga
    4.92800000    0.00000000    2.23140750   1      10  C-gga
    2.46400000    4.26777319    6.69422250   1      11  C-gga
    1.23200000    2.13388659    2.23140750   1      12  C-gga
   -1.23200000    2.13388659    6.69422250   1      13  C-gga
   -2.46400000    4.26777319    2.23140750   1      14  C-gga
    0.00000000    4.26777319    2.23140750   1      15  C-gga
    3.69600000    2.13388659    6.69422250   1      16  C-gga
    3.69600000    2.13388659    2.23140750   1      17  C-gga
    0.00000000    4.26777319    6.69422250   1      18  C-gga
    0.00000000    1.42258964    2.23140750   1      19  C-gga
    3.69600000    4.97907014    6.69422250   1      20  C-gga
    2.46400123    5.69036496    2.23140750   1      21  C-gga
    1.23199877    0.71129482    6.69422250   1      22  C-gga
   -2.46400123    5.69036496    2.23140750   1      23  C-gga
    6.16000123    0.71129482    6.69422250   1      24  C-gga
   -1.23200000    3.55647624    2.23140750   1      25  C-gga
    4.92800000    2.84518355    6.69422250   1      26  C-gga
    1.23200123    3.55647837    2.23140750   1      27  C-gga
    2.46399877    2.84518142    6.69422250   1      28  C-gga
   -0.00000123    5.69036496    2.23140750   1      29  C-gga
    3.69600123    0.71129482    6.69422250   1      30  C-gga
    2.46400000    1.42258964    2.23140750   1      31  C-gga
    1.23200000    4.97907014    6.69422250   1      32  C-gga
    4.92800123    1.42259177    2.23140750   1      33  C-gga
   -1.23200123    4.97906801    6.69422250   1      34  C-gga
    3.69599877    3.55647837    2.23140750   1      35  C-gga
    0.00000123    2.84518142    6.69422250   1      36  C-gga

superc: Internal auxiliary supercell:     5 x     5 x     3  =      75
superc: Number of atoms, orbitals, and projectors:   2700  10800  24300

outcell: Unit cell vectors (Ang):
        7.392000    0.000000    0.000000
       -3.696000    6.401660    0.000000
        0.000000    0.000000    8.925630

outcell: Cell vector modules (Ang)   :    7.392000    7.392000    8.925630
outcell: Cell angles (23,13,12) (deg):     90.0000     90.0000    120.0000
outcell: Cell volume (Ang**3)        :    422.3704
<dSpData1D:S at geom step 0
  <sparsity:sparsity for geom step 0
    nrows_g=144 nrows=8 sparsity=.2265 nnzs=4696, refcount: 7>
  <dData1D:(new from dSpData1D) n=4696, refcount: 1>
refcount: 1>
new_DM -- step:     1
Initializing Density Matrix...
DM filled with atomic data:
<dSpData2D:DM initialized from atoms
  <sparsity:sparsity for geom step 0
    nrows_g=144 nrows=8 sparsity=.2265 nnzs=4696, refcount: 8>
  <dData2D:DM n=4696 m=1, refcount: 1>
refcount: 1>
No. of atoms with KB's overlaping orbs in proc 0. Max # of overlaps:      79     148
New grid distribution:   1
           1       1:   36    1:    9    1:   10
           2       1:   36    1:    9   11:   20
           3       1:   36    1:    9   21:   30
           4       1:   36    1:    9   31:   39
           5       1:   36    1:    9   40:   48
           6       1:   36   10:   18    1:   10
           7       1:   36   10:   18   11:   20
           8       1:   36   10:   18   21:   30
           9       1:   36   10:   18   31:   39
          10       1:   36   10:   18   40:   48
          11       1:   36   19:   27    1:   10
          12       1:   36   19:   27   11:   20
          13       1:   36   19:   27   21:   30
          14       1:   36   19:   27   31:   39
          15       1:   36   19:   27   40:   48
          16       1:   36   28:   36    1:   10
          17       1:   36   28:   36   11:   20
          18       1:   36   28:   36   21:   30
          19       1:   36   28:   36   31:   39
          20       1:   36   28:   36   40:   48

InitMesh: MESH =    72 x    72 x    96 =      497664
InitMesh: (bp) =    36 x    36 x    48 =       62208
InitMesh: Mesh cutoff (required, used) =   300.000   319.717 Ry
ExtMesh (bp) on 0 =   128 x   101 x    98 =     1266944
New grid distribution:   2
           1       1:   15   19:   36   37:   48
           2       1:   15    1:   18   13:   24
           3       1:   14    1:   18   25:   36
           4       1:   14    1:   18   37:   48
           5      15:   36    1:    9   32:   48
           6       1:   15    1:   18    1:   12
           7      16:   36   10:   18    8:   24
           8      15:   36    1:   18   25:   31
           9      16:   36    1:    9    8:   24
          10      15:   36   10:   18   32:   48
          11      16:   36   19:   36    1:    7
          12      16:   36   19:   27    8:   24
          13       1:   15   19:   36   25:   36
          14      16:   36    1:   18    1:    7
          15      16:   36   19:   27   32:   48
          16       1:   15   19:   36    1:   12
          17       1:   15   19:   36   13:   24
          18      16:   36   28:   36    8:   24
          19      16:   36   19:   36   25:   31
          20      16:   36   28:   36   32:   48
New grid distribution:   3
           1      16:   36   19:   36   25:   32
           2       1:   15    1:   18   13:   24
           3       1:   15    1:   18   25:   36
           4      16:   36   19:   36    1:    8
           5       1:   15   19:   36   37:   48
           6       1:   15    1:   18    1:   12
           7      16:   36   28:   36    9:   24
           8      16:   36   10:   18    9:   24
           9      16:   36    1:   18    1:    8
          10       1:   15    1:   18   37:   48
          11      16:   36   19:   27    9:   24
          12       1:   15   19:   36   13:   24
          13      16:   36    1:    9   33:   48
          14      16:   36    1:   18   25:   32
          15      16:   36   19:   27   33:   48
          16       1:   15   19:   36    1:   12
          17      16:   36   10:   18   33:   48
          18       1:   15   19:   36   25:   36
          19      16:   36    1:    9    9:   24
          20      16:   36   28:   36   33:   48
Setting up quadratic distribution...
ExtMesh (bp) on 0 =   107 x   110 x   100 =     1177000
PhiOnMesh: Number of (b)points on node 0 =                 3240
PhiOnMesh: nlist on node 0 =               280689

stepf: Fermi-Dirac step function

siesta: Program's energy decomposition (eV):
siesta: Ebs     =     -2603.370239
siesta: Eions   =      9434.507561
siesta: Ena     =      2271.187179
siesta: Ekin    =      3581.629149
siesta: Enl     =      -332.305877
siesta: Eso     =         0.000000
siesta: Edftu   =         0.000000
siesta: DEna    =        25.043844
siesta: DUscf   =         2.881679
siesta: DUext   =         0.000000
siesta: Exc     =     -1618.658198
siesta: eta*DQ  =         0.000000
siesta: Emadel  =         0.000000
siesta: Emeta   =         0.000000
siesta: Emolmec =        -2.726078
siesta: Ekinion =         0.000000
siesta: Eharris =     -5356.553330
siesta: Etot    =     -5507.455862
siesta: FreeEng =     -5507.472306

        iscf     Eharris(eV)        E_KS(eV)     FreeEng(eV)     dDmax    Ef(eV) dHmax(eV)
   scf:    1    -5356.553330    -5507.455862    -5507.472306  1.337055 -8.250608  0.320257
timer: Routine,Calls,Time,% = IterSCF        1       0.888  44.01
   scf:    2    -5507.457916    -5507.456890    -5507.473445  0.000530 -8.311433  0.240358
   scf:    3    -5507.459100    -5507.458005    -5507.474883  0.001551 -8.494851  0.000713
   scf:    4    -5507.458005    -5507.458005    -5507.474883  0.000031 -8.495171  0.000405

SCF Convergence by FreeE+DM+H criterion
|FreeE_i-FreeE_(i-1)| (eV) <     0.00100000
max |DM_out - DM_in|         :     0.0000309622
max |H_out - H_in|      (eV) :     0.0004046346
SCF cycle converged after 4 iterations

Using DM_out to compute the final energy and forces
No. of atoms with KB's overlaping orbs in proc 0. Max # of overlaps:      79     148

MM-Stress (kbar):        3.28        3.28       11.95        0.00        0.00        0.00

siesta: E_KS(eV) =            -5507.4580

siesta: E_KS - E_eggbox =     -5507.4580

siesta: Atomic forces (eV/Ang):
     1    0.000000   -0.000000    0.000000
     2    0.000000   -0.000000   -0.000000
     3    0.000076   -0.000056   -0.000000
     4   -0.000076    0.000057   -0.000000
     5    0.000011    0.000094   -0.000000
     6   -0.000011   -0.000093    0.000000
     7   -0.000087   -0.000038   -0.000000
     8    0.000087    0.000037   -0.000000
     9   -0.000016   -0.000013   -0.000000
    10    0.000015    0.000012    0.000000
    11   -0.000003    0.000020   -0.000000
    12    0.000003   -0.000019   -0.000000
    13    0.000018   -0.000007    0.000000
    14   -0.000018    0.000007   -0.000000
    15   -0.000000   -0.000000    0.000000
    16    0.000000    0.000001    0.000000
    17   -0.000000    0.000000   -0.000000
    18    0.000000    0.000000   -0.000000
    19    0.000006    0.000131    0.000000
    20   -0.000006   -0.000130    0.000000
    21   -0.000116   -0.000060    0.000000
    22    0.000116    0.000060    0.000000
    23    0.000110   -0.000070    0.000000
    24   -0.000110    0.000071    0.000000
    25    0.000009    0.000114    0.000000
    26   -0.000009   -0.000115    0.000000
    27   -0.000104   -0.000050   -0.000000
    28    0.000104    0.000049    0.000000
    29    0.000094   -0.000065    0.000000
    30   -0.000094    0.000065    0.000000
    31    0.000009    0.000114   -0.000000
    32   -0.000009   -0.000114    0.000000
    33   -0.000104   -0.000049   -0.000000
    34    0.000104    0.000049    0.000000
    35    0.000094   -0.000066   -0.000000
    36   -0.000094    0.000065    0.000000
----------------------------------------
   Tot   -0.000000    0.000000    0.000000
----------------------------------------
   Max    0.000131
   Res    0.000054    sqrt( Sum f_i^2 / 3N )
----------------------------------------
   Max    0.000131    constrained

Stress tensor Voigt[x,y,z,yz,xz,xy] (kbar):     -320.09     -320.09       58.42        0.00        0.00        0.00
(Free)E + p*V (eV/cell)    -5456.3535
Target enthalpy (eV/cell)    -5507.4749

siesta: Eigenvalues (eV):
  ik is       eps
   1  1  -27.8244  -27.7924  -27.1055  -27.1055  -27.0878  -27.0878  -25.1650  -25.1650  -25.1359  -25.1358
         -24.0448  -23.9924  -23.6337  -23.6337  -23.5897  -23.5897  -23.0130  -22.9884  -21.5773  -21.5267
  -21.3866  -21.3866  -21.3207  -21.3207  -19.9860  -19.9635  -18.9921  -18.9921  -18.9649  -18.9649
  -18.1633  -18.1621  -17.7052  -17.6880  -16.9943  -16.9943  -16.9823  -16.9823  -16.6059  -16.6059
  -16.5929  -16.5928  -16.2190  -16.2190  -16.2116  -16.2116  -14.9002  -14.9002  -14.8934  -14.8934
  -14.6496  -14.6462  -14.3501  -14.1574  -13.9910  -13.9884  -13.8173  -13.8173  -13.6338  -13.6338
  -12.1413  -12.1413  -12.0453  -12.0453  -11.0008  -10.9731  -10.8052  -10.8052  -10.7841  -10.7841
  -10.1821  -10.1787   -6.8310   -6.7928   -6.1954   -6.1954   -6.1207   -6.1207   -5.6794   -5.6329
   -4.0172   -4.0172   -3.9684   -3.9684   -0.5643   -0.5643   -0.5388   -0.5388    0.9115    0.9254
    0.9383    1.0468    1.0468    1.0711    1.0712    1.0920    1.3845    1.3845    1.5381    1.5381
    1.7761    1.7773    2.8876    2.8884    3.0992    3.0992    3.1442    3.1442    3.4344    3.4344
    3.4883    3.4883    4.7027    4.7347    4.9818    4.9855    5.8692    5.8692    5.9814    5.9814
    6.4703    6.5212    6.9488    6.9488    6.9668    6.9668    9.0507    9.0789    9.8476    9.8477
    9.8693    9.8693   11.5841   11.5841   11.6000   11.6000   12.7874   12.7874   12.8272   12.8272
   13.2789   13.2833   13.7104   13.7139
   2  1  -28.1941  -28.1559  -26.7574  -26.7475  -26.0903  -26.0903  -26.0843  -26.0843  -24.8793  -24.8793
         -24.8448  -24.8448  -24.3402  -24.2977  -22.8651  -22.8651  -22.8100  -22.8100  -21.1432  -21.1432
  -21.1025  -21.1025  -20.7326  -20.6687  -19.8585  -19.8585  -19.8079  -19.8079  -18.7615  -18.7615
  -18.7427  -18.7427  -18.0513  -18.0513  -18.0276  -18.0276  -17.0693  -17.0523  -16.3059  -16.3059
  -16.2950  -16.2950  -16.0568  -16.0428  -15.7208  -15.7208  -15.7125  -15.7125  -14.9542  -14.9450
  -14.6108  -14.4193  -13.6693  -13.6667  -13.5468  -13.3799  -13.3774  -13.3726  -12.9938  -12.9938
  -12.8463  -12.8463  -11.8954  -11.8954  -11.8152  -11.8152  -11.4263  -11.3751   -9.7877   -9.7877
   -9.7688   -9.7688   -7.1806   -7.1806   -7.1435   -7.1435   -5.3623   -5.2720   -4.5425   -4.5425
   -4.4643   -4.4643   -2.4796   -2.4796   -2.4296   -2.4296   -1.2567   -1.2166    0.3346    0.3708
    0.3991    0.3993    0.6452    0.7698    0.8786    0.8809    1.1776    1.1776    1.2044    1.2044
    1.3332    1.3332    1.4205    1.4205    1.7229    1.7312    4.0827    4.0870    5.0546    5.0546
    5.0879    5.0879    5.4859    5.4868    5.8897    5.8897    5.9726    5.9726    7.2737    7.3853
    7.6976    7.6976    7.7360    7.7360    8.3127    8.3127    8.3752    8.3752    9.3142    9.3142
    9.3704    9.3704    9.8875    9.8889   11.4435   11.4435   11.5195   11.5195   11.6795   11.7997
   14.1815   14.1815   14.1844   14.1844
   3  1  -28.1941  -28.1559  -26.7574  -26.7475  -26.0903  -26.0903  -26.0843  -26.0843  -24.8793  -24.8793
         -24.8448  -24.8448  -24.3402  -24.2977  -22.8651  -22.8651  -22.8100  -22.8100  -21.1432  -21.1432
  -21.1025  -21.1025  -20.7326  -20.6687  -19.8585  -19.8585  -19.8079  -19.8079  -18.7615  -18.7615
  -18.7427  -18.7427  -18.0513  -18.0513  -18.0276  -18.0276  -17.0693  -17.0523  -16.3059  -16.3059
  -16.2950  -16.2950  -16.0568  -16.0428  -15.7208  -15.7208  -15.7125  -15.7125  -14.9542  -14.9450
  -14.6108  -14.4193  -13.6693  -13.6667  -13.5468  -13.3799  -13.3774  -13.3726  -12.9938  -12.9938
  -12.8463  -12.8463  -11.8954  -11.8954  -11.8152  -11.8152  -11.4263  -11.3751   -9.7877   -9.7877
   -9.7688   -9.7688   -7.1806   -7.1806   -7.1435   -7.1435   -5.3623   -5.2720   -4.5425   -4.5425
   -4.4643   -4.4643   -2.4796   -2.4796   -2.4296   -2.4296   -1.2567   -1.2166    0.3346    0.3708
    0.3991    0.3993    0.6452    0.7698    0.8786    0.8809    1.1776    1.1776    1.2044    1.2044
    1.3332    1.3332    1.4205    1.4205    1.7229    1.7312    4.0827    4.0870    5.0546    5.0546
    5.0879    5.0879    5.4859    5.4868    5.8897    5.8897    5.9726    5.9726    7.2737    7.3853
    7.6976    7.6976    7.7360    7.7360    8.3127    8.3127    8.3752    8.3752    9.3142    9.3142
    9.3704    9.3704    9.8875    9.8889   11.4435   11.4435   11.5195   11.5195   11.6795   11.7997
   14.1815   14.1815   14.1844   14.1844
   4  1  -27.8244  -27.7924  -27.1055  -27.1055  -27.0878  -27.0878  -25.1650  -25.1650  -25.1359  -25.1358
         -24.0448  -23.9924  -23.6337  -23.6337  -23.5897  -23.5897  -23.0130  -22.9884  -21.5773  -21.5267
  -21.3866  -21.3866  -21.3207  -21.3207  -19.9860  -19.9635  -18.9921  -18.9921  -18.9649  -18.9649
  -18.1633  -18.1621  -17.7052  -17.6880  -16.9943  -16.9943  -16.9823  -16.9823  -16.6059  -16.6059
  -16.5929  -16.5928  -16.2190  -16.2190  -16.2116  -16.2116  -14.9002  -14.9002  -14.8934  -14.8934
  -14.6496  -14.6462  -14.3501  -14.1574  -13.9910  -13.9884  -13.8173  -13.8173  -13.6338  -13.6338
  -12.1413  -12.1413  -12.0453  -12.0453  -11.0008  -10.9731  -10.8052  -10.8052  -10.7841  -10.7841
  -10.1821  -10.1787   -6.8310   -6.7928   -6.1954   -6.1954   -6.1207   -6.1207   -5.6794   -5.6329
   -4.0172   -4.0172   -3.9684   -3.9684   -0.5643   -0.5643   -0.5388   -0.5388    0.9115    0.9254
    0.9383    1.0468    1.0468    1.0711    1.0712    1.0920    1.3845    1.3845    1.5381    1.5381
    1.7761    1.7773    2.8876    2.8884    3.0992    3.0992    3.1442    3.1442    3.4344    3.4344
    3.4883    3.4883    4.7027    4.7347    4.9818    4.9855    5.8692    5.8692    5.9814    5.9814
    6.4703    6.5212    6.9488    6.9488    6.9668    6.9668    9.0507    9.0789    9.8476    9.8477
    9.8693    9.8693   11.5841   11.5841   11.6000   11.6000   12.7874   12.7874   12.8272   12.8272
   13.2789   13.2833   13.7104   13.7139
   5  1  -28.1941  -28.1559  -26.7574  -26.7475  -26.0903  -26.0903  -26.0843  -26.0843  -24.8793  -24.8793
         -24.8448  -24.8448  -24.3402  -24.2977  -22.8651  -22.8651  -22.8100  -22.8100  -21.1432  -21.1432
  -21.1025  -21.1025  -20.7326  -20.6687  -19.8585  -19.8585  -19.8079  -19.8079  -18.7615  -18.7615
  -18.7427  -18.7427  -18.0513  -18.0513  -18.0276  -18.0276  -17.0693  -17.0523  -16.3059  -16.3059
  -16.2950  -16.2950  -16.0568  -16.0428  -15.7208  -15.7208  -15.7125  -15.7125  -14.9542  -14.9450
  -14.6108  -14.4193  -13.6693  -13.6667  -13.5468  -13.3799  -13.3774  -13.3726  -12.9938  -12.9938
  -12.8463  -12.8463  -11.8954  -11.8954  -11.8152  -11.8152  -11.4263  -11.3751   -9.7877   -9.7877
   -9.7688   -9.7688   -7.1806   -7.1806   -7.1435   -7.1435   -5.3623   -5.2720   -4.5425   -4.5425
   -4.4643   -4.4643   -2.4796   -2.4796   -2.4296   -2.4296   -1.2567   -1.2166    0.3346    0.3708
    0.3991    0.3993    0.6452    0.7698    0.8786    0.8809    1.1776    1.1776    1.2044    1.2044
    1.3332    1.3332    1.4205    1.4205    1.7229    1.7312    4.0827    4.0870    5.0546    5.0546
    5.0879    5.0879    5.4859    5.4868    5.8897    5.8897    5.9726    5.9726    7.2737    7.3853
    7.6976    7.6976    7.7360    7.7360    8.3127    8.3127    8.3752    8.3752    9.3142    9.3142
    9.3704    9.3704    9.8875    9.8889   11.4435   11.4435   11.5195   11.5195   11.6795   11.7997
   14.1815   14.1815   14.1844   14.1844
   6  1  -28.3814  -28.3402  -25.6206  -25.6206  -25.6206  -25.6206  -25.6206  -25.6206  -25.6033  -25.6033
         -25.6033  -25.6033  -25.6033  -25.6033  -21.8653  -21.8653  -21.8361  -21.8361  -21.8361  -21.8361
  -21.8055  -21.8055  -19.3134  -19.3134  -19.3134  -19.3134  -18.9891  -18.9891  -18.9891  -18.9891
  -18.9891  -18.9891  -18.9504  -18.9504  -18.9504  -18.9504  -18.9504  -18.9504  -15.6289  -15.6289
  -15.6289  -15.6289  -15.6288  -15.6288  -15.6168  -15.6168  -15.6168  -15.6168  -15.6168  -15.6168
  -14.7398  -14.5505  -13.0578  -13.0578  -13.0571  -13.0571  -12.5841  -12.5841  -12.5841  -12.5841
  -12.5841  -12.5841  -12.4606  -12.4606  -12.4606  -12.4605  -12.4605  -12.4605   -8.5262   -8.5262
   -8.4951   -8.4951   -8.4951   -8.4951   -8.4636   -8.4636   -3.3513   -3.3513   -3.3513   -3.3513
   -3.3513   -3.3513   -3.2786   -3.2786   -3.2786   -3.2786   -3.2786   -3.2786    0.1128    0.1128
    0.1144    0.1144    0.5294    0.5294    0.5294    0.5294    0.5294    0.5294    0.5810    0.5810
    0.5810    0.5810    0.5810    0.5810    2.1499    2.1549    3.7404    3.7461    6.7099    6.7099
    6.7632    6.7632    6.7632    6.7632    6.8161    6.8161    8.0338    8.0338    8.0338    8.0339
    8.0339    8.0339    8.0354    8.0354    8.0354    8.0354    8.0354    8.0354    9.6249    9.6249
    9.6249    9.6249    9.6249    9.6249    9.7834    9.7834    9.7834    9.7835    9.7835    9.7835
   14.5363   14.5363   14.5363   14.5363
   7  1  -27.6421  -27.6421  -27.6134  -27.6134  -26.2510  -26.2510  -26.2488  -26.2488  -23.9299  -23.9299
         -23.9299  -23.9299  -23.8783  -23.8783  -23.8783  -23.8783  -23.4123  -23.3919  -21.7833  -21.7226
  -20.5660  -20.5660  -20.5660  -20.5660  -20.5109  -20.5109  -20.5109  -20.5109  -17.5314  -17.5314
  -17.5314  -17.5314  -17.5168  -17.5168  -17.5168  -17.5168  -17.4783  -17.4783  -17.4693  -17.4693
  -16.2023  -16.1875  -16.0565  -16.0565  -16.0413  -16.0413  -15.1803  -15.1803  -15.1740  -15.1740
  -14.2185  -14.2185  -14.1306  -14.1306  -14.1249  -14.1249  -14.0267  -14.0267  -13.1292  -13.1292
  -12.9745  -12.9745  -10.9391  -10.9391  -10.9391  -10.9391  -10.9139  -10.9139  -10.9139  -10.9139
  -10.7322  -10.7121   -6.3692   -6.2949   -5.8518   -5.8518   -5.8518   -5.8518   -5.7896   -5.7896
   -5.7896   -5.7895   -2.1526   -2.1526   -2.1202   -2.1202    0.2933    0.3318    0.5219    0.5219
    0.5402    0.5402    0.6103    0.6103    0.7589    0.7589    2.8775    2.8775    2.8795    2.8795
    2.9449    2.9449    2.9449    2.9449    2.9595    2.9595    2.9595    2.9595    3.2781    3.2781
    3.2850    3.2850    3.3605    3.3605    3.5766    3.5766    5.2820    5.2820    5.3133    5.3133
    8.1245    8.1245    8.1245    8.1245    8.1792    8.1792    8.1792    8.1792    9.3766    9.3766
    9.3814    9.3814   10.5664   10.5665   12.5664   12.5743   13.1323   13.1323   13.1323   13.1323
   13.1535   13.1535   13.1535   13.1535
   8  1  -27.8244  -27.7924  -27.1055  -27.1055  -27.0878  -27.0878  -25.1650  -25.1650  -25.1359  -25.1358
         -24.0448  -23.9924  -23.6337  -23.6337  -23.5897  -23.5897  -23.0130  -22.9884  -21.5773  -21.5267
  -21.3866  -21.3866  -21.3207  -21.3207  -19.9860  -19.9635  -18.9921  -18.9921  -18.9649  -18.9649
  -18.1633  -18.1621  -17.7052  -17.6880  -16.9943  -16.9943  -16.9823  -16.9823  -16.6059  -16.6059
  -16.5929  -16.5928  -16.2190  -16.2190  -16.2116  -16.2116  -14.9002  -14.9002  -14.8934  -14.8934
  -14.6496  -14.6462  -14.3501  -14.1574  -13.9910  -13.9884  -13.8173  -13.8173  -13.6338  -13.6338
  -12.1413  -12.1413  -12.0453  -12.0453  -11.0008  -10.9731  -10.8052  -10.8052  -10.7841  -10.7841
  -10.1821  -10.1787   -6.8310   -6.7928   -6.1954   -6.1954   -6.1207   -6.1207   -5.6794   -5.6329
   -4.0172   -4.0172   -3.9684   -3.9684   -0.5643   -0.5643   -0.5388   -0.5388    0.9115    0.9254
    0.9383    1.0468    1.0468    1.0711    1.0712    1.0920    1.3845    1.3845    1.5381    1.5381
    1.7761    1.7773    2.8876    2.8884    3.0992    3.0992    3.1442    3.1442    3.4344    3.4344
    3.4883    3.4883    4.7027    4.7347    4.9818    4.9855    5.8692    5.8692    5.9814    5.9814
    6.4703    6.5212    6.9488    6.9488    6.9668    6.9668    9.0507    9.0789    9.8476    9.8477
    9.8693    9.8693   11.5841   11.5841   11.6000   11.6000   12.7874   12.7874   12.8272   12.8272
   13.2789   13.2833   13.7104   13.7139
   9  1  -27.8244  -27.7924  -27.1055  -27.1055  -27.0878  -27.0878  -25.1650  -25.1650  -25.1359  -25.1358
         -24.0448  -23.9924  -23.6337  -23.6337  -23.5897  -23.5897  -23.0130  -22.9884  -21.5773  -21.5267
  -21.3866  -21.3866  -21.3207  -21.3207  -19.9860  -19.9635  -18.9921  -18.9921  -18.9649  -18.9649
  -18.1633  -18.1621  -17.7052  -17.6880  -16.9943  -16.9943  -16.9823  -16.9823  -16.6059  -16.6059
  -16.5929  -16.5928  -16.2190  -16.2190  -16.2116  -16.2116  -14.9002  -14.9002  -14.8934  -14.8934
  -14.6496  -14.6462  -14.3501  -14.1574  -13.9910  -13.9884  -13.8173  -13.8173  -13.6338  -13.6338
  -12.1413  -12.1413  -12.0453  -12.0453  -11.0008  -10.9731  -10.8052  -10.8052  -10.7841  -10.7841
  -10.1821  -10.1787   -6.8310   -6.7928   -6.1954   -6.1954   -6.1207   -6.1207   -5.6794   -5.6329
   -4.0172   -4.0172   -3.9684   -3.9684   -0.5643   -0.5643   -0.5388   -0.5388    0.9115    0.9254
    0.9383    1.0468    1.0468    1.0711    1.0712    1.0920    1.3845    1.3845    1.5381    1.5381
    1.7761    1.7773    2.8876    2.8884    3.0992    3.0992    3.1442    3.1442    3.4344    3.4344
    3.4883    3.4883    4.7027    4.7347    4.9818    4.9855    5.8692    5.8692    5.9814    5.9814
    6.4703    6.5212    6.9488    6.9488    6.9668    6.9668    9.0507    9.0789    9.8476    9.8477
    9.8693    9.8693   11.5841   11.5841   11.6000   11.6000   12.7874   12.7874   12.8272   12.8272
   13.2789   13.2833   13.7104   13.7139
  10  1  -27.6421  -27.6421  -27.6134  -27.6134  -26.2510  -26.2510  -26.2488  -26.2488  -23.9299  -23.9299
         -23.9299  -23.9299  -23.8783  -23.8783  -23.8783  -23.8783  -23.4123  -23.3919  -21.7833  -21.7226
  -20.5660  -20.5660  -20.5660  -20.5660  -20.5109  -20.5109  -20.5109  -20.5109  -17.5314  -17.5314
  -17.5314  -17.5314  -17.5168  -17.5168  -17.5168  -17.5168  -17.4783  -17.4783  -17.4693  -17.4693
  -16.2023  -16.1875  -16.0565  -16.0565  -16.0413  -16.0413  -15.1803  -15.1803  -15.1740  -15.1740
  -14.2185  -14.2185  -14.1306  -14.1306  -14.1249  -14.1249  -14.0267  -14.0267  -13.1292  -13.1292
  -12.9745  -12.9745  -10.9391  -10.9391  -10.9391  -10.9391  -10.9139  -10.9139  -10.9139  -10.9139
  -10.7322  -10.7121   -6.3692   -6.2949   -5.8518   -5.8518   -5.8518   -5.8518   -5.7896   -5.7896
   -5.7896   -5.7895   -2.1526   -2.1526   -2.1202   -2.1202    0.2933    0.3318    0.5219    0.5219
    0.5402    0.5402    0.6103    0.6103    0.7589    0.7589    2.8775    2.8775    2.8795    2.8795
    2.9449    2.9449    2.9449    2.9449    2.9595    2.9595    2.9595    2.9595    3.2781    3.2781
    3.2850    3.2850    3.3605    3.3605    3.5766    3.5766    5.2820    5.2820    5.3133    5.3133
    8.1245    8.1245    8.1245    8.1245    8.1792    8.1792    8.1792    8.1792    9.3766    9.3766
    9.3814    9.3814   10.5664   10.5665   12.5664   12.5743   13.1323   13.1323   13.1323   13.1323
   13.1535   13.1535   13.1535   13.1535
  11  1  -27.8244  -27.7924  -27.1055  -27.1055  -27.0878  -27.0878  -25.1650  -25.1650  -25.1359  -25.1358
         -24.0448  -23.9924  -23.6337  -23.6337  -23.5897  -23.5897  -23.0130  -22.9884  -21.5773  -21.5267
  -21.3866  -21.3866  -21.3207  -21.3207  -19.9860  -19.9635  -18.9921  -18.9921  -18.9649  -18.9649
  -18.1633  -18.1621  -17.7052  -17.6880  -16.9943  -16.9943  -16.9823  -16.9823  -16.6059  -16.6059
  -16.5929  -16.5928  -16.2190  -16.2190  -16.2116  -16.2116  -14.9002  -14.9002  -14.8934  -14.8934
  -14.6496  -14.6462  -14.3501  -14.1574  -13.9910  -13.9884  -13.8173  -13.8173  -13.6338  -13.6338
  -12.1413  -12.1413  -12.0453  -12.0453  -11.0008  -10.9731  -10.8052  -10.8052  -10.7841  -10.7841
  -10.1821  -10.1787   -6.8310   -6.7928   -6.1954   -6.1954   -6.1207   -6.1207   -5.6794   -5.6329
   -4.0172   -4.0172   -3.9684   -3.9684   -0.5643   -0.5643   -0.5388   -0.5388    0.9115    0.9254
    0.9383    1.0468    1.0468    1.0711    1.0712    1.0920    1.3845    1.3845    1.5381    1.5381
    1.7761    1.7773    2.8876    2.8884    3.0992    3.0992    3.1442    3.1442    3.4344    3.4344
    3.4883    3.4883    4.7027    4.7347    4.9818    4.9855    5.8692    5.8692    5.9814    5.9814
    6.4703    6.5212    6.9488    6.9488    6.9668    6.9668    9.0507    9.0789    9.8476    9.8477
    9.8693    9.8693   11.5841   11.5841   11.6000   11.6000   12.7874   12.7874   12.8272   12.8272
   13.2789   13.2833   13.7104   13.7139
  12  1  -27.6421  -27.6421  -27.6134  -27.6134  -26.2510  -26.2510  -26.2488  -26.2488  -23.9299  -23.9299
         -23.9299  -23.9299  -23.8783  -23.8783  -23.8783  -23.8783  -23.4123  -23.3919  -21.7833  -21.7226
  -20.5660  -20.5660  -20.5660  -20.5660  -20.5109  -20.5109  -20.5109  -20.5109  -17.5314  -17.5314
  -17.5314  -17.5314  -17.5168  -17.5168  -17.5168  -17.5168  -17.4783  -17.4783  -17.4693  -17.4693
  -16.2023  -16.1875  -16.0565  -16.0565  -16.0413  -16.0413  -15.1803  -15.1803  -15.1740  -15.1740
  -14.2185  -14.2185  -14.1306  -14.1306  -14.1249  -14.1249  -14.0267  -14.0267  -13.1292  -13.1292
  -12.9745  -12.9745  -10.9391  -10.9391  -10.9391  -10.9391  -10.9139  -10.9139  -10.9139  -10.9139
  -10.7322  -10.7121   -6.3692   -6.2949   -5.8518   -5.8518   -5.8518   -5.8518   -5.7896   -5.7896
   -5.7896   -5.7895   -2.1526   -2.1526   -2.1202   -2.1202    0.2933    0.3318    0.5219    0.5219
    0.5402    0.5402    0.6103    0.6103    0.7589    0.7589    2.8775    2.8775    2.8795    2.8795
    2.9449    2.9449    2.9449    2.9449    2.9595    2.9595    2.9595    2.9595    3.2781    3.2781
    3.2850    3.2850    3.3605    3.3605    3.5766    3.5766    5.2820    5.2820    5.3133    5.3133
    8.1245    8.1245    8.1245    8.1245    8.1792    8.1792    8.1792    8.1792    9.3766    9.3766
    9.3814    9.3814   10.5664   10.5665   12.5664   12.5743   13.1323   13.1323   13.1323   13.1323
   13.1535   13.1535   13.1535   13.1535
  13  1  -27.8203  -27.7976  -27.1037  -27.1037  -27.0911  -27.0911  -25.1616  -25.1616  -25.1410  -25.1410
         -24.0377  -24.0007  -23.6275  -23.6275  -23.5964  -23.5964  -23.0092  -22.9917  -21.5708  -21.5350
  -21.3777  -21.3777  -21.3311  -21.3311  -19.9826  -19.9666  -18.9882  -18.9882  -18.9690  -18.9690
  -18.1637  -18.1628  -17.7029  -17.6907  -16.9930  -16.9930  -16.9845  -16.9845  -16.6040  -16.6040
  -16.5948  -16.5948  -16.2181  -16.2181  -16.2129  -16.2129  -14.8997  -14.8997  -14.8950  -14.8950
  -14.6491  -14.6467  -14.3166  -14.1814  -13.9897  -13.9882  -13.7854  -13.7854  -13.6562  -13.6562
  -12.1258  -12.1258  -12.0580  -12.0580  -10.9965  -10.9769  -10.8021  -10.8021  -10.7872  -10.7872
  -10.1816  -10.1792   -6.8261   -6.7990   -6.1853   -6.1853   -6.1325   -6.1325   -5.6727   -5.6398
   -4.0101   -4.0101   -3.9756   -3.9756   -0.5605   -0.5605   -0.5425   -0.5425    0.9135    0.9231
    0.9644    1.0506    1.0506    1.0678    1.0678    1.0725    1.4103    1.4103    1.5186    1.5186
    1.7763    1.7771    2.8879    2.8885    3.1065    3.1065    3.1383    3.1383    3.4427    3.4427
    3.4809    3.4809    4.7074    4.7301    4.9823    4.9849    5.8870    5.8870    5.9663    5.9663
    6.4787    6.5147    6.9516    6.9516    6.9643    6.9643    9.0549    9.0749    9.8510    9.8511
    9.8664    9.8664   11.5864   11.5864   11.5977   11.5977   12.7936   12.7936   12.8217   12.8217
   13.2795   13.2826   13.7110   13.7135
  14  1  -28.1890  -28.1619  -26.7568  -26.7497  -26.0903  -26.0903  -26.0861  -26.0861  -24.8750  -24.8750
         -24.8507  -24.8507  -24.3346  -24.3046  -22.8572  -22.8572  -22.8182  -22.8182  -21.1373  -21.1373
  -21.1085  -21.1085  -20.7238  -20.6786  -19.8515  -19.8515  -19.8157  -19.8157  -18.7593  -18.7593
  -18.7460  -18.7460  -18.0481  -18.0481  -18.0314  -18.0314  -17.0672  -17.0553  -16.3044  -16.3044
  -16.2967  -16.2967  -16.0548  -16.0448  -15.7198  -15.7198  -15.7140  -15.7140  -14.9528  -14.9463
  -14.5760  -14.4415  -13.6689  -13.6671  -13.5172  -13.3945  -13.3795  -13.3777  -12.9692  -12.9692
  -12.8652  -12.8652  -11.8826  -11.8826  -11.8260  -11.8260  -11.4184  -11.3822   -9.7851   -9.7851
   -9.7717   -9.7717   -7.1754   -7.1754   -7.1492   -7.1492   -5.3498   -5.2859   -4.5314   -4.5314
   -4.4761   -4.4761   -2.4724   -2.4724   -2.4370   -2.4370   -1.2509   -1.2226    0.3456    0.3753
    0.3912    0.3953    0.6660    0.7538    0.8790    0.8806    1.1822    1.1822    1.2011    1.2011
    1.3477    1.3477    1.4093    1.4093    1.7241    1.7300    4.0833    4.0864    5.0596    5.0596
    5.0832    5.0832    5.4861    5.4867    5.9030    5.9030    5.9615    5.9615    7.2913    7.3702
    7.7033    7.7033    7.7305    7.7305    8.3227    8.3227    8.3668    8.3668    9.3228    9.3228
    9.3625    9.3625    9.8877    9.8887   11.4551   11.4551   11.5088   11.5088   11.6981   11.7830
   14.1820   14.1820   14.1840   14.1840
  15  1  -28.1890  -28.1619  -26.7568  -26.7497  -26.0903  -26.0903  -26.0861  -26.0861  -24.8750  -24.8750
         -24.8507  -24.8507  -24.3346  -24.3046  -22.8572  -22.8572  -22.8182  -22.8182  -21.1373  -21.1373
  -21.1085  -21.1085  -20.7238  -20.6786  -19.8515  -19.8515  -19.8157  -19.8157  -18.7593  -18.7593
  -18.7460  -18.7460  -18.0481  -18.0481  -18.0314  -18.0314  -17.0672  -17.0553  -16.3044  -16.3044
  -16.2967  -16.2967  -16.0548  -16.0448  -15.7198  -15.7198  -15.7140  -15.7140  -14.9528  -14.9463
  -14.5760  -14.4415  -13.6689  -13.6671  -13.5172  -13.3945  -13.3795  -13.3777  -12.9692  -12.9692
  -12.8652  -12.8652  -11.8826  -11.8826  -11.8260  -11.8260  -11.4184  -11.3822   -9.7851   -9.7851
   -9.7717   -9.7717   -7.1754   -7.1754   -7.1492   -7.1492   -5.3498   -5.2859   -4.5314   -4.5314
   -4.4761   -4.4761   -2.4724   -2.4724   -2.4370   -2.4370   -1.2509   -1.2226    0.3456    0.3753
    0.3912    0.3953    0.6660    0.7538    0.8790    0.8806    1.1822    1.1822    1.2011    1.2011
    1.3477    1.3477    1.4093    1.4093    1.7241    1.7300    4.0833    4.0864    5.0596    5.0596
    5.0832    5.0832    5.4861    5.4867    5.9030    5.9030    5.9615    5.9615    7.2913    7.3702
    7.7033    7.7033    7.7305    7.7305    8.3227    8.3227    8.3668    8.3668    9.3228    9.3228
    9.3625    9.3625    9.8877    9.8887   11.4551   11.4551   11.5088   11.5088   11.6981   11.7830
   14.1820   14.1820   14.1840   14.1840
  16  1  -27.8203  -27.7976  -27.1037  -27.1037  -27.0911  -27.0911  -25.1616  -25.1616  -25.1410  -25.1410
         -24.0377  -24.0007  -23.6275  -23.6275  -23.5964  -23.5964  -23.0092  -22.9917  -21.5708  -21.5350
  -21.3777  -21.3777  -21.3311  -21.3311  -19.9826  -19.9666  -18.9882  -18.9882  -18.9690  -18.9690
  -18.1637  -18.1628  -17.7029  -17.6907  -16.9930  -16.9930  -16.9845  -16.9845  -16.6040  -16.6040
  -16.5948  -16.5948  -16.2181  -16.2181  -16.2129  -16.2129  -14.8997  -14.8997  -14.8950  -14.8950
  -14.6491  -14.6467  -14.3166  -14.1814  -13.9897  -13.9882  -13.7854  -13.7854  -13.6562  -13.6562
  -12.1258  -12.1258  -12.0580  -12.0580  -10.9965  -10.9769  -10.8021  -10.8021  -10.7872  -10.7872
  -10.1816  -10.1792   -6.8261   -6.7990   -6.1853   -6.1853   -6.1325   -6.1325   -5.6727   -5.6398
   -4.0101   -4.0101   -3.9756   -3.9756   -0.5605   -0.5605   -0.5425   -0.5425    0.9135    0.9231
    0.9644    1.0506    1.0506    1.0678    1.0678    1.0725    1.4103    1.4103    1.5186    1.5186
    1.7763    1.7771    2.8879    2.8885    3.1065    3.1065    3.1383    3.1383    3.4427    3.4427
    3.4809    3.4809    4.7074    4.7301    4.9823    4.9849    5.8870    5.8870    5.9663    5.9663
    6.4787    6.5147    6.9516    6.9516    6.9643    6.9643    9.0549    9.0749    9.8510    9.8511
    9.8664    9.8664   11.5864   11.5864   11.5977   11.5977   12.7936   12.7936   12.8217   12.8217
   13.2795   13.2826   13.7110   13.7135
  17  1  -28.1890  -28.1619  -26.7568  -26.7497  -26.0903  -26.0903  -26.0861  -26.0861  -24.8750  -24.8750
         -24.8507  -24.8507  -24.3346  -24.3046  -22.8572  -22.8572  -22.8182  -22.8182  -21.1373  -21.1373
  -21.1085  -21.1085  -20.7238  -20.6786  -19.8515  -19.8515  -19.8157  -19.8157  -18.7593  -18.7593
  -18.7460  -18.7460  -18.0481  -18.0481  -18.0314  -18.0314  -17.0672  -17.0553  -16.3044  -16.3044
  -16.2967  -16.2967  -16.0548  -16.0448  -15.7198  -15.7198  -15.7140  -15.7140  -14.9528  -14.9463
  -14.5760  -14.4415  -13.6689  -13.6671  -13.5172  -13.3945  -13.3795  -13.3777  -12.9692  -12.9692
  -12.8652  -12.8652  -11.8826  -11.8826  -11.8260  -11.8260  -11.4184  -11.3822   -9.7851   -9.7851
   -9.7717   -9.7717   -7.1754   -7.1754   -7.1492   -7.1492   -5.3498   -5.2859   -4.5314   -4.5314
   -4.4761   -4.4761   -2.4724   -2.4724   -2.4370   -2.4370   -1.2509   -1.2226    0.3456    0.3753
    0.3912    0.3953    0.6660    0.7538    0.8790    0.8806    1.1822    1.1822    1.2011    1.2011
    1.3477    1.3477    1.4093    1.4093    1.7241    1.7300    4.0833    4.0864    5.0596    5.0596
    5.0832    5.0832    5.4861    5.4867    5.9030    5.9030    5.9615    5.9615    7.2913    7.3702
    7.7033    7.7033    7.7305    7.7305    8.3227    8.3227    8.3668    8.3668    9.3228    9.3228
    9.3625    9.3625    9.8877    9.8887   11.4551   11.4551   11.5088   11.5088   11.6981   11.7830
   14.1820   14.1820   14.1840   14.1840
  18  1  -28.3758  -28.3467  -25.6189  -25.6189  -25.6189  -25.6189  -25.6189  -25.6189  -25.6068  -25.6068
         -25.6068  -25.6068  -25.6068  -25.6068  -21.8568  -21.8568  -21.8356  -21.8356  -21.8356  -21.8356
  -21.8145  -21.8145  -19.3142  -19.3142  -19.3142  -19.3142  -18.9839  -18.9839  -18.9839  -18.9839
  -18.9839  -18.9839  -18.9565  -18.9565  -18.9565  -18.9565  -18.9565  -18.9565  -15.6271  -15.6271
  -15.6271  -15.6271  -15.6271  -15.6271  -15.6185  -15.6185  -15.6185  -15.6185  -15.6185  -15.6185
  -14.7049  -14.5720  -13.0577  -13.0577  -13.0572  -13.0572  -12.5640  -12.5640  -12.5640  -12.5640
  -12.5640  -12.5640  -12.4768  -12.4768  -12.4768  -12.4768  -12.4768  -12.4768   -8.5174   -8.5174
   -8.4951   -8.4951   -8.4951   -8.4951   -8.4731   -8.4731   -3.3409   -3.3409   -3.3409   -3.3409
   -3.3409   -3.3409   -3.2895   -3.2895   -3.2895   -3.2895   -3.2895   -3.2895    0.1130    0.1130
    0.1142    0.1142    0.5381    0.5381    0.5381    0.5381    0.5381    0.5381    0.5745    0.5745
    0.5745    0.5745    0.5745    0.5745    2.1506    2.1542    3.7412    3.7453    6.7255    6.7255
    6.7631    6.7631    6.7631    6.7631    6.8005    6.8005    8.0341    8.0341    8.0341    8.0341
    8.0341    8.0341    8.0351    8.0351    8.0351    8.0352    8.0352    8.0352    9.6497    9.6497
    9.6497    9.6497    9.6497    9.6497    9.7617    9.7617    9.7617    9.7618    9.7618    9.7618
   14.5363   14.5363   14.5363   14.5363
  19  1  -28.1890  -28.1619  -26.7568  -26.7497  -26.0903  -26.0903  -26.0861  -26.0861  -24.8750  -24.8750
         -24.8507  -24.8507  -24.3346  -24.3046  -22.8572  -22.8572  -22.8182  -22.8182  -21.1373  -21.1373
  -21.1085  -21.1085  -20.7238  -20.6786  -19.8515  -19.8515  -19.8157  -19.8157  -18.7593  -18.7593
  -18.7460  -18.7460  -18.0481  -18.0481  -18.0314  -18.0314  -17.0672  -17.0553  -16.3044  -16.3044
  -16.2967  -16.2967  -16.0548  -16.0448  -15.7198  -15.7198  -15.7140  -15.7140  -14.9528  -14.9463
  -14.5760  -14.4415  -13.6689  -13.6671  -13.5172  -13.3945  -13.3795  -13.3777  -12.9692  -12.9692
  -12.8652  -12.8652  -11.8826  -11.8826  -11.8260  -11.8260  -11.4184  -11.3822   -9.7851   -9.7851
   -9.7717   -9.7717   -7.1754   -7.1754   -7.1492   -7.1492   -5.3498   -5.2859   -4.5314   -4.5314
   -4.4761   -4.4761   -2.4724   -2.4724   -2.4370   -2.4370   -1.2509   -1.2226    0.3456    0.3753
    0.3912    0.3953    0.6660    0.7538    0.8790    0.8806    1.1822    1.1822    1.2011    1.2011
    1.3477    1.3477    1.4093    1.4093    1.7241    1.7300    4.0833    4.0864    5.0596    5.0596
    5.0832    5.0832    5.4861    5.4867    5.9030    5.9030    5.9615    5.9615    7.2913    7.3702
    7.7033    7.7033    7.7305    7.7305    8.3227    8.3227    8.3668    8.3668    9.3228    9.3228
    9.3625    9.3625    9.8877    9.8887   11.4551   11.4551   11.5088   11.5088   11.6981   11.7830
   14.1820   14.1820   14.1840   14.1840
  20  1  -27.6385  -27.6385  -27.6182  -27.6182  -26.2515  -26.2515  -26.2500  -26.2500  -23.9229  -23.9229
         -23.9229  -23.9229  -23.8864  -23.8864  -23.8864  -23.8864  -23.4092  -23.3948  -21.7756  -21.7327
  -20.5582  -20.5582  -20.5582  -20.5582  -20.5192  -20.5192  -20.5192  -20.5192  -17.5295  -17.5295
  -17.5295  -17.5295  -17.5192  -17.5192  -17.5192  -17.5192  -17.4769  -17.4769  -17.4706  -17.4706
  -16.2001  -16.1897  -16.0549  -16.0549  -16.0443  -16.0443  -15.1798  -15.1798  -15.1754  -15.1753
  -14.1845  -14.1845  -14.1298  -14.1298  -14.1257  -14.1257  -14.0496  -14.0496  -13.1032  -13.1032
  -12.9941  -12.9941  -10.9352  -10.9352  -10.9352  -10.9352  -10.9174  -10.9174  -10.9174  -10.9174
  -10.7293  -10.7151   -6.3594   -6.3069   -5.8430   -5.8430   -5.8430   -5.8430   -5.7990   -5.7990
   -5.7990   -5.7990   -2.1478   -2.1478   -2.1250   -2.1250    0.2991    0.3263    0.5245    0.5245
    0.5374    0.5374    0.6354    0.6354    0.7400    0.7400    2.8778    2.8778    2.8792    2.8792
    2.9473    2.9473    2.9473    2.9473    2.9576    2.9576    2.9576    2.9576    3.2791    3.2791
    3.2840    3.2840    3.3955    3.3955    3.5481    3.5481    5.2871    5.2871    5.3091    5.3091
    8.1330    8.1330    8.1330    8.1330    8.1717    8.1717    8.1717    8.1717    9.3773    9.3773
    9.3807    9.3807   10.5664   10.5665   12.5680   12.5736   13.1355   13.1355   13.1355   13.1355
   13.1504   13.1505   13.1505   13.1505
  21  1  -28.1890  -28.1619  -26.7568  -26.7497  -26.0903  -26.0903  -26.0861  -26.0861  -24.8750  -24.8750
         -24.8507  -24.8507  -24.3346  -24.3046  -22.8572  -22.8572  -22.8182  -22.8182  -21.1373  -21.1373
  -21.1085  -21.1085  -20.7238  -20.6786  -19.8515  -19.8515  -19.8157  -19.8157  -18.7593  -18.7593
  -18.7460  -18.7460  -18.0481  -18.0481  -18.0314  -18.0314  -17.0672  -17.0553  -16.3044  -16.3044
  -16.2967  -16.2967  -16.0548  -16.0448  -15.7198  -15.7198  -15.7140  -15.7140  -14.9528  -14.9463
  -14.5760  -14.4415  -13.6689  -13.6671  -13.5172  -13.3945  -13.3795  -13.3777  -12.9692  -12.9692
  -12.8652  -12.8652  -11.8826  -11.8826  -11.8260  -11.8260  -11.4184  -11.3822   -9.7851   -9.7851
   -9.7717   -9.7717   -7.1754   -7.1754   -7.1492   -7.1492   -5.3498   -5.2859   -4.5314   -4.5314
   -4.4761   -4.4761   -2.4724   -2.4724   -2.4370   -2.4370   -1.2509   -1.2226    0.3456    0.3753
    0.3912    0.3953    0.6660    0.7538    0.8790    0.8806    1.1822    1.1822    1.2011    1.2011
    1.3477    1.3477    1.4093    1.4093    1.7241    1.7300    4.0833    4.0864    5.0596    5.0596
    5.0832    5.0832    5.4861    5.4867    5.9030    5.9030    5.9615    5.9615    7.2913    7.3702
    7.7033    7.7033    7.7305    7.7305    8.3227    8.3227    8.3668    8.3668    9.3228    9.3228
    9.3625    9.3625    9.8877    9.8887   11.4551   11.4551   11.5088   11.5088   11.6981   11.7830
   14.1820   14.1820   14.1840   14.1840
  22  1  -28.1890  -28.1619  -26.7568  -26.7497  -26.0903  -26.0903  -26.0861  -26.0861  -24.8750  -24.8750
         -24.8507  -24.8507  -24.3346  -24.3046  -22.8572  -22.8572  -22.8182  -22.8182  -21.1373  -21.1373
  -21.1085  -21.1085  -20.7238  -20.6786  -19.8515  -19.8515  -19.8157  -19.8157  -18.7593  -18.7593
  -18.7460  -18.7460  -18.0481  -18.0481  -18.0314  -18.0314  -17.0672  -17.0553  -16.3044  -16.3044
  -16.2967  -16.2967  -16.0548  -16.0448  -15.7198  -15.7198  -15.7140  -15.7140  -14.9528  -14.9463
  -14.5760  -14.4415  -13.6689  -13.6671  -13.5172  -13.3945  -13.3795  -13.3777  -12.9692  -12.9692
  -12.8652  -12.8652  -11.8826  -11.8826  -11.8260  -11.8260  -11.4184  -11.3822   -9.7851   -9.7851
   -9.7717   -9.7717   -7.1754   -7.1754   -7.1492   -7.1492   -5.3498   -5.2859   -4.5314   -4.5314
   -4.4761   -4.4761   -2.4724   -2.4724   -2.4370   -2.4370   -1.2509   -1.2226    0.3456    0.3753
    0.3912    0.3953    0.6660    0.7538    0.8790    0.8806    1.1822    1.1822    1.2011    1.2011
    1.3477    1.3477    1.4093    1.4093    1.7241    1.7300    4.0833    4.0864    5.0596    5.0596
    5.0832    5.0832    5.4861    5.4867    5.9030    5.9030    5.9615    5.9615    7.2913    7.3702
    7.7033    7.7033    7.7305    7.7305    8.3227    8.3227    8.3668    8.3668    9.3228    9.3228
    9.3625    9.3625    9.8877    9.8887   11.4551   11.4551   11.5088   11.5088   11.6981   11.7830
   14.1820   14.1820   14.1840   14.1840
  23  1  -27.8203  -27.7976  -27.1037  -27.1037  -27.0911  -27.0911  -25.1616  -25.1616  -25.1410  -25.1410
         -24.0377  -24.0007  -23.6275  -23.6275  -23.5964  -23.5964  -23.0092  -22.9917  -21.5708  -21.5350
  -21.3777  -21.3777  -21.3311  -21.3311  -19.9826  -19.9666  -18.9882  -18.9882  -18.9690  -18.9690
  -18.1637  -18.1628  -17.7029  -17.6907  -16.9930  -16.9930  -16.9845  -16.9845  -16.6040  -16.6040
  -16.5948  -16.5948  -16.2181  -16.2181  -16.2129  -16.2129  -14.8997  -14.8997  -14.8950  -14.8950
  -14.6491  -14.6467  -14.3166  -14.1814  -13.9897  -13.9882  -13.7854  -13.7854  -13.6562  -13.6562
  -12.1258  -12.1258  -12.0580  -12.0580  -10.9965  -10.9769  -10.8021  -10.8021  -10.7872  -10.7872
  -10.1816  -10.1792   -6.8261   -6.7990   -6.1853   -6.1853   -6.1325   -6.1325   -5.6727   -5.6398
   -4.0101   -4.0101   -3.9756   -3.9756   -0.5605   -0.5605   -0.5425   -0.5425    0.9135    0.9231
    0.9644    1.0506    1.0506    1.0678    1.0678    1.0725    1.4103    1.4103    1.5186    1.5186
    1.7763    1.7771    2.8879    2.8885    3.1065    3.1065    3.1383    3.1383    3.4427    3.4427
    3.4809    3.4809    4.7074    4.7301    4.9823    4.9849    5.8870    5.8870    5.9663    5.9663
    6.4787    6.5147    6.9516    6.9516    6.9643    6.9643    9.0549    9.0749    9.8510    9.8511
    9.8664    9.8664   11.5864   11.5864   11.5977   11.5977   12.7936   12.7936   12.8217   12.8217
   13.2795   13.2826   13.7110   13.7135
  24  1  -27.8203  -27.7976  -27.1037  -27.1037  -27.0911  -27.0911  -25.1616  -25.1616  -25.1410  -25.1410
         -24.0377  -24.0007  -23.6275  -23.6275  -23.5964  -23.5964  -23.0092  -22.9917  -21.5708  -21.5350
  -21.3777  -21.3777  -21.3311  -21.3311  -19.9826  -19.9666  -18.9882  -18.9882  -18.9690  -18.9690
  -18.1637  -18.1628  -17.7029  -17.6907  -16.9930  -16.9930  -16.9845  -16.9845  -16.6040  -16.6040
  -16.5948  -16.5948  -16.2181  -16.2181  -16.2129  -16.2129  -14.8997  -14.8997  -14.8950  -14.8950
  -14.6491  -14.6467  -14.3166  -14.1814  -13.9897  -13.9882  -13.7854  -13.7854  -13.6562  -13.6562
  -12.1258  -12.1258  -12.0580  -12.0580  -10.9965  -10.9769  -10.8021  -10.8021  -10.7872  -10.7872
  -10.1816  -10.1792   -6.8261   -6.7990   -6.1853   -6.1853   -6.1325   -6.1325   -5.6727   -5.6398
   -4.0101   -4.0101   -3.9756   -3.9756   -0.5605   -0.5605   -0.5425   -0.5425    0.9135    0.9231
    0.9644    1.0506    1.0506    1.0678    1.0678    1.0725    1.4103    1.4103    1.5186    1.5186
    1.7763    1.7771    2.8879    2.8885    3.1065    3.1065    3.1383    3.1383    3.4427    3.4427
    3.4809    3.4809    4.7074    4.7301    4.9823    4.9849    5.8870    5.8870    5.9663    5.9663
    6.4787    6.5147    6.9516    6.9516    6.9643    6.9643    9.0549    9.0749    9.8510    9.8511
    9.8664    9.8664   11.5864   11.5864   11.5977   11.5977   12.7936   12.7936   12.8217   12.8217
   13.2795   13.2826   13.7110   13.7135
  25  1  -27.8203  -27.7976  -27.1037  -27.1037  -27.0911  -27.0911  -25.1616  -25.1616  -25.1410  -25.1410
         -24.0377  -24.0007  -23.6275  -23.6275  -23.5964  -23.5964  -23.0092  -22.9917  -21.5708  -21.5350
  -21.3777  -21.3777  -21.3311  -21.3311  -19.9826  -19.9666  -18.9882  -18.9882  -18.9690  -18.9690
  -18.1637  -18.1628  -17.7029  -17.6907  -16.9930  -16.9930  -16.9845  -16.9845  -16.6040  -16.6040
  -16.5948  -16.5948  -16.2181  -16.2181  -16.2129  -16.2129  -14.8997  -14.8997  -14.8950  -14.8950
  -14.6491  -14.6467  -14.3166  -14.1814  -13.9897  -13.9882  -13.7854  -13.7854  -13.6562  -13.6562
  -12.1258  -12.1258  -12.0580  -12.0580  -10.9965  -10.9769  -10.8021  -10.8021  -10.7872  -10.7872
  -10.1816  -10.1792   -6.8261   -6.7990   -6.1853   -6.1853   -6.1325   -6.1325   -5.6727   -5.6398
   -4.0101   -4.0101   -3.9756   -3.9756   -0.5605   -0.5605   -0.5425   -0.5425    0.9135    0.9231
    0.9644    1.0506    1.0506    1.0678    1.0678    1.0725    1.4103    1.4103    1.5186    1.5186
    1.7763    1.7771    2.8879    2.8885    3.1065    3.1065    3.1383    3.1383    3.4427    3.4427
    3.4809    3.4809    4.7074    4.7301    4.9823    4.9849    5.8870    5.8870    5.9663    5.9663
    6.4787    6.5147    6.9516    6.9516    6.9643    6.9643    9.0549    9.0749    9.8510    9.8511
    9.8664    9.8664   11.5864   11.5864   11.5977   11.5977   12.7936   12.7936   12.8217   12.8217
   13.2795   13.2826   13.7110   13.7135
  26  1  -27.6385  -27.6385  -27.6182  -27.6182  -26.2515  -26.2515  -26.2500  -26.2500  -23.9229  -23.9229
         -23.9229  -23.9229  -23.8864  -23.8864  -23.8864  -23.8864  -23.4092  -23.3948  -21.7756  -21.7327
  -20.5582  -20.5582  -20.5582  -20.5582  -20.5192  -20.5192  -20.5192  -20.5192  -17.5295  -17.5295
  -17.5295  -17.5295  -17.5192  -17.5192  -17.5192  -17.5192  -17.4769  -17.4769  -17.4706  -17.4706
  -16.2001  -16.1897  -16.0549  -16.0549  -16.0443  -16.0443  -15.1798  -15.1798  -15.1754  -15.1753
  -14.1845  -14.1845  -14.1298  -14.1298  -14.1257  -14.1257  -14.0496  -14.0496  -13.1032  -13.1032
  -12.9941  -12.9941  -10.9352  -10.9352  -10.9352  -10.9352  -10.9174  -10.9174  -10.9174  -10.9174
  -10.7293  -10.7151   -6.3594   -6.3069   -5.8430   -5.8430   -5.8430   -5.8430   -5.7990   -5.7990
   -5.7990   -5.7990   -2.1478   -2.1478   -2.1250   -2.1250    0.2991    0.3263    0.5245    0.5245
    0.5374    0.5374    0.6354    0.6354    0.7400    0.7400    2.8778    2.8778    2.8792    2.8792
    2.9473    2.9473    2.9473    2.9473    2.9576    2.9576    2.9576    2.9576    3.2791    3.2791
    3.2840    3.2840    3.3955    3.3955    3.5481    3.5481    5.2871    5.2871    5.3091    5.3091
    8.1330    8.1330    8.1330    8.1330    8.1717    8.1717    8.1717    8.1717    9.3773    9.3773
    9.3807    9.3807   10.5664   10.5665   12.5680   12.5736   13.1355   13.1355   13.1355   13.1355
   13.1504   13.1505   13.1505   13.1505
  27  1  -27.8203  -27.7976  -27.1037  -27.1037  -27.0911  -27.0911  -25.1616  -25.1616  -25.1410  -25.1410
         -24.0377  -24.0007  -23.6275  -23.6275  -23.5964  -23.5964  -23.0092  -22.9917  -21.5708  -21.5350
  -21.3777  -21.3777  -21.3311  -21.3311  -19.9826  -19.9666  -18.9882  -18.9882  -18.9690  -18.9690
  -18.1637  -18.1628  -17.7029  -17.6907  -16.9930  -16.9930  -16.9845  -16.9845  -16.6040  -16.6040
  -16.5948  -16.5948  -16.2181  -16.2181  -16.2129  -16.2129  -14.8997  -14.8997  -14.8950  -14.8950
  -14.6491  -14.6467  -14.3166  -14.1814  -13.9897  -13.9882  -13.7854  -13.7854  -13.6562  -13.6562
  -12.1258  -12.1258  -12.0580  -12.0580  -10.9965  -10.9769  -10.8021  -10.8021  -10.7872  -10.7872
  -10.1816  -10.1792   -6.8261   -6.7990   -6.1853   -6.1853   -6.1325   -6.1325   -5.6727   -5.6398
   -4.0101   -4.0101   -3.9756   -3.9756   -0.5605   -0.5605   -0.5425   -0.5425    0.9135    0.9231
    0.9644    1.0506    1.0506    1.0678    1.0678    1.0725    1.4103    1.4103    1.5186    1.5186
    1.7763    1.7771    2.8879    2.8885    3.1065    3.1065    3.1383    3.1383    3.4427    3.4427
    3.4809    3.4809    4.7074    4.7301    4.9823    4.9849    5.8870    5.8870    5.9663    5.9663
    6.4787    6.5147    6.9516    6.9516    6.9643    6.9643    9.0549    9.0749    9.8510    9.8511
    9.8664    9.8664   11.5864   11.5864   11.5977   11.5977   12.7936   12.7936   12.8217   12.8217
   13.2795   13.2826   13.7110   13.7135
  28  1  -27.6385  -27.6385  -27.6182  -27.6182  -26.2515  -26.2515  -26.2500  -26.2500  -23.9229  -23.9229
         -23.9229  -23.9229  -23.8864  -23.8864  -23.8864  -23.8864  -23.4092  -23.3948  -21.7756  -21.7327
  -20.5582  -20.5582  -20.5582  -20.5582  -20.5192  -20.5192  -20.5192  -20.5192  -17.5295  -17.5295
  -17.5295  -17.5295  -17.5192  -17.5192  -17.5192  -17.5192  -17.4769  -17.4769  -17.4706  -17.4706
  -16.2001  -16.1897  -16.0549  -16.0549  -16.0443  -16.0443  -15.1798  -15.1798  -15.1754  -15.1753
  -14.1845  -14.1845  -14.1298  -14.1298  -14.1257  -14.1257  -14.0496  -14.0496  -13.1032  -13.1032
  -12.9941  -12.9941  -10.9352  -10.9352  -10.9352  -10.9352  -10.9174  -10.9174  -10.9174  -10.9174
  -10.7293  -10.7151   -6.3594   -6.3069   -5.8430   -5.8430   -5.8430   -5.8430   -5.7990   -5.7990
   -5.7990   -5.7990   -2.1478   -2.1478   -2.1250   -2.1250    0.2991    0.3263    0.5245    0.5245
    0.5374    0.5374    0.6354    0.6354    0.7400    0.7400    2.8778    2.8778    2.8792    2.8792
    2.9473    2.9473    2.9473    2.9473    2.9576    2.9576    2.9576    2.9576    3.2791    3.2791
    3.2840    3.2840    3.3955    3.3955    3.5481    3.5481    5.2871    5.2871    5.3091    5.3091
    8.1330    8.1330    8.1330    8.1330    8.1717    8.1717    8.1717    8.1717    9.3773    9.3773
    9.3807    9.3807   10.5664   10.5665   12.5680   12.5736   13.1355   13.1355   13.1355   13.1355
   13.1504   13.1505   13.1505   13.1505
  29  1  -27.8095  -27.8095  -27.0981  -27.0981  -27.0981  -27.0981  -25.1522  -25.1522  -25.1522  -25.1522
         -24.0198  -24.0198  -23.6122  -23.6122  -23.6122  -23.6122  -23.0003  -23.0003  -21.5538  -21.5538
  -21.3551  -21.3551  -21.3551  -21.3551  -19.9745  -19.9745  -18.9787  -18.9787  -18.9787  -18.9787
  -18.1638  -18.1638  -17.6970  -17.6970  -16.9892  -16.9892  -16.9892  -16.9892  -16.5995  -16.5995
  -16.5995  -16.5995  -16.2156  -16.2156  -16.2156  -16.2156  -14.8978  -14.8978  -14.8978  -14.8978
  -14.6479  -14.6479  -14.2442  -14.2442  -13.9882  -13.9882  -13.7161  -13.7161  -13.7161  -13.7161
  -12.0905  -12.0905  -12.0905  -12.0905  -10.9864  -10.9864  -10.7946  -10.7946  -10.7946  -10.7946
  -10.1805  -10.1805   -6.8132   -6.8132   -6.1597   -6.1597   -6.1597   -6.1597   -5.6563   -5.6563
   -3.9929   -3.9929   -3.9929   -3.9929   -0.5515   -0.5515   -0.5515   -0.5515    0.9182    0.9182
    1.0216    1.0216    1.0594    1.0594    1.0594    1.0594    1.4677    1.4677    1.4677    1.4677
    1.7767    1.7767    2.8884    2.8884    3.1231    3.1231    3.1231    3.1231    3.4622    3.4622
    3.4622    3.4622    4.7188    4.7188    4.9836    4.9836    5.9280    5.9280    5.9280    5.9280
    6.4976    6.4976    6.9581    6.9581    6.9581    6.9581    9.0650    9.0650    9.8589    9.8589
    9.8589    9.8589   11.5921   11.5921   11.5921   11.5921   12.8079   12.8079   12.8079   12.8079
   13.2811   13.2811   13.7123   13.7123
  30  1  -28.1759  -28.1759  -26.7540  -26.7540  -26.0891  -26.0891  -26.0891  -26.0891  -24.8636  -24.8636
         -24.8636  -24.8636  -24.3202  -24.3202  -22.8378  -22.8378  -22.8378  -22.8378  -21.1230  -21.1230
  -21.1230  -21.1230  -20.7018  -20.7018  -19.8340  -19.8340  -19.8340  -19.8340  -18.7531  -18.7531
  -18.7531  -18.7531  -18.0400  -18.0400  -18.0400  -18.0400  -17.0617  -17.0617  -16.3007  -16.3007
  -16.3007  -16.3007  -16.0498  -16.0498  -15.7172  -15.7172  -15.7171  -15.7171  -14.9496  -14.9496
  -14.5025  -14.5025  -13.6680  -13.6680  -13.4520  -13.4520  -13.3786  -13.3786  -12.9145  -12.9145
  -12.9144  -12.9144  -11.8533  -11.8533  -11.8533  -11.8533  -11.3999  -11.3999   -9.7785   -9.7785
   -9.7785   -9.7785   -7.1625   -7.1625   -7.1625   -7.1625   -5.3186   -5.3186   -4.5041   -4.5041
   -4.5041   -4.5041   -2.4548   -2.4548   -2.4548   -2.4548   -1.2368   -1.2368    0.3699    0.3699
    0.3856    0.3856    0.7123    0.7123    0.8798    0.8798    1.1922    1.1922    1.1922    1.1922
    1.3801    1.3801    1.3801    1.3801    1.7271    1.7271    4.0849    4.0849    5.0716    5.0716
    5.0716    5.0716    5.4864    5.4864    5.9333    5.9333    5.9333    5.9333    7.3321    7.3321
    7.7170    7.7170    7.7170    7.7170    8.3455    8.3455    8.3456    8.3456    9.3430    9.3430
    9.3430    9.3430    9.8882    9.8882   11.4823   11.4823   11.4823   11.4823   11.7415   11.7415
   14.1830   14.1830   14.1830   14.1830
  31  1  -28.1759  -28.1759  -26.7540  -26.7540  -26.0891  -26.0891  -26.0891  -26.0891  -24.8636  -24.8636
         -24.8636  -24.8636  -24.3202  -24.3202  -22.8378  -22.8378  -22.8378  -22.8378  -21.1230  -21.1230
  -21.1230  -21.1230  -20.7018  -20.7018  -19.8340  -19.8340  -19.8340  -19.8340  -18.7531  -18.7531
  -18.7531  -18.7531  -18.0400  -18.0400  -18.0400  -18.0400  -17.0617  -17.0617  -16.3007  -16.3007
  -16.3007  -16.3007  -16.0498  -16.0498  -15.7172  -15.7172  -15.7171  -15.7171  -14.9496  -14.9496
  -14.5025  -14.5025  -13.6680  -13.6680  -13.4520  -13.4520  -13.3786  -13.3786  -12.9145  -12.9145
  -12.9144  -12.9144  -11.8533  -11.8533  -11.8533  -11.8533  -11.3999  -11.3999   -9.7785   -9.7785
   -9.7785   -9.7785   -7.1625   -7.1625   -7.1625   -7.1625   -5.3186   -5.3186   -4.5041   -4.5041
   -4.5041   -4.5041   -2.4548   -2.4548   -2.4548   -2.4548   -1.2368   -1.2368    0.3699    0.3699
    0.3856    0.3856    0.7123    0.7123    0.8798    0.8798    1.1922    1.1922    1.1922    1.1922
    1.3801    1.3801    1.3801    1.3801    1.7271    1.7271    4.0849    4.0849    5.0716    5.0716
    5.0716    5.0716    5.4864    5.4864    5.9333    5.9333    5.9333    5.9333    7.3321    7.3321
    7.7170    7.7170    7.7170    7.7170    8.3455    8.3455    8.3456    8.3456    9.3430    9.3430
    9.3430    9.3430    9.8882    9.8882   11.4823   11.4823   11.4823   11.4823   11.7415   11.7415
   14.1830   14.1830   14.1830   14.1830
  32  1  -27.8095  -27.8095  -27.0981  -27.0981  -27.0981  -27.0981  -25.1522  -25.1522  -25.1522  -25.1522
         -24.0198  -24.0198  -23.6122  -23.6122  -23.6122  -23.6122  -23.0003  -23.0003  -21.5538  -21.5538
  -21.3551  -21.3551  -21.3551  -21.3551  -19.9745  -19.9745  -18.9787  -18.9787  -18.9787  -18.9787
  -18.1638  -18.1638  -17.6970  -17.6970  -16.9892  -16.9892  -16.9892  -16.9892  -16.5995  -16.5995
  -16.5995  -16.5995  -16.2156  -16.2156  -16.2156  -16.2156  -14.8978  -14.8978  -14.8978  -14.8978
  -14.6479  -14.6479  -14.2442  -14.2442  -13.9882  -13.9882  -13.7161  -13.7161  -13.7161  -13.7161
  -12.0905  -12.0905  -12.0905  -12.0905  -10.9864  -10.9864  -10.7946  -10.7946  -10.7946  -10.7946
  -10.1805  -10.1805   -6.8132   -6.8132   -6.1597   -6.1597   -6.1597   -6.1597   -5.6563   -5.6563
   -3.9929   -3.9929   -3.9929   -3.9929   -0.5515   -0.5515   -0.5515   -0.5515    0.9182    0.9182
    1.0216    1.0216    1.0594    1.0594    1.0594    1.0594    1.4677    1.4677    1.4677    1.4677
    1.7767    1.7767    2.8884    2.8884    3.1231    3.1231    3.1231    3.1231    3.4622    3.4622
    3.4622    3.4622    4.7188    4.7188    4.9836    4.9836    5.9280    5.9280    5.9280    5.9280
    6.4976    6.4976    6.9581    6.9581    6.9581    6.9581    9.0650    9.0650    9.8589    9.8589
    9.8589    9.8589   11.5921   11.5921   11.5921   11.5921   12.8079   12.8079   12.8079   12.8079
   13.2811   13.2811   13.7123   13.7123
  33  1  -28.1759  -28.1759  -26.7540  -26.7540  -26.0891  -26.0891  -26.0891  -26.0891  -24.8636  -24.8636
         -24.8636  -24.8636  -24.3202  -24.3202  -22.8378  -22.8378  -22.8378  -22.8378  -21.1230  -21.1230
  -21.1230  -21.1230  -20.7018  -20.7018  -19.8340  -19.8340  -19.8340  -19.8340  -18.7531  -18.7531
  -18.7531  -18.7531  -18.0400  -18.0400  -18.0400  -18.0400  -17.0617  -17.0617  -16.3007  -16.3007
  -16.3007  -16.3007  -16.0498  -16.0498  -15.7172  -15.7172  -15.7171  -15.7171  -14.9496  -14.9496
  -14.5025  -14.5025  -13.6680  -13.6680  -13.4520  -13.4520  -13.3786  -13.3786  -12.9145  -12.9145
  -12.9144  -12.9144  -11.8533  -11.8533  -11.8533  -11.8533  -11.3999  -11.3999   -9.7785   -9.7785
   -9.7785   -9.7785   -7.1625   -7.1625   -7.1625   -7.1625   -5.3186   -5.3186   -4.5041   -4.5041
   -4.5041   -4.5041   -2.4548   -2.4548   -2.4548   -2.4548   -1.2368   -1.2368    0.3699    0.3699
    0.3856    0.3856    0.7123    0.7123    0.8798    0.8798    1.1922    1.1922    1.1922    1.1922
    1.3801    1.3801    1.3801    1.3801    1.7271    1.7271    4.0849    4.0849    5.0716    5.0716
    5.0716    5.0716    5.4864    5.4864    5.9333    5.9333    5.9333    5.9333    7.3321    7.3321
    7.7170    7.7170    7.7170    7.7170    8.3455    8.3455    8.3456    8.3456    9.3430    9.3430
    9.3430    9.3430    9.8882    9.8882   11.4823   11.4823   11.4823   11.4823   11.7415   11.7415
   14.1830   14.1830   14.1830   14.1830
  34  1  -28.3617  -28.3617  -25.6137  -25.6137  -25.6137  -25.6137  -25.6137  -25.6137  -25.6137  -25.6137
         -25.6137  -25.6137  -25.6137  -25.6137  -21.8359  -21.8359  -21.8359  -21.8359  -21.8351  -21.8351
  -21.8351  -21.8351  -19.3150  -19.3150  -19.3150  -19.3150  -18.9706  -18.9706  -18.9706  -18.9706
  -18.9706  -18.9706  -18.9706  -18.9706  -18.9706  -18.9706  -18.9706  -18.9706  -15.6228  -15.6228
  -15.6228  -15.6228  -15.6228  -15.6228  -15.6228  -15.6228  -15.6228  -15.6228  -15.6228  -15.6228
  -14.6318  -14.6318  -13.0575  -13.0575  -13.0575  -13.0575  -12.5185  -12.5185  -12.5185  -12.5185
  -12.5185  -12.5185  -12.5185  -12.5185  -12.5185  -12.5185  -12.5185  -12.5185   -8.4956   -8.4956
   -8.4956   -8.4956   -8.4950   -8.4950   -8.4950   -8.4950   -3.3155   -3.3155   -3.3155   -3.3155
   -3.3155   -3.3155   -3.3155   -3.3155   -3.3155   -3.3155   -3.3155   -3.3155    0.1136    0.1136
    0.1136    0.1136    0.5573    0.5573    0.5573    0.5573    0.5574    0.5574    0.5574    0.5574
    0.5574    0.5574    0.5574    0.5574    2.1524    2.1524    3.7433    3.7433    6.7630    6.7630
    6.7631    6.7631    6.7631    6.7631    6.7631    6.7631    8.0346    8.0346    8.0346    8.0346
    8.0346    8.0346    8.0346    8.0346    8.0346    8.0346    8.0346    8.0346    9.7073    9.7073
    9.7073    9.7073    9.7073    9.7073    9.7073    9.7073    9.7073    9.7073    9.7073    9.7073
   14.5363   14.5363   14.5363   14.5363
  35  1  -28.1759  -28.1759  -26.7540  -26.7540  -26.0891  -26.0891  -26.0891  -26.0891  -24.8636  -24.8636
         -24.8636  -24.8636  -24.3202  -24.3202  -22.8378  -22.8378  -22.8378  -22.8378  -21.1230  -21.1230
  -21.1230  -21.1230  -20.7018  -20.7018  -19.8340  -19.8340  -19.8340  -19.8340  -18.7531  -18.7531
  -18.7531  -18.7531  -18.0400  -18.0400  -18.0400  -18.0400  -17.0617  -17.0617  -16.3007  -16.3007
  -16.3007  -16.3007  -16.0498  -16.0498  -15.7172  -15.7172  -15.7171  -15.7171  -14.9496  -14.9496
  -14.5025  -14.5025  -13.6680  -13.6680  -13.4520  -13.4520  -13.3786  -13.3786  -12.9145  -12.9145
  -12.9144  -12.9144  -11.8533  -11.8533  -11.8533  -11.8533  -11.3999  -11.3999   -9.7785   -9.7785
   -9.7785   -9.7785   -7.1625   -7.1625   -7.1625   -7.1625   -5.3186   -5.3186   -4.5041   -4.5041
   -4.5041   -4.5041   -2.4548   -2.4548   -2.4548   -2.4548   -1.2368   -1.2368    0.3699    0.3699
    0.3856    0.3856    0.7123    0.7123    0.8798    0.8798    1.1922    1.1922    1.1922    1.1922
    1.3801    1.3801    1.3801    1.3801    1.7271    1.7271    4.0849    4.0849    5.0716    5.0716
    5.0716    5.0716    5.4864    5.4864    5.9333    5.9333    5.9333    5.9333    7.3321    7.3321
    7.7170    7.7170    7.7170    7.7170    8.3455    8.3455    8.3456    8.3456    9.3430    9.3430
    9.3430    9.3430    9.8882    9.8882   11.4823   11.4823   11.4823   11.4823   11.7415   11.7415
   14.1830   14.1830   14.1830   14.1830
  36  1  -27.6290  -27.6290  -27.6290  -27.6290  -26.2516  -26.2516  -26.2516  -26.2516  -23.9052  -23.9052
         -23.9052  -23.9052  -23.9052  -23.9052  -23.9052  -23.9052  -23.4019  -23.4019  -21.7554  -21.7554
  -20.5390  -20.5390  -20.5390  -20.5390  -20.5390  -20.5390  -20.5390  -20.5390  -17.5246  -17.5246
  -17.5246  -17.5246  -17.5246  -17.5246  -17.5246  -17.5246  -17.4737  -17.4737  -17.4737  -17.4737
  -16.1949  -16.1949  -16.0503  -16.0503  -16.0502  -16.0502  -15.1780  -15.1780  -15.1779  -15.1779
  -14.1278  -14.1278  -14.1278  -14.1278  -14.1115  -14.1115  -14.1115  -14.1115  -13.0455  -13.0455
  -13.0455  -13.0455  -10.9261  -10.9261  -10.9261  -10.9261  -10.9261  -10.9261  -10.9261  -10.9261
  -10.7222  -10.7222   -6.3343   -6.3343   -5.8213   -5.8213   -5.8213   -5.8213   -5.8213   -5.8213
   -5.8213   -5.8213   -2.1364   -2.1364   -2.1364   -2.1364    0.3129    0.3129    0.5309    0.5309
    0.5309    0.5309    0.6907    0.6907    0.6907    0.6907    2.8785    2.8785    2.8785    2.8785
    2.9527    2.9527    2.9527    2.9527    2.9527    2.9527    2.9528    2.9528    3.2816    3.2816
    3.2816    3.2816    3.4751    3.4751    3.4751    3.4751    5.2986    5.2986    5.2986    5.2986
    8.1529    8.1529    8.1529    8.1529    8.1529    8.1529    8.1529    8.1529    9.3790    9.3790
    9.3790    9.3790   10.5664   10.5664   12.5713   12.5713   13.1430   13.1430   13.1430   13.1430
   13.1431   13.1431   13.1431   13.1431
  37  1  -28.1759  -28.1759  -26.7540  -26.7540  -26.0891  -26.0891  -26.0891  -26.0891  -24.8636  -24.8636
         -24.8636  -24.8636  -24.3202  -24.3202  -22.8378  -22.8378  -22.8378  -22.8378  -21.1230  -21.1230
  -21.1230  -21.1230  -20.7018  -20.7018  -19.8340  -19.8340  -19.8340  -19.8340  -18.7531  -18.7531
  -18.7531  -18.7531  -18.0400  -18.0400  -18.0400  -18.0400  -17.0617  -17.0617  -16.3007  -16.3007
  -16.3007  -16.3007  -16.0498  -16.0498  -15.7172  -15.7172  -15.7171  -15.7171  -14.9496  -14.9496
  -14.5025  -14.5025  -13.6680  -13.6680  -13.4520  -13.4520  -13.3786  -13.3786  -12.9145  -12.9145
  -12.9144  -12.9144  -11.8533  -11.8533  -11.8533  -11.8533  -11.3999  -11.3999   -9.7785   -9.7785
   -9.7785   -9.7785   -7.1625   -7.1625   -7.1625   -7.1625   -5.3186   -5.3186   -4.5041   -4.5041
   -4.5041   -4.5041   -2.4548   -2.4548   -2.4548   -2.4548   -1.2368   -1.2368    0.3699    0.3699
    0.3856    0.3856    0.7123    0.7123    0.8798    0.8798    1.1922    1.1922    1.1922    1.1922
    1.3801    1.3801    1.3801    1.3801    1.7271    1.7271    4.0849    4.0849    5.0716    5.0716
    5.0716    5.0716    5.4864    5.4864    5.9333    5.9333    5.9333    5.9333    7.3321    7.3321
    7.7170    7.7170    7.7170    7.7170    8.3455    8.3455    8.3456    8.3456    9.3430    9.3430
    9.3430    9.3430    9.8882    9.8882   11.4823   11.4823   11.4823   11.4823   11.7415   11.7415
   14.1830   14.1830   14.1830   14.1830
  38  1  -28.1759  -28.1759  -26.7540  -26.7540  -26.0891  -26.0891  -26.0891  -26.0891  -24.8636  -24.8636
         -24.8636  -24.8636  -24.3202  -24.3202  -22.8378  -22.8378  -22.8378  -22.8378  -21.1230  -21.1230
  -21.1230  -21.1230  -20.7018  -20.7018  -19.8340  -19.8340  -19.8340  -19.8340  -18.7531  -18.7531
  -18.7531  -18.7531  -18.0400  -18.0400  -18.0400  -18.0400  -17.0617  -17.0617  -16.3007  -16.3007
  -16.3007  -16.3007  -16.0498  -16.0498  -15.7172  -15.7172  -15.7171  -15.7171  -14.9496  -14.9496
  -14.5025  -14.5025  -13.6680  -13.6680  -13.4520  -13.4520  -13.3786  -13.3786  -12.9145  -12.9145
  -12.9144  -12.9144  -11.8533  -11.8533  -11.8533  -11.8533  -11.3999  -11.3999   -9.7785   -9.7785
   -9.7785   -9.7785   -7.1625   -7.1625   -7.1625   -7.1625   -5.3186   -5.3186   -4.5041   -4.5041
   -4.5041   -4.5041   -2.4548   -2.4548   -2.4548   -2.4548   -1.2368   -1.2368    0.3699    0.3699
    0.3856    0.3856    0.7123    0.7123    0.8798    0.8798    1.1922    1.1922    1.1922    1.1922
    1.3801    1.3801    1.3801    1.3801    1.7271    1.7271    4.0849    4.0849    5.0716    5.0716
    5.0716    5.0716    5.4864    5.4864    5.9333    5.9333    5.9333    5.9333    7.3321    7.3321
    7.7170    7.7170    7.7170    7.7170    8.3455    8.3455    8.3456    8.3456    9.3430    9.3430
    9.3430    9.3430    9.8882    9.8882   11.4823   11.4823   11.4823   11.4823   11.7415   11.7415
   14.1830   14.1830   14.1830   14.1830
  39  1  -27.8095  -27.8095  -27.0981  -27.0981  -27.0981  -27.0981  -25.1522  -25.1522  -25.1522  -25.1522
         -24.0198  -24.0198  -23.6122  -23.6122  -23.6122  -23.6122  -23.0003  -23.0003  -21.5538  -21.5538
  -21.3551  -21.3551  -21.3551  -21.3551  -19.9745  -19.9745  -18.9787  -18.9787  -18.9787  -18.9787
  -18.1638  -18.1638  -17.6970  -17.6970  -16.9892  -16.9892  -16.9892  -16.9892  -16.5995  -16.5995
  -16.5995  -16.5995  -16.2156  -16.2156  -16.2156  -16.2156  -14.8978  -14.8978  -14.8978  -14.8978
  -14.6479  -14.6479  -14.2442  -14.2442  -13.9882  -13.9882  -13.7161  -13.7161  -13.7161  -13.7161
  -12.0905  -12.0905  -12.0905  -12.0905  -10.9864  -10.9864  -10.7946  -10.7946  -10.7946  -10.7946
  -10.1805  -10.1805   -6.8132   -6.8132   -6.1597   -6.1597   -6.1597   -6.1597   -5.6563   -5.6563
   -3.9929   -3.9929   -3.9929   -3.9929   -0.5515   -0.5515   -0.5515   -0.5515    0.9182    0.9182
    1.0216    1.0216    1.0594    1.0594    1.0594    1.0594    1.4677    1.4677    1.4677    1.4677
    1.7767    1.7767    2.8884    2.8884    3.1231    3.1231    3.1231    3.1231    3.4622    3.4622
    3.4622    3.4622    4.7188    4.7188    4.9836    4.9836    5.9280    5.9280    5.9280    5.9280
    6.4976    6.4976    6.9581    6.9581    6.9581    6.9581    9.0650    9.0650    9.8589    9.8589
    9.8589    9.8589   11.5921   11.5921   11.5921   11.5921   12.8079   12.8079   12.8079   12.8079
   13.2811   13.2811   13.7123   13.7123
  40  1  -27.8095  -27.8095  -27.0981  -27.0981  -27.0981  -27.0981  -25.1522  -25.1522  -25.1522  -25.1522
         -24.0198  -24.0198  -23.6122  -23.6122  -23.6122  -23.6122  -23.0003  -23.0003  -21.5538  -21.5538
  -21.3551  -21.3551  -21.3551  -21.3551  -19.9745  -19.9745  -18.9787  -18.9787  -18.9787  -18.9787
  -18.1638  -18.1638  -17.6970  -17.6970  -16.9892  -16.9892  -16.9892  -16.9892  -16.5995  -16.5995
  -16.5995  -16.5995  -16.2156  -16.2156  -16.2156  -16.2156  -14.8978  -14.8978  -14.8978  -14.8978
  -14.6479  -14.6479  -14.2442  -14.2442  -13.9882  -13.9882  -13.7161  -13.7161  -13.7161  -13.7161
  -12.0905  -12.0905  -12.0905  -12.0905  -10.9864  -10.9864  -10.7946  -10.7946  -10.7946  -10.7946
  -10.1805  -10.1805   -6.8132   -6.8132   -6.1597   -6.1597   -6.1597   -6.1597   -5.6563   -5.6563
   -3.9929   -3.9929   -3.9929   -3.9929   -0.5515   -0.5515   -0.5515   -0.5515    0.9182    0.9182
    1.0216    1.0216    1.0594    1.0594    1.0594    1.0594    1.4677    1.4677    1.4677    1.4677
    1.7767    1.7767    2.8884    2.8884    3.1231    3.1231    3.1231    3.1231    3.4622    3.4622
    3.4622    3.4622    4.7188    4.7188    4.9836    4.9836    5.9280    5.9280    5.9280    5.9280
    6.4976    6.4976    6.9581    6.9581    6.9581    6.9581    9.0650    9.0650    9.8589    9.8589
    9.8589    9.8589   11.5921   11.5921   11.5921   11.5921   12.8079   12.8079   12.8079   12.8079
   13.2811   13.2811   13.7123   13.7123
  41  1  -27.8095  -27.8095  -27.0981  -27.0981  -27.0981  -27.0981  -25.1522  -25.1522  -25.1522  -25.1522
         -24.0198  -24.0198  -23.6122  -23.6122  -23.6122  -23.6122  -23.0003  -23.0003  -21.5538  -21.5538
  -21.3551  -21.3551  -21.3551  -21.3551  -19.9745  -19.9745  -18.9787  -18.9787  -18.9787  -18.9787
  -18.1638  -18.1638  -17.6970  -17.6970  -16.9892  -16.9892  -16.9892  -16.9892  -16.5995  -16.5995
  -16.5995  -16.5995  -16.2156  -16.2156  -16.2156  -16.2156  -14.8978  -14.8978  -14.8978  -14.8978
  -14.6479  -14.6479  -14.2442  -14.2442  -13.9882  -13.9882  -13.7161  -13.7161  -13.7161  -13.7161
  -12.0905  -12.0905  -12.0905  -12.0905  -10.9864  -10.9864  -10.7946  -10.7946  -10.7946  -10.7946
  -10.1805  -10.1805   -6.8132   -6.8132   -6.1597   -6.1597   -6.1597   -6.1597   -5.6563   -5.6563
   -3.9929   -3.9929   -3.9929   -3.9929   -0.5515   -0.5515   -0.5515   -0.5515    0.9182    0.9182
    1.0216    1.0216    1.0594    1.0594    1.0594    1.0594    1.4677    1.4677    1.4677    1.4677
    1.7767    1.7767    2.8884    2.8884    3.1231    3.1231    3.1231    3.1231    3.4622    3.4622
    3.4622    3.4622    4.7188    4.7188    4.9836    4.9836    5.9280    5.9280    5.9280    5.9280
    6.4976    6.4976    6.9581    6.9581    6.9581    6.9581    9.0650    9.0650    9.8589    9.8589
    9.8589    9.8589   11.5921   11.5921   11.5921   11.5921   12.8079   12.8079   12.8079   12.8079
   13.2811   13.2811   13.7123   13.7123
  42  1  -27.6290  -27.6290  -27.6290  -27.6290  -26.2516  -26.2516  -26.2516  -26.2516  -23.9052  -23.9052
         -23.9052  -23.9052  -23.9052  -23.9052  -23.9052  -23.9052  -23.4019  -23.4019  -21.7554  -21.7554
  -20.5390  -20.5390  -20.5390  -20.5390  -20.5390  -20.5390  -20.5390  -20.5390  -17.5246  -17.5246
  -17.5246  -17.5246  -17.5246  -17.5246  -17.5246  -17.5246  -17.4737  -17.4737  -17.4737  -17.4737
  -16.1949  -16.1949  -16.0503  -16.0503  -16.0502  -16.0502  -15.1780  -15.1780  -15.1779  -15.1779
  -14.1278  -14.1278  -14.1278  -14.1278  -14.1115  -14.1115  -14.1115  -14.1115  -13.0455  -13.0455
  -13.0455  -13.0455  -10.9261  -10.9261  -10.9261  -10.9261  -10.9261  -10.9261  -10.9261  -10.9261
  -10.7222  -10.7222   -6.3343   -6.3343   -5.8213   -5.8213   -5.8213   -5.8213   -5.8213   -5.8213
   -5.8213   -5.8213   -2.1364   -2.1364   -2.1364   -2.1364    0.3129    0.3129    0.5309    0.5309
    0.5309    0.5309    0.6907    0.6907    0.6907    0.6907    2.8785    2.8785    2.8785    2.8785
    2.9527    2.9527    2.9527    2.9527    2.9527    2.9527    2.9528    2.9528    3.2816    3.2816
    3.2816    3.2816    3.4751    3.4751    3.4751    3.4751    5.2986    5.2986    5.2986    5.2986
    8.1529    8.1529    8.1529    8.1529    8.1529    8.1529    8.1529    8.1529    9.3790    9.3790
    9.3790    9.3790   10.5664   10.5664   12.5713   12.5713   13.1430   13.1430   13.1430   13.1430
   13.1431   13.1431   13.1431   13.1431
  43  1  -27.8095  -27.8095  -27.0981  -27.0981  -27.0981  -27.0981  -25.1522  -25.1522  -25.1522  -25.1522
         -24.0198  -24.0198  -23.6122  -23.6122  -23.6122  -23.6122  -23.0003  -23.0003  -21.5538  -21.5538
  -21.3551  -21.3551  -21.3551  -21.3551  -19.9745  -19.9745  -18.9787  -18.9787  -18.9787  -18.9787
  -18.1638  -18.1638  -17.6970  -17.6970  -16.9892  -16.9892  -16.9892  -16.9892  -16.5995  -16.5995
  -16.5995  -16.5995  -16.2156  -16.2156  -16.2156  -16.2156  -14.8978  -14.8978  -14.8978  -14.8978
  -14.6479  -14.6479  -14.2442  -14.2442  -13.9882  -13.9882  -13.7161  -13.7161  -13.7161  -13.7161
  -12.0905  -12.0905  -12.0905  -12.0905  -10.9864  -10.9864  -10.7946  -10.7946  -10.7946  -10.7946
  -10.1805  -10.1805   -6.8132   -6.8132   -6.1597   -6.1597   -6.1597   -6.1597   -5.6563   -5.6563
   -3.9929   -3.9929   -3.9929   -3.9929   -0.5515   -0.5515   -0.5515   -0.5515    0.9182    0.9182
    1.0216    1.0216    1.0594    1.0594    1.0594    1.0594    1.4677    1.4677    1.4677    1.4677
    1.7767    1.7767    2.8884    2.8884    3.1231    3.1231    3.1231    3.1231    3.4622    3.4622
    3.4622    3.4622    4.7188    4.7188    4.9836    4.9836    5.9280    5.9280    5.9280    5.9280
    6.4976    6.4976    6.9581    6.9581    6.9581    6.9581    9.0650    9.0650    9.8589    9.8589
    9.8589    9.8589   11.5921   11.5921   11.5921   11.5921   12.8079   12.8079   12.8079   12.8079
   13.2811   13.2811   13.7123   13.7123
  44  1  -27.6290  -27.6290  -27.6290  -27.6290  -26.2516  -26.2516  -26.2516  -26.2516  -23.9052  -23.9052
         -23.9052  -23.9052  -23.9052  -23.9052  -23.9052  -23.9052  -23.4019  -23.4019  -21.7554  -21.7554
  -20.5390  -20.5390  -20.5390  -20.5390  -20.5390  -20.5390  -20.5390  -20.5390  -17.5246  -17.5246
  -17.5246  -17.5246  -17.5246  -17.5246  -17.5246  -17.5246  -17.4737  -17.4737  -17.4737  -17.4737
  -16.1949  -16.1949  -16.0503  -16.0503  -16.0502  -16.0502  -15.1780  -15.1780  -15.1779  -15.1779
  -14.1278  -14.1278  -14.1278  -14.1278  -14.1115  -14.1115  -14.1115  -14.1115  -13.0455  -13.0455
  -13.0455  -13.0455  -10.9261  -10.9261  -10.9261  -10.9261  -10.9261  -10.9261  -10.9261  -10.9261
  -10.7222  -10.7222   -6.3343   -6.3343   -5.8213   -5.8213   -5.8213   -5.8213   -5.8213   -5.8213
   -5.8213   -5.8213   -2.1364   -2.1364   -2.1364   -2.1364    0.3129    0.3129    0.5309    0.5309
    0.5309    0.5309    0.6907    0.6907    0.6907    0.6907    2.8785    2.8785    2.8785    2.8785
    2.9527    2.9527    2.9527    2.9527    2.9527    2.9527    2.9528    2.9528    3.2816    3.2816
    3.2816    3.2816    3.4751    3.4751    3.4751    3.4751    5.2986    5.2986    5.2986    5.2986
    8.1529    8.1529    8.1529    8.1529    8.1529    8.1529    8.1529    8.1529    9.3790    9.3790
    9.3790    9.3790   10.5664   10.5664   12.5713   12.5713   13.1430   13.1430   13.1430   13.1430
   13.1431   13.1431   13.1431   13.1431
siesta: Fermi energy =      -8.495171 eV

siesta: Program's energy decomposition (eV):
siesta: Ebs     =     -2603.539852
siesta: Eions   =      9434.507561
siesta: Ena     =      2271.187179
siesta: Ekin    =      3581.871736
siesta: Enl     =      -332.983688
siesta: Eso     =         0.000000
siesta: Edftu   =         0.000000
siesta: DEna    =        25.416015
siesta: DUscf   =         2.871665
siesta: DUext   =         0.000000
siesta: Exc     =     -1618.587274
siesta: eta*DQ  =         0.000000
siesta: Emadel  =         0.000000
siesta: Emeta   =         0.000000
siesta: Emolmec =        -2.726078
siesta: Ekinion =         0.000000
siesta: Eharris =     -5507.458005
siesta: Etot    =     -5507.458005
siesta: FreeEng =     -5507.474883

siesta: Final energy (eV):
siesta:  Band Struct. =   -2603.539852
siesta:       Kinetic =    3581.871736
siesta:       Hartree =    2594.940682
siesta:       Edftu   =       0.000000
siesta:       Eso     =       0.000000
siesta:    Ext. field =       0.000000
siesta:   Exch.-corr. =   -1618.587274
siesta:  Ion-electron =   -9259.866244
siesta:       Ion-ion =    -803.090827
siesta:       Ekinion =       0.000000
siesta:         Total =   -5507.458005
siesta:         Fermi =      -8.495171

siesta: Stress tensor (static) (eV/Ang**3):
siesta:    -0.199782    0.000000    0.000000
siesta:     0.000000   -0.199782   -0.000000
siesta:     0.000000    0.000000    0.036462

siesta: Cell volume =        422.370354 Ang**3

siesta: Pressure (static):
siesta:                Solid            Molecule  Units
siesta:           0.00131822          0.00131824  Ry/Bohr**3
siesta:           0.12103441          0.12103645  eV/Ang**3
siesta:         193.92060439        193.92386433  kBar
(Free)E+ p_basis*V_orbitals  =       -5489.171837
(Free)Eharris+ p_basis*V_orbitals  =       -5489.171837

cite: Please see "graphite_scf.bib" for an exhaustive BiBTeX file.
cite: Please clearly indicate Siesta version in published work: 4.1.5
cite: This calculation has made use of the following articles
cite: which are encouraged to be cited in a published work.
        Primary SIESTA paper
          DOI: www.doi.org/10.1088/0953-8984/14/11/302

>> End of run:   1-NOV-2022  14:33:29
Job completed
