Siesta Version  : 4.1.5
Architecture    : x86_64-unknown-linux-gnu--unknown
Compiler version: GNU Fortran (GCC) 11.3.0
Compiler flags  : mpif90 -g -O2 -fallow-argument-mismatch
PP flags        : -DMPI -DFC_HAVE_FLUSH -DFC_HAVE_ABORT
Libraries       :  -I/global/software/sl-7.x86_64/modules/intel/2020.4.304/mkl/include  /globall/software/sl-7.x86_64/modules/intel/2020.4.304/mkl/lib/intel64/libmkl_scalapack_lp64.a -Wl,--start-group /global/software/sl-7.x86_64/modules/intel/2020.4.304/mkl/lib/intel64/libmkl_intel_lp64.a /global/software/sl-7.x86_64/modules/intel/2020.4.304/mkl/lib/intel64/libmkl_sequential.a /global/software/sl-7.x86_64/modules/intel/2020.4.304/mkl/lib/intel64/libmkl_core.a /global/software/sl-7.x86_64/modules/intel/2020.4.304/mkl/lib/intel64/libmkl_blacs_openmpi_lp64.a -Wl,--end-group -lpthread -lm -ldl
PARALLEL version

* Running on 20 nodes in parallel
>> Start of run:   1-NOV-2022  14:26:55

                           ***********************       
                           *  WELCOME TO SIESTA  *       
                           ***********************       

reinit: Reading from standard input
reinit: Dumped input in INPUT_TMP.00457
************************** Dump of input data file ****************************
SystemName graphite_scf
SystemLabel graphite_scf
NumberOfAtoms   36
NumberOfSpecies 1
%block ChemicalSpeciesLabel
1  6   C-gga
%endblock ChemicalSpeciesLabel
PAO.BasisSize  SZ
PAO.EnergyShift  10 meV
%block PS.Lmax
C-gga   2
%endblock PS.Lmax
LatticeConstant 1.000000 Ang
%block LatticeVectors
	7.3920000000	0.0000000000	0.0000000000
	-3.6960000000	6.4016597848	0.0000000000
	0.0000000000	0.0000000000	3.7581600000
%endblock LatticeVectors
AtomicCoordinatesFormat Ang
%block AtomicCoordinatesAndAtomicSpecies
	0.00000000	0.00000000	0.93954000	1
	0.00000000	0.00000000	2.81862000	1
	-1.23200000	2.13388659	0.93954000	1
	-2.46400000	4.26777319	2.81862000	1
	2.46400000	4.26777319	0.93954000	1
	1.23200000	2.13388659	2.81862000	1
	2.46400000	0.00000000	0.93954000	1
	4.92800000	0.00000000	2.81862000	1
	2.46400000	0.00000000	2.81862000	1
	4.92800000	0.00000000	0.93954000	1
	2.46400000	4.26777319	2.81862000	1
	1.23200000	2.13388659	0.93954000	1
	-1.23200000	2.13388659	2.81862000	1
	-2.46400000	4.26777319	0.93954000	1
	0.00000000	4.26777319	0.93954000	1
	3.69600000	2.13388659	2.81862000	1
	3.69600000	2.13388659	0.93954000	1
	0.00000000	4.26777319	2.81862000	1
	0.00000000	1.42258964	0.93954000	1
	3.69600000	4.97907014	2.81862000	1
	2.46400123	5.69036496	0.93954000	1
	1.23199877	0.71129482	2.81862000	1
	-2.46400123	5.69036496	0.93954000	1
	6.16000123	0.71129482	2.81862000	1
	-1.23200000	3.55647624	0.93954000	1
	4.92800000	2.84518355	2.81862000	1
	1.23200123	3.55647837	0.93954000	1
	2.46399877	2.84518142	2.81862000	1
	-0.00000123	5.69036496	0.93954000	1
	3.69600123	0.71129482	2.81862000	1
	2.46400000	1.42258964	0.93954000	1
	1.23200000	4.97907014	2.81862000	1
	4.92800123	1.42259177	0.93954000	1
	-1.23200123	4.97906801	2.81862000	1
	3.69599877	3.55647837	0.93954000	1
	0.00000123	2.84518142	2.81862000	1
%endblock AtomicCoordinatesAndAtomicSpecies
Kgrid_NoTRS  T
%block kgrid_MonkhorstPack
4       0       0       0.0
0       4       0       0.0
0       0       4       0.0
%endblock kgrid_MonkhorstPack
AtomCoorFormatOut Ang
BlockSize 1
#ProcessorY 12
Diag.ParallelOverK   T
Diag.DivideAndConquer F
MeshCutoff   300 Ry
SCF.FreeE.Tolerance 1E-3 eV
SCF.EDM.Tolerance   5E-3 eV
DM.Tolerance  1E-3
DM.Require.Energy.Convergence T
DM.NumberPulay 4
#XC.Functional GGA
#CX.Authors    PBE
UseSaveData        F
SolutionMethod     diagon
MD.TypeOfRun       CG
MD.VariableCell    F
MD.NumCGsteps      00
MD.MaxCGDispl      0.200000 Bohr
#MD.MaxStressTol    1.000000 GPa
#MD.MaxForceTol     0.010000 eV/Ang
WriteMDHistory T
WriteCoorStep T
WriteForces T
WriteCoorStep    T
WriteEigenValues T
WriteDM    F
MM.UnitsDistance Ang  # what this program prints out DO NOT CHANGE
MM.UnitsEnergy    eV  # what this program prints out DO NOT CHANGE
MM.Grimme.S6     0.75 # Grimme-paper for PBE (correct for your functional)
MM.Grimme.D     20.   # Grimme-paper (correct for your functional)
%block MM.Potentials
  1   1 Grimme     18.14      2.904 # C, 10.1002/jcc.20495
%endblock MM.Potentials
#%block ProjectedDensityOfStates
# -200.0  120.0  0.4  12800  eV
#%endblock ProjectedDensityOfStates
************************** End of input data file *****************************

reinit: -----------------------------------------------------------------------
reinit: System Name: graphite_scf
reinit: -----------------------------------------------------------------------
reinit: System Label: graphite_scf
reinit: -----------------------------------------------------------------------
Reading two-body potentials
Grimme - two-body potential between 1 and 1

initatom: Reading input for the pseudopotentials and atomic orbitals ----------
Species number:   1 Atomic number:    6 Label: C-gga

Ground state valence configuration:   2s02  2p02
Reading pseudopotential information in formatted form from C-gga.psf

Valence configuration for pseudopotential generation:
2s( 2.00) rc: 1.56
2p( 2.00) rc: 1.56
3d( 0.00) rc: 1.56
4f( 0.00) rc: 1.56
relmxkb: Read Max KB Ang. Momentum=    2 for species C-gga

<basis_specs>
===============================================================================
C-gga                Z=   6    Mass=  12.010        Charge= 0.17977+309
Lmxo=1 Lmxkb= 2    BasisType=split      Semic=F
L=0  Nsemic=0  Cnfigmx=2
          i=1  nzeta=1  polorb=0  (2s)
            splnorm:   0.15000    
               vcte:    0.0000    
               rinn:    0.0000    
               qcoe:    0.0000    
               qyuk:    0.0000    
               qwid:   0.10000E-01
                rcs:    0.0000    
            lambdas:    1.0000    
L=1  Nsemic=0  Cnfigmx=2
          i=1  nzeta=1  polorb=0  (2p)
            splnorm:   0.15000    
               vcte:    0.0000    
               rinn:    0.0000    
               qcoe:    0.0000    
               qyuk:    0.0000    
               qwid:   0.10000E-01
                rcs:    0.0000    
            lambdas:    1.0000    
-------------------------------------------------------------------------------
L=0  Nkbl=1  erefs: 0.17977+309
L=1  Nkbl=1  erefs: 0.17977+309
L=2  Nkbl=1  erefs: 0.17977+309
===============================================================================
</basis_specs>

atom: Called for C-gga                 (Z =   6)

read_vps: Pseudopotential generation method:
read_vps: ATM 3.2.2 Troullier-Martins                       
Valence charge for ps generation:    4.00000

xc_check: Exchange-correlation functional:
xc_check: Ceperley-Alder
xc_check: WARNING: Pseudopotential generated with GGA PBE functional
V l=0 = -2*Zval/r beyond r=  1.5227
V l=1 = -2*Zval/r beyond r=  1.5227
V l=2 = -2*Zval/r beyond r=  1.5227
All V_l potentials equal beyond r=  1.4851
This should be close to max(r_c) in ps generation
All pots = -2*Zval/r beyond r=  1.5227

VLOCAL1: 99.0% of the norm of Vloc inside     19.682 Ry
VLOCAL1: 99.9% of the norm of Vloc inside     44.856 Ry
atom: Maximum radius for 4*pi*r*r*local-pseudopot. charge    1.79142
atom: Maximum radius for r*vlocal+2*Zval:    1.54183
GHOST: No ghost state for L =  0
GHOST: No ghost state for L =  1
GHOST: No ghost state for L =  2

KBgen: Kleinman-Bylander projectors: 
   l= 0   rc=  1.661951   el= -0.994756   Ekb=  5.296364   kbcos=  0.313951
   l= 1   rc=  1.661951   el= -0.376633   Ekb= -4.104879   kbcos= -0.344765
   l= 2   rc=  1.747182   el=  0.002326   Ekb= -1.006421   kbcos= -0.008606

KBgen: Total number of Kleinman-Bylander projectors:    9
atom: -------------------------------------------------------------------------

atom: SANKEY-TYPE ORBITALS:

SPLIT: Orbitals with angular momentum L= 0

SPLIT: Basis orbitals for state 2s

SPLIT: PAO cut-off radius determined from an
SPLIT: energy shift=  0.000735 Ry

   izeta = 1
                 lambda =    1.000000
                     rc =    5.948690
                 energy =   -0.994108
                kinetic =    0.809152
    potential(screened) =   -1.803260
       potential(ionic) =   -5.360717

SPLIT: Orbitals with angular momentum L= 1

SPLIT: Basis orbitals for state 2p

SPLIT: PAO cut-off radius determined from an
SPLIT: energy shift=  0.000735 Ry

   izeta = 1
                 lambda =    1.000000
                     rc =    7.638387
                 energy =   -0.375915
                kinetic =    2.245823
    potential(screened) =   -2.621738
       potential(ionic) =   -5.993382
atom: Total number of Sankey-type orbitals:  4

atm_pop: Valence configuration (for local Pseudopot. screening):
 2s( 2.00)                                                            
 2p( 2.00)                                                            
Vna: chval, zval:    4.00000   4.00000

Vna:  Cut-off radius for the neutral-atom potential:   7.638387

atom: _________________________________________________________________________

prinput: Basis input ----------------------------------------------------------

PAO.BasisType split     

%block ChemicalSpeciesLabel
    1    6 C-gga                   # Species index, atomic number, species label
%endblock ChemicalSpeciesLabel

%block PAO.Basis                 # Define Basis set
C-gga                 2                    # Species label, number of l-shells
 n=2   0   1                         # n, l, Nzeta 
   5.949   
   1.000   
 n=2   1   1                         # n, l, Nzeta 
   7.638   
   1.000   
%endblock PAO.Basis

prinput: ----------------------------------------------------------------------

coor:   Atomic-coordinates input format  =     Cartesian coordinates
coor:                                          (in Angstroms)

siesta: Atomic coordinates (Bohr) and species
siesta:      0.00000   0.00000   1.77547  1        1
siesta:      0.00000   0.00000   5.32642  1        2
siesta:     -2.32814   4.03246   1.77547  1        3
siesta:     -4.65629   8.06493   5.32642  1        4
siesta:      4.65629   8.06493   1.77547  1        5
siesta:      2.32814   4.03246   5.32642  1        6
siesta:      4.65629   0.00000   1.77547  1        7
siesta:      9.31257   0.00000   5.32642  1        8
siesta:      4.65629   0.00000   5.32642  1        9
siesta:      9.31257   0.00000   1.77547  1       10
siesta:      4.65629   8.06493   5.32642  1       11
siesta:      2.32814   4.03246   1.77547  1       12
siesta:     -2.32814   4.03246   5.32642  1       13
siesta:     -4.65629   8.06493   1.77547  1       14
siesta:      0.00000   8.06493   1.77547  1       15
siesta:      6.98443   4.03246   5.32642  1       16
siesta:      6.98443   4.03246   1.77547  1       17
siesta:      0.00000   8.06493   5.32642  1       18
siesta:      0.00000   2.68831   1.77547  1       19
siesta:      6.98443   9.40908   5.32642  1       20
siesta:      4.65629  10.75324   1.77547  1       21
siesta:      2.32814   1.34415   5.32642  1       22
siesta:     -4.65629  10.75324   1.77547  1       23
siesta:     11.64072   1.34415   5.32642  1       24
siesta:     -2.32814   6.72077   1.77547  1       25
siesta:      9.31257   5.37662   5.32642  1       26
siesta:      2.32815   6.72077   1.77547  1       27
siesta:      4.65628   5.37662   5.32642  1       28
siesta:     -0.00000  10.75324   1.77547  1       29
siesta:      6.98443   1.34415   5.32642  1       30
siesta:      4.65629   2.68831   1.77547  1       31
siesta:      2.32814   9.40908   5.32642  1       32
siesta:      9.31258   2.68831   1.77547  1       33
siesta:     -2.32815   9.40908   5.32642  1       34
siesta:      6.98443   6.72077   1.77547  1       35
siesta:      0.00000   5.37662   5.32642  1       36

siesta: System type = bulk      

initatomlists: Number of atoms, orbitals, and projectors:     36   144   324

siesta: ******************** Simulation parameters ****************************
siesta:
siesta: The following are some of the parameters of the simulation.
siesta: A complete list of the parameters used, including default values,
siesta: can be found in file out.fdf
siesta:
redata: Spin configuration                          = none
redata: Number of spin components                   = 1
redata: Time-Reversal Symmetry                      = T
redata: Spin spiral                                 = F
redata: Long output                                 =   F
redata: Number of Atomic Species                    =        1
redata: Charge density info will appear in .RHO file
redata: Write Mulliken Pop.                         = NO
redata: Matel table size (NRTAB)                    =     1024
redata: Mesh Cutoff                                 =   300.0000 Ry
redata: Net charge of the system                    =     0.0000 |e|
redata: Min. number of SCF Iter                     =        0
redata: Max. number of SCF Iter                     =     1000
redata: SCF convergence failure will abort job
redata: SCF mix quantity                            = Hamiltonian
redata: Mix DM or H after convergence               =   F
redata: Recompute H after scf cycle                 =   F
redata: Mix DM in first SCF step                    =   T
redata: Write Pulay info on disk                    =   F
redata: New DM Occupancy tolerance                  = 0.000000000001
redata: No kicks to SCF
redata: DM Mixing Weight for Kicks                  =     0.5000
redata: Require Harris convergence for SCF          =   F
redata: Harris energy tolerance for SCF             =     0.000100 eV
redata: Require DM convergence for SCF              =   T
redata: DM tolerance for SCF                        =     0.001000
redata: Require EDM convergence for SCF             =   F
redata: EDM tolerance for SCF                       =     0.005000 eV
redata: Require H convergence for SCF               =   T
redata: Hamiltonian tolerance for SCF               =     0.001000 eV
redata: Require (free) Energy convergence for SCF   =   T
redata: (free) Energy tolerance for SCF             =     0.001000 eV
redata: Using Saved Data (generic)                  =   F
redata: Use continuation files for DM               =   F
redata: Neglect nonoverlap interactions             =   F
redata: Method of Calculation                       = Diagonalization
redata: Electronic Temperature                      =   299.9869 K
redata: Fix the spin of the system                  =   F
redata: Dynamics option                             = Single-point calculation
mix.SCF: Pulay mixing                            = Pulay
mix.SCF:    Variant                              = stable
mix.SCF:    History steps                        = 4
mix.SCF:    Linear mixing weight                 =     0.250000
mix.SCF:    Mixing weight                        =     0.250000
mix.SCF:    SVD condition                        = 0.1000E-07
redata: ***********************************************************************

%block SCF.Mixers
  Pulay
%endblock SCF.Mixers

%block SCF.Mixer.Pulay
  # Mixing method
  method pulay
  variant stable

  # Mixing options
  weight 0.2500
  weight.linear 0.2500
  history 4
%endblock SCF.Mixer.Pulay

DM_history_depth set to one: no extrapolation allowed by default for geometry relaxation
Size of DM history Fstack: 1
Total number of electrons:   144.000000
Total ionic charge:   144.000000

* ProcessorY, Blocksize:    4   1


* Orbital distribution balance (max,min):     8     7

k-point displ. along   1 input, could be:     0.00    0.50
k-point displ. along   2 input, could be:     0.00    0.50
k-point displ. along   3 input, could be:     0.00    0.50
 Kpoints in:           48 . Kpoints trimmed:           44

siesta: k-grid: Number of k-points =    44
siesta: k-grid: Cutoff (effective) =     7.516 Ang
siesta: k-grid: Supercell and displacements
siesta: k-grid:    4   0   0      0.000
siesta: k-grid:    0   4   0      0.000
siesta: k-grid:    0   0   4      0.000

diag: Algorithm                                     = Expert
diag: Parallel over k                               =   T
diag: Use parallel 2D distribution                  =   T
diag: Parallel block-size                           = 1
diag: Parallel distribution                         =     4 x     5
diag: Used triangular part                          = Lower
diag: Absolute tolerance                            =  0.100E-15
diag: Orthogonalization factor                      =  0.100E-05
diag: Memory factor                                 =  1.0000

superc: Internal auxiliary supercell:     5 x     5 x     5  =     125
superc: Number of atoms, orbitals, and projectors:   4500  18000  40500


ts: **************************************************************
ts: Save H and S matrices                           =    F
ts: Save DM and EDM matrices                        =    F
ts: Only save the overlap matrix S                  =    F
ts: **************************************************************

************************ Begin: TS CHECKS AND WARNINGS ************************
************************ End: TS CHECKS AND WARNINGS **************************


                     ====================================
                        Single-point calculation
                     ====================================

outcoor: Atomic coordinates (Ang):                          
    0.00000000    0.00000000    0.93954000   1       1  C-gga
    0.00000000    0.00000000    2.81862000   1       2  C-gga
   -1.23200000    2.13388659    0.93954000   1       3  C-gga
   -2.46400000    4.26777319    2.81862000   1       4  C-gga
    2.46400000    4.26777319    0.93954000   1       5  C-gga
    1.23200000    2.13388659    2.81862000   1       6  C-gga
    2.46400000    0.00000000    0.93954000   1       7  C-gga
    4.92800000    0.00000000    2.81862000   1       8  C-gga
    2.46400000    0.00000000    2.81862000   1       9  C-gga
    4.92800000    0.00000000    0.93954000   1      10  C-gga
    2.46400000    4.26777319    2.81862000   1      11  C-gga
    1.23200000    2.13388659    0.93954000   1      12  C-gga
   -1.23200000    2.13388659    2.81862000   1      13  C-gga
   -2.46400000    4.26777319    0.93954000   1      14  C-gga
    0.00000000    4.26777319    0.93954000   1      15  C-gga
    3.69600000    2.13388659    2.81862000   1      16  C-gga
    3.69600000    2.13388659    0.93954000   1      17  C-gga
    0.00000000    4.26777319    2.81862000   1      18  C-gga
    0.00000000    1.42258964    0.93954000   1      19  C-gga
    3.69600000    4.97907014    2.81862000   1      20  C-gga
    2.46400123    5.69036496    0.93954000   1      21  C-gga
    1.23199877    0.71129482    2.81862000   1      22  C-gga
   -2.46400123    5.69036496    0.93954000   1      23  C-gga
    6.16000123    0.71129482    2.81862000   1      24  C-gga
   -1.23200000    3.55647624    0.93954000   1      25  C-gga
    4.92800000    2.84518355    2.81862000   1      26  C-gga
    1.23200123    3.55647837    0.93954000   1      27  C-gga
    2.46399877    2.84518142    2.81862000   1      28  C-gga
   -0.00000123    5.69036496    0.93954000   1      29  C-gga
    3.69600123    0.71129482    2.81862000   1      30  C-gga
    2.46400000    1.42258964    0.93954000   1      31  C-gga
    1.23200000    4.97907014    2.81862000   1      32  C-gga
    4.92800123    1.42259177    0.93954000   1      33  C-gga
   -1.23200123    4.97906801    2.81862000   1      34  C-gga
    3.69599877    3.55647837    0.93954000   1      35  C-gga
    0.00000123    2.84518142    2.81862000   1      36  C-gga

superc: Internal auxiliary supercell:     5 x     5 x     5  =     125
superc: Number of atoms, orbitals, and projectors:   4500  18000  40500

outcell: Unit cell vectors (Ang):
        7.392000    0.000000    0.000000
       -3.696000    6.401660    0.000000
        0.000000    0.000000    3.758160

outcell: Cell vector modules (Ang)   :    7.392000    7.392000    3.758160
outcell: Cell angles (23,13,12) (deg):     90.0000     90.0000    120.0000
outcell: Cell volume (Ang**3)        :    177.8401
<dSpData1D:S at geom step 0
  <sparsity:sparsity for geom step 0
    nrows_g=144 nrows=8 sparsity=.6752 nnzs=14000, refcount: 7>
  <dData1D:(new from dSpData1D) n=14000, refcount: 1>
refcount: 1>
new_DM -- step:     1
Initializing Density Matrix...
DM filled with atomic data:
<dSpData2D:DM initialized from atoms
  <sparsity:sparsity for geom step 0
    nrows_g=144 nrows=8 sparsity=.6752 nnzs=14000, refcount: 8>
  <dData2D:DM n=14000 m=1, refcount: 1>
refcount: 1>
No. of atoms with KB's overlaping orbs in proc 0. Max # of overlaps:     172     374
New grid distribution:   1
           1       1:   36    1:    9    1:    4
           2       1:   36    1:    9    5:    8
           3       1:   36    1:    9    9:   12
           4       1:   36    1:    9   13:   16
           5       1:   36    1:    9   17:   20
           6       1:   36   10:   18    1:    4
           7       1:   36   10:   18    5:    8
           8       1:   36   10:   18    9:   12
           9       1:   36   10:   18   13:   16
          10       1:   36   10:   18   17:   20
          11       1:   36   19:   27    1:    4
          12       1:   36   19:   27    5:    8
          13       1:   36   19:   27    9:   12
          14       1:   36   19:   27   13:   16
          15       1:   36   19:   27   17:   20
          16       1:   36   28:   36    1:    4
          17       1:   36   28:   36    5:    8
          18       1:   36   28:   36    9:   12
          19       1:   36   28:   36   13:   16
          20       1:   36   28:   36   17:   20

InitMesh: MESH =    72 x    72 x    40 =      207360
InitMesh: (bp) =    36 x    36 x    20 =       25920
InitMesh: Mesh cutoff (required, used) =   300.000   313.091 Ry
ExtMesh (bp) on 0 =   128 x   101 x    92 =     1189376
New grid distribution:   2
           1      10:   18   25:   36    9:   20
           2      28:   36   25:   36    9:   20
           3       1:   18    1:    6    9:   20
           4      19:   36    1:    6    9:   20
           5       1:   18   28:   36    1:    8
           6      19:   36   28:   36    1:    8
           7      28:   36    7:   18    9:   20
           8       1:    9    7:   18    9:   20
           9      10:   18    7:   18    9:   20
          10      19:   27    7:   18    9:   20
          11       1:   18   19:   27    1:    8
          12      19:   36   19:   27    1:    8
          13       1:   18   19:   24    9:   20
          14      19:   36   19:   24    9:   20
          15       1:   18    1:    9    1:    8
          16      19:   36    1:    9    1:    8
          17       1:   18   10:   18    1:    8
          18       1:    9   25:   36    9:   20
          19      19:   27   25:   36    9:   20
          20      19:   36   10:   18    1:    8
New grid distribution:   3
           1      10:   18   25:   36    9:   20
           2      28:   36   25:   36    9:   20
           3       1:   18    1:    6    9:   20
           4      19:   36    1:    6    9:   20
           5       1:   18   28:   36    1:    8
           6      19:   36   28:   36    1:    8
           7      28:   36    7:   18    9:   20
           8       1:    9    7:   18    9:   20
           9      10:   18    7:   18    9:   20
          10      19:   27    7:   18    9:   20
          11       1:   18   19:   27    1:    8
          12      19:   36   19:   27    1:    8
          13       1:   18   19:   24    9:   20
          14      19:   36   19:   24    9:   20
          15       1:   18    1:    9    1:    8
          16      19:   36    1:    9    1:    8
          17       1:   18   10:   18    1:    8
          18       1:    9   25:   36    9:   20
          19      19:   27   25:   36    9:   20
          20      19:   36   10:   18    1:    8
Setting up quadratic distribution...
ExtMesh (bp) on 0 =   101 x   104 x   100 =     1050400
PhiOnMesh: Number of (b)points on node 0 =                 1296
PhiOnMesh: nlist on node 0 =               267299

stepf: Fermi-Dirac step function

siesta: Program's energy decomposition (eV):
siesta: Ebs     =     -2685.828496
siesta: Eions   =      9434.507561
siesta: Ena     =      2155.162884
siesta: Ekin    =      4142.711345
siesta: Enl     =      -410.676868
siesta: Eso     =         0.000000
siesta: Edftu   =         0.000000
siesta: DEna    =      -188.611930
siesta: DUscf   =        11.141259
siesta: DUext   =         0.000000
siesta: Exc     =     -1755.826882
siesta: eta*DQ  =         0.000000
siesta: Emadel  =         0.000000
siesta: Emeta   =         0.000000
siesta: Emolmec =        -8.224026
siesta: Ekinion =         0.000000
siesta: Eharris =     -5109.908774
siesta: Etot    =     -5488.831779
siesta: FreeEng =     -5488.848187

        iscf     Eharris(eV)        E_KS(eV)     FreeEng(eV)     dDmax    Ef(eV) dHmax(eV)
   scf:    1    -5109.908774    -5488.831779    -5488.848187  1.176660 -8.217466  0.818755
timer: Routine,Calls,Time,% = IterSCF        1       2.356  51.28
   scf:    2    -5489.371646    -5489.138249    -5489.154306  0.021698 -8.002083  0.563944
   scf:    3    -5489.170273    -5489.200294    -5489.215429  0.024422 -7.570372  0.164587
   scf:    4    -5489.260683    -5489.241576    -5489.256284  0.013547 -7.522510  0.002503
   scf:    5    -5489.241616    -5489.241609    -5489.256316  0.000374 -7.523974  0.001156
   scf:    6    -5489.241610    -5489.241610    -5489.256317  0.000088 -7.523619  0.000514

SCF Convergence by FreeE+DM+H criterion
|FreeE_i-FreeE_(i-1)| (eV) <     0.00100000
max |DM_out - DM_in|         :     0.0000882199
max |H_out - H_in|      (eV) :     0.0005137885
SCF cycle converged after 6 iterations

Using DM_out to compute the final energy and forces
No. of atoms with KB's overlaping orbs in proc 0. Max # of overlaps:     172     374

MM-Stress (kbar):       73.53       73.53       90.83        0.00        0.00       -0.00

siesta: E_KS(eV) =            -5489.2416

siesta: E_KS - E_eggbox =     -5489.2416

siesta: Atomic forces (eV/Ang):
     1    0.000000   -0.000000   -0.000000
     2    0.000000   -0.000000   -0.000000
     3    0.000061   -0.000032   -0.000000
     4   -0.000061    0.000032   -0.000000
     5   -0.000003    0.000069   -0.000000
     6    0.000003   -0.000069   -0.000000
     7   -0.000059   -0.000037   -0.000000
     8    0.000059    0.000037   -0.000000
     9   -0.000003   -0.000010   -0.000000
    10    0.000003    0.000010   -0.000000
    11   -0.000007    0.000008   -0.000000
    12    0.000007   -0.000007   -0.000000
    13    0.000011    0.000002   -0.000000
    14   -0.000010   -0.000003   -0.000000
    15   -0.000000   -0.000000   -0.000000
    16   -0.000000    0.000000   -0.000000
    17   -0.000000    0.000000   -0.000000
    18    0.000000   -0.000000   -0.000000
    19    0.000006    0.000142    0.000000
    20   -0.000006   -0.000142    0.000000
    21   -0.000126   -0.000065    0.000000
    22    0.000126    0.000066    0.000000
    23    0.000120   -0.000076    0.000000
    24   -0.000120    0.000077    0.000000
    25    0.000012    0.000101    0.000000
    26   -0.000012   -0.000102    0.000000
    27   -0.000094   -0.000041    0.000000
    28    0.000094    0.000040    0.000000
    29    0.000082   -0.000060    0.000000
    30   -0.000082    0.000061    0.000000
    31    0.000027    0.000116    0.000000
    32   -0.000027   -0.000115    0.000000
    33   -0.000113   -0.000034    0.000000
    34    0.000113    0.000034    0.000000
    35    0.000086   -0.000081    0.000000
    36   -0.000086    0.000080    0.000000
----------------------------------------
   Tot   -0.000000   -0.000001    0.000000
----------------------------------------
   Max    0.000142
   Res    0.000052    sqrt( Sum f_i^2 / 3N )
----------------------------------------
   Max    0.000142    constrained

Stress tensor Voigt[x,y,z,yz,xz,xy] (kbar):     -444.38     -444.38    -2608.97       -0.00       -0.00        0.00
(Free)E + p*V (eV/cell)    -5359.8428
Target enthalpy (eV/cell)    -5489.2563

siesta: Eigenvalues (eV):
  ik is       eps
   1  1  -31.8620  -31.1088  -31.1088  -28.9594  -28.9594  -27.6333  -27.0733  -27.0733  -26.2818  -24.9126
         -24.8684  -24.6941  -24.6941  -24.3532  -24.3532  -22.7695  -22.7695  -22.2975  -22.0610  -21.4577
  -21.2597  -21.2597  -21.0099  -21.0099  -20.7758  -20.7758  -20.7427  -20.6980  -20.0328  -19.5393
  -19.5393  -19.3940  -19.3940  -19.1703  -18.7093  -18.7093  -18.2259  -18.2259  -17.9413  -17.9413
  -17.3976  -17.2534  -17.0365  -17.0365  -16.7001  -16.5310  -16.5309  -16.5198  -16.5198  -16.4241
  -15.9461  -15.8709  -15.3510  -15.3510  -15.2727  -14.9071  -14.9071  -14.2492  -14.2492  -13.4004
  -13.4004  -13.0455  -12.7028  -11.8264  -11.8264  -11.7265   -9.3942   -8.2555   -8.2555   -7.7009
   -6.5976   -6.4154   -6.4154   -6.2639   -6.2639   -6.2618   -5.2171   -5.2171   -4.1745   -4.1745
   -2.5660   -2.0873   -2.0873   -0.5935   -0.5934    0.1361    0.1436    0.3945    0.5935    0.6341
    0.6341    0.7853    0.8412    0.8412    1.2166    1.2166    2.1734    2.1734    3.0151    3.0184
    3.0184    3.1821    3.4798    3.7196    4.0517    4.1221    4.1221    4.4174    4.4174    4.5459
    4.5460    4.7618    5.6484    5.6484    5.8566    6.1922    6.1922    6.3746    6.3746    7.1161
    7.9309    8.2032    8.2032    8.4774    8.8574    8.8574    8.9581    9.9464    9.9464   10.3739
   11.1280   11.1280   11.9019   11.9019   12.8901   12.8901   13.3507   13.3507   13.7829   13.7829
   13.9115   14.3562   14.5399   14.5484
   2  1  -32.2446  -30.7385  -30.0119  -30.0119  -28.6206  -28.6206  -27.9672  -26.1806  -26.1806  -25.1935
         -24.0764  -23.8862  -23.8703  -23.8703  -23.5335  -23.5335  -22.9266  -22.9266  -22.1305  -22.1305
  -22.1090  -22.1090  -21.7956  -21.7508  -20.4328  -20.3064  -20.3064  -20.0582  -20.0582  -19.7428
  -19.7428  -19.1544  -18.6963  -18.5586  -18.5586  -18.3909  -18.3909  -18.2976  -18.2976  -17.7906
  -17.5488  -17.4984  -17.4984  -17.4583  -17.4583  -17.2045  -17.2045  -16.2689  -16.1768  -16.1768
  -15.8606  -15.8606  -15.1845  -14.6236  -14.6236  -14.6174  -14.4134  -14.2145  -14.0906  -14.0906
  -13.3835  -12.5105  -12.2490  -11.0551  -10.7118  -10.7118   -9.7532   -9.7532   -8.3434   -8.3434
   -7.3662   -7.3662   -6.6554   -6.3353   -5.2784   -5.2784   -5.2443   -5.2443   -4.7622   -4.5290
   -2.9885   -1.9108   -1.8098   -1.8098   -1.6270   -1.2882   -1.2882   -0.4350    0.3773    0.6190
    0.6190    0.8300    1.0767    1.0767    1.4816    1.9222    1.9222    2.3866    2.5454    2.6254
    3.3790    3.3790    3.7189    3.9906    4.3668    4.3668    4.5155    4.5155    4.6674    5.0384
    5.1276    5.1276    6.2451    6.3047    6.5623    6.5623    7.2397    7.8019    7.8019    7.9948
    7.9948    7.9950    7.9950    9.1106    9.1106    9.4697    9.4953    9.4953   10.0311   10.0311
   10.0596   11.0360   11.0360   11.2208   11.6627   11.6627   11.8366   12.8792   12.8792   13.0552
   14.9908   14.9908   15.1207   15.1207
   3  1  -32.2446  -30.7385  -30.0119  -30.0119  -28.6206  -28.6206  -27.9672  -26.1806  -26.1806  -25.1935
         -24.0764  -23.8862  -23.8703  -23.8703  -23.5335  -23.5335  -22.9266  -22.9266  -22.1305  -22.1305
  -22.1090  -22.1090  -21.7956  -21.7508  -20.4328  -20.3064  -20.3064  -20.0582  -20.0582  -19.7428
  -19.7428  -19.1544  -18.6963  -18.5586  -18.5586  -18.3909  -18.3909  -18.2976  -18.2976  -17.7906
  -17.5488  -17.4984  -17.4984  -17.4583  -17.4583  -17.2045  -17.2045  -16.2689  -16.1768  -16.1768
  -15.8606  -15.8606  -15.1845  -14.6236  -14.6236  -14.6174  -14.4134  -14.2145  -14.0906  -14.0906
  -13.3835  -12.5105  -12.2490  -11.0551  -10.7118  -10.7118   -9.7532   -9.7532   -8.3434   -8.3434
   -7.3662   -7.3662   -6.6554   -6.3353   -5.2784   -5.2784   -5.2443   -5.2443   -4.7622   -4.5290
   -2.9885   -1.9108   -1.8098   -1.8098   -1.6270   -1.2882   -1.2882   -0.4350    0.3773    0.6190
    0.6190    0.8300    1.0767    1.0767    1.4816    1.9222    1.9222    2.3866    2.5454    2.6254
    3.3790    3.3790    3.7189    3.9906    4.3668    4.3668    4.5155    4.5155    4.6674    5.0384
    5.1276    5.1276    6.2451    6.3047    6.5623    6.5623    7.2397    7.8019    7.8019    7.9948
    7.9948    7.9950    7.9950    9.1106    9.1106    9.4697    9.4953    9.4953   10.0311   10.0311
   10.0596   11.0360   11.0360   11.2208   11.6627   11.6627   11.8366   12.8792   12.8792   13.0552
   14.9908   14.9908   15.1207   15.1207
   4  1  -31.8620  -31.1088  -31.1088  -28.9594  -28.9594  -27.6333  -27.0733  -27.0733  -26.2818  -24.9126
         -24.8684  -24.6941  -24.6941  -24.3532  -24.3532  -22.7695  -22.7695  -22.2975  -22.0610  -21.4577
  -21.2597  -21.2597  -21.0099  -21.0099  -20.7758  -20.7758  -20.7427  -20.6980  -20.0328  -19.5393
  -19.5393  -19.3940  -19.3940  -19.1703  -18.7093  -18.7093  -18.2259  -18.2259  -17.9413  -17.9413
  -17.3976  -17.2534  -17.0365  -17.0365  -16.7001  -16.5310  -16.5309  -16.5198  -16.5198  -16.4241
  -15.9461  -15.8709  -15.3510  -15.3510  -15.2727  -14.9071  -14.9071  -14.2492  -14.2492  -13.4004
  -13.4004  -13.0455  -12.7028  -11.8264  -11.8264  -11.7265   -9.3942   -8.2555   -8.2555   -7.7009
   -6.5976   -6.4154   -6.4154   -6.2639   -6.2639   -6.2618   -5.2171   -5.2171   -4.1745   -4.1745
   -2.5660   -2.0873   -2.0873   -0.5935   -0.5934    0.1361    0.1436    0.3945    0.5935    0.6341
    0.6341    0.7853    0.8412    0.8412    1.2166    1.2166    2.1734    2.1734    3.0151    3.0184
    3.0184    3.1821    3.4798    3.7196    4.0517    4.1221    4.1221    4.4174    4.4174    4.5459
    4.5460    4.7618    5.6484    5.6484    5.8566    6.1922    6.1922    6.3746    6.3746    7.1161
    7.9309    8.2032    8.2032    8.4774    8.8574    8.8574    8.9581    9.9464    9.9464   10.3739
   11.1280   11.1280   11.9019   11.9019   12.8901   12.8901   13.3507   13.3507   13.7829   13.7829
   13.9115   14.3562   14.5399   14.5484
   5  1  -32.2446  -30.7385  -30.0119  -30.0119  -28.6206  -28.6206  -27.9672  -26.1806  -26.1806  -25.1935
         -24.0764  -23.8862  -23.8703  -23.8703  -23.5335  -23.5335  -22.9266  -22.9266  -22.1305  -22.1305
  -22.1090  -22.1090  -21.7956  -21.7508  -20.4328  -20.3064  -20.3064  -20.0582  -20.0582  -19.7428
  -19.7428  -19.1544  -18.6963  -18.5586  -18.5586  -18.3909  -18.3909  -18.2976  -18.2976  -17.7906
  -17.5488  -17.4984  -17.4984  -17.4583  -17.4583  -17.2045  -17.2045  -16.2689  -16.1768  -16.1768
  -15.8606  -15.8606  -15.1845  -14.6236  -14.6236  -14.6174  -14.4134  -14.2145  -14.0906  -14.0906
  -13.3835  -12.5105  -12.2490  -11.0551  -10.7118  -10.7118   -9.7532   -9.7532   -8.3434   -8.3434
   -7.3662   -7.3662   -6.6554   -6.3353   -5.2784   -5.2784   -5.2443   -5.2443   -4.7622   -4.5290
   -2.9885   -1.9108   -1.8098   -1.8098   -1.6270   -1.2882   -1.2882   -0.4350    0.3773    0.6190
    0.6190    0.8300    1.0767    1.0767    1.4816    1.9222    1.9222    2.3866    2.5454    2.6254
    3.3790    3.3790    3.7189    3.9906    4.3668    4.3668    4.5155    4.5155    4.6674    5.0384
    5.1276    5.1276    6.2451    6.3047    6.5623    6.5623    7.2397    7.8019    7.8019    7.9948
    7.9948    7.9950    7.9950    9.1106    9.1106    9.4697    9.4953    9.4953   10.0311   10.0311
   10.0596   11.0360   11.0360   11.2208   11.6627   11.6627   11.8366   12.8792   12.8792   13.0552
   14.9908   14.9908   15.1207   15.1207
   6  1  -32.4373  -29.4798  -29.4798  -29.4798  -29.4798  -29.4798  -29.4798  -25.3452  -25.3452  -25.3339
         -23.5622  -23.5622  -23.5622  -23.5622  -23.1622  -23.1622  -23.1622  -23.1622  -23.1622  -23.1622
  -21.9637  -21.5069  -21.5069  -21.5069  -21.5069  -21.5069  -21.5069  -19.2310  -19.2310  -19.2310
  -19.2310  -19.2310  -19.2310  -19.2307  -19.2307  -18.4596  -18.4596  -18.4596  -18.4596  -17.0591
  -17.0591  -17.0591  -17.0591  -17.0591  -17.0591  -16.9412  -16.9412  -16.9412  -16.9412  -16.9412
  -16.9412  -15.6581  -15.6581  -14.0023  -14.0023  -14.0023  -14.0023  -14.0023  -14.0023  -13.6887
  -13.6887  -12.1567  -12.1567   -9.9638   -9.9638   -9.9638   -9.9638   -8.6306   -8.6306   -8.6306
   -8.6306   -8.6306   -8.6306   -6.3836   -4.8864   -4.8864   -4.8864   -4.8864   -4.8864   -4.8864
   -2.5614   -2.5614   -2.5614   -2.5614   -2.5614   -2.5614   -1.1260   -0.2697   -0.2697    0.5987
    0.5987    1.0944    1.5604    1.5604    1.5604    1.5604    1.5604    1.5605    1.6683    1.6683
    3.9273    3.9273    3.9273    3.9273    3.9273    3.9273    4.9991    5.1561    5.1561    5.9391
    7.0045    7.0045    7.0045    7.0045    7.8810    7.8810    7.8810    7.8811    7.8811    7.8811
    9.2394    9.2394    9.2394    9.2394    9.2394    9.2394    9.4962    9.4962    9.6076    9.6076
    9.6076    9.6076    9.6076    9.6076   11.5731   11.5731   11.5731   11.5731   11.5731   11.5731
   15.4228   15.4228   15.4228   15.4228
   7  1  -31.6722  -31.6722  -30.1919  -30.1919  -27.4828  -27.4828  -27.4828  -27.4828  -26.7270  -25.3147
         -24.7723  -24.7723  -23.6657  -23.6657  -23.4849  -23.4849  -23.4849  -23.4849  -21.4920  -21.4920
  -21.4920  -21.4920  -21.2881  -21.2880  -20.3622  -20.3038  -19.9205  -19.9205  -19.9205  -19.9204
  -19.9138  -19.9138  -19.3227  -19.3227  -18.3131  -18.3131  -18.1234  -18.1234  -18.1234  -18.1234
  -17.7139  -17.2889  -17.2889  -17.2889  -17.2889  -16.8854  -16.7085  -16.7085  -15.7964  -15.7964
  -15.7964  -15.7964  -15.2521  -15.2521  -15.1001  -15.1001  -14.5556  -14.5459  -14.5459  -13.6102
  -13.6102  -12.7076  -12.7076  -12.3542  -10.5287  -10.5287  -10.5287  -10.5287   -6.5431   -6.5431
   -6.5431   -6.5431   -6.3492   -6.3492   -6.2574   -6.2573   -5.9537   -5.9537   -4.6891   -3.1372
   -2.9883   -2.9883   -1.1331   -1.1331    0.5118    0.5119    0.5119    0.5119    0.5708    0.7401
    0.7401    0.7401    0.7401    1.0473    1.0473    2.0203    2.0203    2.0401    2.0401    2.2942
    2.2942    3.0629    3.0629    3.6475    3.6475    3.7772    3.7773    4.0031    4.6656    4.6656
    5.7272    5.7272    5.7272    5.7272    5.7889    5.7889    6.2800    6.2800    7.5064    7.5065
    7.8474    7.8474    7.8475    7.8475    9.2652    9.2652    9.8404    9.8404    9.8404    9.8404
   10.9019   10.9173   10.9173   11.7659   13.1614   13.3157   13.7407   13.7407   13.7407   13.7407
   14.2150   14.2150   14.2150   14.2151
   8  1  -31.8620  -31.1088  -31.1088  -28.9594  -28.9594  -27.6333  -27.0733  -27.0733  -26.2818  -24.9126
         -24.8684  -24.6941  -24.6941  -24.3532  -24.3532  -22.7695  -22.7695  -22.2975  -22.0610  -21.4577
  -21.2597  -21.2597  -21.0099  -21.0099  -20.7758  -20.7758  -20.7427  -20.6980  -20.0328  -19.5393
  -19.5393  -19.3940  -19.3940  -19.1703  -18.7093  -18.7093  -18.2259  -18.2259  -17.9413  -17.9413
  -17.3976  -17.2534  -17.0365  -17.0365  -16.7001  -16.5310  -16.5309  -16.5198  -16.5198  -16.4241
  -15.9461  -15.8709  -15.3510  -15.3510  -15.2727  -14.9071  -14.9071  -14.2492  -14.2492  -13.4004
  -13.4004  -13.0455  -12.7028  -11.8264  -11.8264  -11.7265   -9.3942   -8.2555   -8.2555   -7.7009
   -6.5976   -6.4154   -6.4154   -6.2639   -6.2639   -6.2618   -5.2171   -5.2171   -4.1745   -4.1745
   -2.5660   -2.0873   -2.0873   -0.5935   -0.5934    0.1361    0.1436    0.3945    0.5935    0.6341
    0.6341    0.7853    0.8412    0.8412    1.2166    1.2166    2.1734    2.1734    3.0151    3.0184
    3.0184    3.1821    3.4798    3.7196    4.0517    4.1221    4.1221    4.4174    4.4174    4.5459
    4.5460    4.7618    5.6484    5.6484    5.8566    6.1922    6.1922    6.3746    6.3746    7.1161
    7.9309    8.2032    8.2032    8.4774    8.8574    8.8574    8.9581    9.9464    9.9464   10.3739
   11.1280   11.1280   11.9019   11.9019   12.8901   12.8901   13.3507   13.3507   13.7829   13.7829
   13.9115   14.3562   14.5399   14.5484
   9  1  -31.8620  -31.1088  -31.1088  -28.9594  -28.9594  -27.6333  -27.0733  -27.0733  -26.2818  -24.9126
         -24.8684  -24.6941  -24.6941  -24.3532  -24.3532  -22.7695  -22.7695  -22.2975  -22.0610  -21.4577
  -21.2597  -21.2597  -21.0099  -21.0099  -20.7758  -20.7758  -20.7427  -20.6980  -20.0328  -19.5393
  -19.5393  -19.3940  -19.3940  -19.1703  -18.7093  -18.7093  -18.2259  -18.2259  -17.9413  -17.9413
  -17.3976  -17.2534  -17.0365  -17.0365  -16.7001  -16.5310  -16.5309  -16.5198  -16.5198  -16.4241
  -15.9461  -15.8709  -15.3510  -15.3510  -15.2727  -14.9071  -14.9071  -14.2492  -14.2492  -13.4004
  -13.4004  -13.0455  -12.7028  -11.8264  -11.8264  -11.7265   -9.3942   -8.2555   -8.2555   -7.7009
   -6.5976   -6.4154   -6.4154   -6.2639   -6.2639   -6.2618   -5.2171   -5.2171   -4.1745   -4.1745
   -2.5660   -2.0873   -2.0873   -0.5935   -0.5934    0.1361    0.1436    0.3945    0.5935    0.6341
    0.6341    0.7853    0.8412    0.8412    1.2166    1.2166    2.1734    2.1734    3.0151    3.0184
    3.0184    3.1821    3.4798    3.7196    4.0517    4.1221    4.1221    4.4174    4.4174    4.5459
    4.5460    4.7618    5.6484    5.6484    5.8566    6.1922    6.1922    6.3746    6.3746    7.1161
    7.9309    8.2032    8.2032    8.4774    8.8574    8.8574    8.9581    9.9464    9.9464   10.3739
   11.1280   11.1280   11.9019   11.9019   12.8901   12.8901   13.3507   13.3507   13.7829   13.7829
   13.9115   14.3562   14.5399   14.5484
  10  1  -31.6722  -31.6722  -30.1919  -30.1919  -27.4828  -27.4828  -27.4828  -27.4828  -26.7270  -25.3147
         -24.7723  -24.7723  -23.6657  -23.6657  -23.4849  -23.4849  -23.4849  -23.4849  -21.4920  -21.4920
  -21.4920  -21.4920  -21.2881  -21.2880  -20.3622  -20.3038  -19.9205  -19.9205  -19.9205  -19.9204
  -19.9138  -19.9138  -19.3227  -19.3227  -18.3131  -18.3131  -18.1234  -18.1234  -18.1234  -18.1234
  -17.7139  -17.2889  -17.2889  -17.2889  -17.2889  -16.8854  -16.7085  -16.7085  -15.7964  -15.7964
  -15.7964  -15.7964  -15.2521  -15.2521  -15.1001  -15.1001  -14.5556  -14.5459  -14.5459  -13.6102
  -13.6102  -12.7076  -12.7076  -12.3542  -10.5287  -10.5287  -10.5287  -10.5287   -6.5431   -6.5431
   -6.5431   -6.5431   -6.3492   -6.3492   -6.2574   -6.2573   -5.9537   -5.9537   -4.6891   -3.1372
   -2.9883   -2.9883   -1.1331   -1.1331    0.5118    0.5119    0.5119    0.5119    0.5708    0.7401
    0.7401    0.7401    0.7401    1.0473    1.0473    2.0203    2.0203    2.0401    2.0401    2.2942
    2.2942    3.0629    3.0629    3.6475    3.6475    3.7772    3.7773    4.0031    4.6656    4.6656
    5.7272    5.7272    5.7272    5.7272    5.7889    5.7889    6.2800    6.2800    7.5064    7.5065
    7.8474    7.8474    7.8475    7.8475    9.2652    9.2652    9.8404    9.8404    9.8404    9.8404
   10.9019   10.9173   10.9173   11.7659   13.1614   13.3158   13.7407   13.7407   13.7407   13.7407
   14.2150   14.2150   14.2150   14.2151
  11  1  -31.8620  -31.1088  -31.1088  -28.9594  -28.9594  -27.6333  -27.0733  -27.0733  -26.2818  -24.9126
         -24.8684  -24.6941  -24.6941  -24.3532  -24.3532  -22.7695  -22.7695  -22.2975  -22.0610  -21.4577
  -21.2597  -21.2597  -21.0099  -21.0099  -20.7758  -20.7758  -20.7427  -20.6980  -20.0328  -19.5393
  -19.5393  -19.3940  -19.3940  -19.1703  -18.7093  -18.7093  -18.2259  -18.2259  -17.9413  -17.9413
  -17.3976  -17.2534  -17.0365  -17.0365  -16.7001  -16.5310  -16.5309  -16.5198  -16.5198  -16.4241
  -15.9461  -15.8709  -15.3510  -15.3510  -15.2727  -14.9071  -14.9071  -14.2492  -14.2492  -13.4004
  -13.4004  -13.0455  -12.7028  -11.8264  -11.8264  -11.7265   -9.3942   -8.2555   -8.2555   -7.7009
   -6.5976   -6.4154   -6.4154   -6.2639   -6.2639   -6.2618   -5.2171   -5.2171   -4.1745   -4.1745
   -2.5660   -2.0873   -2.0873   -0.5935   -0.5934    0.1361    0.1436    0.3945    0.5935    0.6341
    0.6341    0.7853    0.8412    0.8412    1.2166    1.2166    2.1734    2.1734    3.0151    3.0184
    3.0184    3.1821    3.4798    3.7196    4.0517    4.1221    4.1221    4.4174    4.4174    4.5459
    4.5460    4.7618    5.6484    5.6484    5.8566    6.1922    6.1922    6.3746    6.3746    7.1161
    7.9309    8.2032    8.2032    8.4774    8.8574    8.8574    8.9581    9.9464    9.9464   10.3739
   11.1280   11.1280   11.9019   11.9019   12.8901   12.8901   13.3507   13.3507   13.7829   13.7829
   13.9115   14.3562   14.5399   14.5484
  12  1  -31.6722  -31.6722  -30.1919  -30.1919  -27.4828  -27.4828  -27.4828  -27.4828  -26.7270  -25.3147
         -24.7723  -24.7723  -23.6657  -23.6657  -23.4849  -23.4849  -23.4849  -23.4849  -21.4920  -21.4920
  -21.4920  -21.4920  -21.2881  -21.2880  -20.3622  -20.3038  -19.9205  -19.9205  -19.9205  -19.9204
  -19.9138  -19.9138  -19.3227  -19.3227  -18.3131  -18.3131  -18.1234  -18.1234  -18.1234  -18.1234
  -17.7139  -17.2889  -17.2889  -17.2889  -17.2889  -16.8854  -16.7085  -16.7085  -15.7964  -15.7964
  -15.7964  -15.7964  -15.2521  -15.2521  -15.1001  -15.1001  -14.5556  -14.5459  -14.5459  -13.6102
  -13.6102  -12.7076  -12.7076  -12.3542  -10.5287  -10.5287  -10.5287  -10.5287   -6.5431   -6.5431
   -6.5431   -6.5431   -6.3492   -6.3492   -6.2574   -6.2573   -5.9537   -5.9537   -4.6891   -3.1372
   -2.9883   -2.9883   -1.1331   -1.1331    0.5118    0.5119    0.5119    0.5119    0.5708    0.7401
    0.7401    0.7401    0.7401    1.0473    1.0473    2.0203    2.0203    2.0401    2.0401    2.2942
    2.2942    3.0629    3.0629    3.6475    3.6475    3.7772    3.7773    4.0031    4.6656    4.6656
    5.7272    5.7272    5.7272    5.7272    5.7889    5.7889    6.2800    6.2800    7.5064    7.5065
    7.8474    7.8474    7.8475    7.8475    9.2652    9.2652    9.8404    9.8404    9.8404    9.8404
   10.9019   10.9173   10.9173   11.7659   13.1614   13.3157   13.7407   13.7407   13.7407   13.7407
   14.2150   14.2150   14.2150   14.2151
  13  1  -31.3018  -30.5603  -30.5603  -28.4445  -28.4445  -27.1532  -27.1378  -26.5839  -26.5839  -26.5058
         -26.5058  -25.7989  -24.6477  -24.6477  -24.4481  -24.2984  -24.2984  -23.5095  -22.7682  -22.7682
  -22.0078  -21.8869  -21.3490  -20.9244  -20.9244  -20.8909  -20.8909  -20.8240  -19.3680  -19.1957
  -19.1957  -18.5112  -18.3129  -17.9422  -17.9422  -17.8431  -17.8430  -17.6521  -17.6215  -17.6215
  -17.4923  -17.4923  -16.8442  -16.2105  -16.2105  -16.1585  -16.1585  -15.5969  -15.5969  -15.5445
  -15.5218  -15.5218  -14.9501  -14.8654  -14.8654  -14.3873  -14.0585  -14.0585  -13.9323  -13.9323
  -13.4924  -13.4660  -13.1096  -10.1923  -10.1923  -10.0608   -8.3879   -8.0624   -8.0624   -7.9458
   -7.6859   -7.6859   -7.5271   -6.4700   -6.4700   -6.4209   -5.7678   -5.7678   -3.8442   -3.8441
   -3.5034   -3.5034   -2.8872   -2.4750   -2.2685   -1.9077   -1.9077   -1.1000   -1.1000   -0.4608
    0.5398    0.5398    0.7776    1.7973    1.7973    2.0512    2.2717    2.5308    2.5308    3.1656
    3.1793    3.1793    3.3650    4.1283    4.1283    4.2525    4.2525    4.3230    4.6629    4.6629
    4.9894    5.2169    5.2987    5.2987    5.3486    6.4198    6.4198    6.8204    6.8204    6.9181
    7.7320    7.8608    7.8608    8.1253    8.6151    8.6151    9.2343   10.1597   10.1597   10.1810
   10.9685   10.9685   12.0619   12.0619   12.7582   12.7582   13.4421   13.4421   13.7350   13.7350
   13.9792   14.2916   14.5477   14.5512
  14  1  -31.6786  -30.1958  -29.4807  -29.4807  -28.1109  -28.1109  -27.4813  -27.4669  -26.1868  -25.7022
         -25.7022  -25.5593  -25.5593  -24.3657  -24.3657  -23.9439  -23.4731  -23.4731  -23.1247  -22.2351
  -22.2351  -22.1545  -22.1545  -21.4783  -21.4783  -20.1037  -19.9211  -19.9211  -19.7569  -19.7569
  -19.1547  -19.1547  -18.7846  -18.5905  -18.2738  -18.2738  -17.6381  -17.6381  -17.5630  -17.5630
  -17.4845  -17.1865  -16.7703  -16.7703  -16.2635  -16.2635  -15.9197  -15.8590  -15.4511  -15.4511
  -15.1592  -15.1592  -14.9906  -14.7922  -14.6952  -14.6952  -14.3297  -13.9363  -13.8917  -13.2429
  -13.2429  -12.8210  -12.5386   -9.6237   -9.1860   -9.1860   -8.6448   -8.6448   -8.5707   -7.9667
   -7.8122   -7.8122   -7.5869   -7.5869   -6.0563   -6.0563   -5.7899   -5.4335   -5.4335   -4.6222
   -3.6672   -2.8688   -2.8688   -2.5419   -2.5419   -1.9955   -1.9955   -1.9675   -1.6548   -0.2374
    0.2933    0.5313    0.8813    0.9391    0.9391    1.5859    1.5859    1.7099    2.0568    2.0785
    3.6947    3.7006    4.0583    4.0583    4.1519    4.1519    4.4698    4.4698    5.0941    5.3001
    5.8487    5.8487    6.1637    6.4435    6.4435    6.8601    7.1628    7.6550    7.6550    7.9097
    7.9097    8.4020    8.4020    9.1589    9.1589    9.2117    9.4716    9.4716    9.7704    9.7704
   10.2229   10.8177   10.8177   11.0441   11.8847   11.8847   12.1041   12.7286   12.7286   12.9207
   15.0085   15.0085   15.0999   15.0999
  15  1  -31.6786  -30.1958  -29.4807  -29.4807  -28.1109  -28.1109  -27.4813  -27.4669  -26.1868  -25.7022
         -25.7022  -25.5593  -25.5593  -24.3657  -24.3657  -23.9439  -23.4731  -23.4731  -23.1247  -22.2351
  -22.2351  -22.1545  -22.1545  -21.4783  -21.4783  -20.1037  -19.9211  -19.9211  -19.7569  -19.7569
  -19.1547  -19.1547  -18.7846  -18.5905  -18.2738  -18.2738  -17.6381  -17.6381  -17.5630  -17.5630
  -17.4845  -17.1865  -16.7703  -16.7703  -16.2635  -16.2635  -15.9197  -15.8590  -15.4511  -15.4511
  -15.1592  -15.1592  -14.9906  -14.7922  -14.6952  -14.6952  -14.3297  -13.9363  -13.8917  -13.2429
  -13.2429  -12.8210  -12.5386   -9.6237   -9.1860   -9.1860   -8.6448   -8.6448   -8.5707   -7.9667
   -7.8122   -7.8122   -7.5869   -7.5869   -6.0563   -6.0563   -5.7899   -5.4335   -5.4335   -4.6222
   -3.6672   -2.8688   -2.8688   -2.5419   -2.5419   -1.9955   -1.9955   -1.9675   -1.6548   -0.2374
    0.2933    0.5313    0.8813    0.9391    0.9391    1.5859    1.5859    1.7099    2.0568    2.0785
    3.6947    3.7006    4.0583    4.0583    4.1519    4.1519    4.4698    4.4698    5.0941    5.3001
    5.8487    5.8487    6.1637    6.4435    6.4435    6.8601    7.1628    7.6550    7.6550    7.9097
    7.9097    8.4020    8.4020    9.1589    9.1589    9.2117    9.4716    9.4716    9.7704    9.7704
   10.2229   10.8177   10.8177   11.0441   11.8847   11.8847   12.1041   12.7286   12.7286   12.9207
   15.0085   15.0085   15.0999   15.0999
  16  1  -31.3018  -30.5603  -30.5603  -28.4445  -28.4445  -27.1532  -27.1378  -26.5839  -26.5839  -26.5058
         -26.5058  -25.7989  -24.6477  -24.6477  -24.4481  -24.2984  -24.2984  -23.5095  -22.7682  -22.7682
  -22.0078  -21.8869  -21.3490  -20.9244  -20.9244  -20.8909  -20.8909  -20.8240  -19.3680  -19.1957
  -19.1957  -18.5112  -18.3129  -17.9422  -17.9422  -17.8431  -17.8430  -17.6521  -17.6215  -17.6215
  -17.4923  -17.4923  -16.8442  -16.2105  -16.2105  -16.1585  -16.1585  -15.5969  -15.5969  -15.5445
  -15.5218  -15.5218  -14.9501  -14.8654  -14.8654  -14.3873  -14.0585  -14.0585  -13.9323  -13.9323
  -13.4924  -13.4660  -13.1096  -10.1923  -10.1923  -10.0608   -8.3879   -8.0624   -8.0624   -7.9458
   -7.6859   -7.6859   -7.5271   -6.4700   -6.4700   -6.4209   -5.7678   -5.7678   -3.8442   -3.8441
   -3.5034   -3.5034   -2.8872   -2.4750   -2.2685   -1.9077   -1.9077   -1.1000   -1.1000   -0.4608
    0.5398    0.5398    0.7776    1.7973    1.7973    2.0512    2.2717    2.5308    2.5308    3.1656
    3.1793    3.1793    3.3650    4.1283    4.1283    4.2525    4.2525    4.3230    4.6629    4.6629
    4.9894    5.2169    5.2987    5.2987    5.3486    6.4198    6.4198    6.8204    6.8204    6.9181
    7.7320    7.8608    7.8608    8.1253    8.6151    8.6151    9.2343   10.1597   10.1597   10.1810
   10.9685   10.9685   12.0619   12.0619   12.7582   12.7582   13.4421   13.4421   13.7350   13.7350
   13.9792   14.2916   14.5477   14.5512
  17  1  -31.6786  -30.1958  -29.4807  -29.4807  -28.1109  -28.1109  -27.4813  -27.4669  -26.1868  -25.7022
         -25.7022  -25.5593  -25.5593  -24.3657  -24.3657  -23.9439  -23.4731  -23.4731  -23.1247  -22.2351
  -22.2351  -22.1545  -22.1545  -21.4783  -21.4783  -20.1037  -19.9211  -19.9211  -19.7569  -19.7569
  -19.1547  -19.1547  -18.7846  -18.5905  -18.2738  -18.2738  -17.6381  -17.6381  -17.5630  -17.5630
  -17.4845  -17.1865  -16.7703  -16.7703  -16.2635  -16.2635  -15.9197  -15.8590  -15.4511  -15.4511
  -15.1592  -15.1592  -14.9906  -14.7922  -14.6952  -14.6952  -14.3297  -13.9363  -13.8917  -13.2429
  -13.2429  -12.8210  -12.5386   -9.6237   -9.1860   -9.1860   -8.6448   -8.6448   -8.5707   -7.9667
   -7.8122   -7.8122   -7.5869   -7.5869   -6.0563   -6.0563   -5.7899   -5.4335   -5.4335   -4.6222
   -3.6672   -2.8688   -2.8688   -2.5419   -2.5419   -1.9955   -1.9955   -1.9675   -1.6548   -0.2374
    0.2933    0.5313    0.8813    0.9391    0.9391    1.5859    1.5859    1.7099    2.0568    2.0785
    3.6947    3.7006    4.0583    4.0583    4.1519    4.1519    4.4698    4.4698    5.0941    5.3001
    5.8487    5.8487    6.1637    6.4435    6.4435    6.8601    7.1628    7.6550    7.6550    7.9097
    7.9097    8.4020    8.4020    9.1589    9.1589    9.2117    9.4716    9.4716    9.7704    9.7704
   10.2229   10.8177   10.8177   11.0441   11.8847   11.8847   12.1041   12.7286   12.7286   12.9207
   15.0085   15.0085   15.0999   15.0999
  18  1  -31.8684  -28.9570  -28.9570  -28.9570  -28.9570  -28.9570  -28.9570  -27.6465  -25.1001  -25.1001
         -25.1001  -25.1001  -25.1001  -25.1001  -24.8681  -24.8681  -23.1760  -23.1760  -23.1760  -23.1760
  -21.2227  -21.2227  -21.1433  -21.1433  -21.1433  -21.1433  -21.1433  -21.1433  -19.5717  -19.5717
  -19.5717  -19.5717  -18.7287  -18.2135  -18.2135  -18.2135  -18.2135  -18.2135  -18.2135  -16.7002
  -16.7002  -16.7002  -16.7002  -16.7002  -16.7002  -16.0565  -16.0565  -16.0565  -16.0565  -16.0565
  -16.0565  -14.5568  -14.5568  -14.5568  -14.5568  -14.5568  -14.5568  -13.4504  -13.4504  -12.7378
  -12.7378  -12.3554  -12.3554   -8.6855   -8.6855   -8.6855   -8.6855   -8.6662   -8.1433   -8.1433
   -8.1433   -8.1433   -8.1433   -8.1433   -5.8832   -5.8832   -5.8832   -5.8832   -5.8832   -5.8832
   -2.8754   -2.8754   -2.8754   -2.8754   -2.8754   -2.8754   -2.5290   -2.5290   -0.9262   -0.1789
   -0.1789    0.5913    0.9504    0.9504    0.9504    0.9504    0.9504    0.9504    1.2068    1.2068
    3.7540    3.7540    3.7540    3.7540    3.7540    3.7540    5.1587    5.8280    6.3673    6.3673
    6.9297    6.9297    6.9297    6.9297    8.1069    8.1069    8.1069    8.1069    8.1069    8.1069
    9.0213    9.0213    9.3287    9.3287    9.3287    9.3287    9.3287    9.3287    9.7840    9.7840
    9.7840    9.7840    9.7840    9.7840   11.3398   11.3398   11.3398   11.3398   11.3398   11.3398
   15.4189   15.4189   15.4189   15.4189
  19  1  -31.6786  -30.1958  -29.4807  -29.4807  -28.1109  -28.1109  -27.4813  -27.4669  -26.1868  -25.7022
         -25.7022  -25.5593  -25.5593  -24.3657  -24.3657  -23.9439  -23.4731  -23.4731  -23.1247  -22.2351
  -22.2351  -22.1545  -22.1545  -21.4783  -21.4783  -20.1037  -19.9211  -19.9211  -19.7569  -19.7569
  -19.1547  -19.1547  -18.7846  -18.5905  -18.2738  -18.2738  -17.6381  -17.6381  -17.5630  -17.5630
  -17.4845  -17.1865  -16.7703  -16.7703  -16.2635  -16.2635  -15.9197  -15.8590  -15.4511  -15.4511
  -15.1592  -15.1592  -14.9906  -14.7922  -14.6952  -14.6952  -14.3297  -13.9363  -13.8917  -13.2429
  -13.2429  -12.8210  -12.5386   -9.6237   -9.1860   -9.1860   -8.6448   -8.6448   -8.5707   -7.9667
   -7.8122   -7.8122   -7.5869   -7.5869   -6.0563   -6.0563   -5.7899   -5.4335   -5.4335   -4.6222
   -3.6672   -2.8688   -2.8688   -2.5419   -2.5419   -1.9955   -1.9955   -1.9675   -1.6548   -0.2374
    0.2933    0.5313    0.8813    0.9391    0.9391    1.5859    1.5859    1.7099    2.0568    2.0785
    3.6947    3.7006    4.0583    4.0583    4.1519    4.1519    4.4698    4.4698    5.0941    5.3001
    5.8487    5.8487    6.1637    6.4435    6.4435    6.8601    7.1628    7.6550    7.6550    7.9097
    7.9097    8.4020    8.4020    9.1589    9.1589    9.2117    9.4716    9.4716    9.7704    9.7704
   10.2229   10.8177   10.8177   11.0441   11.8847   11.8847   12.1041   12.7286   12.7286   12.9207
   15.0085   15.0085   15.0999   15.0999
  20  1  -31.1149  -31.1149  -29.6579  -29.6579  -26.9902  -26.9902  -26.9892  -26.9892  -26.9892  -26.9892
         -26.2384  -25.7147  -25.7147  -24.8893  -23.5126  -23.5126  -23.5126  -23.5126  -22.7659  -22.7659
  -22.7659  -22.7659  -22.3887  -21.5545  -20.1655  -20.1655  -20.1654  -20.1654  -18.9684  -18.9684
  -18.9684  -18.9684  -18.9399  -18.9399  -18.1771  -18.1771  -18.1276  -18.1276  -17.3508  -16.9014
  -16.9014  -16.6833  -16.6833  -16.6833  -16.6833  -16.3398  -16.3398  -15.7571  -15.7571  -15.2372
  -15.2372  -15.1397  -14.9266  -14.9266  -14.2879  -14.2879  -14.2879  -14.2879  -14.1390  -14.1390
  -13.9205  -13.1304  -13.1304  -10.6877   -9.0669   -9.0669   -9.0669   -9.0669   -8.3049   -8.3049
   -7.7235   -7.7235   -6.5444   -6.5444   -6.5444   -6.5444   -5.4909   -5.1240   -5.1240   -4.0772
   -2.9874   -2.9873   -2.6054   -2.6054   -2.6054   -2.6054   -1.1861   -1.1861   -1.0435   -1.0435
    0.0443    1.8585    1.8586    2.1794    2.1794    2.1794    2.1794    2.5336    2.5336    2.5959
    2.5959    3.1899    3.1899    3.1974    3.1974    3.6606    4.2187    4.2187    5.2820    5.2820
    5.2820    5.2820    5.3646    5.3647    5.5852    5.5852    5.9708    5.9708    7.2917    7.2917
    8.2271    8.2271    8.2271    8.2271    9.5517    9.5517    9.5712    9.5713    9.5713    9.5713
   10.7177   10.7177   11.0283   11.6393   13.2399   13.3111   13.8190   13.8190   13.8190   13.8190
   14.1502   14.1502   14.1502   14.1502
  21  1  -31.6786  -30.1958  -29.4807  -29.4807  -28.1109  -28.1109  -27.4813  -27.4669  -26.1868  -25.7022
         -25.7022  -25.5593  -25.5593  -24.3657  -24.3657  -23.9439  -23.4731  -23.4731  -23.1247  -22.2351
  -22.2351  -22.1545  -22.1545  -21.4783  -21.4783  -20.1037  -19.9211  -19.9211  -19.7569  -19.7569
  -19.1547  -19.1547  -18.7846  -18.5905  -18.2738  -18.2738  -17.6381  -17.6381  -17.5630  -17.5630
  -17.4845  -17.1865  -16.7703  -16.7703  -16.2635  -16.2635  -15.9197  -15.8590  -15.4511  -15.4511
  -15.1592  -15.1592  -14.9906  -14.7922  -14.6952  -14.6952  -14.3297  -13.9363  -13.8917  -13.2429
  -13.2429  -12.8210  -12.5386   -9.6237   -9.1860   -9.1860   -8.6448   -8.6448   -8.5707   -7.9667
   -7.8122   -7.8122   -7.5869   -7.5869   -6.0563   -6.0563   -5.7899   -5.4335   -5.4335   -4.6222
   -3.6672   -2.8688   -2.8688   -2.5419   -2.5419   -1.9955   -1.9955   -1.9675   -1.6548   -0.2374
    0.2933    0.5313    0.8813    0.9391    0.9391    1.5859    1.5859    1.7099    2.0568    2.0785
    3.6947    3.7006    4.0583    4.0583    4.1519    4.1519    4.4698    4.4698    5.0941    5.3001
    5.8487    5.8487    6.1637    6.4435    6.4435    6.8601    7.1628    7.6550    7.6550    7.9097
    7.9097    8.4020    8.4020    9.1589    9.1589    9.2117    9.4716    9.4716    9.7704    9.7704
   10.2229   10.8177   10.8177   11.0441   11.8847   11.8847   12.1041   12.7286   12.7286   12.9207
   15.0085   15.0085   15.0999   15.0999
  22  1  -31.6786  -30.1958  -29.4807  -29.4807  -28.1109  -28.1109  -27.4813  -27.4669  -26.1868  -25.7022
         -25.7022  -25.5593  -25.5593  -24.3657  -24.3657  -23.9439  -23.4731  -23.4731  -23.1247  -22.2351
  -22.2351  -22.1545  -22.1545  -21.4783  -21.4783  -20.1037  -19.9211  -19.9211  -19.7569  -19.7569
  -19.1547  -19.1547  -18.7846  -18.5905  -18.2738  -18.2738  -17.6381  -17.6381  -17.5630  -17.5630
  -17.4845  -17.1865  -16.7703  -16.7703  -16.2635  -16.2635  -15.9197  -15.8590  -15.4511  -15.4511
  -15.1592  -15.1592  -14.9906  -14.7922  -14.6952  -14.6952  -14.3297  -13.9363  -13.8917  -13.2429
  -13.2429  -12.8210  -12.5386   -9.6237   -9.1860   -9.1860   -8.6448   -8.6448   -8.5707   -7.9667
   -7.8122   -7.8122   -7.5869   -7.5869   -6.0563   -6.0563   -5.7899   -5.4335   -5.4335   -4.6222
   -3.6672   -2.8688   -2.8688   -2.5419   -2.5419   -1.9955   -1.9955   -1.9675   -1.6548   -0.2374
    0.2933    0.5313    0.8813    0.9391    0.9391    1.5859    1.5859    1.7099    2.0568    2.0785
    3.6947    3.7006    4.0583    4.0583    4.1519    4.1519    4.4698    4.4698    5.0941    5.3001
    5.8487    5.8487    6.1637    6.4435    6.4435    6.8601    7.1628    7.6550    7.6550    7.9097
    7.9097    8.4020    8.4020    9.1589    9.1589    9.2117    9.4716    9.4716    9.7704    9.7704
   10.2229   10.8177   10.8177   11.0441   11.8847   11.8847   12.1041   12.7286   12.7286   12.9207
   15.0085   15.0085   15.0999   15.0999
  23  1  -31.3018  -30.5603  -30.5603  -28.4445  -28.4445  -27.1532  -27.1378  -26.5839  -26.5839  -26.5058
         -26.5058  -25.7989  -24.6477  -24.6477  -24.4481  -24.2984  -24.2984  -23.5095  -22.7682  -22.7682
  -22.0078  -21.8869  -21.3490  -20.9244  -20.9244  -20.8909  -20.8909  -20.8240  -19.3680  -19.1957
  -19.1957  -18.5112  -18.3129  -17.9422  -17.9422  -17.8431  -17.8430  -17.6521  -17.6215  -17.6215
  -17.4923  -17.4923  -16.8442  -16.2105  -16.2105  -16.1585  -16.1585  -15.5969  -15.5969  -15.5445
  -15.5218  -15.5218  -14.9501  -14.8654  -14.8654  -14.3873  -14.0585  -14.0585  -13.9323  -13.9323
  -13.4924  -13.4660  -13.1096  -10.1923  -10.1923  -10.0608   -8.3879   -8.0624   -8.0624   -7.9458
   -7.6859   -7.6859   -7.5271   -6.4700   -6.4700   -6.4209   -5.7678   -5.7678   -3.8442   -3.8441
   -3.5034   -3.5034   -2.8872   -2.4750   -2.2685   -1.9077   -1.9077   -1.1000   -1.1000   -0.4608
    0.5398    0.5398    0.7776    1.7973    1.7973    2.0512    2.2717    2.5308    2.5308    3.1656
    3.1793    3.1793    3.3650    4.1283    4.1283    4.2525    4.2525    4.3230    4.6629    4.6629
    4.9894    5.2169    5.2987    5.2987    5.3486    6.4198    6.4198    6.8204    6.8204    6.9181
    7.7320    7.8608    7.8608    8.1253    8.6151    8.6151    9.2343   10.1597   10.1597   10.1810
   10.9685   10.9685   12.0619   12.0619   12.7582   12.7582   13.4421   13.4421   13.7350   13.7350
   13.9792   14.2916   14.5477   14.5512
  24  1  -31.3018  -30.5603  -30.5603  -28.4445  -28.4445  -27.1532  -27.1378  -26.5839  -26.5839  -26.5058
         -26.5058  -25.7989  -24.6477  -24.6477  -24.4481  -24.2984  -24.2984  -23.5095  -22.7682  -22.7682
  -22.0078  -21.8869  -21.3490  -20.9244  -20.9244  -20.8909  -20.8909  -20.8240  -19.3680  -19.1957
  -19.1957  -18.5112  -18.3129  -17.9422  -17.9422  -17.8431  -17.8430  -17.6521  -17.6215  -17.6215
  -17.4923  -17.4923  -16.8442  -16.2105  -16.2105  -16.1585  -16.1585  -15.5969  -15.5969  -15.5445
  -15.5218  -15.5218  -14.9501  -14.8654  -14.8654  -14.3873  -14.0585  -14.0585  -13.9323  -13.9323
  -13.4924  -13.4660  -13.1096  -10.1923  -10.1923  -10.0608   -8.3879   -8.0624   -8.0624   -7.9458
   -7.6859   -7.6859   -7.5271   -6.4700   -6.4700   -6.4209   -5.7678   -5.7678   -3.8442   -3.8441
   -3.5034   -3.5034   -2.8872   -2.4750   -2.2685   -1.9077   -1.9077   -1.1000   -1.1000   -0.4608
    0.5398    0.5398    0.7776    1.7973    1.7973    2.0512    2.2717    2.5308    2.5308    3.1656
    3.1793    3.1793    3.3650    4.1283    4.1283    4.2525    4.2525    4.3230    4.6629    4.6629
    4.9894    5.2169    5.2987    5.2987    5.3486    6.4198    6.4198    6.8204    6.8204    6.9181
    7.7320    7.8608    7.8608    8.1253    8.6151    8.6151    9.2343   10.1597   10.1597   10.1810
   10.9685   10.9685   12.0619   12.0619   12.7582   12.7582   13.4421   13.4421   13.7350   13.7350
   13.9792   14.2916   14.5477   14.5512
  25  1  -31.3018  -30.5603  -30.5603  -28.4445  -28.4445  -27.1532  -27.1378  -26.5839  -26.5839  -26.5058
         -26.5058  -25.7989  -24.6477  -24.6477  -24.4481  -24.2984  -24.2984  -23.5095  -22.7682  -22.7682
  -22.0078  -21.8869  -21.3490  -20.9244  -20.9244  -20.8909  -20.8909  -20.8240  -19.3680  -19.1957
  -19.1957  -18.5112  -18.3129  -17.9422  -17.9422  -17.8431  -17.8430  -17.6521  -17.6215  -17.6215
  -17.4923  -17.4923  -16.8442  -16.2105  -16.2105  -16.1585  -16.1585  -15.5969  -15.5969  -15.5445
  -15.5218  -15.5218  -14.9501  -14.8654  -14.8654  -14.3873  -14.0585  -14.0585  -13.9323  -13.9323
  -13.4924  -13.4660  -13.1096  -10.1923  -10.1923  -10.0608   -8.3879   -8.0624   -8.0624   -7.9458
   -7.6859   -7.6859   -7.5271   -6.4700   -6.4700   -6.4209   -5.7678   -5.7678   -3.8442   -3.8441
   -3.5034   -3.5034   -2.8872   -2.4750   -2.2685   -1.9077   -1.9077   -1.1000   -1.1000   -0.4608
    0.5398    0.5398    0.7776    1.7973    1.7973    2.0512    2.2717    2.5308    2.5308    3.1656
    3.1793    3.1793    3.3650    4.1283    4.1283    4.2525    4.2525    4.3230    4.6629    4.6629
    4.9894    5.2169    5.2987    5.2987    5.3486    6.4198    6.4198    6.8204    6.8204    6.9181
    7.7320    7.8608    7.8608    8.1253    8.6151    8.6151    9.2343   10.1597   10.1597   10.1810
   10.9685   10.9685   12.0619   12.0619   12.7582   12.7582   13.4421   13.4421   13.7350   13.7350
   13.9792   14.2916   14.5477   14.5512
  26  1  -31.1149  -31.1149  -29.6579  -29.6579  -26.9902  -26.9902  -26.9892  -26.9892  -26.9892  -26.9892
         -26.2384  -25.7147  -25.7147  -24.8893  -23.5126  -23.5126  -23.5126  -23.5126  -22.7659  -22.7659
  -22.7659  -22.7659  -22.3887  -21.5545  -20.1655  -20.1655  -20.1654  -20.1654  -18.9684  -18.9684
  -18.9684  -18.9684  -18.9399  -18.9399  -18.1771  -18.1771  -18.1276  -18.1276  -17.3508  -16.9014
  -16.9014  -16.6833  -16.6833  -16.6833  -16.6833  -16.3398  -16.3398  -15.7571  -15.7571  -15.2372
  -15.2372  -15.1397  -14.9266  -14.9266  -14.2879  -14.2879  -14.2879  -14.2879  -14.1390  -14.1390
  -13.9205  -13.1304  -13.1304  -10.6877   -9.0669   -9.0669   -9.0669   -9.0669   -8.3049   -8.3049
   -7.7235   -7.7235   -6.5444   -6.5444   -6.5444   -6.5444   -5.4909   -5.1240   -5.1240   -4.0772
   -2.9874   -2.9873   -2.6054   -2.6054   -2.6054   -2.6054   -1.1861   -1.1861   -1.0435   -1.0435
    0.0443    1.8585    1.8586    2.1794    2.1794    2.1794    2.1794    2.5336    2.5336    2.5959
    2.5959    3.1899    3.1899    3.1974    3.1974    3.6606    4.2187    4.2187    5.2820    5.2820
    5.2820    5.2820    5.3646    5.3647    5.5852    5.5852    5.9708    5.9708    7.2917    7.2917
    8.2271    8.2271    8.2271    8.2271    9.5517    9.5517    9.5712    9.5713    9.5713    9.5713
   10.7177   10.7177   11.0283   11.6393   13.2399   13.3111   13.8190   13.8190   13.8190   13.8190
   14.1502   14.1502   14.1502   14.1502
  27  1  -31.3018  -30.5603  -30.5603  -28.4445  -28.4445  -27.1532  -27.1378  -26.5839  -26.5839  -26.5058
         -26.5058  -25.7989  -24.6477  -24.6477  -24.4481  -24.2984  -24.2984  -23.5095  -22.7682  -22.7682
  -22.0078  -21.8869  -21.3490  -20.9244  -20.9244  -20.8909  -20.8909  -20.8240  -19.3680  -19.1957
  -19.1957  -18.5112  -18.3129  -17.9422  -17.9422  -17.8431  -17.8430  -17.6521  -17.6215  -17.6215
  -17.4923  -17.4923  -16.8442  -16.2105  -16.2105  -16.1585  -16.1585  -15.5969  -15.5969  -15.5445
  -15.5218  -15.5218  -14.9501  -14.8654  -14.8654  -14.3873  -14.0585  -14.0585  -13.9323  -13.9323
  -13.4924  -13.4660  -13.1096  -10.1923  -10.1923  -10.0608   -8.3879   -8.0624   -8.0624   -7.9458
   -7.6859   -7.6859   -7.5271   -6.4700   -6.4700   -6.4209   -5.7678   -5.7678   -3.8442   -3.8441
   -3.5034   -3.5034   -2.8872   -2.4750   -2.2685   -1.9077   -1.9077   -1.1000   -1.1000   -0.4608
    0.5398    0.5398    0.7776    1.7973    1.7973    2.0512    2.2717    2.5308    2.5308    3.1656
    3.1793    3.1793    3.3650    4.1283    4.1283    4.2525    4.2525    4.3230    4.6629    4.6629
    4.9894    5.2169    5.2987    5.2987    5.3486    6.4198    6.4198    6.8204    6.8204    6.9181
    7.7320    7.8608    7.8608    8.1253    8.6151    8.6151    9.2343   10.1597   10.1597   10.1810
   10.9685   10.9685   12.0619   12.0619   12.7582   12.7582   13.4421   13.4421   13.7350   13.7350
   13.9792   14.2916   14.5477   14.5512
  28  1  -31.1149  -31.1149  -29.6579  -29.6579  -26.9902  -26.9902  -26.9892  -26.9892  -26.9892  -26.9892
         -26.2384  -25.7147  -25.7147  -24.8893  -23.5126  -23.5126  -23.5126  -23.5126  -22.7659  -22.7659
  -22.7659  -22.7659  -22.3887  -21.5545  -20.1655  -20.1655  -20.1654  -20.1654  -18.9684  -18.9684
  -18.9684  -18.9684  -18.9399  -18.9399  -18.1771  -18.1771  -18.1276  -18.1276  -17.3508  -16.9014
  -16.9014  -16.6833  -16.6833  -16.6833  -16.6833  -16.3398  -16.3398  -15.7571  -15.7571  -15.2372
  -15.2372  -15.1397  -14.9266  -14.9266  -14.2879  -14.2879  -14.2879  -14.2879  -14.1390  -14.1390
  -13.9205  -13.1304  -13.1304  -10.6877   -9.0669   -9.0669   -9.0669   -9.0669   -8.3049   -8.3049
   -7.7235   -7.7235   -6.5444   -6.5444   -6.5444   -6.5444   -5.4909   -5.1240   -5.1240   -4.0772
   -2.9874   -2.9873   -2.6054   -2.6054   -2.6054   -2.6054   -1.1861   -1.1861   -1.0435   -1.0435
    0.0443    1.8585    1.8586    2.1794    2.1794    2.1794    2.1794    2.5336    2.5336    2.5959
    2.5959    3.1899    3.1899    3.1974    3.1974    3.6606    4.2187    4.2187    5.2820    5.2820
    5.2820    5.2820    5.3646    5.3647    5.5852    5.5852    5.9708    5.9708    7.2917    7.2917
    8.2271    8.2271    8.2271    8.2271    9.5517    9.5517    9.5712    9.5713    9.5713    9.5713
   10.7177   10.7177   11.0283   11.6393   13.2399   13.3111   13.8190   13.8190   13.8190   13.8190
   14.1502   14.1502   14.1502   14.1502
  29  1  -29.6741  -29.6741  -28.9674  -28.9674  -28.9674  -28.9674  -26.9481  -26.9481  -26.9481  -26.9481
         -25.6965  -25.6965  -25.1721  -25.1721  -25.1721  -25.1721  -24.4263  -24.4263  -23.0200  -23.0200
  -22.8246  -22.8246  -22.8246  -22.8246  -20.8087  -20.8087  -19.7524  -19.7524  -19.7524  -19.7524
  -19.1765  -19.1765  -18.3854  -18.3854  -17.6082  -17.6082  -17.6082  -17.6082  -16.9168  -16.9168
  -16.9168  -16.9168  -16.5930  -16.5930  -16.5930  -16.5930  -15.0308  -15.0308  -15.0308  -15.0308
  -14.8117  -14.8117  -13.9719  -13.9719  -13.0795  -13.0795  -12.5587  -12.5587  -12.5587  -12.5587
  -10.8816  -10.8816  -10.8816  -10.8816   -9.8196   -9.8196   -9.6482   -9.6482   -9.6482   -9.6482
   -9.0851   -9.0851   -6.6450   -6.6450   -6.5696   -6.5696   -6.5696   -6.5696   -5.6008   -5.6008
   -4.6063   -4.6063   -4.6063   -4.6063   -2.7137   -2.7137   -2.7137   -2.7137   -1.7417   -1.7417
    1.7821    1.7821    2.4475    2.4475    2.4475    2.4475    2.7200    2.7200    2.7200    2.7200
    2.8548    2.8548    3.8399    3.8399    3.9643    3.9643    3.9643    3.9643    4.6067    4.6067
    4.6067    4.6067    5.2059    5.2059    6.3049    6.3049    7.0691    7.0691    7.0691    7.0691
    7.5800    7.5800    7.8911    7.8911    7.8911    7.8911    9.7244    9.7244   10.5791   10.5791
   10.5792   10.5792   12.4202   12.4202   12.4202   12.4202   13.6013   13.6013   13.6013   13.6013
   14.1346   14.1346   14.5512   14.5512
  30  1  -30.0334  -30.0334  -28.6200  -28.6200  -27.9380  -27.9380  -27.9380  -27.9380  -26.6293  -26.6293
         -26.6292  -26.6292  -26.0136  -26.0136  -24.3160  -24.3160  -24.3160  -24.3160  -22.2061  -22.2061
  -22.2061  -22.2061  -22.0150  -22.0150  -20.9158  -20.9158  -20.9158  -20.9158  -19.9054  -19.9054
  -19.9054  -19.9054  -18.7465  -18.7465  -18.7465  -18.7465  -17.6325  -17.6325  -16.5893  -16.5893
  -16.5893  -16.5893  -16.1945  -16.1945  -15.9473  -15.9473  -15.9473  -15.9473  -14.9848  -14.9848
  -13.8014  -13.8014  -13.2479  -13.2479  -13.2447  -13.2447  -12.3051  -12.3051  -11.7353  -11.7353
  -11.7353  -11.7353  -10.6742  -10.6742  -10.6742  -10.6742  -10.2458  -10.2458   -8.7471   -8.7471
   -8.7471   -8.7471   -6.6815   -6.6815   -6.6815   -6.6815   -6.2092   -6.2092   -5.3754   -5.3754
   -5.3754   -5.3754   -3.9839   -3.9839   -3.9839   -3.9839   -3.4654   -3.4654   -1.0952   -1.0952
    1.1518    1.1518    1.2980    1.2980    2.0612    2.0612    2.6678    2.6678    2.6678    2.6678
    2.6882    2.6882    2.9168    2.9168    2.9168    2.9168    5.6631    5.6631    5.6631    5.6631
    5.7459    5.7459    6.0224    6.0224    6.8424    6.8424    6.8424    6.8424    8.4313    8.4313
    8.4446    8.4446    8.4446    8.4446    9.1341    9.1341    9.1341    9.1341   10.2156   10.2156
   10.2156   10.2156   10.6270   10.6270   12.3373   12.3373   12.3373   12.3373   12.5609   12.5609
   15.0517   15.0517   15.0517   15.0517
  31  1  -30.0334  -30.0334  -28.6200  -28.6200  -27.9380  -27.9380  -27.9380  -27.9380  -26.6293  -26.6293
         -26.6292  -26.6292  -26.0136  -26.0136  -24.3160  -24.3160  -24.3160  -24.3160  -22.2061  -22.2061
  -22.2061  -22.2061  -22.0150  -22.0150  -20.9158  -20.9158  -20.9158  -20.9158  -19.9054  -19.9054
  -19.9054  -19.9054  -18.7465  -18.7465  -18.7465  -18.7465  -17.6325  -17.6325  -16.5893  -16.5893
  -16.5893  -16.5893  -16.1945  -16.1945  -15.9473  -15.9473  -15.9473  -15.9473  -14.9848  -14.9848
  -13.8014  -13.8014  -13.2479  -13.2479  -13.2447  -13.2447  -12.3051  -12.3051  -11.7353  -11.7353
  -11.7353  -11.7353  -10.6742  -10.6742  -10.6742  -10.6742  -10.2458  -10.2458   -8.7471   -8.7471
   -8.7471   -8.7471   -6.6815   -6.6815   -6.6815   -6.6815   -6.2092   -6.2092   -5.3754   -5.3754
   -5.3754   -5.3754   -3.9839   -3.9839   -3.9839   -3.9839   -3.4654   -3.4654   -1.0952   -1.0952
    1.1518    1.1518    1.2980    1.2980    2.0612    2.0612    2.6678    2.6678    2.6678    2.6678
    2.6882    2.6882    2.9168    2.9168    2.9168    2.9168    5.6631    5.6631    5.6631    5.6631
    5.7459    5.7459    6.0224    6.0224    6.8424    6.8424    6.8424    6.8424    8.4313    8.4313
    8.4446    8.4446    8.4446    8.4446    9.1341    9.1341    9.1341    9.1341   10.2156   10.2156
   10.2156   10.2156   10.6270   10.6270   12.3373   12.3373   12.3373   12.3373   12.5609   12.5609
   15.0517   15.0517   15.0517   15.0517
  32  1  -29.6741  -29.6741  -28.9674  -28.9674  -28.9674  -28.9674  -26.9481  -26.9481  -26.9481  -26.9481
         -25.6965  -25.6965  -25.1721  -25.1721  -25.1721  -25.1721  -24.4263  -24.4263  -23.0200  -23.0200
  -22.8246  -22.8246  -22.8246  -22.8246  -20.8087  -20.8087  -19.7524  -19.7524  -19.7524  -19.7524
  -19.1765  -19.1765  -18.3854  -18.3854  -17.6082  -17.6082  -17.6082  -17.6082  -16.9168  -16.9168
  -16.9168  -16.9168  -16.5930  -16.5930  -16.5930  -16.5930  -15.0308  -15.0308  -15.0308  -15.0308
  -14.8117  -14.8117  -13.9719  -13.9719  -13.0795  -13.0795  -12.5587  -12.5587  -12.5587  -12.5587
  -10.8816  -10.8816  -10.8816  -10.8816   -9.8196   -9.8196   -9.6482   -9.6482   -9.6482   -9.6482
   -9.0851   -9.0851   -6.6450   -6.6450   -6.5696   -6.5696   -6.5696   -6.5696   -5.6008   -5.6008
   -4.6063   -4.6063   -4.6063   -4.6063   -2.7137   -2.7137   -2.7137   -2.7137   -1.7417   -1.7417
    1.7821    1.7821    2.4475    2.4475    2.4475    2.4475    2.7200    2.7200    2.7200    2.7200
    2.8548    2.8548    3.8399    3.8399    3.9643    3.9643    3.9643    3.9643    4.6067    4.6067
    4.6067    4.6067    5.2059    5.2059    6.3049    6.3049    7.0691    7.0691    7.0691    7.0691
    7.5800    7.5800    7.8911    7.8911    7.8911    7.8911    9.7244    9.7244   10.5791   10.5791
   10.5792   10.5792   12.4202   12.4202   12.4202   12.4202   13.6013   13.6013   13.6013   13.6013
   14.1346   14.1346   14.5512   14.5512
  33  1  -30.0334  -30.0334  -28.6200  -28.6200  -27.9380  -27.9380  -27.9380  -27.9380  -26.6293  -26.6293
         -26.6292  -26.6292  -26.0136  -26.0136  -24.3160  -24.3160  -24.3160  -24.3160  -22.2061  -22.2061
  -22.2061  -22.2061  -22.0150  -22.0150  -20.9158  -20.9158  -20.9158  -20.9158  -19.9054  -19.9054
  -19.9054  -19.9054  -18.7465  -18.7465  -18.7465  -18.7465  -17.6325  -17.6325  -16.5893  -16.5893
  -16.5893  -16.5893  -16.1945  -16.1945  -15.9473  -15.9473  -15.9473  -15.9473  -14.9848  -14.9848
  -13.8014  -13.8014  -13.2479  -13.2479  -13.2447  -13.2447  -12.3051  -12.3051  -11.7353  -11.7353
  -11.7353  -11.7353  -10.6742  -10.6742  -10.6742  -10.6742  -10.2458  -10.2458   -8.7471   -8.7471
   -8.7471   -8.7471   -6.6815   -6.6815   -6.6815   -6.6815   -6.2092   -6.2092   -5.3754   -5.3754
   -5.3754   -5.3754   -3.9839   -3.9839   -3.9839   -3.9839   -3.4654   -3.4654   -1.0952   -1.0952
    1.1518    1.1518    1.2980    1.2980    2.0612    2.0612    2.6678    2.6678    2.6678    2.6678
    2.6882    2.6882    2.9168    2.9168    2.9168    2.9168    5.6631    5.6631    5.6631    5.6631
    5.7459    5.7459    6.0224    6.0224    6.8424    6.8424    6.8424    6.8424    8.4313    8.4313
    8.4446    8.4446    8.4446    8.4446    9.1341    9.1341    9.1341    9.1341   10.2156   10.2156
   10.2156   10.2156   10.6270   10.6270   12.3373   12.3373   12.3373   12.3373   12.5609   12.5609
   15.0517   15.0517   15.0517   15.0517
  34  1  -30.2144  -30.2144  -27.4380  -27.4380  -27.4380  -27.4380  -27.4380  -27.4380  -27.4380  -27.4380
         -27.4380  -27.4380  -27.4380  -27.4380  -23.4614  -23.4614  -23.4613  -23.4613  -22.4982  -22.4982
  -22.4982  -22.4982  -20.8248  -20.8248  -20.8248  -20.8248  -19.9016  -19.9016  -19.9016  -19.9016
  -19.9016  -19.9016  -19.9016  -19.9016  -19.9016  -19.9016  -19.9016  -19.9016  -15.7252  -15.7252
  -15.7252  -15.7252  -15.7252  -15.7252  -15.7252  -15.7252  -15.7252  -15.7252  -15.7252  -15.7252
  -13.5856  -13.5856  -12.8843  -12.8843  -12.8843  -12.8843  -11.3540  -11.3540  -11.3540  -11.3540
  -11.3540  -11.3540  -11.3540  -11.3540  -11.3540  -11.3540  -11.3540  -11.3540   -7.8209   -7.8209
   -7.8209   -7.8209   -7.5378   -7.5378   -7.5378   -7.5378   -4.8495   -4.8495   -4.8495   -4.8495
   -4.8495   -4.8495   -4.8495   -4.8495   -4.8495   -4.8495   -4.8495   -4.8495   -0.3041   -0.3041
    0.3316    0.3316    0.3316    0.3316    2.4155    2.4155    2.4155    2.4155    2.4155    2.4155
    2.4155    2.4155    2.4155    2.4155    2.4155    2.4155    5.5265    5.5265    6.8539    6.8539
    6.8539    6.8539    7.8455    7.8455    7.8455    7.8455    8.6919    8.6919    8.6919    8.6919
    8.6919    8.6919    8.6919    8.6919    8.6919    8.6919    8.6919    8.6919   10.6906   10.6906
   10.6906   10.6906   10.6906   10.6906   10.6906   10.6906   10.6906   10.6906   10.6906   10.6906
   15.4150   15.4150   15.4150   15.4150
  35  1  -30.0334  -30.0334  -28.6200  -28.6200  -27.9380  -27.9380  -27.9380  -27.9380  -26.6293  -26.6293
         -26.6292  -26.6292  -26.0136  -26.0136  -24.3160  -24.3160  -24.3160  -24.3160  -22.2061  -22.2061
  -22.2061  -22.2061  -22.0150  -22.0150  -20.9158  -20.9158  -20.9158  -20.9158  -19.9054  -19.9054
  -19.9054  -19.9054  -18.7465  -18.7465  -18.7465  -18.7465  -17.6325  -17.6325  -16.5893  -16.5893
  -16.5893  -16.5893  -16.1945  -16.1945  -15.9473  -15.9473  -15.9473  -15.9473  -14.9848  -14.9848
  -13.8014  -13.8014  -13.2479  -13.2479  -13.2447  -13.2447  -12.3051  -12.3051  -11.7353  -11.7353
  -11.7353  -11.7353  -10.6742  -10.6742  -10.6742  -10.6742  -10.2458  -10.2458   -8.7471   -8.7471
   -8.7471   -8.7471   -6.6815   -6.6815   -6.6815   -6.6815   -6.2092   -6.2092   -5.3754   -5.3754
   -5.3754   -5.3754   -3.9839   -3.9839   -3.9839   -3.9839   -3.4654   -3.4654   -1.0952   -1.0952
    1.1518    1.1518    1.2980    1.2980    2.0612    2.0612    2.6678    2.6678    2.6678    2.6678
    2.6882    2.6882    2.9168    2.9168    2.9168    2.9168    5.6631    5.6631    5.6631    5.6631
    5.7459    5.7459    6.0224    6.0224    6.8424    6.8424    6.8424    6.8424    8.4313    8.4313
    8.4446    8.4446    8.4446    8.4446    9.1341    9.1341    9.1341    9.1341   10.2156   10.2156
   10.2156   10.2156   10.6270   10.6270   12.3373   12.3373   12.3373   12.3373   12.5609   12.5609
   15.0517   15.0517   15.0517   15.0517
  36  1  -29.4960  -29.4960  -29.4960  -29.4960  -28.1069  -28.1069  -28.1069  -28.1069  -25.5549  -25.5549
         -25.5549  -25.5549  -25.5549  -25.5549  -25.5549  -25.5549  -24.8565  -24.8565  -23.4053  -23.4053
  -21.6895  -21.6895  -21.6895  -21.6895  -21.6895  -21.6895  -21.6895  -21.6895  -18.1983  -18.1983
  -18.1983  -18.1983  -18.1982  -18.1982  -18.1982  -18.1982  -17.9679  -17.9679  -17.9679  -17.9679
  -16.4971  -16.4971  -16.4971  -16.4971  -16.3541  -16.3541  -15.4418  -15.4418  -15.4418  -15.4418
  -14.0779  -14.0779  -14.0779  -14.0779  -12.9686  -12.9686  -12.9686  -12.9686  -11.8523  -11.8523
  -11.8523  -11.8523   -9.7704   -9.7704   -9.7704   -9.7704   -9.7704   -9.7704   -9.7704   -9.7704
   -9.5643   -9.5643   -6.9719   -6.9719   -5.8933   -5.8933   -5.8933   -5.8933   -5.8933   -5.8933
   -5.8933   -5.8933   -3.4519   -3.4519   -3.4519   -3.4519   -2.1962   -2.1962   -2.1962   -2.1962
    1.9122    1.9122    2.3874    2.3874    2.3874    2.3874    3.2749    3.2749    3.2749    3.2749
    3.5637    3.5637    3.5637    3.5637    3.8983    3.8983    3.8983    3.8983    3.8983    3.8983
    3.8983    3.8983    5.4506    5.4506    5.4506    5.4506    6.6132    6.6132    6.6133    6.6133
    8.9311    8.9311    8.9311    8.9311    8.9311    8.9311    8.9311    8.9311   10.1747   10.1747
   10.1747   10.1747   11.3339   11.3339   13.2955   13.2955   13.9880   13.9880   13.9880   13.9880
   13.9880   13.9880   13.9880   13.9880
  37  1  -30.0334  -30.0334  -28.6200  -28.6200  -27.9380  -27.9380  -27.9380  -27.9380  -26.6293  -26.6293
         -26.6292  -26.6292  -26.0136  -26.0136  -24.3160  -24.3160  -24.3160  -24.3160  -22.2061  -22.2061
  -22.2061  -22.2061  -22.0150  -22.0150  -20.9158  -20.9158  -20.9158  -20.9158  -19.9054  -19.9054
  -19.9054  -19.9054  -18.7465  -18.7465  -18.7465  -18.7465  -17.6325  -17.6325  -16.5893  -16.5893
  -16.5893  -16.5893  -16.1945  -16.1945  -15.9473  -15.9473  -15.9473  -15.9473  -14.9848  -14.9848
  -13.8014  -13.8014  -13.2479  -13.2479  -13.2447  -13.2447  -12.3051  -12.3051  -11.7353  -11.7353
  -11.7353  -11.7353  -10.6742  -10.6742  -10.6742  -10.6742  -10.2458  -10.2458   -8.7471   -8.7471
   -8.7471   -8.7471   -6.6815   -6.6815   -6.6815   -6.6815   -6.2092   -6.2092   -5.3754   -5.3754
   -5.3754   -5.3754   -3.9839   -3.9839   -3.9839   -3.9839   -3.4654   -3.4654   -1.0952   -1.0952
    1.1518    1.1518    1.2980    1.2980    2.0612    2.0612    2.6678    2.6678    2.6678    2.6678
    2.6882    2.6882    2.9168    2.9168    2.9168    2.9168    5.6631    5.6631    5.6631    5.6631
    5.7459    5.7459    6.0224    6.0224    6.8424    6.8424    6.8424    6.8424    8.4313    8.4313
    8.4446    8.4446    8.4446    8.4446    9.1341    9.1341    9.1341    9.1341   10.2156   10.2156
   10.2156   10.2156   10.6270   10.6270   12.3373   12.3373   12.3373   12.3373   12.5609   12.5609
   15.0517   15.0517   15.0517   15.0517
  38  1  -30.0334  -30.0334  -28.6200  -28.6200  -27.9380  -27.9380  -27.9380  -27.9380  -26.6293  -26.6293
         -26.6292  -26.6292  -26.0136  -26.0136  -24.3160  -24.3160  -24.3160  -24.3160  -22.2061  -22.2061
  -22.2061  -22.2061  -22.0150  -22.0150  -20.9158  -20.9158  -20.9158  -20.9158  -19.9054  -19.9054
  -19.9054  -19.9054  -18.7465  -18.7465  -18.7465  -18.7465  -17.6325  -17.6325  -16.5893  -16.5893
  -16.5893  -16.5893  -16.1945  -16.1945  -15.9473  -15.9473  -15.9473  -15.9473  -14.9848  -14.9848
  -13.8014  -13.8014  -13.2479  -13.2479  -13.2447  -13.2447  -12.3051  -12.3051  -11.7353  -11.7353
  -11.7353  -11.7353  -10.6742  -10.6742  -10.6742  -10.6742  -10.2458  -10.2458   -8.7471   -8.7471
   -8.7471   -8.7471   -6.6815   -6.6815   -6.6815   -6.6815   -6.2092   -6.2092   -5.3754   -5.3754
   -5.3754   -5.3754   -3.9839   -3.9839   -3.9839   -3.9839   -3.4654   -3.4654   -1.0952   -1.0952
    1.1518    1.1518    1.2980    1.2980    2.0612    2.0612    2.6678    2.6678    2.6678    2.6678
    2.6882    2.6882    2.9168    2.9168    2.9168    2.9168    5.6631    5.6631    5.6631    5.6631
    5.7459    5.7459    6.0224    6.0224    6.8424    6.8424    6.8424    6.8424    8.4313    8.4313
    8.4446    8.4446    8.4446    8.4446    9.1341    9.1341    9.1341    9.1341   10.2156   10.2156
   10.2156   10.2156   10.6270   10.6270   12.3373   12.3373   12.3373   12.3373   12.5609   12.5609
   15.0517   15.0517   15.0517   15.0517
  39  1  -29.6741  -29.6741  -28.9674  -28.9674  -28.9674  -28.9674  -26.9481  -26.9481  -26.9481  -26.9481
         -25.6965  -25.6965  -25.1721  -25.1721  -25.1721  -25.1721  -24.4263  -24.4263  -23.0200  -23.0200
  -22.8246  -22.8246  -22.8246  -22.8246  -20.8087  -20.8087  -19.7524  -19.7524  -19.7524  -19.7524
  -19.1765  -19.1765  -18.3854  -18.3854  -17.6082  -17.6082  -17.6082  -17.6082  -16.9168  -16.9168
  -16.9168  -16.9168  -16.5930  -16.5930  -16.5930  -16.5930  -15.0308  -15.0308  -15.0308  -15.0308
  -14.8117  -14.8117  -13.9719  -13.9719  -13.0795  -13.0795  -12.5587  -12.5587  -12.5587  -12.5587
  -10.8816  -10.8816  -10.8816  -10.8816   -9.8196   -9.8196   -9.6482   -9.6482   -9.6482   -9.6482
   -9.0851   -9.0851   -6.6450   -6.6450   -6.5696   -6.5696   -6.5696   -6.5696   -5.6008   -5.6008
   -4.6063   -4.6063   -4.6063   -4.6063   -2.7137   -2.7137   -2.7137   -2.7137   -1.7417   -1.7417
    1.7821    1.7821    2.4475    2.4475    2.4475    2.4475    2.7200    2.7200    2.7200    2.7200
    2.8548    2.8548    3.8399    3.8399    3.9643    3.9643    3.9643    3.9643    4.6067    4.6067
    4.6067    4.6067    5.2059    5.2059    6.3049    6.3049    7.0691    7.0691    7.0691    7.0691
    7.5800    7.5800    7.8911    7.8911    7.8911    7.8911    9.7244    9.7244   10.5791   10.5791
   10.5792   10.5792   12.4202   12.4202   12.4202   12.4202   13.6013   13.6013   13.6013   13.6013
   14.1346   14.1346   14.5512   14.5512
  40  1  -29.6741  -29.6741  -28.9674  -28.9674  -28.9674  -28.9674  -26.9481  -26.9481  -26.9481  -26.9481
         -25.6965  -25.6965  -25.1721  -25.1721  -25.1721  -25.1721  -24.4263  -24.4263  -23.0200  -23.0200
  -22.8246  -22.8246  -22.8246  -22.8246  -20.8087  -20.8087  -19.7524  -19.7524  -19.7524  -19.7524
  -19.1765  -19.1765  -18.3854  -18.3854  -17.6082  -17.6082  -17.6082  -17.6082  -16.9168  -16.9168
  -16.9168  -16.9168  -16.5930  -16.5930  -16.5930  -16.5930  -15.0308  -15.0308  -15.0308  -15.0308
  -14.8117  -14.8117  -13.9719  -13.9719  -13.0795  -13.0795  -12.5587  -12.5587  -12.5587  -12.5587
  -10.8816  -10.8816  -10.8816  -10.8816   -9.8196   -9.8196   -9.6482   -9.6482   -9.6482   -9.6482
   -9.0851   -9.0851   -6.6450   -6.6450   -6.5696   -6.5696   -6.5696   -6.5696   -5.6008   -5.6008
   -4.6063   -4.6063   -4.6063   -4.6063   -2.7137   -2.7137   -2.7137   -2.7137   -1.7417   -1.7417
    1.7821    1.7821    2.4475    2.4475    2.4475    2.4475    2.7200    2.7200    2.7200    2.7200
    2.8548    2.8548    3.8399    3.8399    3.9643    3.9643    3.9643    3.9643    4.6067    4.6067
    4.6067    4.6067    5.2059    5.2059    6.3049    6.3049    7.0691    7.0691    7.0691    7.0691
    7.5800    7.5800    7.8911    7.8911    7.8911    7.8911    9.7244    9.7244   10.5791   10.5791
   10.5792   10.5792   12.4202   12.4202   12.4202   12.4202   13.6013   13.6013   13.6013   13.6013
   14.1346   14.1346   14.5512   14.5512
  41  1  -29.6741  -29.6741  -28.9674  -28.9674  -28.9674  -28.9674  -26.9481  -26.9481  -26.9481  -26.9481
         -25.6965  -25.6965  -25.1721  -25.1721  -25.1721  -25.1721  -24.4263  -24.4263  -23.0200  -23.0200
  -22.8246  -22.8246  -22.8246  -22.8246  -20.8087  -20.8087  -19.7524  -19.7524  -19.7524  -19.7524
  -19.1765  -19.1765  -18.3854  -18.3854  -17.6082  -17.6082  -17.6082  -17.6082  -16.9168  -16.9168
  -16.9168  -16.9168  -16.5930  -16.5930  -16.5930  -16.5930  -15.0308  -15.0308  -15.0308  -15.0308
  -14.8117  -14.8117  -13.9719  -13.9719  -13.0795  -13.0795  -12.5587  -12.5587  -12.5587  -12.5587
  -10.8816  -10.8816  -10.8816  -10.8816   -9.8196   -9.8196   -9.6482   -9.6482   -9.6482   -9.6482
   -9.0851   -9.0851   -6.6450   -6.6450   -6.5696   -6.5696   -6.5696   -6.5696   -5.6008   -5.6008
   -4.6063   -4.6063   -4.6063   -4.6063   -2.7137   -2.7137   -2.7137   -2.7137   -1.7417   -1.7417
    1.7821    1.7821    2.4475    2.4475    2.4475    2.4475    2.7200    2.7200    2.7200    2.7200
    2.8548    2.8548    3.8399    3.8399    3.9643    3.9643    3.9643    3.9643    4.6067    4.6067
    4.6067    4.6067    5.2059    5.2059    6.3049    6.3049    7.0691    7.0691    7.0691    7.0691
    7.5800    7.5800    7.8911    7.8911    7.8911    7.8911    9.7244    9.7244   10.5791   10.5791
   10.5792   10.5792   12.4202   12.4202   12.4202   12.4202   13.6013   13.6013   13.6013   13.6013
   14.1346   14.1346   14.5512   14.5512
  42  1  -29.4960  -29.4960  -29.4960  -29.4960  -28.1069  -28.1069  -28.1069  -28.1069  -25.5549  -25.5549
         -25.5549  -25.5549  -25.5549  -25.5549  -25.5549  -25.5549  -24.8565  -24.8565  -23.4053  -23.4053
  -21.6895  -21.6895  -21.6895  -21.6895  -21.6895  -21.6895  -21.6895  -21.6895  -18.1983  -18.1983
  -18.1983  -18.1983  -18.1982  -18.1982  -18.1982  -18.1982  -17.9679  -17.9679  -17.9679  -17.9679
  -16.4971  -16.4971  -16.4971  -16.4971  -16.3541  -16.3541  -15.4418  -15.4418  -15.4418  -15.4418
  -14.0779  -14.0779  -14.0779  -14.0779  -12.9686  -12.9686  -12.9686  -12.9686  -11.8523  -11.8523
  -11.8523  -11.8523   -9.7704   -9.7704   -9.7704   -9.7704   -9.7704   -9.7704   -9.7704   -9.7704
   -9.5643   -9.5643   -6.9719   -6.9719   -5.8933   -5.8933   -5.8933   -5.8933   -5.8933   -5.8933
   -5.8933   -5.8933   -3.4519   -3.4519   -3.4519   -3.4519   -2.1962   -2.1962   -2.1962   -2.1962
    1.9122    1.9122    2.3874    2.3874    2.3874    2.3874    3.2749    3.2749    3.2749    3.2749
    3.5637    3.5637    3.5637    3.5637    3.8983    3.8983    3.8983    3.8983    3.8983    3.8983
    3.8983    3.8983    5.4506    5.4506    5.4506    5.4506    6.6132    6.6132    6.6133    6.6133
    8.9311    8.9311    8.9311    8.9311    8.9311    8.9311    8.9311    8.9311   10.1747   10.1747
   10.1747   10.1747   11.3339   11.3339   13.2955   13.2955   13.9880   13.9880   13.9880   13.9880
   13.9880   13.9880   13.9880   13.9880
  43  1  -29.6741  -29.6741  -28.9674  -28.9674  -28.9674  -28.9674  -26.9481  -26.9481  -26.9481  -26.9481
         -25.6965  -25.6965  -25.1721  -25.1721  -25.1721  -25.1721  -24.4263  -24.4263  -23.0200  -23.0200
  -22.8246  -22.8246  -22.8246  -22.8246  -20.8087  -20.8087  -19.7524  -19.7524  -19.7524  -19.7524
  -19.1765  -19.1765  -18.3854  -18.3854  -17.6082  -17.6082  -17.6082  -17.6082  -16.9168  -16.9168
  -16.9168  -16.9168  -16.5930  -16.5930  -16.5930  -16.5930  -15.0308  -15.0308  -15.0308  -15.0308
  -14.8117  -14.8117  -13.9719  -13.9719  -13.0795  -13.0795  -12.5587  -12.5587  -12.5587  -12.5587
  -10.8816  -10.8816  -10.8816  -10.8816   -9.8196   -9.8196   -9.6482   -9.6482   -9.6482   -9.6482
   -9.0851   -9.0851   -6.6450   -6.6450   -6.5696   -6.5696   -6.5696   -6.5696   -5.6008   -5.6008
   -4.6063   -4.6063   -4.6063   -4.6063   -2.7137   -2.7137   -2.7137   -2.7137   -1.7417   -1.7417
    1.7821    1.7821    2.4475    2.4475    2.4475    2.4475    2.7200    2.7200    2.7200    2.7200
    2.8548    2.8548    3.8399    3.8399    3.9643    3.9643    3.9643    3.9643    4.6067    4.6067
    4.6067    4.6067    5.2059    5.2059    6.3049    6.3049    7.0691    7.0691    7.0691    7.0691
    7.5800    7.5800    7.8911    7.8911    7.8911    7.8911    9.7244    9.7244   10.5791   10.5791
   10.5792   10.5792   12.4202   12.4202   12.4202   12.4202   13.6013   13.6013   13.6013   13.6013
   14.1346   14.1346   14.5512   14.5512
  44  1  -29.4960  -29.4960  -29.4960  -29.4960  -28.1069  -28.1069  -28.1069  -28.1069  -25.5549  -25.5549
         -25.5549  -25.5549  -25.5549  -25.5549  -25.5549  -25.5549  -24.8565  -24.8565  -23.4053  -23.4053
  -21.6895  -21.6895  -21.6895  -21.6895  -21.6895  -21.6895  -21.6895  -21.6895  -18.1983  -18.1983
  -18.1983  -18.1983  -18.1982  -18.1982  -18.1982  -18.1982  -17.9679  -17.9679  -17.9679  -17.9679
  -16.4971  -16.4971  -16.4971  -16.4971  -16.3541  -16.3541  -15.4418  -15.4418  -15.4418  -15.4418
  -14.0779  -14.0779  -14.0779  -14.0779  -12.9686  -12.9686  -12.9686  -12.9686  -11.8523  -11.8523
  -11.8523  -11.8523   -9.7704   -9.7704   -9.7704   -9.7704   -9.7704   -9.7704   -9.7704   -9.7704
   -9.5643   -9.5643   -6.9719   -6.9719   -5.8933   -5.8933   -5.8933   -5.8933   -5.8933   -5.8933
   -5.8933   -5.8933   -3.4519   -3.4519   -3.4519   -3.4519   -2.1962   -2.1962   -2.1962   -2.1962
    1.9122    1.9122    2.3874    2.3874    2.3874    2.3874    3.2749    3.2749    3.2749    3.2749
    3.5637    3.5637    3.5637    3.5637    3.8983    3.8983    3.8983    3.8983    3.8983    3.8983
    3.8983    3.8983    5.4506    5.4506    5.4506    5.4506    6.6132    6.6132    6.6133    6.6133
    8.9311    8.9311    8.9311    8.9311    8.9311    8.9311    8.9311    8.9311   10.1747   10.1747
   10.1747   10.1747   11.3339   11.3339   13.2955   13.2955   13.9880   13.9880   13.9880   13.9880
   13.9880   13.9880   13.9880   13.9880
siesta: Fermi energy =      -7.523619 eV

siesta: Program's energy decomposition (eV):
siesta: Ebs     =     -2687.040306
siesta: Eions   =      9434.507561
siesta: Ena     =      2155.162884
siesta: Ekin    =      4138.207238
siesta: Enl     =      -408.588778
siesta: Eso     =         0.000000
siesta: Edftu   =         0.000000
siesta: DEna    =      -186.290832
siesta: DUscf   =        10.233201
siesta: DUext   =         0.000000
siesta: Exc     =     -1755.233735
siesta: eta*DQ  =         0.000000
siesta: Emadel  =         0.000000
siesta: Emeta   =         0.000000
siesta: Emolmec =        -8.224026
siesta: Ekinion =         0.000000
siesta: Eharris =     -5489.241610
siesta: Etot    =     -5489.241610
siesta: FreeEng =     -5489.256317

siesta: Final energy (eV):
siesta:  Band Struct. =   -2687.040306
siesta:       Kinetic =    4138.207238
siesta:       Hartree =     323.137108
siesta:       Edftu   =       0.000000
siesta:       Eso     =       0.000000
siesta:    Ext. field =       0.000000
siesta:   Exch.-corr. =   -1755.233735
siesta:  Ion-electron =   -5176.458212
siesta:       Ion-ion =   -3010.669982
siesta:       Ekinion =       0.000000
siesta:         Total =   -5489.241610
siesta:         Fermi =      -7.523619

siesta: Stress tensor (static) (eV/Ang**3):
siesta:    -0.277356    0.000000    0.000000
siesta:     0.000000   -0.277356    0.000000
siesta:    -0.000000   -0.000000   -1.628376

siesta: Cell volume =        177.840149 Ang**3

siesta: Pressure (static):
siesta:                Solid            Molecule  Units
siesta:           0.00792554          0.00792560  Ry/Bohr**3
siesta:           0.72769574          0.72770169  eV/Ang**3
siesta:        1165.90970725       1165.91924284  kBar
(Free)E+ p_basis*V_orbitals  =       -5470.953271
(Free)Eharris+ p_basis*V_orbitals  =       -5470.953271

cite: Please see "graphite_scf.bib" for an exhaustive BiBTeX file.
cite: Please clearly indicate Siesta version in published work: 4.1.5
cite: This calculation has made use of the following articles
cite: which are encouraged to be cited in a published work.
        Primary SIESTA paper
          DOI: www.doi.org/10.1088/0953-8984/14/11/302

>> End of run:   1-NOV-2022  14:27:12
Job completed
