Siesta Version  : 4.1.5
Architecture    : x86_64-unknown-linux-gnu--unknown
Compiler version: GNU Fortran (GCC) 11.3.0
Compiler flags  : mpif90 -g -O2 -fallow-argument-mismatch
PP flags        : -DMPI -DFC_HAVE_FLUSH -DFC_HAVE_ABORT
Libraries       :  -I/global/software/sl-7.x86_64/modules/intel/2020.4.304/mkl/include  /globall/software/sl-7.x86_64/modules/intel/2020.4.304/mkl/lib/intel64/libmkl_scalapack_lp64.a -Wl,--start-group /global/software/sl-7.x86_64/modules/intel/2020.4.304/mkl/lib/intel64/libmkl_intel_lp64.a /global/software/sl-7.x86_64/modules/intel/2020.4.304/mkl/lib/intel64/libmkl_sequential.a /global/software/sl-7.x86_64/modules/intel/2020.4.304/mkl/lib/intel64/libmkl_core.a /global/software/sl-7.x86_64/modules/intel/2020.4.304/mkl/lib/intel64/libmkl_blacs_openmpi_lp64.a -Wl,--end-group -lpthread -lm -ldl
PARALLEL version

* Running on 20 nodes in parallel
>> Start of run:   1-NOV-2022  14:33:29

                           ***********************       
                           *  WELCOME TO SIESTA  *       
                           ***********************       

reinit: Reading from standard input
reinit: Dumped input in INPUT_TMP.94954
************************** Dump of input data file ****************************
SystemName graphite_scf
SystemLabel graphite_scf
NumberOfAtoms   36
NumberOfSpecies 1
%block ChemicalSpeciesLabel
1  6   C-gga
%endblock ChemicalSpeciesLabel
PAO.BasisSize  SZ
PAO.EnergyShift  10 meV
%block PS.Lmax
C-gga   2
%endblock PS.Lmax
LatticeConstant 1.000000 Ang
%block LatticeVectors
	7.3920000000	0.0000000000	0.0000000000
	-3.6960000000	6.4016597848	0.0000000000
	0.0000000000	0.0000000000	8.9927400000
%endblock LatticeVectors
AtomicCoordinatesFormat Ang
%block AtomicCoordinatesAndAtomicSpecies
	0.00000000	0.00000000	2.24818500	1
	0.00000000	0.00000000	6.74455500	1
	-1.23200000	2.13388659	2.24818500	1
	-2.46400000	4.26777319	6.74455500	1
	2.46400000	4.26777319	2.24818500	1
	1.23200000	2.13388659	6.74455500	1
	2.46400000	0.00000000	2.24818500	1
	4.92800000	0.00000000	6.74455500	1
	2.46400000	0.00000000	6.74455500	1
	4.92800000	0.00000000	2.24818500	1
	2.46400000	4.26777319	6.74455500	1
	1.23200000	2.13388659	2.24818500	1
	-1.23200000	2.13388659	6.74455500	1
	-2.46400000	4.26777319	2.24818500	1
	0.00000000	4.26777319	2.24818500	1
	3.69600000	2.13388659	6.74455500	1
	3.69600000	2.13388659	2.24818500	1
	0.00000000	4.26777319	6.74455500	1
	0.00000000	1.42258964	2.24818500	1
	3.69600000	4.97907014	6.74455500	1
	2.46400123	5.69036496	2.24818500	1
	1.23199877	0.71129482	6.74455500	1
	-2.46400123	5.69036496	2.24818500	1
	6.16000123	0.71129482	6.74455500	1
	-1.23200000	3.55647624	2.24818500	1
	4.92800000	2.84518355	6.74455500	1
	1.23200123	3.55647837	2.24818500	1
	2.46399877	2.84518142	6.74455500	1
	-0.00000123	5.69036496	2.24818500	1
	3.69600123	0.71129482	6.74455500	1
	2.46400000	1.42258964	2.24818500	1
	1.23200000	4.97907014	6.74455500	1
	4.92800123	1.42259177	2.24818500	1
	-1.23200123	4.97906801	6.74455500	1
	3.69599877	3.55647837	2.24818500	1
	0.00000123	2.84518142	6.74455500	1
%endblock AtomicCoordinatesAndAtomicSpecies
Kgrid_NoTRS  T
%block kgrid_MonkhorstPack
4       0       0       0.0
0       4       0       0.0
0       0       4       0.0
%endblock kgrid_MonkhorstPack
AtomCoorFormatOut Ang
BlockSize 1
#ProcessorY 12
Diag.ParallelOverK   T
Diag.DivideAndConquer F
MeshCutoff   300 Ry
SCF.FreeE.Tolerance 1E-3 eV
SCF.EDM.Tolerance   5E-3 eV
DM.Tolerance  1E-3
DM.Require.Energy.Convergence T
DM.NumberPulay 4
#XC.Functional GGA
#CX.Authors    PBE
UseSaveData        F
SolutionMethod     diagon
MD.TypeOfRun       CG
MD.VariableCell    F
MD.NumCGsteps      00
MD.MaxCGDispl      0.200000 Bohr
#MD.MaxStressTol    1.000000 GPa
#MD.MaxForceTol     0.010000 eV/Ang
WriteMDHistory T
WriteCoorStep T
WriteForces T
WriteCoorStep    T
WriteEigenValues T
WriteDM    F
MM.UnitsDistance Ang  # what this program prints out DO NOT CHANGE
MM.UnitsEnergy    eV  # what this program prints out DO NOT CHANGE
MM.Grimme.S6     0.75 # Grimme-paper for PBE (correct for your functional)
MM.Grimme.D     20.   # Grimme-paper (correct for your functional)
%block MM.Potentials
  1   1 Grimme     18.14      2.904 # C, 10.1002/jcc.20495
%endblock MM.Potentials
#%block ProjectedDensityOfStates
# -200.0  120.0  0.4  12800  eV
#%endblock ProjectedDensityOfStates
************************** End of input data file *****************************

reinit: -----------------------------------------------------------------------
reinit: System Name: graphite_scf
reinit: -----------------------------------------------------------------------
reinit: System Label: graphite_scf
reinit: -----------------------------------------------------------------------
Reading two-body potentials
Grimme - two-body potential between 1 and 1

initatom: Reading input for the pseudopotentials and atomic orbitals ----------
Species number:   1 Atomic number:    6 Label: C-gga

Ground state valence configuration:   2s02  2p02
Reading pseudopotential information in formatted form from C-gga.psf

Valence configuration for pseudopotential generation:
2s( 2.00) rc: 1.56
2p( 2.00) rc: 1.56
3d( 0.00) rc: 1.56
4f( 0.00) rc: 1.56
relmxkb: Read Max KB Ang. Momentum=    2 for species C-gga

<basis_specs>
===============================================================================
C-gga                Z=   6    Mass=  12.010        Charge= 0.17977+309
Lmxo=1 Lmxkb= 2    BasisType=split      Semic=F
L=0  Nsemic=0  Cnfigmx=2
          i=1  nzeta=1  polorb=0  (2s)
            splnorm:   0.15000    
               vcte:    0.0000    
               rinn:    0.0000    
               qcoe:    0.0000    
               qyuk:    0.0000    
               qwid:   0.10000E-01
                rcs:    0.0000    
            lambdas:    1.0000    
L=1  Nsemic=0  Cnfigmx=2
          i=1  nzeta=1  polorb=0  (2p)
            splnorm:   0.15000    
               vcte:    0.0000    
               rinn:    0.0000    
               qcoe:    0.0000    
               qyuk:    0.0000    
               qwid:   0.10000E-01
                rcs:    0.0000    
            lambdas:    1.0000    
-------------------------------------------------------------------------------
L=0  Nkbl=1  erefs: 0.17977+309
L=1  Nkbl=1  erefs: 0.17977+309
L=2  Nkbl=1  erefs: 0.17977+309
===============================================================================
</basis_specs>

atom: Called for C-gga                 (Z =   6)

read_vps: Pseudopotential generation method:
read_vps: ATM 3.2.2 Troullier-Martins                       
Valence charge for ps generation:    4.00000

xc_check: Exchange-correlation functional:
xc_check: Ceperley-Alder
xc_check: WARNING: Pseudopotential generated with GGA PBE functional
V l=0 = -2*Zval/r beyond r=  1.5227
V l=1 = -2*Zval/r beyond r=  1.5227
V l=2 = -2*Zval/r beyond r=  1.5227
All V_l potentials equal beyond r=  1.4851
This should be close to max(r_c) in ps generation
All pots = -2*Zval/r beyond r=  1.5227

VLOCAL1: 99.0% of the norm of Vloc inside     19.682 Ry
VLOCAL1: 99.9% of the norm of Vloc inside     44.856 Ry
atom: Maximum radius for 4*pi*r*r*local-pseudopot. charge    1.79142
atom: Maximum radius for r*vlocal+2*Zval:    1.54183
GHOST: No ghost state for L =  0
GHOST: No ghost state for L =  1
GHOST: No ghost state for L =  2

KBgen: Kleinman-Bylander projectors: 
   l= 0   rc=  1.661951   el= -0.994756   Ekb=  5.296364   kbcos=  0.313951
   l= 1   rc=  1.661951   el= -0.376633   Ekb= -4.104879   kbcos= -0.344765
   l= 2   rc=  1.747182   el=  0.002326   Ekb= -1.006421   kbcos= -0.008606

KBgen: Total number of Kleinman-Bylander projectors:    9
atom: -------------------------------------------------------------------------

atom: SANKEY-TYPE ORBITALS:

SPLIT: Orbitals with angular momentum L= 0

SPLIT: Basis orbitals for state 2s

SPLIT: PAO cut-off radius determined from an
SPLIT: energy shift=  0.000735 Ry

   izeta = 1
                 lambda =    1.000000
                     rc =    5.948690
                 energy =   -0.994108
                kinetic =    0.809152
    potential(screened) =   -1.803260
       potential(ionic) =   -5.360717

SPLIT: Orbitals with angular momentum L= 1

SPLIT: Basis orbitals for state 2p

SPLIT: PAO cut-off radius determined from an
SPLIT: energy shift=  0.000735 Ry

   izeta = 1
                 lambda =    1.000000
                     rc =    7.638387
                 energy =   -0.375915
                kinetic =    2.245823
    potential(screened) =   -2.621738
       potential(ionic) =   -5.993382
atom: Total number of Sankey-type orbitals:  4

atm_pop: Valence configuration (for local Pseudopot. screening):
 2s( 2.00)                                                            
 2p( 2.00)                                                            
Vna: chval, zval:    4.00000   4.00000

Vna:  Cut-off radius for the neutral-atom potential:   7.638387

atom: _________________________________________________________________________

prinput: Basis input ----------------------------------------------------------

PAO.BasisType split     

%block ChemicalSpeciesLabel
    1    6 C-gga                   # Species index, atomic number, species label
%endblock ChemicalSpeciesLabel

%block PAO.Basis                 # Define Basis set
C-gga                 2                    # Species label, number of l-shells
 n=2   0   1                         # n, l, Nzeta 
   5.949   
   1.000   
 n=2   1   1                         # n, l, Nzeta 
   7.638   
   1.000   
%endblock PAO.Basis

prinput: ----------------------------------------------------------------------

coor:   Atomic-coordinates input format  =     Cartesian coordinates
coor:                                          (in Angstroms)

siesta: Atomic coordinates (Bohr) and species
siesta:      0.00000   0.00000   4.24846  1        1
siesta:      0.00000   0.00000  12.74537  1        2
siesta:     -2.32814   4.03246   4.24846  1        3
siesta:     -4.65629   8.06493  12.74537  1        4
siesta:      4.65629   8.06493   4.24846  1        5
siesta:      2.32814   4.03246  12.74537  1        6
siesta:      4.65629   0.00000   4.24846  1        7
siesta:      9.31257   0.00000  12.74537  1        8
siesta:      4.65629   0.00000  12.74537  1        9
siesta:      9.31257   0.00000   4.24846  1       10
siesta:      4.65629   8.06493  12.74537  1       11
siesta:      2.32814   4.03246   4.24846  1       12
siesta:     -2.32814   4.03246  12.74537  1       13
siesta:     -4.65629   8.06493   4.24846  1       14
siesta:      0.00000   8.06493   4.24846  1       15
siesta:      6.98443   4.03246  12.74537  1       16
siesta:      6.98443   4.03246   4.24846  1       17
siesta:      0.00000   8.06493  12.74537  1       18
siesta:      0.00000   2.68831   4.24846  1       19
siesta:      6.98443   9.40908  12.74537  1       20
siesta:      4.65629  10.75324   4.24846  1       21
siesta:      2.32814   1.34415  12.74537  1       22
siesta:     -4.65629  10.75324   4.24846  1       23
siesta:     11.64072   1.34415  12.74537  1       24
siesta:     -2.32814   6.72077   4.24846  1       25
siesta:      9.31257   5.37662  12.74537  1       26
siesta:      2.32815   6.72077   4.24846  1       27
siesta:      4.65628   5.37662  12.74537  1       28
siesta:     -0.00000  10.75324   4.24846  1       29
siesta:      6.98443   1.34415  12.74537  1       30
siesta:      4.65629   2.68831   4.24846  1       31
siesta:      2.32814   9.40908  12.74537  1       32
siesta:      9.31258   2.68831   4.24846  1       33
siesta:     -2.32815   9.40908  12.74537  1       34
siesta:      6.98443   6.72077   4.24846  1       35
siesta:      0.00000   5.37662  12.74537  1       36

siesta: System type = bulk      

initatomlists: Number of atoms, orbitals, and projectors:     36   144   324

siesta: ******************** Simulation parameters ****************************
siesta:
siesta: The following are some of the parameters of the simulation.
siesta: A complete list of the parameters used, including default values,
siesta: can be found in file out.fdf
siesta:
redata: Spin configuration                          = none
redata: Number of spin components                   = 1
redata: Time-Reversal Symmetry                      = T
redata: Spin spiral                                 = F
redata: Long output                                 =   F
redata: Number of Atomic Species                    =        1
redata: Charge density info will appear in .RHO file
redata: Write Mulliken Pop.                         = NO
redata: Matel table size (NRTAB)                    =     1024
redata: Mesh Cutoff                                 =   300.0000 Ry
redata: Net charge of the system                    =     0.0000 |e|
redata: Min. number of SCF Iter                     =        0
redata: Max. number of SCF Iter                     =     1000
redata: SCF convergence failure will abort job
redata: SCF mix quantity                            = Hamiltonian
redata: Mix DM or H after convergence               =   F
redata: Recompute H after scf cycle                 =   F
redata: Mix DM in first SCF step                    =   T
redata: Write Pulay info on disk                    =   F
redata: New DM Occupancy tolerance                  = 0.000000000001
redata: No kicks to SCF
redata: DM Mixing Weight for Kicks                  =     0.5000
redata: Require Harris convergence for SCF          =   F
redata: Harris energy tolerance for SCF             =     0.000100 eV
redata: Require DM convergence for SCF              =   T
redata: DM tolerance for SCF                        =     0.001000
redata: Require EDM convergence for SCF             =   F
redata: EDM tolerance for SCF                       =     0.005000 eV
redata: Require H convergence for SCF               =   T
redata: Hamiltonian tolerance for SCF               =     0.001000 eV
redata: Require (free) Energy convergence for SCF   =   T
redata: (free) Energy tolerance for SCF             =     0.001000 eV
redata: Using Saved Data (generic)                  =   F
redata: Use continuation files for DM               =   F
redata: Neglect nonoverlap interactions             =   F
redata: Method of Calculation                       = Diagonalization
redata: Electronic Temperature                      =   299.9869 K
redata: Fix the spin of the system                  =   F
redata: Dynamics option                             = Single-point calculation
mix.SCF: Pulay mixing                            = Pulay
mix.SCF:    Variant                              = stable
mix.SCF:    History steps                        = 4
mix.SCF:    Linear mixing weight                 =     0.250000
mix.SCF:    Mixing weight                        =     0.250000
mix.SCF:    SVD condition                        = 0.1000E-07
redata: ***********************************************************************

%block SCF.Mixers
  Pulay
%endblock SCF.Mixers

%block SCF.Mixer.Pulay
  # Mixing method
  method pulay
  variant stable

  # Mixing options
  weight 0.2500
  weight.linear 0.2500
  history 4
%endblock SCF.Mixer.Pulay

DM_history_depth set to one: no extrapolation allowed by default for geometry relaxation
Size of DM history Fstack: 1
Total number of electrons:   144.000000
Total ionic charge:   144.000000

* ProcessorY, Blocksize:    4   1


* Orbital distribution balance (max,min):     8     7

k-point displ. along   1 input, could be:     0.00    0.50
k-point displ. along   2 input, could be:     0.00    0.50
k-point displ. along   3 input, could be:     0.00    0.50
 Kpoints in:           48 . Kpoints trimmed:           44

siesta: k-grid: Number of k-points =    44
siesta: k-grid: Cutoff (effective) =    14.784 Ang
siesta: k-grid: Supercell and displacements
siesta: k-grid:    4   0   0      0.000
siesta: k-grid:    0   4   0      0.000
siesta: k-grid:    0   0   4      0.000

diag: Algorithm                                     = Expert
diag: Parallel over k                               =   T
diag: Use parallel 2D distribution                  =   T
diag: Parallel block-size                           = 1
diag: Parallel distribution                         =     4 x     5
diag: Used triangular part                          = Lower
diag: Absolute tolerance                            =  0.100E-15
diag: Orthogonalization factor                      =  0.100E-05
diag: Memory factor                                 =  1.0000

superc: Internal auxiliary supercell:     5 x     5 x     3  =      75
superc: Number of atoms, orbitals, and projectors:   2700  10800  24300


ts: **************************************************************
ts: Save H and S matrices                           =    F
ts: Save DM and EDM matrices                        =    F
ts: Only save the overlap matrix S                  =    F
ts: **************************************************************

************************ Begin: TS CHECKS AND WARNINGS ************************
************************ End: TS CHECKS AND WARNINGS **************************


                     ====================================
                        Single-point calculation
                     ====================================

outcoor: Atomic coordinates (Ang):                          
    0.00000000    0.00000000    2.24818500   1       1  C-gga
    0.00000000    0.00000000    6.74455500   1       2  C-gga
   -1.23200000    2.13388659    2.24818500   1       3  C-gga
   -2.46400000    4.26777319    6.74455500   1       4  C-gga
    2.46400000    4.26777319    2.24818500   1       5  C-gga
    1.23200000    2.13388659    6.74455500   1       6  C-gga
    2.46400000    0.00000000    2.24818500   1       7  C-gga
    4.92800000    0.00000000    6.74455500   1       8  C-gga
    2.46400000    0.00000000    6.74455500   1       9  C-gga
    4.92800000    0.00000000    2.24818500   1      10  C-gga
    2.46400000    4.26777319    6.74455500   1      11  C-gga
    1.23200000    2.13388659    2.24818500   1      12  C-gga
   -1.23200000    2.13388659    6.74455500   1      13  C-gga
   -2.46400000    4.26777319    2.24818500   1      14  C-gga
    0.00000000    4.26777319    2.24818500   1      15  C-gga
    3.69600000    2.13388659    6.74455500   1      16  C-gga
    3.69600000    2.13388659    2.24818500   1      17  C-gga
    0.00000000    4.26777319    6.74455500   1      18  C-gga
    0.00000000    1.42258964    2.24818500   1      19  C-gga
    3.69600000    4.97907014    6.74455500   1      20  C-gga
    2.46400123    5.69036496    2.24818500   1      21  C-gga
    1.23199877    0.71129482    6.74455500   1      22  C-gga
   -2.46400123    5.69036496    2.24818500   1      23  C-gga
    6.16000123    0.71129482    6.74455500   1      24  C-gga
   -1.23200000    3.55647624    2.24818500   1      25  C-gga
    4.92800000    2.84518355    6.74455500   1      26  C-gga
    1.23200123    3.55647837    2.24818500   1      27  C-gga
    2.46399877    2.84518142    6.74455500   1      28  C-gga
   -0.00000123    5.69036496    2.24818500   1      29  C-gga
    3.69600123    0.71129482    6.74455500   1      30  C-gga
    2.46400000    1.42258964    2.24818500   1      31  C-gga
    1.23200000    4.97907014    6.74455500   1      32  C-gga
    4.92800123    1.42259177    2.24818500   1      33  C-gga
   -1.23200123    4.97906801    6.74455500   1      34  C-gga
    3.69599877    3.55647837    2.24818500   1      35  C-gga
    0.00000123    2.84518142    6.74455500   1      36  C-gga

superc: Internal auxiliary supercell:     5 x     5 x     3  =      75
superc: Number of atoms, orbitals, and projectors:   2700  10800  24300

outcell: Unit cell vectors (Ang):
        7.392000    0.000000    0.000000
       -3.696000    6.401660    0.000000
        0.000000    0.000000    8.992740

outcell: Cell vector modules (Ang)   :    7.392000    7.392000    8.992740
outcell: Cell angles (23,13,12) (deg):     90.0000     90.0000    120.0000
outcell: Cell volume (Ang**3)        :    425.5461
<dSpData1D:S at geom step 0
  <sparsity:sparsity for geom step 0
    nrows_g=144 nrows=8 sparsity=.2265 nnzs=4696, refcount: 7>
  <dData1D:(new from dSpData1D) n=4696, refcount: 1>
refcount: 1>
new_DM -- step:     1
Initializing Density Matrix...
DM filled with atomic data:
<dSpData2D:DM initialized from atoms
  <sparsity:sparsity for geom step 0
    nrows_g=144 nrows=8 sparsity=.2265 nnzs=4696, refcount: 8>
  <dData2D:DM n=4696 m=1, refcount: 1>
refcount: 1>
No. of atoms with KB's overlaping orbs in proc 0. Max # of overlaps:      79     148
New grid distribution:   1
           1       1:   36    1:    9    1:   10
           2       1:   36    1:    9   11:   20
           3       1:   36    1:    9   21:   30
           4       1:   36    1:    9   31:   39
           5       1:   36    1:    9   40:   48
           6       1:   36   10:   18    1:   10
           7       1:   36   10:   18   11:   20
           8       1:   36   10:   18   21:   30
           9       1:   36   10:   18   31:   39
          10       1:   36   10:   18   40:   48
          11       1:   36   19:   27    1:   10
          12       1:   36   19:   27   11:   20
          13       1:   36   19:   27   21:   30
          14       1:   36   19:   27   31:   39
          15       1:   36   19:   27   40:   48
          16       1:   36   28:   36    1:   10
          17       1:   36   28:   36   11:   20
          18       1:   36   28:   36   21:   30
          19       1:   36   28:   36   31:   39
          20       1:   36   28:   36   40:   48

InitMesh: MESH =    72 x    72 x    96 =      497664
InitMesh: (bp) =    36 x    36 x    48 =       62208
InitMesh: Mesh cutoff (required, used) =   300.000   314.963 Ry
ExtMesh (bp) on 0 =   128 x   101 x    98 =     1266944
New grid distribution:   2
           1       1:   15   19:   36   37:   48
           2       1:   15    1:   18   13:   24
           3       1:   14    1:   18   25:   36
           4       1:   14    1:   18   37:   48
           5      15:   36    1:    9   32:   48
           6       1:   15    1:   18    1:   12
           7      16:   36   10:   18    8:   24
           8      15:   36    1:   18   25:   31
           9      16:   36    1:    9    8:   24
          10      15:   36   10:   18   32:   48
          11      16:   36   19:   36    1:    7
          12      16:   36   19:   27    8:   24
          13       1:   15   19:   36   25:   36
          14      16:   36    1:   18    1:    7
          15      16:   36   19:   27   32:   48
          16       1:   15   19:   36    1:   12
          17       1:   15   19:   36   13:   24
          18      16:   36   28:   36    8:   24
          19      16:   36   19:   36   25:   31
          20      16:   36   28:   36   32:   48
New grid distribution:   3
           1      16:   36   19:   36   25:   32
           2       1:   15    1:   18   13:   24
           3       1:   15    1:   18   25:   36
           4      16:   36   19:   36    1:    8
           5       1:   15   19:   36   37:   48
           6       1:   15    1:   18    1:   12
           7      16:   36   28:   36    9:   24
           8      16:   36   10:   18    9:   24
           9      16:   36    1:   18    1:    8
          10       1:   15    1:   18   37:   48
          11      16:   36   19:   27    9:   24
          12       1:   15   19:   36   13:   24
          13      16:   36    1:    9   33:   48
          14      16:   36    1:   18   25:   32
          15      16:   36   19:   27   33:   48
          16       1:   15   19:   36    1:   12
          17      16:   36   10:   18   33:   48
          18       1:   15   19:   36   25:   36
          19      16:   36    1:    9    9:   24
          20      16:   36   28:   36   33:   48
Setting up quadratic distribution...
ExtMesh (bp) on 0 =   107 x   110 x   100 =     1177000
PhiOnMesh: Number of (b)points on node 0 =                 3240
PhiOnMesh: nlist on node 0 =               278372

stepf: Fermi-Dirac step function

siesta: Program's energy decomposition (eV):
siesta: Ebs     =     -2604.254528
siesta: Eions   =      9434.507561
siesta: Ena     =      2271.194305
siesta: Ekin    =      3581.364831
siesta: Enl     =      -332.256084
siesta: Eso     =         0.000000
siesta: Edftu   =         0.000000
siesta: DEna    =        25.213064
siesta: DUscf   =         2.887644
siesta: DUext   =         0.000000
siesta: Exc     =     -1618.536539
siesta: eta*DQ  =         0.000000
siesta: Emadel  =         0.000000
siesta: Emeta   =         0.000000
siesta: Emolmec =        -2.702831
siesta: Ekinion =         0.000000
siesta: Eharris =     -5356.400421
siesta: Etot    =     -5507.343171
siesta: FreeEng =     -5507.359908

        iscf     Eharris(eV)        E_KS(eV)     FreeEng(eV)     dDmax    Ef(eV) dHmax(eV)
   scf:    1    -5356.400421    -5507.343171    -5507.359908  1.337031 -8.249984  0.327472
timer: Routine,Calls,Time,% = IterSCF        1       0.881  43.56
   scf:    2    -5507.345222    -5507.344198    -5507.361039  0.000532 -8.312427  0.245755
   scf:    3    -5507.346441    -5507.345329    -5507.362465  0.001555 -8.500700  0.000712
   scf:    4    -5507.345329    -5507.345329    -5507.362465  0.000031 -8.501003  0.000412

SCF Convergence by FreeE+DM+H criterion
|FreeE_i-FreeE_(i-1)| (eV) <     0.00100000
max |DM_out - DM_in|         :     0.0000309351
max |H_out - H_in|      (eV) :     0.0004115315
SCF cycle converged after 4 iterations

Using DM_out to compute the final energy and forces
No. of atoms with KB's overlaping orbs in proc 0. Max # of overlaps:      79     148

MM-Stress (kbar):        3.16        3.16       11.51        0.00       -0.00       -0.00

siesta: E_KS(eV) =            -5507.3453

siesta: E_KS - E_eggbox =     -5507.3453

siesta: Atomic forces (eV/Ang):
     1   -0.000000   -0.000000    0.000000
     2    0.000000   -0.000000    0.000000
     3    0.000076   -0.000056    0.000000
     4   -0.000076    0.000056    0.000000
     5    0.000011    0.000094   -0.000000
     6   -0.000011   -0.000094   -0.000000
     7   -0.000087   -0.000038   -0.000000
     8    0.000087    0.000037    0.000000
     9   -0.000015   -0.000013    0.000000
    10    0.000015    0.000012    0.000000
    11   -0.000003    0.000020    0.000000
    12    0.000003   -0.000019   -0.000000
    13    0.000018   -0.000007   -0.000000
    14   -0.000018    0.000007    0.000000
    15    0.000000   -0.000000    0.000000
    16   -0.000000    0.000000   -0.000000
    17    0.000000    0.000000   -0.000000
    18    0.000000   -0.000000    0.000000
    19    0.000006    0.000131    0.000000
    20   -0.000006   -0.000130   -0.000000
    21   -0.000116   -0.000059   -0.000000
    22    0.000116    0.000060    0.000000
    23    0.000110   -0.000070   -0.000000
    24   -0.000110    0.000071   -0.000000
    25    0.000009    0.000114   -0.000000
    26   -0.000009   -0.000115   -0.000000
    27   -0.000104   -0.000049    0.000000
    28    0.000104    0.000049    0.000000
    29    0.000094   -0.000065   -0.000000
    30   -0.000094    0.000065    0.000000
    31    0.000009    0.000115   -0.000000
    32   -0.000009   -0.000114   -0.000000
    33   -0.000104   -0.000049    0.000000
    34    0.000104    0.000049    0.000000
    35    0.000094   -0.000065   -0.000000
    36   -0.000094    0.000065   -0.000000
----------------------------------------
   Tot   -0.000000   -0.000000   -0.000000
----------------------------------------
   Max    0.000131
   Res    0.000054    sqrt( Sum f_i^2 / 3N )
----------------------------------------
   Max    0.000131    constrained

Stress tensor Voigt[x,y,z,yz,xz,xy] (kbar):     -318.05     -318.05       55.04       -0.00       -0.00        0.00
(Free)E + p*V (eV/cell)    -5455.9184
Target enthalpy (eV/cell)    -5507.3625

siesta: Eigenvalues (eV):
  ik is       eps
   1  1  -27.8308  -27.7994  -27.1125  -27.1125  -27.0943  -27.0943  -25.1700  -25.1700  -25.1442  -25.1442
         -24.0494  -24.0012  -23.6388  -23.6388  -23.5981  -23.5981  -23.0190  -22.9960  -21.5826  -21.5350
  -21.3915  -21.3915  -21.3294  -21.3294  -19.9925  -19.9712  -18.9986  -18.9986  -18.9729  -18.9728
  -18.1703  -18.1692  -17.7119  -17.6958  -17.0012  -17.0012  -16.9899  -16.9899  -16.6130  -16.6130
  -16.6006  -16.6006  -16.2262  -16.2262  -16.2193  -16.2193  -14.9075  -14.9075  -14.9011  -14.9011
  -14.6571  -14.6537  -14.3468  -14.1619  -13.9984  -13.9961  -13.8160  -13.8160  -13.6378  -13.6378
  -12.1457  -12.1457  -12.0479  -12.0479  -11.0078  -10.9752  -10.8119  -10.8119  -10.7872  -10.7872
  -10.1890  -10.1822   -6.8365   -6.7997   -6.1992   -6.1992   -6.1294   -6.1294   -5.6834   -5.6418
   -4.0215   -4.0215   -3.9773   -3.9773   -0.5696   -0.5696   -0.5472   -0.5472    0.9057    0.9173
    0.9319    1.0410    1.0410    1.0626    1.0626    1.0840    1.3777    1.3777    1.5307    1.5307
    1.7686    1.7696    2.8806    2.8809    3.0915    3.0915    3.1373    3.1373    3.4271    3.4271
    3.4806    3.4806    4.6962    4.7262    4.9745    4.9778    5.8615    5.8615    5.9745    5.9745
    6.4606    6.5164    6.9413    6.9413    6.9590    6.9590    9.0450    9.0693    9.8402    9.8403
    9.8613    9.8613   11.5766   11.5766   11.5918   11.5918   12.7803   12.7803   12.8189   12.8190
   13.2712   13.2752   13.7031   13.7055
   2  1  -28.2003  -28.1632  -26.7646  -26.7536  -26.0960  -26.0960  -26.0920  -26.0920  -24.8841  -24.8841
         -24.8533  -24.8533  -24.3450  -24.3063  -22.8701  -22.8701  -22.8186  -22.8186  -21.1490  -21.1490
  -21.1106  -21.1106  -20.7377  -20.6773  -19.8642  -19.8642  -19.8162  -19.8162  -18.7681  -18.7681
  -18.7502  -18.7502  -18.0579  -18.0579  -18.0355  -18.0355  -17.0761  -17.0602  -16.3131  -16.3131
  -16.3027  -16.3027  -16.0641  -16.0505  -15.7281  -15.7281  -15.7202  -15.7202  -14.9617  -14.9526
  -14.6066  -14.4240  -13.6769  -13.6743  -13.5465  -13.3875  -13.3849  -13.3764  -12.9955  -12.9955
  -12.8495  -12.8495  -11.9004  -11.9004  -11.8177  -11.8177  -11.4324  -11.3777   -9.7904   -9.7904
   -9.7769   -9.7769   -7.1848   -7.1848   -7.1516   -7.1516   -5.3654   -5.2817   -4.5460   -4.5460
   -4.4739   -4.4739   -2.4841   -2.4841   -2.4386   -2.4386   -1.2616   -1.2255    0.3275    0.3650
    0.3908    0.3916    0.6380    0.7632    0.8711    0.8732    1.1699    1.1699    1.1979    1.1979
    1.3255    1.3255    1.4141    1.4141    1.7168    1.7233    4.0754    4.0796    5.0480    5.0480
    5.0797    5.0797    5.4782    5.4790    5.8825    5.8825    5.9648    5.9648    7.2671    7.3768
    7.6921    7.6921    7.7265    7.7265    8.3052    8.3052    8.3675    8.3675    9.3071    9.3071
    9.3621    9.3621    9.8797    9.8811   11.4367   11.4367   11.5109   11.5109   11.6732   11.7910
   14.1738   14.1738   14.1764   14.1764
   3  1  -28.2003  -28.1632  -26.7646  -26.7536  -26.0960  -26.0960  -26.0920  -26.0920  -24.8841  -24.8841
         -24.8533  -24.8533  -24.3450  -24.3063  -22.8701  -22.8701  -22.8186  -22.8186  -21.1490  -21.1490
  -21.1106  -21.1106  -20.7377  -20.6773  -19.8642  -19.8642  -19.8162  -19.8162  -18.7681  -18.7681
  -18.7502  -18.7502  -18.0579  -18.0579  -18.0355  -18.0355  -17.0761  -17.0602  -16.3131  -16.3131
  -16.3027  -16.3027  -16.0641  -16.0505  -15.7281  -15.7281  -15.7202  -15.7202  -14.9617  -14.9526
  -14.6066  -14.4240  -13.6769  -13.6743  -13.5465  -13.3875  -13.3849  -13.3764  -12.9955  -12.9955
  -12.8495  -12.8495  -11.9004  -11.9004  -11.8177  -11.8177  -11.4324  -11.3777   -9.7904   -9.7904
   -9.7769   -9.7769   -7.1848   -7.1848   -7.1516   -7.1516   -5.3654   -5.2817   -4.5460   -4.5460
   -4.4739   -4.4739   -2.4841   -2.4841   -2.4386   -2.4386   -1.2616   -1.2255    0.3275    0.3650
    0.3908    0.3916    0.6380    0.7632    0.8711    0.8732    1.1699    1.1699    1.1979    1.1979
    1.3255    1.3255    1.4141    1.4141    1.7168    1.7233    4.0754    4.0796    5.0480    5.0480
    5.0797    5.0797    5.4782    5.4790    5.8825    5.8825    5.9648    5.9648    7.2671    7.3768
    7.6921    7.6921    7.7265    7.7265    8.3052    8.3052    8.3675    8.3675    9.3071    9.3071
    9.3621    9.3621    9.8797    9.8811   11.4367   11.4367   11.5109   11.5109   11.6732   11.7910
   14.1738   14.1738   14.1764   14.1764
   4  1  -27.8308  -27.7994  -27.1125  -27.1125  -27.0943  -27.0943  -25.1700  -25.1700  -25.1442  -25.1442
         -24.0494  -24.0012  -23.6388  -23.6388  -23.5981  -23.5981  -23.0190  -22.9960  -21.5826  -21.5350
  -21.3915  -21.3915  -21.3294  -21.3294  -19.9925  -19.9712  -18.9986  -18.9986  -18.9729  -18.9728
  -18.1703  -18.1692  -17.7119  -17.6958  -17.0012  -17.0012  -16.9899  -16.9899  -16.6130  -16.6130
  -16.6006  -16.6006  -16.2262  -16.2262  -16.2193  -16.2193  -14.9075  -14.9075  -14.9011  -14.9011
  -14.6571  -14.6537  -14.3468  -14.1619  -13.9984  -13.9961  -13.8160  -13.8160  -13.6378  -13.6378
  -12.1457  -12.1457  -12.0479  -12.0479  -11.0078  -10.9752  -10.8119  -10.8119  -10.7872  -10.7872
  -10.1890  -10.1822   -6.8365   -6.7997   -6.1992   -6.1992   -6.1294   -6.1294   -5.6834   -5.6418
   -4.0215   -4.0215   -3.9773   -3.9773   -0.5696   -0.5696   -0.5472   -0.5472    0.9057    0.9173
    0.9319    1.0410    1.0410    1.0626    1.0626    1.0840    1.3777    1.3777    1.5307    1.5307
    1.7686    1.7696    2.8806    2.8809    3.0915    3.0915    3.1373    3.1373    3.4271    3.4271
    3.4806    3.4806    4.6962    4.7262    4.9745    4.9778    5.8615    5.8615    5.9745    5.9745
    6.4606    6.5164    6.9413    6.9413    6.9590    6.9590    9.0450    9.0693    9.8402    9.8403
    9.8613    9.8613   11.5766   11.5766   11.5918   11.5918   12.7803   12.7803   12.8189   12.8190
   13.2712   13.2752   13.7031   13.7055
   5  1  -28.2003  -28.1632  -26.7646  -26.7536  -26.0960  -26.0960  -26.0920  -26.0920  -24.8841  -24.8841
         -24.8533  -24.8533  -24.3450  -24.3063  -22.8701  -22.8701  -22.8186  -22.8186  -21.1490  -21.1490
  -21.1106  -21.1106  -20.7377  -20.6773  -19.8642  -19.8642  -19.8162  -19.8162  -18.7681  -18.7681
  -18.7502  -18.7502  -18.0579  -18.0579  -18.0355  -18.0355  -17.0761  -17.0602  -16.3131  -16.3131
  -16.3027  -16.3027  -16.0641  -16.0505  -15.7281  -15.7281  -15.7202  -15.7202  -14.9617  -14.9526
  -14.6066  -14.4240  -13.6769  -13.6743  -13.5465  -13.3875  -13.3849  -13.3764  -12.9955  -12.9955
  -12.8495  -12.8495  -11.9004  -11.9004  -11.8177  -11.8177  -11.4324  -11.3777   -9.7904   -9.7904
   -9.7769   -9.7769   -7.1848   -7.1848   -7.1516   -7.1516   -5.3654   -5.2817   -4.5460   -4.5460
   -4.4739   -4.4739   -2.4841   -2.4841   -2.4386   -2.4386   -1.2616   -1.2255    0.3275    0.3650
    0.3908    0.3916    0.6380    0.7632    0.8711    0.8732    1.1699    1.1699    1.1979    1.1979
    1.3255    1.3255    1.4141    1.4141    1.7168    1.7233    4.0754    4.0796    5.0480    5.0480
    5.0797    5.0797    5.4782    5.4790    5.8825    5.8825    5.9648    5.9648    7.2671    7.3768
    7.6921    7.6921    7.7265    7.7265    8.3052    8.3052    8.3675    8.3675    9.3071    9.3071
    9.3621    9.3621    9.8797    9.8811   11.4367   11.4367   11.5109   11.5109   11.6732   11.7910
   14.1738   14.1738   14.1764   14.1764
   6  1  -28.3874  -28.3478  -25.6259  -25.6259  -25.6259  -25.6259  -25.6259  -25.6259  -25.6113  -25.6113
         -25.6113  -25.6113  -25.6113  -25.6113  -21.8705  -21.8705  -21.8430  -21.8430  -21.8430  -21.8430
  -21.8142  -21.8142  -19.3202  -19.3202  -19.3202  -19.3202  -18.9953  -18.9953  -18.9953  -18.9953
  -18.9953  -18.9953  -18.9585  -18.9585  -18.9585  -18.9585  -18.9585  -18.9585  -15.6362  -15.6362
  -15.6362  -15.6362  -15.6362  -15.6362  -15.6244  -15.6244  -15.6244  -15.6244  -15.6244  -15.6244
  -14.7351  -14.5553  -13.0653  -13.0653  -13.0648  -13.0648  -12.5872  -12.5872  -12.5872  -12.5872
  -12.5872  -12.5872  -12.4635  -12.4635  -12.4635  -12.4635  -12.4635  -12.4635   -8.5274   -8.5274
   -8.5010   -8.5010   -8.5010   -8.5010   -8.4741   -8.4741   -3.3551   -3.3551   -3.3551   -3.3551
   -3.3551   -3.3551   -3.2882   -3.2882   -3.2882   -3.2882   -3.2882   -3.2882    0.1054    0.1054
    0.1066    0.1066    0.5214    0.5215    0.5215    0.5215    0.5215    0.5215    0.5750    0.5750
    0.5750    0.5750    0.5750    0.5750    2.1436    2.1470    3.7331    3.7388    6.7068    6.7068
    6.7556    6.7556    6.7556    6.7556    6.8041    6.8041    8.0260    8.0260    8.0260    8.0261
    8.0261    8.0261    8.0276    8.0276    8.0276    8.0276    8.0276    8.0276    9.6188    9.6188
    9.6188    9.6188    9.6188    9.6188    9.7745    9.7745    9.7745    9.7745    9.7745    9.7745
   14.5284   14.5284   14.5284   14.5284
   7  1  -27.6486  -27.6486  -27.6203  -27.6203  -26.2567  -26.2567  -26.2563  -26.2563  -23.9345  -23.9345
         -23.9345  -23.9345  -23.8870  -23.8870  -23.8870  -23.8870  -23.4184  -23.3995  -21.7882  -21.7312
  -20.5715  -20.5715  -20.5715  -20.5715  -20.5194  -20.5194  -20.5194  -20.5194  -17.5382  -17.5382
  -17.5382  -17.5382  -17.5245  -17.5245  -17.5245  -17.5245  -17.4854  -17.4854  -17.4769  -17.4769
  -16.2095  -16.1953  -16.0633  -16.0633  -16.0491  -16.0491  -15.1876  -15.1876  -15.1817  -15.1817
  -14.2157  -14.2157  -14.1382  -14.1382  -14.1324  -14.1324  -14.0311  -14.0311  -13.1304  -13.1304
  -12.9779  -12.9779  -10.9461  -10.9461  -10.9461  -10.9461  -10.9162  -10.9162  -10.9162  -10.9162
  -10.7385  -10.7157   -6.3733   -6.3032   -5.8556   -5.8556   -5.8556   -5.8556   -5.7985   -5.7985
   -5.7985   -5.7985   -2.1575   -2.1575   -2.1289   -2.1289    0.2880    0.3229    0.5162    0.5162
    0.5320    0.5320    0.6038    0.6038    0.7512    0.7513    2.8698    2.8698    2.8718    2.8718
    2.9370    2.9370    2.9370    2.9371    2.9527    2.9527    2.9527    2.9528    3.2706    3.2706
    3.2775    3.2775    3.3536    3.3536    3.5696    3.5696    5.2747    5.2747    5.3057    5.3057
    8.1169    8.1169    8.1169    8.1169    8.1718    8.1718    8.1718    8.1718    9.3690    9.3690
    9.3736    9.3736   10.5585   10.5587   12.5612   12.5644   13.1249   13.1249   13.1249   13.1249
   13.1452   13.1452   13.1453   13.1453
   8  1  -27.8308  -27.7994  -27.1125  -27.1125  -27.0943  -27.0943  -25.1700  -25.1700  -25.1442  -25.1442
         -24.0494  -24.0012  -23.6388  -23.6388  -23.5981  -23.5981  -23.0190  -22.9960  -21.5826  -21.5350
  -21.3915  -21.3915  -21.3294  -21.3294  -19.9925  -19.9712  -18.9986  -18.9986  -18.9729  -18.9728
  -18.1703  -18.1692  -17.7119  -17.6958  -17.0012  -17.0012  -16.9899  -16.9899  -16.6130  -16.6130
  -16.6006  -16.6006  -16.2262  -16.2262  -16.2193  -16.2193  -14.9075  -14.9075  -14.9011  -14.9011
  -14.6571  -14.6537  -14.3468  -14.1619  -13.9984  -13.9961  -13.8160  -13.8160  -13.6378  -13.6378
  -12.1457  -12.1457  -12.0479  -12.0479  -11.0078  -10.9752  -10.8119  -10.8119  -10.7872  -10.7872
  -10.1890  -10.1822   -6.8365   -6.7997   -6.1992   -6.1992   -6.1294   -6.1294   -5.6834   -5.6418
   -4.0215   -4.0215   -3.9773   -3.9773   -0.5696   -0.5696   -0.5472   -0.5472    0.9057    0.9173
    0.9319    1.0410    1.0410    1.0626    1.0626    1.0840    1.3777    1.3777    1.5307    1.5307
    1.7686    1.7696    2.8806    2.8809    3.0915    3.0915    3.1373    3.1373    3.4271    3.4271
    3.4806    3.4806    4.6962    4.7262    4.9745    4.9778    5.8615    5.8615    5.9745    5.9745
    6.4606    6.5164    6.9413    6.9413    6.9590    6.9590    9.0450    9.0693    9.8402    9.8403
    9.8613    9.8613   11.5766   11.5766   11.5918   11.5918   12.7803   12.7803   12.8189   12.8190
   13.2712   13.2752   13.7031   13.7055
   9  1  -27.8308  -27.7994  -27.1125  -27.1125  -27.0943  -27.0943  -25.1700  -25.1700  -25.1442  -25.1442
         -24.0494  -24.0012  -23.6388  -23.6388  -23.5981  -23.5981  -23.0190  -22.9960  -21.5826  -21.5350
  -21.3915  -21.3915  -21.3294  -21.3294  -19.9925  -19.9712  -18.9986  -18.9986  -18.9729  -18.9728
  -18.1703  -18.1692  -17.7119  -17.6958  -17.0012  -17.0012  -16.9899  -16.9899  -16.6130  -16.6130
  -16.6006  -16.6006  -16.2262  -16.2262  -16.2193  -16.2193  -14.9075  -14.9075  -14.9011  -14.9011
  -14.6571  -14.6537  -14.3468  -14.1619  -13.9984  -13.9961  -13.8160  -13.8160  -13.6378  -13.6378
  -12.1457  -12.1457  -12.0479  -12.0479  -11.0078  -10.9752  -10.8119  -10.8119  -10.7872  -10.7872
  -10.1890  -10.1822   -6.8365   -6.7997   -6.1992   -6.1992   -6.1294   -6.1294   -5.6834   -5.6418
   -4.0215   -4.0215   -3.9773   -3.9773   -0.5696   -0.5696   -0.5472   -0.5472    0.9057    0.9173
    0.9319    1.0410    1.0410    1.0626    1.0626    1.0840    1.3777    1.3777    1.5307    1.5307
    1.7686    1.7696    2.8806    2.8809    3.0915    3.0915    3.1373    3.1373    3.4271    3.4271
    3.4806    3.4806    4.6962    4.7262    4.9745    4.9778    5.8615    5.8615    5.9745    5.9745
    6.4606    6.5164    6.9413    6.9413    6.9590    6.9590    9.0450    9.0693    9.8402    9.8403
    9.8613    9.8613   11.5766   11.5766   11.5918   11.5918   12.7803   12.7803   12.8189   12.8190
   13.2712   13.2752   13.7031   13.7055
  10  1  -27.6486  -27.6486  -27.6203  -27.6203  -26.2567  -26.2567  -26.2563  -26.2563  -23.9345  -23.9345
         -23.9345  -23.9345  -23.8870  -23.8870  -23.8870  -23.8870  -23.4184  -23.3995  -21.7882  -21.7312
  -20.5715  -20.5715  -20.5715  -20.5715  -20.5194  -20.5194  -20.5194  -20.5194  -17.5382  -17.5382
  -17.5382  -17.5382  -17.5245  -17.5245  -17.5245  -17.5245  -17.4854  -17.4854  -17.4769  -17.4769
  -16.2095  -16.1953  -16.0633  -16.0633  -16.0491  -16.0491  -15.1876  -15.1876  -15.1817  -15.1817
  -14.2157  -14.2157  -14.1382  -14.1382  -14.1324  -14.1324  -14.0311  -14.0311  -13.1304  -13.1304
  -12.9779  -12.9779  -10.9461  -10.9461  -10.9461  -10.9461  -10.9162  -10.9162  -10.9162  -10.9162
  -10.7385  -10.7157   -6.3733   -6.3032   -5.8556   -5.8556   -5.8556   -5.8556   -5.7985   -5.7985
   -5.7985   -5.7985   -2.1575   -2.1575   -2.1289   -2.1289    0.2880    0.3229    0.5162    0.5162
    0.5320    0.5320    0.6038    0.6038    0.7512    0.7513    2.8698    2.8698    2.8718    2.8718
    2.9370    2.9370    2.9370    2.9371    2.9527    2.9527    2.9527    2.9528    3.2706    3.2706
    3.2775    3.2775    3.3536    3.3536    3.5696    3.5696    5.2747    5.2747    5.3057    5.3057
    8.1169    8.1169    8.1169    8.1169    8.1718    8.1718    8.1718    8.1718    9.3690    9.3690
    9.3736    9.3736   10.5585   10.5587   12.5612   12.5644   13.1249   13.1249   13.1249   13.1249
   13.1452   13.1452   13.1453   13.1453
  11  1  -27.8308  -27.7994  -27.1125  -27.1125  -27.0943  -27.0943  -25.1700  -25.1700  -25.1442  -25.1442
         -24.0494  -24.0012  -23.6388  -23.6388  -23.5981  -23.5981  -23.0190  -22.9960  -21.5826  -21.5350
  -21.3915  -21.3915  -21.3294  -21.3294  -19.9925  -19.9712  -18.9986  -18.9986  -18.9729  -18.9728
  -18.1703  -18.1692  -17.7119  -17.6958  -17.0012  -17.0012  -16.9899  -16.9899  -16.6130  -16.6130
  -16.6006  -16.6006  -16.2262  -16.2262  -16.2193  -16.2193  -14.9075  -14.9075  -14.9011  -14.9011
  -14.6571  -14.6537  -14.3468  -14.1619  -13.9984  -13.9961  -13.8160  -13.8160  -13.6378  -13.6378
  -12.1457  -12.1457  -12.0479  -12.0479  -11.0078  -10.9752  -10.8119  -10.8119  -10.7872  -10.7872
  -10.1890  -10.1822   -6.8365   -6.7997   -6.1992   -6.1992   -6.1294   -6.1294   -5.6834   -5.6418
   -4.0215   -4.0215   -3.9773   -3.9773   -0.5696   -0.5696   -0.5472   -0.5472    0.9057    0.9173
    0.9319    1.0410    1.0410    1.0626    1.0626    1.0840    1.3777    1.3777    1.5307    1.5307
    1.7686    1.7696    2.8806    2.8809    3.0915    3.0915    3.1373    3.1373    3.4271    3.4271
    3.4806    3.4806    4.6962    4.7262    4.9745    4.9778    5.8615    5.8615    5.9745    5.9745
    6.4606    6.5164    6.9413    6.9413    6.9590    6.9590    9.0450    9.0693    9.8402    9.8403
    9.8613    9.8613   11.5766   11.5766   11.5918   11.5918   12.7803   12.7803   12.8189   12.8190
   13.2712   13.2752   13.7031   13.7055
  12  1  -27.6486  -27.6486  -27.6203  -27.6203  -26.2567  -26.2567  -26.2563  -26.2563  -23.9345  -23.9345
         -23.9345  -23.9345  -23.8870  -23.8870  -23.8870  -23.8870  -23.4184  -23.3995  -21.7882  -21.7312
  -20.5715  -20.5715  -20.5715  -20.5715  -20.5194  -20.5194  -20.5194  -20.5194  -17.5382  -17.5382
  -17.5382  -17.5382  -17.5245  -17.5245  -17.5245  -17.5245  -17.4854  -17.4854  -17.4769  -17.4769
  -16.2095  -16.1953  -16.0633  -16.0633  -16.0491  -16.0491  -15.1876  -15.1876  -15.1817  -15.1817
  -14.2157  -14.2157  -14.1382  -14.1382  -14.1324  -14.1324  -14.0311  -14.0311  -13.1304  -13.1304
  -12.9779  -12.9779  -10.9461  -10.9461  -10.9461  -10.9461  -10.9162  -10.9162  -10.9162  -10.9162
  -10.7385  -10.7157   -6.3733   -6.3032   -5.8556   -5.8556   -5.8556   -5.8556   -5.7985   -5.7985
   -5.7985   -5.7985   -2.1575   -2.1575   -2.1289   -2.1289    0.2880    0.3229    0.5162    0.5162
    0.5320    0.5320    0.6038    0.6038    0.7512    0.7513    2.8698    2.8698    2.8718    2.8718
    2.9370    2.9370    2.9370    2.9371    2.9527    2.9527    2.9527    2.9528    3.2706    3.2706
    3.2775    3.2775    3.3536    3.3536    3.5696    3.5696    5.2747    5.2747    5.3057    5.3057
    8.1169    8.1169    8.1169    8.1169    8.1718    8.1718    8.1718    8.1718    9.3690    9.3690
    9.3736    9.3736   10.5585   10.5587   12.5612   12.5644   13.1249   13.1249   13.1249   13.1249
   13.1452   13.1452   13.1453   13.1453
  13  1  -27.8267  -27.8045  -27.1105  -27.1105  -27.0975  -27.0975  -25.1670  -25.1670  -25.1487  -25.1487
         -24.0429  -24.0088  -23.6331  -23.6330  -23.6043  -23.6043  -23.0155  -22.9992  -21.5765  -21.5428
  -21.3831  -21.3831  -21.3391  -21.3391  -19.9893  -19.9742  -18.9949  -18.9949  -18.9767  -18.9767
  -18.1707  -18.1699  -17.7098  -17.6983  -17.0000  -17.0000  -16.9920  -16.9920  -16.6112  -16.6112
  -16.6024  -16.6024  -16.2253  -16.2253  -16.2204  -16.2204  -14.9070  -14.9070  -14.9025  -14.9025
  -14.6566  -14.6542  -14.3150  -14.1851  -13.9972  -13.9959  -13.7853  -13.7853  -13.6598  -13.6598
  -12.1300  -12.1300  -12.0609  -12.0609  -11.0027  -10.9797  -10.8082  -10.8082  -10.7907  -10.7907
  -10.1881  -10.1832   -6.8316   -6.8056   -6.1897   -6.1897   -6.1403   -6.1403   -5.6774   -5.6479
   -4.0151   -4.0151   -3.9838   -3.9838   -0.5664   -0.5664   -0.5505   -0.5505    0.9073    0.9153
    0.9575    1.0444    1.0444    1.0597    1.0597    1.0645    1.4033    1.4033    1.5112    1.5112
    1.7687    1.7694    2.8808    2.8810    3.0989    3.0989    3.1312    3.1312    3.4353    3.4353
    3.4731    3.4731    4.7007    4.7218    4.9750    4.9773    5.8793    5.8793    5.9591    5.9591
    6.4697    6.5091    6.9440    6.9440    6.9566    6.9566    9.0487    9.0659    9.8435    9.8436
    9.8584    9.8585   11.5789   11.5789   11.5896   11.5896   12.7862   12.7862   12.8136   12.8136
   13.2718   13.2746   13.7035   13.7053
  14  1  -28.1953  -28.1690  -26.7637  -26.7559  -26.0961  -26.0961  -26.0934  -26.0934  -24.8803  -24.8803
         -24.8585  -24.8585  -24.3399  -24.3125  -22.8627  -22.8627  -22.8263  -22.8263  -21.1435  -21.1435
  -21.1163  -21.1163  -20.7294  -20.6867  -19.8576  -19.8576  -19.8236  -19.8236  -18.7659  -18.7659
  -18.7533  -18.7533  -18.0549  -18.0549  -18.0390  -18.0390  -17.0741  -17.0629  -16.3117  -16.3117
  -16.3043  -16.3043  -16.0621  -16.0525  -15.7271  -15.7271  -15.7215  -15.7215  -14.9603  -14.9539
  -14.5738  -14.4455  -13.6765  -13.6746  -13.5179  -13.3979  -13.3871  -13.3853  -12.9714  -12.9714
  -12.8684  -12.8684  -11.8873  -11.8873  -11.8289  -11.8289  -11.4240  -11.3853   -9.7885   -9.7885
   -9.7790   -9.7790   -7.1801   -7.1801   -7.1567   -7.1567   -5.3538   -5.2946   -4.5358   -4.5358
   -4.4848   -4.4848   -2.4776   -2.4776   -2.4454   -2.4454   -1.2564   -1.2308    0.3383    0.3691
    0.3835    0.3873    0.6586    0.7469    0.8714    0.8729    1.1746    1.1746    1.1944    1.1944
    1.3401    1.3401    1.4026    1.4026    1.7177    1.7223    4.0760    4.0790    5.0528    5.0528
    5.0752    5.0752    5.4783    5.4789    5.8956    5.8956    5.9537    5.9537    7.2844    7.3619
    7.6972    7.6972    7.7215    7.7215    8.3151    8.3151    8.3591    8.3591    9.3155    9.3155
    9.3544    9.3544    9.8799    9.8809   11.4479   11.4479   11.5004   11.5004   11.6913   11.7746
   14.1742   14.1742   14.1760   14.1760
  15  1  -28.1953  -28.1690  -26.7637  -26.7559  -26.0961  -26.0961  -26.0934  -26.0934  -24.8803  -24.8803
         -24.8585  -24.8585  -24.3399  -24.3125  -22.8627  -22.8627  -22.8263  -22.8263  -21.1435  -21.1435
  -21.1163  -21.1163  -20.7294  -20.6867  -19.8576  -19.8576  -19.8236  -19.8236  -18.7659  -18.7659
  -18.7533  -18.7533  -18.0549  -18.0549  -18.0390  -18.0390  -17.0741  -17.0629  -16.3117  -16.3117
  -16.3043  -16.3043  -16.0621  -16.0525  -15.7271  -15.7271  -15.7215  -15.7215  -14.9603  -14.9539
  -14.5738  -14.4455  -13.6765  -13.6746  -13.5179  -13.3979  -13.3871  -13.3853  -12.9714  -12.9714
  -12.8684  -12.8684  -11.8873  -11.8873  -11.8289  -11.8289  -11.4240  -11.3853   -9.7885   -9.7885
   -9.7790   -9.7790   -7.1801   -7.1801   -7.1567   -7.1567   -5.3538   -5.2946   -4.5358   -4.5358
   -4.4848   -4.4848   -2.4776   -2.4776   -2.4454   -2.4454   -1.2564   -1.2308    0.3383    0.3691
    0.3835    0.3873    0.6586    0.7469    0.8714    0.8729    1.1746    1.1746    1.1944    1.1944
    1.3401    1.3401    1.4026    1.4026    1.7177    1.7223    4.0760    4.0790    5.0528    5.0528
    5.0752    5.0752    5.4783    5.4789    5.8956    5.8956    5.9537    5.9537    7.2844    7.3619
    7.6972    7.6972    7.7215    7.7215    8.3151    8.3151    8.3591    8.3591    9.3155    9.3155
    9.3544    9.3544    9.8799    9.8809   11.4479   11.4479   11.5004   11.5004   11.6913   11.7746
   14.1742   14.1742   14.1760   14.1760
  16  1  -27.8267  -27.8045  -27.1105  -27.1105  -27.0975  -27.0975  -25.1670  -25.1670  -25.1487  -25.1487
         -24.0429  -24.0088  -23.6331  -23.6330  -23.6043  -23.6043  -23.0155  -22.9992  -21.5765  -21.5428
  -21.3831  -21.3831  -21.3391  -21.3391  -19.9893  -19.9742  -18.9949  -18.9949  -18.9767  -18.9767
  -18.1707  -18.1699  -17.7098  -17.6983  -17.0000  -17.0000  -16.9920  -16.9920  -16.6112  -16.6112
  -16.6024  -16.6024  -16.2253  -16.2253  -16.2204  -16.2204  -14.9070  -14.9070  -14.9025  -14.9025
  -14.6566  -14.6542  -14.3150  -14.1851  -13.9972  -13.9959  -13.7853  -13.7853  -13.6598  -13.6598
  -12.1300  -12.1300  -12.0609  -12.0609  -11.0027  -10.9797  -10.8082  -10.8082  -10.7907  -10.7907
  -10.1881  -10.1832   -6.8316   -6.8056   -6.1897   -6.1897   -6.1403   -6.1403   -5.6774   -5.6479
   -4.0151   -4.0151   -3.9838   -3.9838   -0.5664   -0.5664   -0.5505   -0.5505    0.9073    0.9153
    0.9575    1.0444    1.0444    1.0597    1.0597    1.0645    1.4033    1.4033    1.5112    1.5112
    1.7687    1.7694    2.8808    2.8810    3.0989    3.0989    3.1312    3.1312    3.4353    3.4353
    3.4731    3.4731    4.7007    4.7218    4.9750    4.9773    5.8793    5.8793    5.9591    5.9591
    6.4697    6.5091    6.9440    6.9440    6.9566    6.9566    9.0487    9.0659    9.8435    9.8436
    9.8584    9.8585   11.5789   11.5789   11.5896   11.5896   12.7862   12.7862   12.8136   12.8136
   13.2718   13.2746   13.7035   13.7053
  17  1  -28.1953  -28.1690  -26.7637  -26.7559  -26.0961  -26.0961  -26.0934  -26.0934  -24.8803  -24.8803
         -24.8585  -24.8585  -24.3399  -24.3125  -22.8627  -22.8627  -22.8263  -22.8263  -21.1435  -21.1435
  -21.1163  -21.1163  -20.7294  -20.6867  -19.8576  -19.8576  -19.8236  -19.8236  -18.7659  -18.7659
  -18.7533  -18.7533  -18.0549  -18.0549  -18.0390  -18.0390  -17.0741  -17.0629  -16.3117  -16.3117
  -16.3043  -16.3043  -16.0621  -16.0525  -15.7271  -15.7271  -15.7215  -15.7215  -14.9603  -14.9539
  -14.5738  -14.4455  -13.6765  -13.6746  -13.5179  -13.3979  -13.3871  -13.3853  -12.9714  -12.9714
  -12.8684  -12.8684  -11.8873  -11.8873  -11.8289  -11.8289  -11.4240  -11.3853   -9.7885   -9.7885
   -9.7790   -9.7790   -7.1801   -7.1801   -7.1567   -7.1567   -5.3538   -5.2946   -4.5358   -4.5358
   -4.4848   -4.4848   -2.4776   -2.4776   -2.4454   -2.4454   -1.2564   -1.2308    0.3383    0.3691
    0.3835    0.3873    0.6586    0.7469    0.8714    0.8729    1.1746    1.1746    1.1944    1.1944
    1.3401    1.3401    1.4026    1.4026    1.7177    1.7223    4.0760    4.0790    5.0528    5.0528
    5.0752    5.0752    5.4783    5.4789    5.8956    5.8956    5.9537    5.9537    7.2844    7.3619
    7.6972    7.6972    7.7215    7.7215    8.3151    8.3151    8.3591    8.3591    9.3155    9.3155
    9.3544    9.3544    9.8799    9.8809   11.4479   11.4479   11.5004   11.5004   11.6913   11.7746
   14.1742   14.1742   14.1760   14.1760
  18  1  -28.3820  -28.3539  -25.6245  -25.6245  -25.6245  -25.6245  -25.6245  -25.6245  -25.6143  -25.6143
         -25.6143  -25.6143  -25.6143  -25.6143  -21.8625  -21.8625  -21.8426  -21.8426  -21.8426  -21.8426
  -21.8227  -21.8227  -19.3210  -19.3210  -19.3210  -19.3210  -18.9903  -18.9903  -18.9903  -18.9903
  -18.9903  -18.9903  -18.9642  -18.9642  -18.9642  -18.9642  -18.9642  -18.9642  -15.6345  -15.6345
  -15.6345  -15.6345  -15.6345  -15.6345  -15.6262  -15.6262  -15.6262  -15.6261  -15.6261  -15.6261
  -14.7024  -14.5760  -13.0653  -13.0653  -13.0649  -13.0649  -12.5672  -12.5672  -12.5672  -12.5672
  -12.5672  -12.5672  -12.4799  -12.4799  -12.4799  -12.4799  -12.4799  -12.4798   -8.5199   -8.5199
   -8.5009   -8.5009   -8.5009   -8.5009   -8.4822   -8.4822   -3.3455   -3.3455   -3.3455   -3.3455
   -3.3455   -3.3455   -3.2982   -3.2982   -3.2982   -3.2982   -3.2982   -3.2982    0.1055    0.1055
    0.1064    0.1064    0.5303    0.5303    0.5303    0.5303    0.5303    0.5303    0.5681    0.5682
    0.5682    0.5682    0.5682    0.5682    2.1441    2.1465    3.7339    3.7379    6.7211    6.7211
    6.7556    6.7556    6.7556    6.7556    6.7899    6.7899    8.0263    8.0263    8.0263    8.0263
    8.0263    8.0263    8.0273    8.0273    8.0273    8.0274    8.0274    8.0274    9.6431    9.6431
    9.6431    9.6431    9.6431    9.6431    9.7531    9.7531    9.7531    9.7531    9.7531    9.7531
   14.5284   14.5284   14.5284   14.5284
  19  1  -28.1953  -28.1690  -26.7637  -26.7559  -26.0961  -26.0961  -26.0934  -26.0934  -24.8803  -24.8803
         -24.8585  -24.8585  -24.3399  -24.3125  -22.8627  -22.8627  -22.8263  -22.8263  -21.1435  -21.1435
  -21.1163  -21.1163  -20.7294  -20.6867  -19.8576  -19.8576  -19.8236  -19.8236  -18.7659  -18.7659
  -18.7533  -18.7533  -18.0549  -18.0549  -18.0390  -18.0390  -17.0741  -17.0629  -16.3117  -16.3117
  -16.3043  -16.3043  -16.0621  -16.0525  -15.7271  -15.7271  -15.7215  -15.7215  -14.9603  -14.9539
  -14.5738  -14.4455  -13.6765  -13.6746  -13.5179  -13.3979  -13.3871  -13.3853  -12.9714  -12.9714
  -12.8684  -12.8684  -11.8873  -11.8873  -11.8289  -11.8289  -11.4240  -11.3853   -9.7885   -9.7885
   -9.7790   -9.7790   -7.1801   -7.1801   -7.1567   -7.1567   -5.3538   -5.2946   -4.5358   -4.5358
   -4.4848   -4.4848   -2.4776   -2.4776   -2.4454   -2.4454   -1.2564   -1.2308    0.3383    0.3691
    0.3835    0.3873    0.6586    0.7469    0.8714    0.8729    1.1746    1.1746    1.1944    1.1944
    1.3401    1.3401    1.4026    1.4026    1.7177    1.7223    4.0760    4.0790    5.0528    5.0528
    5.0752    5.0752    5.4783    5.4789    5.8956    5.8956    5.9537    5.9537    7.2844    7.3619
    7.6972    7.6972    7.7215    7.7215    8.3151    8.3151    8.3591    8.3591    9.3155    9.3155
    9.3544    9.3544    9.8799    9.8809   11.4479   11.4479   11.5004   11.5004   11.6913   11.7746
   14.1742   14.1742   14.1760   14.1760
  20  1  -27.6450  -27.6450  -27.6250  -27.6250  -26.2574  -26.2574  -26.2572  -26.2572  -23.9281  -23.9281
         -23.9281  -23.9281  -23.8945  -23.8945  -23.8945  -23.8945  -23.4155  -23.4022  -21.7809  -21.7406
  -20.5641  -20.5641  -20.5641  -20.5641  -20.5272  -20.5272  -20.5272  -20.5272  -17.5364  -17.5364
  -17.5364  -17.5364  -17.5267  -17.5267  -17.5267  -17.5267  -17.4841  -17.4841  -17.4781  -17.4781
  -16.2074  -16.1974  -16.0618  -16.0618  -16.0518  -16.0518  -15.1871  -15.1871  -15.1829  -15.1829
  -14.1833  -14.1833  -14.1374  -14.1374  -14.1333  -14.1333  -14.0534  -14.0534  -13.1050  -13.1050
  -12.9974  -12.9974  -10.9415  -10.9415  -10.9415  -10.9415  -10.9204  -10.9204  -10.9204  -10.9204
  -10.7352  -10.7191   -6.3640   -6.3144   -5.8475   -5.8475   -5.8475   -5.8475   -5.8071   -5.8071
   -5.8071   -5.8071   -2.1533   -2.1533   -2.1331   -2.1331    0.2932    0.3179    0.5184    0.5185
    0.5296    0.5296    0.6284    0.6284    0.7323    0.7323    2.8701    2.8701    2.8715    2.8715
    2.9396    2.9396    2.9396    2.9396    2.9507    2.9507    2.9507    2.9507    3.2716    3.2716
    3.2765    3.2765    3.3883    3.3883    3.5409    3.5409    5.2797    5.2797    5.3016    5.3016
    8.1254    8.1254    8.1254    8.1254    8.1642    8.1642    8.1642    8.1642    9.3697    9.3697
    9.3729    9.3729   10.5585   10.5586   12.5621   12.5643   13.1280   13.1280   13.1280   13.1280
   13.1423   13.1423   13.1423   13.1423
  21  1  -28.1953  -28.1690  -26.7637  -26.7559  -26.0961  -26.0961  -26.0934  -26.0934  -24.8803  -24.8803
         -24.8585  -24.8585  -24.3399  -24.3125  -22.8627  -22.8627  -22.8263  -22.8263  -21.1435  -21.1435
  -21.1163  -21.1163  -20.7294  -20.6867  -19.8576  -19.8576  -19.8236  -19.8236  -18.7659  -18.7659
  -18.7533  -18.7533  -18.0549  -18.0549  -18.0390  -18.0390  -17.0741  -17.0629  -16.3117  -16.3117
  -16.3043  -16.3043  -16.0621  -16.0525  -15.7271  -15.7271  -15.7215  -15.7215  -14.9603  -14.9539
  -14.5738  -14.4455  -13.6765  -13.6746  -13.5179  -13.3979  -13.3871  -13.3853  -12.9714  -12.9714
  -12.8684  -12.8684  -11.8873  -11.8873  -11.8289  -11.8289  -11.4240  -11.3853   -9.7885   -9.7885
   -9.7790   -9.7790   -7.1801   -7.1801   -7.1567   -7.1567   -5.3538   -5.2946   -4.5358   -4.5358
   -4.4848   -4.4848   -2.4776   -2.4776   -2.4454   -2.4454   -1.2564   -1.2308    0.3383    0.3691
    0.3835    0.3873    0.6586    0.7469    0.8714    0.8729    1.1746    1.1746    1.1944    1.1944
    1.3401    1.3401    1.4026    1.4026    1.7177    1.7223    4.0760    4.0790    5.0528    5.0528
    5.0752    5.0752    5.4783    5.4789    5.8956    5.8956    5.9537    5.9537    7.2844    7.3619
    7.6972    7.6972    7.7215    7.7215    8.3151    8.3151    8.3591    8.3591    9.3155    9.3155
    9.3544    9.3544    9.8799    9.8809   11.4479   11.4479   11.5004   11.5004   11.6913   11.7746
   14.1742   14.1742   14.1760   14.1760
  22  1  -28.1953  -28.1690  -26.7637  -26.7559  -26.0961  -26.0961  -26.0934  -26.0934  -24.8803  -24.8803
         -24.8585  -24.8585  -24.3399  -24.3125  -22.8627  -22.8627  -22.8263  -22.8263  -21.1435  -21.1435
  -21.1163  -21.1163  -20.7294  -20.6867  -19.8576  -19.8576  -19.8236  -19.8236  -18.7659  -18.7659
  -18.7533  -18.7533  -18.0549  -18.0549  -18.0390  -18.0390  -17.0741  -17.0629  -16.3117  -16.3117
  -16.3043  -16.3043  -16.0621  -16.0525  -15.7271  -15.7271  -15.7215  -15.7215  -14.9603  -14.9539
  -14.5738  -14.4455  -13.6765  -13.6746  -13.5179  -13.3979  -13.3871  -13.3853  -12.9714  -12.9714
  -12.8684  -12.8684  -11.8873  -11.8873  -11.8289  -11.8289  -11.4240  -11.3853   -9.7885   -9.7885
   -9.7790   -9.7790   -7.1801   -7.1801   -7.1567   -7.1567   -5.3538   -5.2946   -4.5358   -4.5358
   -4.4848   -4.4848   -2.4776   -2.4776   -2.4454   -2.4454   -1.2564   -1.2308    0.3383    0.3691
    0.3835    0.3873    0.6586    0.7469    0.8714    0.8729    1.1746    1.1746    1.1944    1.1944
    1.3401    1.3401    1.4026    1.4026    1.7177    1.7223    4.0760    4.0790    5.0528    5.0528
    5.0752    5.0752    5.4783    5.4789    5.8956    5.8956    5.9537    5.9537    7.2844    7.3619
    7.6972    7.6972    7.7215    7.7215    8.3151    8.3151    8.3591    8.3591    9.3155    9.3155
    9.3544    9.3544    9.8799    9.8809   11.4479   11.4479   11.5004   11.5004   11.6913   11.7746
   14.1742   14.1742   14.1760   14.1760
  23  1  -27.8267  -27.8045  -27.1105  -27.1105  -27.0975  -27.0975  -25.1670  -25.1670  -25.1487  -25.1487
         -24.0429  -24.0088  -23.6331  -23.6330  -23.6043  -23.6043  -23.0155  -22.9992  -21.5765  -21.5428
  -21.3831  -21.3831  -21.3391  -21.3391  -19.9893  -19.9742  -18.9949  -18.9949  -18.9767  -18.9767
  -18.1707  -18.1699  -17.7098  -17.6983  -17.0000  -17.0000  -16.9920  -16.9920  -16.6112  -16.6112
  -16.6024  -16.6024  -16.2253  -16.2253  -16.2204  -16.2204  -14.9070  -14.9070  -14.9025  -14.9025
  -14.6566  -14.6542  -14.3150  -14.1851  -13.9972  -13.9959  -13.7853  -13.7853  -13.6598  -13.6598
  -12.1300  -12.1300  -12.0609  -12.0609  -11.0027  -10.9797  -10.8082  -10.8082  -10.7907  -10.7907
  -10.1881  -10.1832   -6.8316   -6.8056   -6.1897   -6.1897   -6.1403   -6.1403   -5.6774   -5.6479
   -4.0151   -4.0151   -3.9838   -3.9838   -0.5664   -0.5664   -0.5505   -0.5505    0.9073    0.9153
    0.9575    1.0444    1.0444    1.0597    1.0597    1.0645    1.4033    1.4033    1.5112    1.5112
    1.7687    1.7694    2.8808    2.8810    3.0989    3.0989    3.1312    3.1312    3.4353    3.4353
    3.4731    3.4731    4.7007    4.7218    4.9750    4.9773    5.8793    5.8793    5.9591    5.9591
    6.4697    6.5091    6.9440    6.9440    6.9566    6.9566    9.0487    9.0659    9.8435    9.8436
    9.8584    9.8585   11.5789   11.5789   11.5896   11.5896   12.7862   12.7862   12.8136   12.8136
   13.2718   13.2746   13.7035   13.7053
  24  1  -27.8267  -27.8045  -27.1105  -27.1105  -27.0975  -27.0975  -25.1670  -25.1670  -25.1487  -25.1487
         -24.0429  -24.0088  -23.6331  -23.6330  -23.6043  -23.6043  -23.0155  -22.9992  -21.5765  -21.5428
  -21.3831  -21.3831  -21.3391  -21.3391  -19.9893  -19.9742  -18.9949  -18.9949  -18.9767  -18.9767
  -18.1707  -18.1699  -17.7098  -17.6983  -17.0000  -17.0000  -16.9920  -16.9920  -16.6112  -16.6112
  -16.6024  -16.6024  -16.2253  -16.2253  -16.2204  -16.2204  -14.9070  -14.9070  -14.9025  -14.9025
  -14.6566  -14.6542  -14.3150  -14.1851  -13.9972  -13.9959  -13.7853  -13.7853  -13.6598  -13.6598
  -12.1300  -12.1300  -12.0609  -12.0609  -11.0027  -10.9797  -10.8082  -10.8082  -10.7907  -10.7907
  -10.1881  -10.1832   -6.8316   -6.8056   -6.1897   -6.1897   -6.1403   -6.1403   -5.6774   -5.6479
   -4.0151   -4.0151   -3.9838   -3.9838   -0.5664   -0.5664   -0.5505   -0.5505    0.9073    0.9153
    0.9575    1.0444    1.0444    1.0597    1.0597    1.0645    1.4033    1.4033    1.5112    1.5112
    1.7687    1.7694    2.8808    2.8810    3.0989    3.0989    3.1312    3.1312    3.4353    3.4353
    3.4731    3.4731    4.7007    4.7218    4.9750    4.9773    5.8793    5.8793    5.9591    5.9591
    6.4697    6.5091    6.9440    6.9440    6.9566    6.9566    9.0487    9.0659    9.8435    9.8436
    9.8584    9.8585   11.5789   11.5789   11.5896   11.5896   12.7862   12.7862   12.8136   12.8136
   13.2718   13.2746   13.7035   13.7053
  25  1  -27.8267  -27.8045  -27.1105  -27.1105  -27.0975  -27.0975  -25.1670  -25.1670  -25.1487  -25.1487
         -24.0429  -24.0088  -23.6331  -23.6330  -23.6043  -23.6043  -23.0155  -22.9992  -21.5765  -21.5428
  -21.3831  -21.3831  -21.3391  -21.3391  -19.9893  -19.9742  -18.9949  -18.9949  -18.9767  -18.9767
  -18.1707  -18.1699  -17.7098  -17.6983  -17.0000  -17.0000  -16.9920  -16.9920  -16.6112  -16.6112
  -16.6024  -16.6024  -16.2253  -16.2253  -16.2204  -16.2204  -14.9070  -14.9070  -14.9025  -14.9025
  -14.6566  -14.6542  -14.3150  -14.1851  -13.9972  -13.9959  -13.7853  -13.7853  -13.6598  -13.6598
  -12.1300  -12.1300  -12.0609  -12.0609  -11.0027  -10.9797  -10.8082  -10.8082  -10.7907  -10.7907
  -10.1881  -10.1832   -6.8316   -6.8056   -6.1897   -6.1897   -6.1403   -6.1403   -5.6774   -5.6479
   -4.0151   -4.0151   -3.9838   -3.9838   -0.5664   -0.5664   -0.5505   -0.5505    0.9073    0.9153
    0.9575    1.0444    1.0444    1.0597    1.0597    1.0645    1.4033    1.4033    1.5112    1.5112
    1.7687    1.7694    2.8808    2.8810    3.0989    3.0989    3.1312    3.1312    3.4353    3.4353
    3.4731    3.4731    4.7007    4.7218    4.9750    4.9773    5.8793    5.8793    5.9591    5.9591
    6.4697    6.5091    6.9440    6.9440    6.9566    6.9566    9.0487    9.0659    9.8435    9.8436
    9.8584    9.8585   11.5789   11.5789   11.5896   11.5896   12.7862   12.7862   12.8136   12.8136
   13.2718   13.2746   13.7035   13.7053
  26  1  -27.6450  -27.6450  -27.6250  -27.6250  -26.2574  -26.2574  -26.2572  -26.2572  -23.9281  -23.9281
         -23.9281  -23.9281  -23.8945  -23.8945  -23.8945  -23.8945  -23.4155  -23.4022  -21.7809  -21.7406
  -20.5641  -20.5641  -20.5641  -20.5641  -20.5272  -20.5272  -20.5272  -20.5272  -17.5364  -17.5364
  -17.5364  -17.5364  -17.5267  -17.5267  -17.5267  -17.5267  -17.4841  -17.4841  -17.4781  -17.4781
  -16.2074  -16.1974  -16.0618  -16.0618  -16.0518  -16.0518  -15.1871  -15.1871  -15.1829  -15.1829
  -14.1833  -14.1833  -14.1374  -14.1374  -14.1333  -14.1333  -14.0534  -14.0534  -13.1050  -13.1050
  -12.9974  -12.9974  -10.9415  -10.9415  -10.9415  -10.9415  -10.9204  -10.9204  -10.9204  -10.9204
  -10.7352  -10.7191   -6.3640   -6.3144   -5.8475   -5.8475   -5.8475   -5.8475   -5.8071   -5.8071
   -5.8071   -5.8071   -2.1533   -2.1533   -2.1331   -2.1331    0.2932    0.3179    0.5184    0.5185
    0.5296    0.5296    0.6284    0.6284    0.7323    0.7323    2.8701    2.8701    2.8715    2.8715
    2.9396    2.9396    2.9396    2.9396    2.9507    2.9507    2.9507    2.9507    3.2716    3.2716
    3.2765    3.2765    3.3883    3.3883    3.5409    3.5409    5.2797    5.2797    5.3016    5.3016
    8.1254    8.1254    8.1254    8.1254    8.1642    8.1642    8.1642    8.1642    9.3697    9.3697
    9.3729    9.3729   10.5585   10.5586   12.5621   12.5643   13.1280   13.1280   13.1280   13.1280
   13.1423   13.1423   13.1423   13.1423
  27  1  -27.8267  -27.8045  -27.1105  -27.1105  -27.0975  -27.0975  -25.1670  -25.1670  -25.1487  -25.1487
         -24.0429  -24.0088  -23.6331  -23.6330  -23.6043  -23.6043  -23.0155  -22.9992  -21.5765  -21.5428
  -21.3831  -21.3831  -21.3391  -21.3391  -19.9893  -19.9742  -18.9949  -18.9949  -18.9767  -18.9767
  -18.1707  -18.1699  -17.7098  -17.6983  -17.0000  -17.0000  -16.9920  -16.9920  -16.6112  -16.6112
  -16.6024  -16.6024  -16.2253  -16.2253  -16.2204  -16.2204  -14.9070  -14.9070  -14.9025  -14.9025
  -14.6566  -14.6542  -14.3150  -14.1851  -13.9972  -13.9959  -13.7853  -13.7853  -13.6598  -13.6598
  -12.1300  -12.1300  -12.0609  -12.0609  -11.0027  -10.9797  -10.8082  -10.8082  -10.7907  -10.7907
  -10.1881  -10.1832   -6.8316   -6.8056   -6.1897   -6.1897   -6.1403   -6.1403   -5.6774   -5.6479
   -4.0151   -4.0151   -3.9838   -3.9838   -0.5664   -0.5664   -0.5505   -0.5505    0.9073    0.9153
    0.9575    1.0444    1.0444    1.0597    1.0597    1.0645    1.4033    1.4033    1.5112    1.5112
    1.7687    1.7694    2.8808    2.8810    3.0989    3.0989    3.1312    3.1312    3.4353    3.4353
    3.4731    3.4731    4.7007    4.7218    4.9750    4.9773    5.8793    5.8793    5.9591    5.9591
    6.4697    6.5091    6.9440    6.9440    6.9566    6.9566    9.0487    9.0659    9.8435    9.8436
    9.8584    9.8585   11.5789   11.5789   11.5896   11.5896   12.7862   12.7862   12.8136   12.8136
   13.2718   13.2746   13.7035   13.7053
  28  1  -27.6450  -27.6450  -27.6250  -27.6250  -26.2574  -26.2574  -26.2572  -26.2572  -23.9281  -23.9281
         -23.9281  -23.9281  -23.8945  -23.8945  -23.8945  -23.8945  -23.4155  -23.4022  -21.7809  -21.7406
  -20.5641  -20.5641  -20.5641  -20.5641  -20.5272  -20.5272  -20.5272  -20.5272  -17.5364  -17.5364
  -17.5364  -17.5364  -17.5267  -17.5267  -17.5267  -17.5267  -17.4841  -17.4841  -17.4781  -17.4781
  -16.2074  -16.1974  -16.0618  -16.0618  -16.0518  -16.0518  -15.1871  -15.1871  -15.1829  -15.1829
  -14.1833  -14.1833  -14.1374  -14.1374  -14.1333  -14.1333  -14.0534  -14.0534  -13.1050  -13.1050
  -12.9974  -12.9974  -10.9415  -10.9415  -10.9415  -10.9415  -10.9204  -10.9204  -10.9204  -10.9204
  -10.7352  -10.7191   -6.3640   -6.3144   -5.8475   -5.8475   -5.8475   -5.8475   -5.8071   -5.8071
   -5.8071   -5.8071   -2.1533   -2.1533   -2.1331   -2.1331    0.2932    0.3179    0.5184    0.5185
    0.5296    0.5296    0.6284    0.6284    0.7323    0.7323    2.8701    2.8701    2.8715    2.8715
    2.9396    2.9396    2.9396    2.9396    2.9507    2.9507    2.9507    2.9507    3.2716    3.2716
    3.2765    3.2765    3.3883    3.3883    3.5409    3.5409    5.2797    5.2797    5.3016    5.3016
    8.1254    8.1254    8.1254    8.1254    8.1642    8.1642    8.1642    8.1642    9.3697    9.3697
    9.3729    9.3729   10.5585   10.5586   12.5621   12.5643   13.1280   13.1280   13.1280   13.1280
   13.1423   13.1423   13.1423   13.1423
  29  1  -27.8161  -27.8161  -27.1046  -27.1046  -27.1046  -27.1046  -25.1586  -25.1586  -25.1586  -25.1586
         -24.0264  -24.0264  -23.6189  -23.6189  -23.6189  -23.6189  -23.0071  -23.0071  -21.5605  -21.5605
  -21.3618  -21.3618  -21.3618  -21.3618  -19.9817  -19.9817  -18.9859  -18.9859  -18.9859  -18.9859
  -18.1708  -18.1708  -17.7042  -17.7042  -16.9964  -16.9964  -16.9964  -16.9964  -16.6069  -16.6069
  -16.6069  -16.6069  -16.2230  -16.2230  -16.2230  -16.2230  -14.9052  -14.9052  -14.9052  -14.9052
  -14.6554  -14.6554  -14.2457  -14.2457  -13.9959  -13.9959  -13.7182  -13.7182  -13.7182  -13.7182
  -12.0941  -12.0941  -12.0941  -12.0941  -10.9909  -10.9909  -10.7994  -10.7994  -10.7994  -10.7994
  -10.1857  -10.1857   -6.8192   -6.8192   -6.1657   -6.1657   -6.1657   -6.1657   -5.6627   -5.6627
   -3.9995   -3.9995   -3.9995   -3.9995   -0.5585   -0.5585   -0.5585   -0.5585    0.9113    0.9113
    1.0139    1.0139    1.0522    1.0522    1.0522    1.0522    1.4602    1.4602    1.4602    1.4602
    1.7691    1.7691    2.8810    2.8810    3.1157    3.1157    3.1157    3.1157    3.4546    3.4546
    3.4546    3.4546    4.7113    4.7113    4.9762    4.9762    5.9204    5.9204    5.9204    5.9204
    6.4902    6.4902    6.9505    6.9505    6.9505    6.9505    9.0574    9.0574    9.8512    9.8512
    9.8512    9.8512   11.5843   11.5843   11.5843   11.5843   12.8002   12.8002   12.8002   12.8002
   13.2732   13.2732   13.7045   13.7045
  30  1  -28.1825  -28.1825  -26.7605  -26.7605  -26.0955  -26.0955  -26.0955  -26.0955  -24.8701  -24.8701
         -24.8701  -24.8701  -24.3268  -24.3268  -22.8446  -22.8446  -22.8446  -22.8446  -21.1300  -21.1300
  -21.1300  -21.1300  -20.7085  -20.7085  -19.8409  -19.8409  -19.8409  -19.8409  -18.7601  -18.7601
  -18.7601  -18.7601  -18.0472  -18.0472  -18.0472  -18.0472  -17.0689  -17.0689  -16.3081  -16.3081
  -16.3081  -16.3081  -16.0573  -16.0573  -15.7245  -15.7245  -15.7245  -15.7245  -14.9571  -14.9571
  -14.5040  -14.5040  -13.6755  -13.6755  -13.4543  -13.4543  -13.3862  -13.3862  -12.9173  -12.9173
  -12.9173  -12.9173  -11.8572  -11.8572  -11.8572  -11.8572  -11.4042  -11.4042   -9.7838   -9.7838
   -9.7838   -9.7838   -7.1686   -7.1686   -7.1686   -7.1686   -5.3248   -5.3248   -4.5106   -4.5106
   -4.5106   -4.5106   -2.4615   -2.4615   -2.4615   -2.4615   -1.2437   -1.2437    0.3622    0.3622
    0.3785    0.3785    0.7050    0.7050    0.8721    0.8721    1.1850    1.1850    1.1850    1.1850
    1.3728    1.3728    1.3729    1.3729    1.7200    1.7200    4.0775    4.0775    5.0641    5.0641
    5.0641    5.0641    5.4786    5.4786    5.9256    5.9256    5.9256    5.9256    7.3244    7.3244
    7.7094    7.7094    7.7095    7.7095    8.3378    8.3378    8.3378    8.3378    9.3353    9.3353
    9.3353    9.3353    9.8804    9.8804   11.4745   11.4745   11.4745   11.4745   11.7338   11.7338
   14.1751   14.1751   14.1751   14.1751
  31  1  -28.1825  -28.1825  -26.7605  -26.7605  -26.0955  -26.0955  -26.0955  -26.0955  -24.8701  -24.8701
         -24.8701  -24.8701  -24.3268  -24.3268  -22.8446  -22.8446  -22.8446  -22.8446  -21.1300  -21.1300
  -21.1300  -21.1300  -20.7085  -20.7085  -19.8409  -19.8409  -19.8409  -19.8409  -18.7601  -18.7601
  -18.7601  -18.7601  -18.0472  -18.0472  -18.0472  -18.0472  -17.0689  -17.0689  -16.3081  -16.3081
  -16.3081  -16.3081  -16.0573  -16.0573  -15.7245  -15.7245  -15.7245  -15.7245  -14.9571  -14.9571
  -14.5040  -14.5040  -13.6755  -13.6755  -13.4543  -13.4543  -13.3862  -13.3862  -12.9173  -12.9173
  -12.9173  -12.9173  -11.8572  -11.8572  -11.8572  -11.8572  -11.4042  -11.4042   -9.7838   -9.7838
   -9.7838   -9.7838   -7.1686   -7.1686   -7.1686   -7.1686   -5.3248   -5.3248   -4.5106   -4.5106
   -4.5106   -4.5106   -2.4615   -2.4615   -2.4615   -2.4615   -1.2437   -1.2437    0.3622    0.3622
    0.3785    0.3785    0.7050    0.7050    0.8721    0.8721    1.1850    1.1850    1.1850    1.1850
    1.3728    1.3728    1.3729    1.3729    1.7200    1.7200    4.0775    4.0775    5.0641    5.0641
    5.0641    5.0641    5.4786    5.4786    5.9256    5.9256    5.9256    5.9256    7.3244    7.3244
    7.7094    7.7094    7.7095    7.7095    8.3378    8.3378    8.3378    8.3378    9.3353    9.3353
    9.3353    9.3353    9.8804    9.8804   11.4745   11.4745   11.4745   11.4745   11.7338   11.7338
   14.1751   14.1751   14.1751   14.1751
  32  1  -27.8161  -27.8161  -27.1046  -27.1046  -27.1046  -27.1046  -25.1586  -25.1586  -25.1586  -25.1586
         -24.0264  -24.0264  -23.6189  -23.6189  -23.6189  -23.6189  -23.0071  -23.0071  -21.5605  -21.5605
  -21.3618  -21.3618  -21.3618  -21.3618  -19.9817  -19.9817  -18.9859  -18.9859  -18.9859  -18.9859
  -18.1708  -18.1708  -17.7042  -17.7042  -16.9964  -16.9964  -16.9964  -16.9964  -16.6069  -16.6069
  -16.6069  -16.6069  -16.2230  -16.2230  -16.2230  -16.2230  -14.9052  -14.9052  -14.9052  -14.9052
  -14.6554  -14.6554  -14.2457  -14.2457  -13.9959  -13.9959  -13.7182  -13.7182  -13.7182  -13.7182
  -12.0941  -12.0941  -12.0941  -12.0941  -10.9909  -10.9909  -10.7994  -10.7994  -10.7994  -10.7994
  -10.1857  -10.1857   -6.8192   -6.8192   -6.1657   -6.1657   -6.1657   -6.1657   -5.6627   -5.6627
   -3.9995   -3.9995   -3.9995   -3.9995   -0.5585   -0.5585   -0.5585   -0.5585    0.9113    0.9113
    1.0139    1.0139    1.0522    1.0522    1.0522    1.0522    1.4602    1.4602    1.4602    1.4602
    1.7691    1.7691    2.8810    2.8810    3.1157    3.1157    3.1157    3.1157    3.4546    3.4546
    3.4546    3.4546    4.7113    4.7113    4.9762    4.9762    5.9204    5.9204    5.9204    5.9204
    6.4902    6.4902    6.9505    6.9505    6.9505    6.9505    9.0574    9.0574    9.8512    9.8512
    9.8512    9.8512   11.5843   11.5843   11.5843   11.5843   12.8002   12.8002   12.8002   12.8002
   13.2732   13.2732   13.7045   13.7045
  33  1  -28.1825  -28.1825  -26.7605  -26.7605  -26.0955  -26.0955  -26.0955  -26.0955  -24.8701  -24.8701
         -24.8701  -24.8701  -24.3268  -24.3268  -22.8446  -22.8446  -22.8446  -22.8446  -21.1300  -21.1300
  -21.1300  -21.1300  -20.7085  -20.7085  -19.8409  -19.8409  -19.8409  -19.8409  -18.7601  -18.7601
  -18.7601  -18.7601  -18.0472  -18.0472  -18.0472  -18.0472  -17.0689  -17.0689  -16.3081  -16.3081
  -16.3081  -16.3081  -16.0573  -16.0573  -15.7245  -15.7245  -15.7245  -15.7245  -14.9571  -14.9571
  -14.5040  -14.5040  -13.6755  -13.6755  -13.4543  -13.4543  -13.3862  -13.3862  -12.9173  -12.9173
  -12.9173  -12.9173  -11.8572  -11.8572  -11.8572  -11.8572  -11.4042  -11.4042   -9.7838   -9.7838
   -9.7838   -9.7838   -7.1686   -7.1686   -7.1686   -7.1686   -5.3248   -5.3248   -4.5106   -4.5106
   -4.5106   -4.5106   -2.4615   -2.4615   -2.4615   -2.4615   -1.2437   -1.2437    0.3622    0.3622
    0.3785    0.3785    0.7050    0.7050    0.8721    0.8721    1.1850    1.1850    1.1850    1.1850
    1.3728    1.3728    1.3729    1.3729    1.7200    1.7200    4.0775    4.0775    5.0641    5.0641
    5.0641    5.0641    5.4786    5.4786    5.9256    5.9256    5.9256    5.9256    7.3244    7.3244
    7.7094    7.7094    7.7095    7.7095    8.3378    8.3378    8.3378    8.3378    9.3353    9.3353
    9.3353    9.3353    9.8804    9.8804   11.4745   11.4745   11.4745   11.4745   11.7338   11.7338
   14.1751   14.1751   14.1751   14.1751
  34  1  -28.3683  -28.3683  -25.6202  -25.6202  -25.6202  -25.6202  -25.6202  -25.6202  -25.6202  -25.6202
         -25.6202  -25.6202  -25.6202  -25.6202  -21.8428  -21.8428  -21.8428  -21.8428  -21.8422  -21.8422
  -21.8422  -21.8422  -19.3217  -19.3217  -19.3217  -19.3217  -18.9776  -18.9776  -18.9776  -18.9776
  -18.9776  -18.9776  -18.9776  -18.9776  -18.9776  -18.9776  -18.9776  -18.9776  -15.6303  -15.6303
  -15.6303  -15.6303  -15.6303  -15.6303  -15.6303  -15.6303  -15.6303  -15.6303  -15.6303  -15.6303
  -14.6332  -14.6332  -13.0651  -13.0651  -13.0651  -13.0651  -12.5217  -12.5217  -12.5217  -12.5217
  -12.5217  -12.5217  -12.5217  -12.5217  -12.5217  -12.5217  -12.5217  -12.5217   -8.5014   -8.5014
   -8.5014   -8.5014   -8.5009   -8.5009   -8.5009   -8.5009   -3.3221   -3.3221   -3.3221   -3.3221
   -3.3221   -3.3221   -3.3221   -3.3221   -3.3221   -3.3221   -3.3221   -3.3221    0.1060    0.1060
    0.1060    0.1060    0.5502    0.5502    0.5502    0.5502    0.5502    0.5502    0.5502    0.5502
    0.5502    0.5502    0.5502    0.5502    2.1453    2.1453    3.7359    3.7359    6.7555    6.7555
    6.7555    6.7555    6.7555    6.7555    6.7555    6.7555    8.0268    8.0268    8.0268    8.0268
    8.0268    8.0268    8.0268    8.0268    8.0268    8.0268    8.0268    8.0268    9.6995    9.6995
    9.6995    9.6995    9.6995    9.6995    9.6995    9.6995    9.6995    9.6995    9.6995    9.6995
   14.5284   14.5284   14.5284   14.5284
  35  1  -28.1825  -28.1825  -26.7605  -26.7605  -26.0955  -26.0955  -26.0955  -26.0955  -24.8701  -24.8701
         -24.8701  -24.8701  -24.3268  -24.3268  -22.8446  -22.8446  -22.8446  -22.8446  -21.1300  -21.1300
  -21.1300  -21.1300  -20.7085  -20.7085  -19.8409  -19.8409  -19.8409  -19.8409  -18.7601  -18.7601
  -18.7601  -18.7601  -18.0472  -18.0472  -18.0472  -18.0472  -17.0689  -17.0689  -16.3081  -16.3081
  -16.3081  -16.3081  -16.0573  -16.0573  -15.7245  -15.7245  -15.7245  -15.7245  -14.9571  -14.9571
  -14.5040  -14.5040  -13.6755  -13.6755  -13.4543  -13.4543  -13.3862  -13.3862  -12.9173  -12.9173
  -12.9173  -12.9173  -11.8572  -11.8572  -11.8572  -11.8572  -11.4042  -11.4042   -9.7838   -9.7838
   -9.7838   -9.7838   -7.1686   -7.1686   -7.1686   -7.1686   -5.3248   -5.3248   -4.5106   -4.5106
   -4.5106   -4.5106   -2.4615   -2.4615   -2.4615   -2.4615   -1.2437   -1.2437    0.3622    0.3622
    0.3785    0.3785    0.7050    0.7050    0.8721    0.8721    1.1850    1.1850    1.1850    1.1850
    1.3728    1.3728    1.3729    1.3729    1.7200    1.7200    4.0775    4.0775    5.0641    5.0641
    5.0641    5.0641    5.4786    5.4786    5.9256    5.9256    5.9256    5.9256    7.3244    7.3244
    7.7094    7.7094    7.7095    7.7095    8.3378    8.3378    8.3378    8.3378    9.3353    9.3353
    9.3353    9.3353    9.8804    9.8804   11.4745   11.4745   11.4745   11.4745   11.7338   11.7338
   14.1751   14.1751   14.1751   14.1751
  36  1  -27.6355  -27.6355  -27.6355  -27.6355  -26.2581  -26.2580  -26.2580  -26.2580  -23.9118  -23.9118
         -23.9118  -23.9118  -23.9118  -23.9118  -23.9118  -23.9118  -23.4087  -23.4087  -21.7618  -21.7618
  -20.5459  -20.5459  -20.5459  -20.5459  -20.5459  -20.5459  -20.5459  -20.5459  -17.5318  -17.5318
  -17.5318  -17.5318  -17.5318  -17.5318  -17.5318  -17.5318  -17.4811  -17.4811  -17.4811  -17.4811
  -16.2024  -16.2024  -16.0574  -16.0574  -16.0574  -16.0574  -15.1853  -15.1853  -15.1853  -15.1853
  -14.1353  -14.1353  -14.1353  -14.1353  -14.1133  -14.1133  -14.1133  -14.1133  -13.0483  -13.0483
  -13.0483  -13.0483  -10.9308  -10.9308  -10.9307  -10.9307  -10.9307  -10.9307  -10.9307  -10.9307
  -10.7272  -10.7272   -6.3401   -6.3401   -5.8276   -5.8276   -5.8276   -5.8276   -5.8276   -5.8276
   -5.8276   -5.8276   -2.1432   -2.1432   -2.1432   -2.1432    0.3057    0.3057    0.5240    0.5240
    0.5240    0.5240    0.6832    0.6832    0.6832    0.6832    2.8708    2.8708    2.8708    2.8708
    2.9454    2.9454    2.9454    2.9454    2.9454    2.9454    2.9454    2.9454    3.2741    3.2741
    3.2741    3.2741    3.4676    3.4676    3.4676    3.4676    5.2910    5.2910    5.2911    5.2911
    8.1453    8.1453    8.1453    8.1453    8.1453    8.1453    8.1453    8.1453    9.3713    9.3713
    9.3713    9.3713   10.5586   10.5586   12.5637   12.5637   13.1352   13.1352   13.1352   13.1352
   13.1352   13.1352   13.1352   13.1352
  37  1  -28.1825  -28.1825  -26.7605  -26.7605  -26.0955  -26.0955  -26.0955  -26.0955  -24.8701  -24.8701
         -24.8701  -24.8701  -24.3268  -24.3268  -22.8446  -22.8446  -22.8446  -22.8446  -21.1300  -21.1300
  -21.1300  -21.1300  -20.7085  -20.7085  -19.8409  -19.8409  -19.8409  -19.8409  -18.7601  -18.7601
  -18.7601  -18.7601  -18.0472  -18.0472  -18.0472  -18.0472  -17.0689  -17.0689  -16.3081  -16.3081
  -16.3081  -16.3081  -16.0573  -16.0573  -15.7245  -15.7245  -15.7245  -15.7245  -14.9571  -14.9571
  -14.5040  -14.5040  -13.6755  -13.6755  -13.4543  -13.4543  -13.3862  -13.3862  -12.9173  -12.9173
  -12.9173  -12.9173  -11.8572  -11.8572  -11.8572  -11.8572  -11.4042  -11.4042   -9.7838   -9.7838
   -9.7838   -9.7838   -7.1686   -7.1686   -7.1686   -7.1686   -5.3248   -5.3248   -4.5106   -4.5106
   -4.5106   -4.5106   -2.4615   -2.4615   -2.4615   -2.4615   -1.2437   -1.2437    0.3622    0.3622
    0.3785    0.3785    0.7050    0.7050    0.8721    0.8721    1.1850    1.1850    1.1850    1.1850
    1.3728    1.3728    1.3729    1.3729    1.7200    1.7200    4.0775    4.0775    5.0641    5.0641
    5.0641    5.0641    5.4786    5.4786    5.9256    5.9256    5.9256    5.9256    7.3244    7.3244
    7.7094    7.7094    7.7095    7.7095    8.3378    8.3378    8.3378    8.3378    9.3353    9.3353
    9.3353    9.3353    9.8804    9.8804   11.4745   11.4745   11.4745   11.4745   11.7338   11.7338
   14.1751   14.1751   14.1751   14.1751
  38  1  -28.1825  -28.1825  -26.7605  -26.7605  -26.0955  -26.0955  -26.0955  -26.0955  -24.8701  -24.8701
         -24.8701  -24.8701  -24.3268  -24.3268  -22.8446  -22.8446  -22.8446  -22.8446  -21.1300  -21.1300
  -21.1300  -21.1300  -20.7085  -20.7085  -19.8409  -19.8409  -19.8409  -19.8409  -18.7601  -18.7601
  -18.7601  -18.7601  -18.0472  -18.0472  -18.0472  -18.0472  -17.0689  -17.0689  -16.3081  -16.3081
  -16.3081  -16.3081  -16.0573  -16.0573  -15.7245  -15.7245  -15.7245  -15.7245  -14.9571  -14.9571
  -14.5040  -14.5040  -13.6755  -13.6755  -13.4543  -13.4543  -13.3862  -13.3862  -12.9173  -12.9173
  -12.9173  -12.9173  -11.8572  -11.8572  -11.8572  -11.8572  -11.4042  -11.4042   -9.7838   -9.7838
   -9.7838   -9.7838   -7.1686   -7.1686   -7.1686   -7.1686   -5.3248   -5.3248   -4.5106   -4.5106
   -4.5106   -4.5106   -2.4615   -2.4615   -2.4615   -2.4615   -1.2437   -1.2437    0.3622    0.3622
    0.3785    0.3785    0.7050    0.7050    0.8721    0.8721    1.1850    1.1850    1.1850    1.1850
    1.3728    1.3728    1.3729    1.3729    1.7200    1.7200    4.0775    4.0775    5.0641    5.0641
    5.0641    5.0641    5.4786    5.4786    5.9256    5.9256    5.9256    5.9256    7.3244    7.3244
    7.7094    7.7094    7.7095    7.7095    8.3378    8.3378    8.3378    8.3378    9.3353    9.3353
    9.3353    9.3353    9.8804    9.8804   11.4745   11.4745   11.4745   11.4745   11.7338   11.7338
   14.1751   14.1751   14.1751   14.1751
  39  1  -27.8161  -27.8161  -27.1046  -27.1046  -27.1046  -27.1046  -25.1586  -25.1586  -25.1586  -25.1586
         -24.0264  -24.0264  -23.6189  -23.6189  -23.6189  -23.6189  -23.0071  -23.0071  -21.5605  -21.5605
  -21.3618  -21.3618  -21.3618  -21.3618  -19.9817  -19.9817  -18.9859  -18.9859  -18.9859  -18.9859
  -18.1708  -18.1708  -17.7042  -17.7042  -16.9964  -16.9964  -16.9964  -16.9964  -16.6069  -16.6069
  -16.6069  -16.6069  -16.2230  -16.2230  -16.2230  -16.2230  -14.9052  -14.9052  -14.9052  -14.9052
  -14.6554  -14.6554  -14.2457  -14.2457  -13.9959  -13.9959  -13.7182  -13.7182  -13.7182  -13.7182
  -12.0941  -12.0941  -12.0941  -12.0941  -10.9909  -10.9909  -10.7994  -10.7994  -10.7994  -10.7994
  -10.1857  -10.1857   -6.8192   -6.8192   -6.1657   -6.1657   -6.1657   -6.1657   -5.6627   -5.6627
   -3.9995   -3.9995   -3.9995   -3.9995   -0.5585   -0.5585   -0.5585   -0.5585    0.9113    0.9113
    1.0139    1.0139    1.0522    1.0522    1.0522    1.0522    1.4602    1.4602    1.4602    1.4602
    1.7691    1.7691    2.8810    2.8810    3.1157    3.1157    3.1157    3.1157    3.4546    3.4546
    3.4546    3.4546    4.7113    4.7113    4.9762    4.9762    5.9204    5.9204    5.9204    5.9204
    6.4902    6.4902    6.9505    6.9505    6.9505    6.9505    9.0574    9.0574    9.8512    9.8512
    9.8512    9.8512   11.5843   11.5843   11.5843   11.5843   12.8002   12.8002   12.8002   12.8002
   13.2732   13.2732   13.7045   13.7045
  40  1  -27.8161  -27.8161  -27.1046  -27.1046  -27.1046  -27.1046  -25.1586  -25.1586  -25.1586  -25.1586
         -24.0264  -24.0264  -23.6189  -23.6189  -23.6189  -23.6189  -23.0071  -23.0071  -21.5605  -21.5605
  -21.3618  -21.3618  -21.3618  -21.3618  -19.9817  -19.9817  -18.9859  -18.9859  -18.9859  -18.9859
  -18.1708  -18.1708  -17.7042  -17.7042  -16.9964  -16.9964  -16.9964  -16.9964  -16.6069  -16.6069
  -16.6069  -16.6069  -16.2230  -16.2230  -16.2230  -16.2230  -14.9052  -14.9052  -14.9052  -14.9052
  -14.6554  -14.6554  -14.2457  -14.2457  -13.9959  -13.9959  -13.7182  -13.7182  -13.7182  -13.7182
  -12.0941  -12.0941  -12.0941  -12.0941  -10.9909  -10.9909  -10.7994  -10.7994  -10.7994  -10.7994
  -10.1857  -10.1857   -6.8192   -6.8192   -6.1657   -6.1657   -6.1657   -6.1657   -5.6627   -5.6627
   -3.9995   -3.9995   -3.9995   -3.9995   -0.5585   -0.5585   -0.5585   -0.5585    0.9113    0.9113
    1.0139    1.0139    1.0522    1.0522    1.0522    1.0522    1.4602    1.4602    1.4602    1.4602
    1.7691    1.7691    2.8810    2.8810    3.1157    3.1157    3.1157    3.1157    3.4546    3.4546
    3.4546    3.4546    4.7113    4.7113    4.9762    4.9762    5.9204    5.9204    5.9204    5.9204
    6.4902    6.4902    6.9505    6.9505    6.9505    6.9505    9.0574    9.0574    9.8512    9.8512
    9.8512    9.8512   11.5843   11.5843   11.5843   11.5843   12.8002   12.8002   12.8002   12.8002
   13.2732   13.2732   13.7045   13.7045
  41  1  -27.8161  -27.8161  -27.1046  -27.1046  -27.1046  -27.1046  -25.1586  -25.1586  -25.1586  -25.1586
         -24.0264  -24.0264  -23.6189  -23.6189  -23.6189  -23.6189  -23.0071  -23.0071  -21.5605  -21.5605
  -21.3618  -21.3618  -21.3618  -21.3618  -19.9817  -19.9817  -18.9859  -18.9859  -18.9859  -18.9859
  -18.1708  -18.1708  -17.7042  -17.7042  -16.9964  -16.9964  -16.9964  -16.9964  -16.6069  -16.6069
  -16.6069  -16.6069  -16.2230  -16.2230  -16.2230  -16.2230  -14.9052  -14.9052  -14.9052  -14.9052
  -14.6554  -14.6554  -14.2457  -14.2457  -13.9959  -13.9959  -13.7182  -13.7182  -13.7182  -13.7182
  -12.0941  -12.0941  -12.0941  -12.0941  -10.9909  -10.9909  -10.7994  -10.7994  -10.7994  -10.7994
  -10.1857  -10.1857   -6.8192   -6.8192   -6.1657   -6.1657   -6.1657   -6.1657   -5.6627   -5.6627
   -3.9995   -3.9995   -3.9995   -3.9995   -0.5585   -0.5585   -0.5585   -0.5585    0.9113    0.9113
    1.0139    1.0139    1.0522    1.0522    1.0522    1.0522    1.4602    1.4602    1.4602    1.4602
    1.7691    1.7691    2.8810    2.8810    3.1157    3.1157    3.1157    3.1157    3.4546    3.4546
    3.4546    3.4546    4.7113    4.7113    4.9762    4.9762    5.9204    5.9204    5.9204    5.9204
    6.4902    6.4902    6.9505    6.9505    6.9505    6.9505    9.0574    9.0574    9.8512    9.8512
    9.8512    9.8512   11.5843   11.5843   11.5843   11.5843   12.8002   12.8002   12.8002   12.8002
   13.2732   13.2732   13.7045   13.7045
  42  1  -27.6355  -27.6355  -27.6355  -27.6355  -26.2581  -26.2580  -26.2580  -26.2580  -23.9118  -23.9118
         -23.9118  -23.9118  -23.9118  -23.9118  -23.9118  -23.9118  -23.4087  -23.4087  -21.7618  -21.7618
  -20.5459  -20.5459  -20.5459  -20.5459  -20.5459  -20.5459  -20.5459  -20.5459  -17.5318  -17.5318
  -17.5318  -17.5318  -17.5318  -17.5318  -17.5318  -17.5318  -17.4811  -17.4811  -17.4811  -17.4811
  -16.2024  -16.2024  -16.0574  -16.0574  -16.0574  -16.0574  -15.1853  -15.1853  -15.1853  -15.1853
  -14.1353  -14.1353  -14.1353  -14.1353  -14.1133  -14.1133  -14.1133  -14.1133  -13.0483  -13.0483
  -13.0483  -13.0483  -10.9308  -10.9308  -10.9307  -10.9307  -10.9307  -10.9307  -10.9307  -10.9307
  -10.7272  -10.7272   -6.3401   -6.3401   -5.8276   -5.8276   -5.8276   -5.8276   -5.8276   -5.8276
   -5.8276   -5.8276   -2.1432   -2.1432   -2.1432   -2.1432    0.3057    0.3057    0.5240    0.5240
    0.5240    0.5240    0.6832    0.6832    0.6832    0.6832    2.8708    2.8708    2.8708    2.8708
    2.9454    2.9454    2.9454    2.9454    2.9454    2.9454    2.9454    2.9454    3.2741    3.2741
    3.2741    3.2741    3.4676    3.4676    3.4676    3.4676    5.2910    5.2910    5.2911    5.2911
    8.1453    8.1453    8.1453    8.1453    8.1453    8.1453    8.1453    8.1453    9.3713    9.3713
    9.3713    9.3713   10.5586   10.5586   12.5637   12.5637   13.1352   13.1352   13.1352   13.1352
   13.1352   13.1352   13.1352   13.1352
  43  1  -27.8161  -27.8161  -27.1046  -27.1046  -27.1046  -27.1046  -25.1586  -25.1586  -25.1586  -25.1586
         -24.0264  -24.0264  -23.6189  -23.6189  -23.6189  -23.6189  -23.0071  -23.0071  -21.5605  -21.5605
  -21.3618  -21.3618  -21.3618  -21.3618  -19.9817  -19.9817  -18.9859  -18.9859  -18.9859  -18.9859
  -18.1708  -18.1708  -17.7042  -17.7042  -16.9964  -16.9964  -16.9964  -16.9964  -16.6069  -16.6069
  -16.6069  -16.6069  -16.2230  -16.2230  -16.2230  -16.2230  -14.9052  -14.9052  -14.9052  -14.9052
  -14.6554  -14.6554  -14.2457  -14.2457  -13.9959  -13.9959  -13.7182  -13.7182  -13.7182  -13.7182
  -12.0941  -12.0941  -12.0941  -12.0941  -10.9909  -10.9909  -10.7994  -10.7994  -10.7994  -10.7994
  -10.1857  -10.1857   -6.8192   -6.8192   -6.1657   -6.1657   -6.1657   -6.1657   -5.6627   -5.6627
   -3.9995   -3.9995   -3.9995   -3.9995   -0.5585   -0.5585   -0.5585   -0.5585    0.9113    0.9113
    1.0139    1.0139    1.0522    1.0522    1.0522    1.0522    1.4602    1.4602    1.4602    1.4602
    1.7691    1.7691    2.8810    2.8810    3.1157    3.1157    3.1157    3.1157    3.4546    3.4546
    3.4546    3.4546    4.7113    4.7113    4.9762    4.9762    5.9204    5.9204    5.9204    5.9204
    6.4902    6.4902    6.9505    6.9505    6.9505    6.9505    9.0574    9.0574    9.8512    9.8512
    9.8512    9.8512   11.5843   11.5843   11.5843   11.5843   12.8002   12.8002   12.8002   12.8002
   13.2732   13.2732   13.7045   13.7045
  44  1  -27.6355  -27.6355  -27.6355  -27.6355  -26.2581  -26.2580  -26.2580  -26.2580  -23.9118  -23.9118
         -23.9118  -23.9118  -23.9118  -23.9118  -23.9118  -23.9118  -23.4087  -23.4087  -21.7618  -21.7618
  -20.5459  -20.5459  -20.5459  -20.5459  -20.5459  -20.5459  -20.5459  -20.5459  -17.5318  -17.5318
  -17.5318  -17.5318  -17.5318  -17.5318  -17.5318  -17.5318  -17.4811  -17.4811  -17.4811  -17.4811
  -16.2024  -16.2024  -16.0574  -16.0574  -16.0574  -16.0574  -15.1853  -15.1853  -15.1853  -15.1853
  -14.1353  -14.1353  -14.1353  -14.1353  -14.1133  -14.1133  -14.1133  -14.1133  -13.0483  -13.0483
  -13.0483  -13.0483  -10.9308  -10.9308  -10.9307  -10.9307  -10.9307  -10.9307  -10.9307  -10.9307
  -10.7272  -10.7272   -6.3401   -6.3401   -5.8276   -5.8276   -5.8276   -5.8276   -5.8276   -5.8276
   -5.8276   -5.8276   -2.1432   -2.1432   -2.1432   -2.1432    0.3057    0.3057    0.5240    0.5240
    0.5240    0.5240    0.6832    0.6832    0.6832    0.6832    2.8708    2.8708    2.8708    2.8708
    2.9454    2.9454    2.9454    2.9454    2.9454    2.9454    2.9454    2.9454    3.2741    3.2741
    3.2741    3.2741    3.4676    3.4676    3.4676    3.4676    5.2910    5.2910    5.2911    5.2911
    8.1453    8.1453    8.1453    8.1453    8.1453    8.1453    8.1453    8.1453    9.3713    9.3713
    9.3713    9.3713   10.5586   10.5586   12.5637   12.5637   13.1352   13.1352   13.1352   13.1352
   13.1352   13.1352   13.1352   13.1352
siesta: Fermi energy =      -8.501003 eV

siesta: Program's energy decomposition (eV):
siesta: Ebs     =     -2604.423729
siesta: Eions   =      9434.507561
siesta: Ena     =      2271.194305
siesta: Ekin    =      3581.610825
siesta: Enl     =      -332.935318
siesta: Eso     =         0.000000
siesta: Edftu   =         0.000000
siesta: DEna    =        25.583430
siesta: DUscf   =         2.877737
siesta: DUext   =         0.000000
siesta: Exc     =     -1618.465917
siesta: eta*DQ  =         0.000000
siesta: Emadel  =         0.000000
siesta: Emeta   =         0.000000
siesta: Emolmec =        -2.702831
siesta: Ekinion =         0.000000
siesta: Eharris =     -5507.345329
siesta: Etot    =     -5507.345329
siesta: FreeEng =     -5507.362465

siesta: Final energy (eV):
siesta:  Band Struct. =   -2604.423729
siesta:       Kinetic =    3581.610825
siesta:       Hartree =    2638.079109
siesta:       Edftu   =       0.000000
siesta:       Eso     =       0.000000
siesta:    Ext. field =       0.000000
siesta:   Exch.-corr. =   -1618.465917
siesta:  Ion-electron =   -9346.924765
siesta:       Ion-ion =    -758.941751
siesta:       Ekinion =       0.000000
siesta:         Total =   -5507.345329
siesta:         Fermi =      -8.501003

siesta: Stress tensor (static) (eV/Ang**3):
siesta:    -0.198512    0.000000    0.000000
siesta:     0.000000   -0.198512   -0.000000
siesta:    -0.000000   -0.000000    0.034355

siesta: Cell volume =        425.546071 Ang**3

siesta: Pressure (static):
siesta:                Solid            Molecule  Units
siesta:           0.00131664          0.00131666  Ry/Bohr**3
siesta:           0.12088953          0.12089155  eV/Ang**3
siesta:         193.68847314        193.69170639  kBar
(Free)E+ p_basis*V_orbitals  =       -5489.059419
(Free)Eharris+ p_basis*V_orbitals  =       -5489.059419

cite: Please see "graphite_scf.bib" for an exhaustive BiBTeX file.
cite: Please clearly indicate Siesta version in published work: 4.1.5
cite: This calculation has made use of the following articles
cite: which are encouraged to be cited in a published work.
        Primary SIESTA paper
          DOI: www.doi.org/10.1088/0953-8984/14/11/302

>> End of run:   1-NOV-2022  14:33:35
Job completed
