Siesta Version  : 4.1.5
Architecture    : x86_64-unknown-linux-gnu--unknown
Compiler version: GNU Fortran (GCC) 11.3.0
Compiler flags  : mpif90 -g -O2 -fallow-argument-mismatch
PP flags        : -DMPI -DFC_HAVE_FLUSH -DFC_HAVE_ABORT
Libraries       :  -I/global/software/sl-7.x86_64/modules/intel/2020.4.304/mkl/include  /globall/software/sl-7.x86_64/modules/intel/2020.4.304/mkl/lib/intel64/libmkl_scalapack_lp64.a -Wl,--start-group /global/software/sl-7.x86_64/modules/intel/2020.4.304/mkl/lib/intel64/libmkl_intel_lp64.a /global/software/sl-7.x86_64/modules/intel/2020.4.304/mkl/lib/intel64/libmkl_sequential.a /global/software/sl-7.x86_64/modules/intel/2020.4.304/mkl/lib/intel64/libmkl_core.a /global/software/sl-7.x86_64/modules/intel/2020.4.304/mkl/lib/intel64/libmkl_blacs_openmpi_lp64.a -Wl,--end-group -lpthread -lm -ldl
PARALLEL version

* Running on 20 nodes in parallel
>> Start of run:   1-NOV-2022  14:18:15

                           ***********************       
                           *  WELCOME TO SIESTA  *       
                           ***********************       

reinit: Reading from standard input
reinit: Dumped input in INPUT_TMP.80582
************************** Dump of input data file ****************************
SystemName graphite_scf
SystemLabel graphite_scf
NumberOfAtoms   36
NumberOfSpecies 1
%block ChemicalSpeciesLabel
1  6   C-gga
%endblock ChemicalSpeciesLabel
PAO.BasisSize  SZ
PAO.EnergyShift  10 meV
%block PS.Lmax
C-gga   2
%endblock PS.Lmax
LatticeConstant 1.000000 Ang
%block LatticeVectors
	7.3920000000	0.0000000000	0.0000000000
	-3.6960000000	6.4016597848	0.0000000000
	0.0000000000	0.0000000000	6.5767800000
%endblock LatticeVectors
AtomicCoordinatesFormat Ang
%block AtomicCoordinatesAndAtomicSpecies
	0.00000000	0.00000000	1.64419500	1
	0.00000000	0.00000000	4.93258500	1
	-1.23200000	2.13388659	1.64419500	1
	-2.46400000	4.26777319	4.93258500	1
	2.46400000	4.26777319	1.64419500	1
	1.23200000	2.13388659	4.93258500	1
	2.46400000	0.00000000	1.64419500	1
	4.92800000	0.00000000	4.93258500	1
	2.46400000	0.00000000	4.93258500	1
	4.92800000	0.00000000	1.64419500	1
	2.46400000	4.26777319	4.93258500	1
	1.23200000	2.13388659	1.64419500	1
	-1.23200000	2.13388659	4.93258500	1
	-2.46400000	4.26777319	1.64419500	1
	0.00000000	4.26777319	1.64419500	1
	3.69600000	2.13388659	4.93258500	1
	3.69600000	2.13388659	1.64419500	1
	0.00000000	4.26777319	4.93258500	1
	0.00000000	1.42258964	1.64419500	1
	3.69600000	4.97907014	4.93258500	1
	2.46400123	5.69036496	1.64419500	1
	1.23199877	0.71129482	4.93258500	1
	-2.46400123	5.69036496	1.64419500	1
	6.16000123	0.71129482	4.93258500	1
	-1.23200000	3.55647624	1.64419500	1
	4.92800000	2.84518355	4.93258500	1
	1.23200123	3.55647837	1.64419500	1
	2.46399877	2.84518142	4.93258500	1
	-0.00000123	5.69036496	1.64419500	1
	3.69600123	0.71129482	4.93258500	1
	2.46400000	1.42258964	1.64419500	1
	1.23200000	4.97907014	4.93258500	1
	4.92800123	1.42259177	1.64419500	1
	-1.23200123	4.97906801	4.93258500	1
	3.69599877	3.55647837	1.64419500	1
	0.00000123	2.84518142	4.93258500	1
%endblock AtomicCoordinatesAndAtomicSpecies
Kgrid_NoTRS  T
%block kgrid_MonkhorstPack
4       0       0       0.0
0       4       0       0.0
0       0       4       0.0
%endblock kgrid_MonkhorstPack
AtomCoorFormatOut Ang
BlockSize 1
#ProcessorY 12
Diag.ParallelOverK   T
Diag.DivideAndConquer F
MeshCutoff   300 Ry
SCF.FreeE.Tolerance 1E-3 eV
SCF.EDM.Tolerance   5E-3 eV
DM.Tolerance  1E-3
DM.Require.Energy.Convergence T
DM.NumberPulay 4
#XC.Functional GGA
#CX.Authors    PBE
UseSaveData        F
SolutionMethod     diagon
MD.TypeOfRun       CG
MD.VariableCell    F
MD.NumCGsteps      00
MD.MaxCGDispl      0.200000 Bohr
#MD.MaxStressTol    1.000000 GPa
#MD.MaxForceTol     0.010000 eV/Ang
WriteMDHistory T
WriteCoorStep T
WriteForces T
WriteCoorStep    T
WriteEigenValues T
WriteDM    F
MM.UnitsDistance Ang  # what this program prints out DO NOT CHANGE
MM.UnitsEnergy    eV  # what this program prints out DO NOT CHANGE
MM.Grimme.S6     0.75 # Grimme-paper for PBE (correct for your functional)
MM.Grimme.D     20.   # Grimme-paper (correct for your functional)
%block MM.Potentials
  1   1 Grimme     18.14      2.904 # C, 10.1002/jcc.20495
%endblock MM.Potentials
#%block ProjectedDensityOfStates
# -200.0  120.0  0.4  12800  eV
#%endblock ProjectedDensityOfStates
************************** End of input data file *****************************

reinit: -----------------------------------------------------------------------
reinit: System Name: graphite_scf
reinit: -----------------------------------------------------------------------
reinit: System Label: graphite_scf
reinit: -----------------------------------------------------------------------
Reading two-body potentials
Grimme - two-body potential between 1 and 1

initatom: Reading input for the pseudopotentials and atomic orbitals ----------
Species number:   1 Atomic number:    6 Label: C-gga

Ground state valence configuration:   2s02  2p02
Reading pseudopotential information in formatted form from C-gga.psf

Valence configuration for pseudopotential generation:
2s( 2.00) rc: 1.56
2p( 2.00) rc: 1.56
3d( 0.00) rc: 1.56
4f( 0.00) rc: 1.56
relmxkb: Read Max KB Ang. Momentum=    2 for species C-gga

<basis_specs>
===============================================================================
C-gga                Z=   6    Mass=  12.010        Charge= 0.17977+309
Lmxo=1 Lmxkb= 2    BasisType=split      Semic=F
L=0  Nsemic=0  Cnfigmx=2
          i=1  nzeta=1  polorb=0  (2s)
            splnorm:   0.15000    
               vcte:    0.0000    
               rinn:    0.0000    
               qcoe:    0.0000    
               qyuk:    0.0000    
               qwid:   0.10000E-01
                rcs:    0.0000    
            lambdas:    1.0000    
L=1  Nsemic=0  Cnfigmx=2
          i=1  nzeta=1  polorb=0  (2p)
            splnorm:   0.15000    
               vcte:    0.0000    
               rinn:    0.0000    
               qcoe:    0.0000    
               qyuk:    0.0000    
               qwid:   0.10000E-01
                rcs:    0.0000    
            lambdas:    1.0000    
-------------------------------------------------------------------------------
L=0  Nkbl=1  erefs: 0.17977+309
L=1  Nkbl=1  erefs: 0.17977+309
L=2  Nkbl=1  erefs: 0.17977+309
===============================================================================
</basis_specs>

atom: Called for C-gga                 (Z =   6)

read_vps: Pseudopotential generation method:
read_vps: ATM 3.2.2 Troullier-Martins                       
Valence charge for ps generation:    4.00000

xc_check: Exchange-correlation functional:
xc_check: Ceperley-Alder
xc_check: WARNING: Pseudopotential generated with GGA PBE functional
V l=0 = -2*Zval/r beyond r=  1.5227
V l=1 = -2*Zval/r beyond r=  1.5227
V l=2 = -2*Zval/r beyond r=  1.5227
All V_l potentials equal beyond r=  1.4851
This should be close to max(r_c) in ps generation
All pots = -2*Zval/r beyond r=  1.5227

VLOCAL1: 99.0% of the norm of Vloc inside     19.682 Ry
VLOCAL1: 99.9% of the norm of Vloc inside     44.856 Ry
atom: Maximum radius for 4*pi*r*r*local-pseudopot. charge    1.79142
atom: Maximum radius for r*vlocal+2*Zval:    1.54183
GHOST: No ghost state for L =  0
GHOST: No ghost state for L =  1
GHOST: No ghost state for L =  2

KBgen: Kleinman-Bylander projectors: 
   l= 0   rc=  1.661951   el= -0.994756   Ekb=  5.296364   kbcos=  0.313951
   l= 1   rc=  1.661951   el= -0.376633   Ekb= -4.104879   kbcos= -0.344765
   l= 2   rc=  1.747182   el=  0.002326   Ekb= -1.006421   kbcos= -0.008606

KBgen: Total number of Kleinman-Bylander projectors:    9
atom: -------------------------------------------------------------------------

atom: SANKEY-TYPE ORBITALS:

SPLIT: Orbitals with angular momentum L= 0

SPLIT: Basis orbitals for state 2s

SPLIT: PAO cut-off radius determined from an
SPLIT: energy shift=  0.000735 Ry

   izeta = 1
                 lambda =    1.000000
                     rc =    5.948690
                 energy =   -0.994108
                kinetic =    0.809152
    potential(screened) =   -1.803260
       potential(ionic) =   -5.360717

SPLIT: Orbitals with angular momentum L= 1

SPLIT: Basis orbitals for state 2p

SPLIT: PAO cut-off radius determined from an
SPLIT: energy shift=  0.000735 Ry

   izeta = 1
                 lambda =    1.000000
                     rc =    7.638387
                 energy =   -0.375915
                kinetic =    2.245823
    potential(screened) =   -2.621738
       potential(ionic) =   -5.993382
atom: Total number of Sankey-type orbitals:  4

atm_pop: Valence configuration (for local Pseudopot. screening):
 2s( 2.00)                                                            
 2p( 2.00)                                                            
Vna: chval, zval:    4.00000   4.00000

Vna:  Cut-off radius for the neutral-atom potential:   7.638387

atom: _________________________________________________________________________

prinput: Basis input ----------------------------------------------------------

PAO.BasisType split     

%block ChemicalSpeciesLabel
    1    6 C-gga                   # Species index, atomic number, species label
%endblock ChemicalSpeciesLabel

%block PAO.Basis                 # Define Basis set
C-gga                 2                    # Species label, number of l-shells
 n=2   0   1                         # n, l, Nzeta 
   5.949   
   1.000   
 n=2   1   1                         # n, l, Nzeta 
   7.638   
   1.000   
%endblock PAO.Basis

prinput: ----------------------------------------------------------------------

coor:   Atomic-coordinates input format  =     Cartesian coordinates
coor:                                          (in Angstroms)

siesta: Atomic coordinates (Bohr) and species
siesta:      0.00000   0.00000   3.10708  1        1
siesta:      0.00000   0.00000   9.32124  1        2
siesta:     -2.32814   4.03246   3.10708  1        3
siesta:     -4.65629   8.06493   9.32124  1        4
siesta:      4.65629   8.06493   3.10708  1        5
siesta:      2.32814   4.03246   9.32124  1        6
siesta:      4.65629   0.00000   3.10708  1        7
siesta:      9.31257   0.00000   9.32124  1        8
siesta:      4.65629   0.00000   9.32124  1        9
siesta:      9.31257   0.00000   3.10708  1       10
siesta:      4.65629   8.06493   9.32124  1       11
siesta:      2.32814   4.03246   3.10708  1       12
siesta:     -2.32814   4.03246   9.32124  1       13
siesta:     -4.65629   8.06493   3.10708  1       14
siesta:      0.00000   8.06493   3.10708  1       15
siesta:      6.98443   4.03246   9.32124  1       16
siesta:      6.98443   4.03246   3.10708  1       17
siesta:      0.00000   8.06493   9.32124  1       18
siesta:      0.00000   2.68831   3.10708  1       19
siesta:      6.98443   9.40908   9.32124  1       20
siesta:      4.65629  10.75324   3.10708  1       21
siesta:      2.32814   1.34415   9.32124  1       22
siesta:     -4.65629  10.75324   3.10708  1       23
siesta:     11.64072   1.34415   9.32124  1       24
siesta:     -2.32814   6.72077   3.10708  1       25
siesta:      9.31257   5.37662   9.32124  1       26
siesta:      2.32815   6.72077   3.10708  1       27
siesta:      4.65628   5.37662   9.32124  1       28
siesta:     -0.00000  10.75324   3.10708  1       29
siesta:      6.98443   1.34415   9.32124  1       30
siesta:      4.65629   2.68831   3.10708  1       31
siesta:      2.32814   9.40908   9.32124  1       32
siesta:      9.31258   2.68831   3.10708  1       33
siesta:     -2.32815   9.40908   9.32124  1       34
siesta:      6.98443   6.72077   3.10708  1       35
siesta:      0.00000   5.37662   9.32124  1       36

siesta: System type = bulk      

initatomlists: Number of atoms, orbitals, and projectors:     36   144   324

siesta: ******************** Simulation parameters ****************************
siesta:
siesta: The following are some of the parameters of the simulation.
siesta: A complete list of the parameters used, including default values,
siesta: can be found in file out.fdf
siesta:
redata: Spin configuration                          = none
redata: Number of spin components                   = 1
redata: Time-Reversal Symmetry                      = T
redata: Spin spiral                                 = F
redata: Long output                                 =   F
redata: Number of Atomic Species                    =        1
redata: Charge density info will appear in .RHO file
redata: Write Mulliken Pop.                         = NO
redata: Matel table size (NRTAB)                    =     1024
redata: Mesh Cutoff                                 =   300.0000 Ry
redata: Net charge of the system                    =     0.0000 |e|
redata: Min. number of SCF Iter                     =        0
redata: Max. number of SCF Iter                     =     1000
redata: SCF convergence failure will abort job
redata: SCF mix quantity                            = Hamiltonian
redata: Mix DM or H after convergence               =   F
redata: Recompute H after scf cycle                 =   F
redata: Mix DM in first SCF step                    =   T
redata: Write Pulay info on disk                    =   F
redata: New DM Occupancy tolerance                  = 0.000000000001
redata: No kicks to SCF
redata: DM Mixing Weight for Kicks                  =     0.5000
redata: Require Harris convergence for SCF          =   F
redata: Harris energy tolerance for SCF             =     0.000100 eV
redata: Require DM convergence for SCF              =   T
redata: DM tolerance for SCF                        =     0.001000
redata: Require EDM convergence for SCF             =   F
redata: EDM tolerance for SCF                       =     0.005000 eV
redata: Require H convergence for SCF               =   T
redata: Hamiltonian tolerance for SCF               =     0.001000 eV
redata: Require (free) Energy convergence for SCF   =   T
redata: (free) Energy tolerance for SCF             =     0.001000 eV
redata: Using Saved Data (generic)                  =   F
redata: Use continuation files for DM               =   F
redata: Neglect nonoverlap interactions             =   F
redata: Method of Calculation                       = Diagonalization
redata: Electronic Temperature                      =   299.9869 K
redata: Fix the spin of the system                  =   F
redata: Dynamics option                             = Single-point calculation
mix.SCF: Pulay mixing                            = Pulay
mix.SCF:    Variant                              = stable
mix.SCF:    History steps                        = 4
mix.SCF:    Linear mixing weight                 =     0.250000
mix.SCF:    Mixing weight                        =     0.250000
mix.SCF:    SVD condition                        = 0.1000E-07
redata: ***********************************************************************

%block SCF.Mixers
  Pulay
%endblock SCF.Mixers

%block SCF.Mixer.Pulay
  # Mixing method
  method pulay
  variant stable

  # Mixing options
  weight 0.2500
  weight.linear 0.2500
  history 4
%endblock SCF.Mixer.Pulay

DM_history_depth set to one: no extrapolation allowed by default for geometry relaxation
Size of DM history Fstack: 1
Total number of electrons:   144.000000
Total ionic charge:   144.000000

* ProcessorY, Blocksize:    4   1


* Orbital distribution balance (max,min):     8     7

k-point displ. along   1 input, could be:     0.00    0.50
k-point displ. along   2 input, could be:     0.00    0.50
k-point displ. along   3 input, could be:     0.00    0.50
 Kpoints in:           48 . Kpoints trimmed:           44

siesta: k-grid: Number of k-points =    44
siesta: k-grid: Cutoff (effective) =    13.154 Ang
siesta: k-grid: Supercell and displacements
siesta: k-grid:    4   0   0      0.000
siesta: k-grid:    0   4   0      0.000
siesta: k-grid:    0   0   4      0.000

diag: Algorithm                                     = Expert
diag: Parallel over k                               =   T
diag: Use parallel 2D distribution                  =   T
diag: Parallel block-size                           = 1
diag: Parallel distribution                         =     4 x     5
diag: Used triangular part                          = Lower
diag: Absolute tolerance                            =  0.100E-15
diag: Orthogonalization factor                      =  0.100E-05
diag: Memory factor                                 =  1.0000

superc: Internal auxiliary supercell:     5 x     5 x     3  =      75
superc: Number of atoms, orbitals, and projectors:   2700  10800  24300


ts: **************************************************************
ts: Save H and S matrices                           =    F
ts: Save DM and EDM matrices                        =    F
ts: Only save the overlap matrix S                  =    F
ts: **************************************************************

************************ Begin: TS CHECKS AND WARNINGS ************************
************************ End: TS CHECKS AND WARNINGS **************************


                     ====================================
                        Single-point calculation
                     ====================================

outcoor: Atomic coordinates (Ang):                          
    0.00000000    0.00000000    1.64419500   1       1  C-gga
    0.00000000    0.00000000    4.93258500   1       2  C-gga
   -1.23200000    2.13388659    1.64419500   1       3  C-gga
   -2.46400000    4.26777319    4.93258500   1       4  C-gga
    2.46400000    4.26777319    1.64419500   1       5  C-gga
    1.23200000    2.13388659    4.93258500   1       6  C-gga
    2.46400000    0.00000000    1.64419500   1       7  C-gga
    4.92800000    0.00000000    4.93258500   1       8  C-gga
    2.46400000    0.00000000    4.93258500   1       9  C-gga
    4.92800000    0.00000000    1.64419500   1      10  C-gga
    2.46400000    4.26777319    4.93258500   1      11  C-gga
    1.23200000    2.13388659    1.64419500   1      12  C-gga
   -1.23200000    2.13388659    4.93258500   1      13  C-gga
   -2.46400000    4.26777319    1.64419500   1      14  C-gga
    0.00000000    4.26777319    1.64419500   1      15  C-gga
    3.69600000    2.13388659    4.93258500   1      16  C-gga
    3.69600000    2.13388659    1.64419500   1      17  C-gga
    0.00000000    4.26777319    4.93258500   1      18  C-gga
    0.00000000    1.42258964    1.64419500   1      19  C-gga
    3.69600000    4.97907014    4.93258500   1      20  C-gga
    2.46400123    5.69036496    1.64419500   1      21  C-gga
    1.23199877    0.71129482    4.93258500   1      22  C-gga
   -2.46400123    5.69036496    1.64419500   1      23  C-gga
    6.16000123    0.71129482    4.93258500   1      24  C-gga
   -1.23200000    3.55647624    1.64419500   1      25  C-gga
    4.92800000    2.84518355    4.93258500   1      26  C-gga
    1.23200123    3.55647837    1.64419500   1      27  C-gga
    2.46399877    2.84518142    4.93258500   1      28  C-gga
   -0.00000123    5.69036496    1.64419500   1      29  C-gga
    3.69600123    0.71129482    4.93258500   1      30  C-gga
    2.46400000    1.42258964    1.64419500   1      31  C-gga
    1.23200000    4.97907014    4.93258500   1      32  C-gga
    4.92800123    1.42259177    1.64419500   1      33  C-gga
   -1.23200123    4.97906801    4.93258500   1      34  C-gga
    3.69599877    3.55647837    1.64419500   1      35  C-gga
    0.00000123    2.84518142    4.93258500   1      36  C-gga

superc: Internal auxiliary supercell:     5 x     5 x     3  =      75
superc: Number of atoms, orbitals, and projectors:   2700  10800  24300

outcell: Unit cell vectors (Ang):
        7.392000    0.000000    0.000000
       -3.696000    6.401660    0.000000
        0.000000    0.000000    6.576780

outcell: Cell vector modules (Ang)   :    7.392000    7.392000    6.576780
outcell: Cell angles (23,13,12) (deg):     90.0000     90.0000    120.0000
outcell: Cell volume (Ang**3)        :    311.2203
<dSpData1D:S at geom step 0
  <sparsity:sparsity for geom step 0
    nrows_g=144 nrows=8 sparsity=.3383 nnzs=7016, refcount: 7>
  <dData1D:(new from dSpData1D) n=7016, refcount: 1>
refcount: 1>
new_DM -- step:     1
Initializing Density Matrix...
DM filled with atomic data:
<dSpData2D:DM initialized from atoms
  <sparsity:sparsity for geom step 0
    nrows_g=144 nrows=8 sparsity=.3383 nnzs=7016, refcount: 8>
  <dData2D:DM n=7016 m=1, refcount: 1>
refcount: 1>
No. of atoms with KB's overlaping orbs in proc 0. Max # of overlaps:     110     198
New grid distribution:   1
           1       1:   36    1:    9    1:    8
           2       1:   36    1:    9    9:   15
           3       1:   36    1:    9   16:   22
           4       1:   36    1:    9   23:   29
           5       1:   36    1:    9   30:   36
           6       1:   36   10:   18    1:    8
           7       1:   36   10:   18    9:   15
           8       1:   36   10:   18   16:   22
           9       1:   36   10:   18   23:   29
          10       1:   36   10:   18   30:   36
          11       1:   36   19:   27    1:    8
          12       1:   36   19:   27    9:   15
          13       1:   36   19:   27   16:   22
          14       1:   36   19:   27   23:   29
          15       1:   36   19:   27   30:   36
          16       1:   36   28:   36    1:    8
          17       1:   36   28:   36    9:   15
          18       1:   36   28:   36   16:   22
          19       1:   36   28:   36   23:   29
          20       1:   36   28:   36   30:   36

InitMesh: MESH =    72 x    72 x    72 =      373248
InitMesh: (bp) =    36 x    36 x    36 =       46656
InitMesh: Mesh cutoff (required, used) =   300.000   331.238 Ry
ExtMesh (bp) on 0 =   128 x   101 x   100 =     1292800
New grid distribution:   2
           1      16:   36   19:   36   19:   24
           2       1:   15    1:   18   10:   18
           3      16:   36   19:   36    1:    6
           4       1:   15    1:   18   19:   27
           5       1:   15   19:   36   28:   36
           6       1:   15    1:   18    1:    9
           7      16:   36   28:   36    7:   18
           8      16:   36   10:   18    7:   18
           9      16:   36    1:   18    1:    6
          10       1:   15    1:   18   28:   36
          11      16:   36   19:   27    7:   18
          12       1:   15   19:   36   10:   18
          13      16:   36    1:    9   25:   36
          14      16:   36    1:   18   19:   24
          15      16:   36   19:   27   25:   36
          16       1:   15   19:   36    1:    9
          17      16:   36   10:   18   25:   36
          18      16:   36    1:    9    7:   18
          19       1:   15   19:   36   19:   27
          20      16:   36   28:   36   25:   36
New grid distribution:   3
           1      16:   36   19:   36   19:   24
           2       1:   15    1:   18   10:   18
           3      16:   36   19:   36    1:    6
           4       1:   15    1:   18   19:   27
           5       1:   15   19:   36   28:   36
           6       1:   15    1:   18    1:    9
           7      16:   36   28:   36    7:   18
           8      16:   36   10:   18    7:   18
           9      16:   36    1:   18    1:    6
          10       1:   15    1:   18   28:   36
          11      16:   36   19:   27    7:   18
          12       1:   15   19:   36   10:   18
          13      16:   36    1:    9   25:   36
          14      16:   36    1:   18   19:   24
          15      16:   36   19:   27   25:   36
          16       1:   15   19:   36    1:    9
          17      16:   36   10:   18   25:   36
          18      16:   36    1:    9    7:   18
          19       1:   15   19:   36   19:   27
          20      16:   36   28:   36   25:   36
Setting up quadratic distribution...
ExtMesh (bp) on 0 =   113 x   110 x    98 =     1218140
PhiOnMesh: Number of (b)points on node 0 =                 2268
PhiOnMesh: nlist on node 0 =               268011

stepf: Fermi-Dirac step function

siesta: Program's energy decomposition (eV):
siesta: Ebs     =     -2559.906184
siesta: Eions   =      9434.507561
siesta: Ena     =      2268.083521
siesta: Ekin    =      3626.354424
siesta: Enl     =      -340.483253
siesta: Eso     =         0.000000
siesta: Edftu   =         0.000000
siesta: DEna    =        -1.579246
siesta: DUscf   =         2.533946
siesta: DUext   =         0.000000
siesta: Exc     =     -1633.717791
siesta: eta*DQ  =         0.000000
siesta: Emadel  =         0.000000
siesta: Emeta   =         0.000000
siesta: Emolmec =        -4.603466
siesta: Ekinion =         0.000000
siesta: Eharris =     -5366.017665
siesta: Etot    =     -5517.919427
siesta: FreeEng =     -5517.930421

        iscf     Eharris(eV)        E_KS(eV)     FreeEng(eV)     dDmax    Ef(eV) dHmax(eV)
   scf:    1    -5366.017665    -5517.919427    -5517.930421  1.338334 -8.351423  0.134207
timer: Routine,Calls,Time,% = IterSCF        1       1.218  47.85
   scf:    2    -5517.925846    -5517.922781    -5517.933769  0.001721 -8.324927  0.095246
   scf:    3    -5517.929049    -5517.926054    -5517.936998  0.002312 -8.254340  0.006017
   scf:    4    -5517.926196    -5517.926173    -5517.937144  0.001056 -8.254274  0.000360
   scf:    5    -5517.926173    -5517.926173    -5517.937144  0.000023 -8.254742  0.000069

SCF Convergence by FreeE+DM+H criterion
|FreeE_i-FreeE_(i-1)| (eV) <     0.00100000
max |DM_out - DM_in|         :     0.0000230462
max |H_out - H_in|      (eV) :     0.0000690916
SCF cycle converged after 5 iterations

Using DM_out to compute the final energy and forces
No. of atoms with KB's overlaping orbs in proc 0. Max # of overlaps:     110     198

MM-Stress (kbar):       14.12       14.12       52.24        0.00        0.00       -0.00

siesta: E_KS(eV) =            -5517.9262

siesta: E_KS - E_eggbox =     -5517.9262

siesta: Atomic forces (eV/Ang):
     1   -0.000000   -0.000000   -0.000000
     2    0.000000   -0.000000   -0.000000
     3    0.000074   -0.000055   -0.000000
     4   -0.000074    0.000056   -0.000000
     5    0.000011    0.000092   -0.000000
     6   -0.000011   -0.000092   -0.000000
     7   -0.000085   -0.000037   -0.000000
     8    0.000085    0.000036   -0.000000
     9   -0.000015   -0.000013   -0.000000
    10    0.000015    0.000012   -0.000000
    11   -0.000003    0.000020   -0.000000
    12    0.000003   -0.000019   -0.000000
    13    0.000019   -0.000006   -0.000000
    14   -0.000018    0.000007   -0.000000
    15   -0.000000   -0.000000   -0.000000
    16   -0.000000    0.000000   -0.000000
    17    0.000000    0.000000   -0.000000
    18    0.000000    0.000000   -0.000000
    19    0.000008    0.000129    0.000000
    20   -0.000008   -0.000129    0.000000
    21   -0.000116   -0.000057    0.000000
    22    0.000116    0.000058    0.000000
    23    0.000108   -0.000071    0.000000
    24   -0.000108    0.000071    0.000000
    25    0.000008    0.000114    0.000000
    26   -0.000008   -0.000115    0.000000
    27   -0.000103   -0.000051    0.000000
    28    0.000103    0.000050    0.000000
    29    0.000095   -0.000064    0.000000
    30   -0.000095    0.000064    0.000000
    31    0.000009    0.000115    0.000000
    32   -0.000009   -0.000115    0.000000
    33   -0.000104   -0.000050    0.000000
    34    0.000104    0.000050    0.000000
    35    0.000095   -0.000065    0.000000
    36   -0.000095    0.000064    0.000000
----------------------------------------
   Tot   -0.000000   -0.000000   -0.000000
----------------------------------------
   Max    0.000129
   Res    0.000054    sqrt( Sum f_i^2 / 3N )
----------------------------------------
   Max    0.000129    constrained

Stress tensor Voigt[x,y,z,yz,xz,xy] (kbar):     -384.43     -384.43      266.01        0.00       -0.00        0.00
(Free)E + p*V (eV/cell)    -5485.3776
Target enthalpy (eV/cell)    -5517.9371

siesta: Eigenvalues (eV):
  ik is       eps
   1  1  -27.5039  -27.4546  -26.7814  -26.7814  -26.7669  -26.7669  -24.9062  -24.9062  -24.7559  -24.7559
         -23.7788  -23.5982  -23.3340  -23.3340  -23.2002  -23.2002  -22.6633  -22.6183  -21.2855  -21.1360
  -21.0892  -21.0892  -20.9339  -20.9339  -19.5683  -19.5641  -18.5757  -18.5757  -18.5491  -18.5491
  -17.7945  -17.7477  -17.2972  -17.2575  -16.6032  -16.6032  -16.5269  -16.5269  -16.1854  -16.1854
  -16.1185  -16.1185  -15.7957  -15.7957  -15.7365  -15.7365  -14.9264  -14.4750  -14.4750  -14.4020
  -14.4020  -14.3601  -14.3601  -14.1984  -14.1663  -13.8883  -13.5422  -13.4990  -13.2590  -13.2590
  -12.6186  -12.6186  -11.4241  -11.3921  -11.3921  -11.0818  -11.0818  -10.3506  -10.2515  -10.2515
  -10.2304   -9.7519   -6.5238   -6.3629   -6.0743   -6.0743   -5.6127   -5.5111   -5.5111   -5.0828
   -3.8973   -3.8973   -3.4234   -3.4234   -0.3223   -0.3223   -0.0407   -0.0407    1.1916    1.3578
    1.3578    1.4127    1.4666    1.4996    1.6262    1.6262    1.8635    1.8635    1.9644    1.9644
    2.2376    2.2794    3.2340    3.4441    3.4904    3.4904    3.6645    3.6645    3.9133    3.9133
    3.9718    3.9718    5.1637    5.2130    5.4084    5.4762    6.3616    6.3616    6.4540    6.4540
    6.8784    7.0714    7.4150    7.4150    7.4696    7.4696    9.5067    9.6199   10.3450   10.3450
   10.3944   10.3945   12.1018   12.1018   12.1162   12.1162   13.2763   13.2763   13.3758   13.3758
   13.8042   13.8072   14.2146   14.2605
   2  1  -27.8829  -27.7999  -26.4536  -26.4105  -25.8163  -25.8163  -25.7223  -25.7223  -24.6180  -24.6180
         -24.4614  -24.4614  -24.0691  -23.9092  -22.5512  -22.5512  -22.4141  -22.4141  -20.7842  -20.7842
  -20.7028  -20.7028  -20.3993  -20.2818  -19.4824  -19.4824  -19.4138  -19.4138  -18.3785  -18.3785
  -18.3680  -18.3680  -17.6469  -17.6469  -17.5894  -17.5894  -16.6694  -16.5877  -15.8874  -15.8874
  -15.8154  -15.8154  -15.6281  -15.5545  -15.3033  -15.3033  -15.2254  -15.2254  -15.2082  -14.5205
  -14.4473  -14.2002  -14.0758  -13.5003  -13.5003  -13.2164  -13.1727  -12.9455  -12.9230  -12.8813
  -12.3476  -12.3476  -12.3186  -12.3186  -11.8179  -11.1574  -11.1574  -10.7406  -10.0443  -10.0443
   -9.1575   -9.1575   -7.0921   -7.0921   -6.6015   -6.6015   -5.3283   -4.6060   -4.4849   -4.4849
   -3.8447   -3.8447   -2.3188   -2.3188   -1.8865   -1.8865   -1.0503   -0.6944    0.6669    0.8342
    0.8508    0.9512    1.0612    1.2221    1.3518    1.3827    1.4952    1.4952    1.7172    1.7172
    1.7524    1.7524    1.9125    1.9125    2.0172    2.2184    4.4934    4.5622    5.4980    5.4980
    5.5818    5.5818    5.9805    6.0034    6.3990    6.3990    6.4513    6.4513    7.7685    7.8549
    8.1328    8.1328    8.2742    8.2742    8.8359    8.8359    8.8639    8.8639    9.8304    9.8304
    9.8613    9.8613   10.3984   10.4182   11.9842   11.9842   12.0080   12.0080   12.1962   12.3037
   14.7066   14.7066   14.7158   14.7158
   3  1  -27.8829  -27.7999  -26.4536  -26.4105  -25.8163  -25.8163  -25.7223  -25.7223  -24.6180  -24.6180
         -24.4614  -24.4614  -24.0691  -23.9092  -22.5512  -22.5512  -22.4141  -22.4141  -20.7842  -20.7842
  -20.7028  -20.7028  -20.3993  -20.2818  -19.4824  -19.4824  -19.4138  -19.4138  -18.3785  -18.3785
  -18.3680  -18.3680  -17.6469  -17.6469  -17.5894  -17.5894  -16.6694  -16.5877  -15.8874  -15.8874
  -15.8154  -15.8154  -15.6281  -15.5545  -15.3033  -15.3033  -15.2254  -15.2254  -15.2082  -14.5205
  -14.4473  -14.2002  -14.0758  -13.5003  -13.5003  -13.2164  -13.1727  -12.9455  -12.9230  -12.8813
  -12.3476  -12.3476  -12.3186  -12.3186  -11.8179  -11.1574  -11.1574  -10.7406  -10.0443  -10.0443
   -9.1575   -9.1575   -7.0921   -7.0921   -6.6015   -6.6015   -5.3283   -4.6060   -4.4849   -4.4849
   -3.8447   -3.8447   -2.3188   -2.3188   -1.8865   -1.8865   -1.0503   -0.6944    0.6669    0.8342
    0.8508    0.9512    1.0612    1.2221    1.3518    1.3827    1.4952    1.4952    1.7172    1.7172
    1.7524    1.7524    1.9125    1.9125    2.0172    2.2184    4.4934    4.5622    5.4980    5.4980
    5.5818    5.5818    5.9805    6.0034    6.3990    6.3990    6.4513    6.4513    7.7685    7.8549
    8.1328    8.1328    8.2742    8.2742    8.8359    8.8359    8.8639    8.8639    9.8304    9.8304
    9.8613    9.8613   10.3984   10.4182   11.9842   11.9842   12.0080   12.0080   12.1962   12.3037
   14.7066   14.7066   14.7158   14.7158
   4  1  -27.5039  -27.4546  -26.7814  -26.7814  -26.7669  -26.7669  -24.9062  -24.9062  -24.7559  -24.7559
         -23.7788  -23.5982  -23.3340  -23.3340  -23.2002  -23.2002  -22.6633  -22.6183  -21.2855  -21.1360
  -21.0892  -21.0892  -20.9339  -20.9339  -19.5683  -19.5641  -18.5757  -18.5757  -18.5491  -18.5491
  -17.7945  -17.7477  -17.2972  -17.2575  -16.6032  -16.6032  -16.5269  -16.5269  -16.1854  -16.1854
  -16.1185  -16.1185  -15.7957  -15.7957  -15.7365  -15.7365  -14.9264  -14.4750  -14.4750  -14.4020
  -14.4020  -14.3601  -14.3601  -14.1984  -14.1663  -13.8883  -13.5422  -13.4990  -13.2590  -13.2590
  -12.6186  -12.6186  -11.4241  -11.3921  -11.3921  -11.0818  -11.0818  -10.3506  -10.2515  -10.2515
  -10.2304   -9.7519   -6.5238   -6.3629   -6.0743   -6.0743   -5.6127   -5.5111   -5.5111   -5.0828
   -3.8973   -3.8973   -3.4234   -3.4234   -0.3223   -0.3223   -0.0407   -0.0407    1.1916    1.3578
    1.3578    1.4127    1.4666    1.4996    1.6262    1.6262    1.8635    1.8635    1.9644    1.9644
    2.2376    2.2794    3.2340    3.4441    3.4904    3.4904    3.6645    3.6645    3.9133    3.9133
    3.9718    3.9718    5.1637    5.2130    5.4084    5.4762    6.3616    6.3616    6.4540    6.4540
    6.8784    7.0714    7.4150    7.4150    7.4696    7.4696    9.5067    9.6199   10.3450   10.3451
   10.3944   10.3945   12.1018   12.1018   12.1162   12.1162   13.2763   13.2763   13.3758   13.3758
   13.8042   13.8072   14.2146   14.2605
   5  1  -27.8829  -27.7999  -26.4536  -26.4105  -25.8163  -25.8163  -25.7223  -25.7223  -24.6180  -24.6180
         -24.4614  -24.4614  -24.0691  -23.9092  -22.5512  -22.5512  -22.4141  -22.4141  -20.7842  -20.7842
  -20.7028  -20.7028  -20.3993  -20.2818  -19.4824  -19.4824  -19.4138  -19.4138  -18.3785  -18.3785
  -18.3680  -18.3680  -17.6469  -17.6469  -17.5894  -17.5894  -16.6694  -16.5877  -15.8874  -15.8874
  -15.8154  -15.8154  -15.6281  -15.5545  -15.3033  -15.3033  -15.2254  -15.2254  -15.2082  -14.5205
  -14.4473  -14.2002  -14.0758  -13.5003  -13.5003  -13.2164  -13.1727  -12.9455  -12.9230  -12.8813
  -12.3476  -12.3476  -12.3186  -12.3186  -11.8179  -11.1574  -11.1574  -10.7406  -10.0443  -10.0443
   -9.1575   -9.1575   -7.0921   -7.0921   -6.6015   -6.6015   -5.3283   -4.6060   -4.4849   -4.4849
   -3.8447   -3.8447   -2.3188   -2.3188   -1.8865   -1.8865   -1.0503   -0.6944    0.6669    0.8342
    0.8508    0.9512    1.0612    1.2221    1.3518    1.3827    1.4952    1.4952    1.7172    1.7172
    1.7524    1.7524    1.9125    1.9125    2.0172    2.2184    4.4934    4.5622    5.4980    5.4980
    5.5818    5.5818    5.9805    6.0034    6.3990    6.3990    6.4513    6.4513    7.7685    7.8549
    8.1328    8.1328    8.2742    8.2742    8.8359    8.8359    8.8639    8.8639    9.8304    9.8304
    9.8613    9.8613   10.3984   10.4182   11.9842   11.9842   12.0080   12.0080   12.1962   12.3037
   14.7066   14.7066   14.7158   14.7158
   6  1  -28.0747  -27.9746  -25.3547  -25.3547  -25.3547  -25.3547  -25.3547  -25.3547  -25.2322  -25.2322
         -25.2322  -25.2322  -25.2322  -25.2322  -21.4989  -21.4989  -21.4558  -21.4558  -21.4558  -21.4558
  -21.4218  -21.4218  -18.9623  -18.9623  -18.9623  -18.9623  -18.5988  -18.5988  -18.5988  -18.5988
  -18.5988  -18.5988  -18.5409  -18.5409  -18.5409  -18.5409  -18.5409  -18.5409  -15.3489  -15.1990
  -15.1990  -15.1990  -15.1990  -15.1990  -15.1990  -15.1240  -15.1240  -15.1240  -15.1240  -15.1240
  -15.1240  -14.3551  -13.0712  -13.0712  -13.0712  -13.0712  -13.0712  -13.0712  -12.5889  -12.5889
  -12.5683  -12.5683  -11.8740  -11.8740  -11.8740  -11.8740  -11.8740  -11.8740   -8.8503   -8.8503
   -8.2672   -8.2672   -8.2672   -8.2672   -7.6038   -7.6038   -3.2547   -3.2547   -3.2547   -3.2547
   -3.2547   -3.2547   -2.6796   -2.6796   -2.6796   -2.6796   -2.6796   -2.6796    0.5806    0.5806
    0.6144    0.6144    0.8542    0.8542    0.8542    0.8542    0.8542    0.8542    1.1057    1.1057
    1.1057    1.1057    1.1057    1.1057    2.4500    2.6434    4.1505    4.2131    7.1714    7.1714
    7.2393    7.2393    7.2393    7.2393    7.3199    7.3199    8.5373    8.5373    8.5373    8.5374
    8.5374    8.5374    8.5603    8.5603    8.5603    8.5603    8.5603    8.5603   10.1894   10.1894
   10.1894   10.1894   10.1894   10.1894   10.2214   10.2214   10.2214   10.2214   10.2214   10.2214
   15.0661   15.0661   15.0661   15.0661
   7  1  -27.3169  -27.3169  -27.2841  -27.2841  -25.9734  -25.9734  -25.8900  -25.8900  -23.6566  -23.6566
         -23.6566  -23.6566  -23.4845  -23.4844  -23.4844  -23.4844  -23.0667  -23.0258  -21.5198  -21.3411
  -20.2072  -20.2072  -20.2072  -20.2072  -20.1145  -20.1145  -20.1145  -20.1145  -17.1291  -17.1291
  -17.1291  -17.1291  -17.0789  -17.0789  -17.0789  -17.0789  -17.0479  -17.0479  -17.0177  -17.0177
  -15.7738  -15.7010  -15.6598  -15.6598  -15.5675  -15.5675  -14.7854  -14.7854  -14.7564  -14.7564
  -14.6834  -14.6834  -13.7317  -13.7317  -13.6882  -13.6882  -13.6423  -13.6423  -13.6250  -13.6249
  -12.4687  -12.4687  -11.3266  -11.3266  -11.3266  -11.3266  -10.9067  -10.3190  -10.2220  -10.2220
  -10.2220  -10.2220   -6.1785   -5.7856   -5.7856   -5.7856   -5.7856   -5.7006   -5.2073   -5.2073
   -5.2073   -5.2073   -1.9566   -1.9566   -1.6100   -1.6100    0.5963    0.7918    0.7918    0.8793
    1.0309    1.0309    1.1025    1.1025    1.1747    1.1747    3.3007    3.3007    3.3007    3.3007
    3.3617    3.3617    3.3870    3.3871    3.5069    3.5069    3.5069    3.5069    3.6945    3.6945
    3.7704    3.7704    3.9410    3.9410    3.9559    3.9559    5.7173    5.7173    5.7974    5.7974
    8.5986    8.5986    8.5986    8.5986    8.6949    8.6949    8.6949    8.6949    9.8660    9.8660
    9.9016    9.9016   11.0809   11.0963   12.9906   13.1735   13.6530   13.6530   13.6530   13.6530
   13.6798   13.6798   13.6798   13.6798
   8  1  -27.5039  -27.4546  -26.7814  -26.7814  -26.7669  -26.7669  -24.9062  -24.9062  -24.7559  -24.7559
         -23.7788  -23.5982  -23.3340  -23.3340  -23.2002  -23.2002  -22.6633  -22.6183  -21.2855  -21.1360
  -21.0892  -21.0892  -20.9339  -20.9339  -19.5683  -19.5641  -18.5757  -18.5757  -18.5491  -18.5491
  -17.7945  -17.7477  -17.2972  -17.2575  -16.6032  -16.6032  -16.5269  -16.5269  -16.1854  -16.1854
  -16.1185  -16.1185  -15.7957  -15.7957  -15.7365  -15.7365  -14.9264  -14.4750  -14.4750  -14.4020
  -14.4020  -14.3601  -14.3601  -14.1984  -14.1663  -13.8883  -13.5422  -13.4990  -13.2590  -13.2590
  -12.6186  -12.6186  -11.4241  -11.3921  -11.3921  -11.0818  -11.0818  -10.3506  -10.2515  -10.2515
  -10.2304   -9.7519   -6.5238   -6.3629   -6.0743   -6.0743   -5.6127   -5.5111   -5.5111   -5.0828
   -3.8973   -3.8973   -3.4234   -3.4234   -0.3223   -0.3223   -0.0407   -0.0407    1.1916    1.3578
    1.3578    1.4127    1.4666    1.4996    1.6262    1.6262    1.8635    1.8635    1.9644    1.9644
    2.2376    2.2794    3.2340    3.4441    3.4904    3.4904    3.6645    3.6645    3.9133    3.9133
    3.9718    3.9718    5.1637    5.2130    5.4084    5.4762    6.3616    6.3616    6.4540    6.4540
    6.8784    7.0714    7.4150    7.4150    7.4696    7.4696    9.5067    9.6199   10.3450   10.3451
   10.3944   10.3945   12.1018   12.1018   12.1162   12.1162   13.2763   13.2763   13.3758   13.3758
   13.8042   13.8072   14.2146   14.2605
   9  1  -27.5039  -27.4546  -26.7814  -26.7814  -26.7669  -26.7669  -24.9062  -24.9062  -24.7559  -24.7559
         -23.7788  -23.5982  -23.3340  -23.3340  -23.2002  -23.2002  -22.6633  -22.6183  -21.2855  -21.1360
  -21.0892  -21.0892  -20.9339  -20.9339  -19.5683  -19.5641  -18.5757  -18.5757  -18.5491  -18.5491
  -17.7945  -17.7477  -17.2972  -17.2575  -16.6032  -16.6032  -16.5269  -16.5269  -16.1854  -16.1854
  -16.1185  -16.1185  -15.7957  -15.7957  -15.7365  -15.7365  -14.9264  -14.4750  -14.4750  -14.4020
  -14.4020  -14.3601  -14.3601  -14.1984  -14.1663  -13.8883  -13.5422  -13.4990  -13.2590  -13.2590
  -12.6186  -12.6186  -11.4241  -11.3921  -11.3921  -11.0818  -11.0818  -10.3506  -10.2515  -10.2515
  -10.2304   -9.7519   -6.5238   -6.3629   -6.0743   -6.0743   -5.6127   -5.5111   -5.5111   -5.0828
   -3.8973   -3.8973   -3.4234   -3.4234   -0.3223   -0.3223   -0.0407   -0.0407    1.1916    1.3578
    1.3578    1.4127    1.4666    1.4996    1.6262    1.6262    1.8635    1.8635    1.9644    1.9644
    2.2376    2.2794    3.2340    3.4441    3.4904    3.4904    3.6645    3.6645    3.9133    3.9133
    3.9718    3.9718    5.1637    5.2130    5.4084    5.4762    6.3616    6.3616    6.4540    6.4540
    6.8784    7.0714    7.4150    7.4150    7.4696    7.4696    9.5067    9.6199   10.3450   10.3450
   10.3944   10.3945   12.1018   12.1018   12.1162   12.1162   13.2763   13.2763   13.3758   13.3758
   13.8042   13.8072   14.2146   14.2605
  10  1  -27.3169  -27.3169  -27.2841  -27.2841  -25.9734  -25.9734  -25.8900  -25.8900  -23.6566  -23.6566
         -23.6566  -23.6566  -23.4845  -23.4844  -23.4844  -23.4844  -23.0667  -23.0258  -21.5198  -21.3411
  -20.2072  -20.2072  -20.2072  -20.2072  -20.1145  -20.1145  -20.1145  -20.1145  -17.1291  -17.1291
  -17.1291  -17.1291  -17.0789  -17.0789  -17.0789  -17.0789  -17.0479  -17.0479  -17.0177  -17.0177
  -15.7738  -15.7010  -15.6598  -15.6598  -15.5675  -15.5675  -14.7854  -14.7854  -14.7564  -14.7564
  -14.6834  -14.6834  -13.7317  -13.7317  -13.6882  -13.6882  -13.6423  -13.6423  -13.6250  -13.6249
  -12.4687  -12.4687  -11.3266  -11.3266  -11.3266  -11.3266  -10.9067  -10.3190  -10.2220  -10.2220
  -10.2220  -10.2220   -6.1785   -5.7856   -5.7856   -5.7856   -5.7856   -5.7006   -5.2073   -5.2073
   -5.2073   -5.2073   -1.9566   -1.9566   -1.6100   -1.6100    0.5963    0.7918    0.7918    0.8793
    1.0309    1.0309    1.1025    1.1025    1.1747    1.1747    3.3007    3.3007    3.3007    3.3007
    3.3617    3.3617    3.3870    3.3871    3.5069    3.5069    3.5069    3.5069    3.6945    3.6945
    3.7704    3.7704    3.9410    3.9410    3.9559    3.9559    5.7173    5.7173    5.7974    5.7974
    8.5986    8.5986    8.5986    8.5986    8.6949    8.6949    8.6949    8.6949    9.8660    9.8660
    9.9016    9.9016   11.0809   11.0963   12.9906   13.1735   13.6530   13.6530   13.6530   13.6530
   13.6798   13.6798   13.6798   13.6798
  11  1  -27.5039  -27.4546  -26.7814  -26.7814  -26.7669  -26.7669  -24.9062  -24.9062  -24.7559  -24.7559
         -23.7788  -23.5982  -23.3340  -23.3340  -23.2002  -23.2002  -22.6633  -22.6183  -21.2855  -21.1360
  -21.0892  -21.0892  -20.9339  -20.9339  -19.5683  -19.5641  -18.5757  -18.5757  -18.5491  -18.5491
  -17.7945  -17.7477  -17.2972  -17.2575  -16.6032  -16.6032  -16.5269  -16.5269  -16.1854  -16.1854
  -16.1185  -16.1185  -15.7957  -15.7957  -15.7365  -15.7365  -14.9264  -14.4750  -14.4750  -14.4020
  -14.4020  -14.3601  -14.3601  -14.1984  -14.1663  -13.8883  -13.5422  -13.4990  -13.2590  -13.2590
  -12.6186  -12.6186  -11.4241  -11.3921  -11.3921  -11.0818  -11.0818  -10.3506  -10.2515  -10.2515
  -10.2304   -9.7519   -6.5238   -6.3629   -6.0743   -6.0743   -5.6127   -5.5111   -5.5111   -5.0828
   -3.8973   -3.8973   -3.4234   -3.4234   -0.3223   -0.3223   -0.0407   -0.0407    1.1916    1.3578
    1.3578    1.4127    1.4666    1.4996    1.6262    1.6262    1.8635    1.8635    1.9644    1.9644
    2.2376    2.2794    3.2340    3.4441    3.4904    3.4904    3.6645    3.6645    3.9133    3.9133
    3.9718    3.9718    5.1637    5.2130    5.4084    5.4762    6.3616    6.3616    6.4540    6.4540
    6.8784    7.0714    7.4150    7.4150    7.4696    7.4696    9.5067    9.6199   10.3450   10.3450
   10.3944   10.3945   12.1018   12.1018   12.1162   12.1162   13.2763   13.2763   13.3758   13.3758
   13.8042   13.8072   14.2146   14.2605
  12  1  -27.3169  -27.3169  -27.2841  -27.2841  -25.9734  -25.9734  -25.8900  -25.8900  -23.6566  -23.6566
         -23.6566  -23.6566  -23.4845  -23.4844  -23.4844  -23.4844  -23.0667  -23.0258  -21.5198  -21.3411
  -20.2072  -20.2072  -20.2072  -20.2072  -20.1145  -20.1145  -20.1145  -20.1145  -17.1291  -17.1291
  -17.1291  -17.1291  -17.0789  -17.0789  -17.0789  -17.0789  -17.0479  -17.0479  -17.0177  -17.0177
  -15.7738  -15.7010  -15.6598  -15.6598  -15.5675  -15.5675  -14.7854  -14.7854  -14.7564  -14.7564
  -14.6834  -14.6834  -13.7317  -13.7317  -13.6882  -13.6882  -13.6423  -13.6423  -13.6250  -13.6249
  -12.4687  -12.4687  -11.3266  -11.3266  -11.3266  -11.3266  -10.9067  -10.3190  -10.2220  -10.2220
  -10.2220  -10.2220   -6.1785   -5.7856   -5.7856   -5.7856   -5.7856   -5.7006   -5.2073   -5.2073
   -5.2073   -5.2073   -1.9566   -1.9566   -1.6100   -1.6100    0.5963    0.7918    0.7918    0.8793
    1.0309    1.0309    1.1025    1.1025    1.1747    1.1747    3.3007    3.3007    3.3007    3.3007
    3.3617    3.3617    3.3870    3.3871    3.5069    3.5069    3.5069    3.5069    3.6945    3.6945
    3.7704    3.7704    3.9410    3.9410    3.9559    3.9559    5.7173    5.7173    5.7974    5.7974
    8.5986    8.5986    8.5986    8.5986    8.6949    8.6949    8.6949    8.6949    9.8660    9.8660
    9.9016    9.9016   11.0809   11.0963   12.9906   13.1735   13.6530   13.6530   13.6530   13.6530
   13.6798   13.6798   13.6798   13.6798
  13  1  -27.5140  -27.4732  -26.7901  -26.7901  -26.7843  -26.7843  -24.8912  -24.8912  -24.7860  -24.7860
         -23.7559  -23.6282  -23.3150  -23.3150  -23.2199  -23.2199  -22.6544  -22.6219  -21.2684  -21.1617
  -21.0707  -21.0707  -20.9600  -20.9600  -19.5669  -19.5640  -18.5721  -18.5721  -18.5534  -18.5534
  -17.7899  -17.7570  -17.2921  -17.2640  -16.5944  -16.5944  -16.5408  -16.5408  -16.1760  -16.1760
  -16.1287  -16.1287  -15.7883  -15.7883  -15.7466  -15.7466  -14.7826  -14.4711  -14.4711  -14.4174
  -14.4174  -14.2109  -14.2109  -14.1940  -14.1705  -14.0513  -13.5363  -13.5038  -13.4425  -13.4425
  -12.4670  -12.4670  -11.6063  -11.6063  -11.2705  -10.9563  -10.9563  -10.4286  -10.3623  -10.3623
  -10.2421   -9.8094   -6.5541   -6.4279   -6.0398   -6.0398   -5.6308   -5.6308   -5.5340   -5.1605
   -3.8287   -3.8287   -3.4935   -3.4935   -0.2844   -0.2844   -0.0852   -0.0852    1.2147    1.3634
    1.4028    1.4028    1.5135    1.5196    1.5937    1.5937    1.8996    1.8996    1.9749    1.9749
    2.2441    2.2735    3.2690    3.4180    3.5222    3.5222    3.6466    3.6466    3.9286    3.9286
    3.9712    3.9713    5.1720    5.2069    5.4188    5.4668    6.3867    6.3867    6.4546    6.4546
    6.9147    7.0523    7.4246    7.4246    7.4640    7.4640    9.5221    9.6021   10.3525   10.3525
   10.3875   10.3875   12.1046   12.1046   12.1149   12.1149   13.2906   13.2906   13.3611   13.3611
   13.8049   13.8070   14.2208   14.2532
  14  1  -27.8893  -27.8236  -26.4577  -26.4310  -25.8119  -25.8119  -25.7479  -25.7479  -24.6011  -24.6011
         -24.4910  -24.4910  -24.0496  -23.9365  -22.5308  -22.5308  -22.4336  -22.4336  -20.7722  -20.7722
  -20.7143  -20.7143  -20.3852  -20.3015  -19.4745  -19.4745  -19.4258  -19.4258  -18.3788  -18.3788
  -18.3714  -18.3714  -17.6403  -17.6403  -17.6003  -17.6003  -16.6604  -16.6035  -15.8775  -15.8775
  -15.8267  -15.8267  -15.6176  -15.5655  -15.2933  -15.2933  -15.2384  -15.2384  -15.0607  -14.5099
  -14.4581  -14.3442  -13.9316  -13.3535  -13.3535  -13.2099  -13.1790  -13.1402  -12.9167  -12.8873
  -12.5265  -12.5265  -12.1980  -12.1980  -11.6750  -11.3606  -11.3606  -10.9125   -9.9097   -9.9097
   -9.2749   -9.2749   -7.0391   -7.0391   -6.6924   -6.6924   -5.2517   -4.7341   -4.4028   -4.4028
   -3.9470   -3.9470   -2.2590   -2.2590   -1.9527   -1.9527   -1.0031   -0.7511    0.7156    0.8445
    0.8581    0.9184    1.1032    1.2226    1.3564    1.3781    1.5408    1.5408    1.7246    1.7246
    1.7589    1.7589    1.9011    1.9011    2.0462    2.1883    4.5049    4.5537    5.5127    5.5127
    5.5720    5.5720    5.9839    6.0001    6.4157    6.4157    6.4535    6.4535    7.7933    7.8552
    8.1534    8.1534    8.2532    8.2532    8.8443    8.8443    8.8651    8.8651    9.8393    9.8393
    9.8621    9.8621   10.4011   10.4151   11.9919   11.9919   12.0087   12.0087   12.2166   12.2928
   14.7081   14.7081   14.7146   14.7146
  15  1  -27.8893  -27.8236  -26.4577  -26.4310  -25.8119  -25.8119  -25.7479  -25.7479  -24.6011  -24.6011
         -24.4910  -24.4910  -24.0496  -23.9365  -22.5308  -22.5308  -22.4336  -22.4336  -20.7722  -20.7722
  -20.7143  -20.7143  -20.3852  -20.3015  -19.4745  -19.4745  -19.4258  -19.4258  -18.3788  -18.3788
  -18.3714  -18.3714  -17.6403  -17.6403  -17.6003  -17.6003  -16.6604  -16.6035  -15.8775  -15.8775
  -15.8267  -15.8267  -15.6176  -15.5655  -15.2933  -15.2933  -15.2384  -15.2384  -15.0607  -14.5099
  -14.4581  -14.3442  -13.9316  -13.3535  -13.3535  -13.2099  -13.1790  -13.1402  -12.9167  -12.8873
  -12.5265  -12.5265  -12.1980  -12.1980  -11.6750  -11.3606  -11.3606  -10.9125   -9.9097   -9.9097
   -9.2749   -9.2749   -7.0391   -7.0391   -6.6924   -6.6924   -5.2517   -4.7341   -4.4028   -4.4028
   -3.9470   -3.9470   -2.2590   -2.2590   -1.9527   -1.9527   -1.0031   -0.7511    0.7156    0.8445
    0.8581    0.9184    1.1032    1.2226    1.3564    1.3781    1.5408    1.5408    1.7246    1.7246
    1.7589    1.7589    1.9011    1.9011    2.0462    2.1883    4.5049    4.5537    5.5127    5.5127
    5.5720    5.5720    5.9839    6.0001    6.4157    6.4157    6.4535    6.4535    7.7933    7.8552
    8.1534    8.1534    8.2532    8.2532    8.8443    8.8443    8.8651    8.8651    9.8393    9.8393
    9.8621    9.8621   10.4011   10.4151   11.9919   11.9919   12.0087   12.0087   12.2166   12.2928
   14.7081   14.7081   14.7146   14.7146
  16  1  -27.5140  -27.4732  -26.7901  -26.7901  -26.7843  -26.7843  -24.8912  -24.8912  -24.7860  -24.7860
         -23.7559  -23.6282  -23.3150  -23.3150  -23.2199  -23.2199  -22.6544  -22.6219  -21.2684  -21.1617
  -21.0707  -21.0707  -20.9600  -20.9600  -19.5669  -19.5640  -18.5721  -18.5721  -18.5534  -18.5534
  -17.7899  -17.7570  -17.2921  -17.2640  -16.5944  -16.5944  -16.5408  -16.5408  -16.1760  -16.1760
  -16.1287  -16.1287  -15.7883  -15.7883  -15.7466  -15.7466  -14.7826  -14.4711  -14.4711  -14.4174
  -14.4174  -14.2109  -14.2109  -14.1940  -14.1705  -14.0513  -13.5363  -13.5038  -13.4425  -13.4425
  -12.4670  -12.4670  -11.6063  -11.6063  -11.2705  -10.9563  -10.9563  -10.4286  -10.3623  -10.3623
  -10.2421   -9.8094   -6.5541   -6.4279   -6.0398   -6.0398   -5.6308   -5.6308   -5.5340   -5.1605
   -3.8287   -3.8287   -3.4935   -3.4935   -0.2844   -0.2844   -0.0852   -0.0852    1.2147    1.3634
    1.4028    1.4028    1.5135    1.5196    1.5937    1.5937    1.8996    1.8996    1.9749    1.9749
    2.2441    2.2735    3.2690    3.4180    3.5222    3.5222    3.6466    3.6466    3.9286    3.9286
    3.9712    3.9713    5.1720    5.2069    5.4188    5.4668    6.3867    6.3867    6.4546    6.4546
    6.9147    7.0523    7.4246    7.4246    7.4640    7.4640    9.5221    9.6021   10.3525   10.3525
   10.3875   10.3875   12.1046   12.1046   12.1149   12.1149   13.2906   13.2906   13.3611   13.3611
   13.8049   13.8070   14.2208   14.2532
  17  1  -27.8893  -27.8236  -26.4577  -26.4310  -25.8119  -25.8119  -25.7479  -25.7479  -24.6011  -24.6011
         -24.4910  -24.4910  -24.0496  -23.9365  -22.5308  -22.5308  -22.4336  -22.4336  -20.7722  -20.7722
  -20.7143  -20.7143  -20.3852  -20.3015  -19.4745  -19.4745  -19.4258  -19.4258  -18.3788  -18.3788
  -18.3714  -18.3714  -17.6403  -17.6403  -17.6003  -17.6003  -16.6604  -16.6035  -15.8775  -15.8775
  -15.8267  -15.8267  -15.6176  -15.5655  -15.2933  -15.2933  -15.2384  -15.2384  -15.0607  -14.5099
  -14.4581  -14.3442  -13.9316  -13.3535  -13.3535  -13.2099  -13.1790  -13.1402  -12.9167  -12.8873
  -12.5265  -12.5265  -12.1980  -12.1980  -11.6750  -11.3606  -11.3606  -10.9125   -9.9097   -9.9097
   -9.2749   -9.2749   -7.0391   -7.0391   -6.6924   -6.6924   -5.2517   -4.7341   -4.4028   -4.4028
   -3.9470   -3.9470   -2.2590   -2.2590   -1.9527   -1.9527   -1.0031   -0.7511    0.7156    0.8445
    0.8581    0.9184    1.1032    1.2226    1.3564    1.3781    1.5408    1.5408    1.7246    1.7246
    1.7589    1.7589    1.9011    1.9011    2.0462    2.1883    4.5049    4.5537    5.5127    5.5127
    5.5720    5.5720    5.9839    6.0001    6.4157    6.4157    6.4535    6.4535    7.7933    7.8552
    8.1534    8.1534    8.2532    8.2532    8.8443    8.8443    8.8651    8.8651    9.8393    9.8393
    9.8621    9.8621   10.4011   10.4151   11.9919   11.9919   12.0087   12.0087   12.2166   12.2928
   14.7081   14.7081   14.7146   14.7146
  18  1  -28.0793  -28.0010  -25.3450  -25.3449  -25.3449  -25.3449  -25.3449  -25.3449  -25.2600  -25.2600
         -25.2600  -25.2600  -25.2600  -25.2600  -21.4887  -21.4887  -21.4512  -21.4512  -21.4512  -21.4512
  -21.4341  -21.4341  -18.9653  -18.9653  -18.9653  -18.9653  -18.5929  -18.5929  -18.5929  -18.5929
  -18.5929  -18.5929  -18.5525  -18.5525  -18.5525  -18.5525  -18.5525  -18.5525  -15.1992  -15.1882
  -15.1882  -15.1882  -15.1882  -15.1882  -15.1882  -15.1352  -15.1352  -15.1351  -15.1351  -15.1351
  -15.1351  -14.4891  -12.9233  -12.9233  -12.9233  -12.9233  -12.9233  -12.9233  -12.5857  -12.5857
  -12.5711  -12.5711  -12.0841  -12.0841  -12.0841  -12.0841  -12.0841  -12.0841   -8.6832   -8.6832
   -8.2537   -8.2537   -8.2537   -8.2537   -7.8027   -7.8027   -3.1787   -3.1787   -3.1787   -3.1786
   -3.1786   -3.1786   -2.7701   -2.7701   -2.7701   -2.7701   -2.7701   -2.7701    0.5855    0.5855
    0.6095    0.6095    0.9022    0.9022    0.9022    0.9022    0.9022    0.9022    1.0835    1.0835
    1.0835    1.0836    1.0836    1.0836    2.4769    2.6136    4.1617    4.2059    7.1925    7.1925
    7.2402    7.2402    7.2402    7.2402    7.2975    7.2975    8.5406    8.5406    8.5406    8.5406
    8.5406    8.5407    8.5568    8.5569    8.5569    8.5569    8.5569    8.5569   10.2083   10.2083
   10.2083   10.2083   10.2083   10.2083   10.2289   10.2289   10.2289   10.2289   10.2289   10.2289
   15.0663   15.0663   15.0663   15.0663
  19  1  -27.8893  -27.8236  -26.4577  -26.4310  -25.8119  -25.8119  -25.7479  -25.7479  -24.6011  -24.6011
         -24.4910  -24.4910  -24.0496  -23.9365  -22.5308  -22.5308  -22.4336  -22.4336  -20.7722  -20.7722
  -20.7143  -20.7143  -20.3852  -20.3015  -19.4745  -19.4745  -19.4258  -19.4258  -18.3788  -18.3788
  -18.3714  -18.3714  -17.6403  -17.6403  -17.6003  -17.6003  -16.6604  -16.6035  -15.8775  -15.8775
  -15.8267  -15.8267  -15.6176  -15.5655  -15.2933  -15.2933  -15.2384  -15.2384  -15.0607  -14.5099
  -14.4581  -14.3442  -13.9316  -13.3535  -13.3535  -13.2099  -13.1790  -13.1402  -12.9167  -12.8873
  -12.5265  -12.5265  -12.1980  -12.1980  -11.6750  -11.3606  -11.3606  -10.9125   -9.9097   -9.9097
   -9.2749   -9.2749   -7.0391   -7.0391   -6.6924   -6.6924   -5.2517   -4.7341   -4.4028   -4.4028
   -3.9470   -3.9470   -2.2590   -2.2590   -1.9527   -1.9527   -1.0031   -0.7511    0.7156    0.8445
    0.8581    0.9184    1.1032    1.2226    1.3564    1.3781    1.5408    1.5408    1.7246    1.7246
    1.7589    1.7589    1.9011    1.9011    2.0462    2.1883    4.5049    4.5537    5.5127    5.5127
    5.5720    5.5720    5.9839    6.0001    6.4157    6.4157    6.4535    6.4535    7.7933    7.8552
    8.1534    8.1534    8.2532    8.2532    8.8443    8.8443    8.8651    8.8651    9.8393    9.8393
    9.8621    9.8621   10.4011   10.4151   11.9919   11.9919   12.0087   12.0087   12.2166   12.2928
   14.7081   14.7081   14.7146   14.7146
  20  1  -27.3290  -27.3289  -27.3001  -27.3001  -25.9709  -25.9709  -25.9147  -25.9147  -23.6343  -23.6343
         -23.6343  -23.6343  -23.5124  -23.5124  -23.5124  -23.5124  -23.0586  -23.0288  -21.5010  -21.3733
  -20.1948  -20.1948  -20.1948  -20.1948  -20.1289  -20.1289  -20.1289  -20.1289  -17.1228  -17.1228
  -17.1228  -17.1228  -17.0874  -17.0874  -17.0874  -17.0874  -17.0433  -17.0433  -17.0220  -17.0220
  -15.7634  -15.7119  -15.6504  -15.6504  -15.5859  -15.5859  -14.7555  -14.7555  -14.7028  -14.7028
  -14.6285  -14.6285  -13.8969  -13.8969  -13.6790  -13.6790  -13.6342  -13.6342  -13.4956  -13.4956
  -12.6745  -12.6745  -11.1795  -11.1795  -11.1794  -11.1794  -10.8032  -10.3976  -10.3976  -10.3976
  -10.3976  -10.3793   -6.1757   -5.8265   -5.7147   -5.7147   -5.7147   -5.7147   -5.3020   -5.3020
   -5.3020   -5.3020   -1.9070   -1.9070   -1.6620   -1.6620    0.6437    0.8159    0.8159    0.8451
    0.9768    0.9768    1.1492    1.1493    1.1971    1.1971    3.3357    3.3357    3.3357    3.3357
    3.3654    3.3654    3.3834    3.3834    3.4821    3.4821    3.4821    3.4822    3.7123    3.7123
    3.7694    3.7694    3.9582    3.9582    3.9815    3.9815    5.7331    5.7332    5.7914    5.7914
    8.6156    8.6156    8.6156    8.6156    8.6841    8.6841    8.6841    8.6841    9.8713    9.8713
    9.8964    9.8964   11.0829   11.0938   13.0163   13.1457   13.6573   13.6574   13.6574   13.6574
   13.6763   13.6763   13.6763   13.6763
  21  1  -27.8893  -27.8236  -26.4577  -26.4310  -25.8119  -25.8119  -25.7479  -25.7479  -24.6011  -24.6011
         -24.4910  -24.4910  -24.0496  -23.9365  -22.5308  -22.5308  -22.4336  -22.4336  -20.7722  -20.7722
  -20.7143  -20.7143  -20.3852  -20.3015  -19.4745  -19.4745  -19.4258  -19.4258  -18.3788  -18.3788
  -18.3714  -18.3714  -17.6403  -17.6403  -17.6003  -17.6003  -16.6604  -16.6035  -15.8775  -15.8775
  -15.8267  -15.8267  -15.6176  -15.5655  -15.2933  -15.2933  -15.2384  -15.2384  -15.0607  -14.5099
  -14.4581  -14.3442  -13.9316  -13.3535  -13.3535  -13.2099  -13.1790  -13.1402  -12.9167  -12.8873
  -12.5265  -12.5265  -12.1980  -12.1980  -11.6750  -11.3606  -11.3606  -10.9125   -9.9097   -9.9097
   -9.2749   -9.2749   -7.0391   -7.0391   -6.6924   -6.6924   -5.2517   -4.7341   -4.4028   -4.4028
   -3.9470   -3.9470   -2.2590   -2.2590   -1.9527   -1.9527   -1.0031   -0.7511    0.7156    0.8445
    0.8581    0.9184    1.1032    1.2226    1.3564    1.3781    1.5408    1.5408    1.7246    1.7246
    1.7589    1.7589    1.9011    1.9011    2.0462    2.1883    4.5049    4.5537    5.5127    5.5127
    5.5720    5.5720    5.9839    6.0001    6.4157    6.4157    6.4535    6.4535    7.7933    7.8552
    8.1534    8.1534    8.2532    8.2532    8.8443    8.8443    8.8651    8.8651    9.8393    9.8393
    9.8621    9.8621   10.4011   10.4151   11.9919   11.9919   12.0087   12.0087   12.2166   12.2928
   14.7081   14.7081   14.7146   14.7146
  22  1  -27.8893  -27.8236  -26.4577  -26.4310  -25.8119  -25.8119  -25.7479  -25.7479  -24.6011  -24.6011
         -24.4910  -24.4910  -24.0496  -23.9365  -22.5308  -22.5308  -22.4336  -22.4336  -20.7722  -20.7722
  -20.7143  -20.7143  -20.3852  -20.3015  -19.4745  -19.4745  -19.4258  -19.4258  -18.3788  -18.3788
  -18.3714  -18.3714  -17.6403  -17.6403  -17.6003  -17.6003  -16.6604  -16.6035  -15.8775  -15.8775
  -15.8267  -15.8267  -15.6176  -15.5655  -15.2933  -15.2933  -15.2384  -15.2384  -15.0607  -14.5099
  -14.4581  -14.3442  -13.9316  -13.3535  -13.3535  -13.2099  -13.1790  -13.1402  -12.9167  -12.8873
  -12.5265  -12.5265  -12.1980  -12.1980  -11.6750  -11.3606  -11.3606  -10.9125   -9.9097   -9.9097
   -9.2749   -9.2749   -7.0391   -7.0391   -6.6924   -6.6924   -5.2517   -4.7341   -4.4028   -4.4028
   -3.9470   -3.9470   -2.2590   -2.2590   -1.9527   -1.9527   -1.0031   -0.7511    0.7156    0.8445
    0.8581    0.9184    1.1032    1.2226    1.3564    1.3781    1.5408    1.5408    1.7246    1.7246
    1.7589    1.7589    1.9011    1.9011    2.0462    2.1883    4.5049    4.5537    5.5127    5.5127
    5.5720    5.5720    5.9839    6.0001    6.4157    6.4157    6.4535    6.4535    7.7933    7.8552
    8.1534    8.1534    8.2532    8.2532    8.8443    8.8443    8.8651    8.8651    9.8393    9.8393
    9.8621    9.8621   10.4011   10.4151   11.9919   11.9919   12.0087   12.0087   12.2166   12.2928
   14.7081   14.7081   14.7146   14.7146
  23  1  -27.5140  -27.4732  -26.7901  -26.7901  -26.7843  -26.7843  -24.8912  -24.8912  -24.7860  -24.7860
         -23.7559  -23.6282  -23.3150  -23.3150  -23.2199  -23.2199  -22.6544  -22.6219  -21.2684  -21.1617
  -21.0707  -21.0707  -20.9600  -20.9600  -19.5669  -19.5640  -18.5721  -18.5721  -18.5534  -18.5534
  -17.7899  -17.7570  -17.2921  -17.2640  -16.5944  -16.5944  -16.5408  -16.5408  -16.1760  -16.1760
  -16.1287  -16.1287  -15.7883  -15.7883  -15.7466  -15.7466  -14.7826  -14.4711  -14.4711  -14.4174
  -14.4174  -14.2109  -14.2109  -14.1940  -14.1705  -14.0513  -13.5363  -13.5038  -13.4425  -13.4425
  -12.4670  -12.4670  -11.6063  -11.6063  -11.2705  -10.9563  -10.9563  -10.4286  -10.3623  -10.3623
  -10.2421   -9.8094   -6.5541   -6.4279   -6.0398   -6.0398   -5.6308   -5.6308   -5.5340   -5.1605
   -3.8287   -3.8287   -3.4935   -3.4935   -0.2844   -0.2844   -0.0852   -0.0852    1.2147    1.3634
    1.4028    1.4028    1.5135    1.5196    1.5937    1.5937    1.8996    1.8996    1.9749    1.9749
    2.2441    2.2735    3.2690    3.4180    3.5222    3.5222    3.6466    3.6466    3.9286    3.9286
    3.9712    3.9713    5.1720    5.2069    5.4188    5.4668    6.3867    6.3867    6.4546    6.4546
    6.9147    7.0523    7.4246    7.4246    7.4640    7.4640    9.5221    9.6021   10.3525   10.3525
   10.3875   10.3875   12.1046   12.1046   12.1149   12.1149   13.2906   13.2906   13.3611   13.3611
   13.8049   13.8070   14.2208   14.2532
  24  1  -27.5140  -27.4732  -26.7901  -26.7901  -26.7843  -26.7843  -24.8912  -24.8912  -24.7860  -24.7860
         -23.7559  -23.6282  -23.3150  -23.3150  -23.2199  -23.2199  -22.6544  -22.6219  -21.2684  -21.1617
  -21.0707  -21.0707  -20.9600  -20.9600  -19.5669  -19.5640  -18.5721  -18.5721  -18.5534  -18.5534
  -17.7899  -17.7570  -17.2921  -17.2640  -16.5944  -16.5944  -16.5408  -16.5408  -16.1760  -16.1760
  -16.1287  -16.1287  -15.7883  -15.7883  -15.7466  -15.7466  -14.7826  -14.4711  -14.4711  -14.4174
  -14.4174  -14.2109  -14.2109  -14.1940  -14.1705  -14.0513  -13.5363  -13.5038  -13.4425  -13.4425
  -12.4670  -12.4670  -11.6063  -11.6063  -11.2705  -10.9563  -10.9563  -10.4286  -10.3623  -10.3623
  -10.2421   -9.8094   -6.5541   -6.4279   -6.0398   -6.0398   -5.6308   -5.6308   -5.5340   -5.1605
   -3.8287   -3.8287   -3.4935   -3.4935   -0.2844   -0.2844   -0.0852   -0.0852    1.2147    1.3634
    1.4028    1.4028    1.5135    1.5196    1.5937    1.5937    1.8996    1.8996    1.9749    1.9749
    2.2441    2.2735    3.2690    3.4180    3.5222    3.5222    3.6466    3.6466    3.9286    3.9286
    3.9712    3.9713    5.1720    5.2069    5.4188    5.4668    6.3867    6.3867    6.4546    6.4546
    6.9147    7.0523    7.4246    7.4246    7.4640    7.4640    9.5221    9.6021   10.3525   10.3525
   10.3875   10.3875   12.1046   12.1046   12.1149   12.1149   13.2906   13.2906   13.3611   13.3611
   13.8049   13.8070   14.2208   14.2532
  25  1  -27.5140  -27.4732  -26.7901  -26.7901  -26.7843  -26.7843  -24.8912  -24.8912  -24.7860  -24.7860
         -23.7559  -23.6282  -23.3150  -23.3150  -23.2199  -23.2199  -22.6544  -22.6219  -21.2684  -21.1617
  -21.0707  -21.0707  -20.9600  -20.9600  -19.5669  -19.5640  -18.5721  -18.5721  -18.5534  -18.5534
  -17.7899  -17.7570  -17.2921  -17.2640  -16.5944  -16.5944  -16.5408  -16.5408  -16.1760  -16.1760
  -16.1287  -16.1287  -15.7883  -15.7883  -15.7466  -15.7466  -14.7826  -14.4711  -14.4711  -14.4174
  -14.4174  -14.2109  -14.2109  -14.1940  -14.1705  -14.0513  -13.5363  -13.5038  -13.4425  -13.4425
  -12.4670  -12.4670  -11.6063  -11.6063  -11.2705  -10.9563  -10.9563  -10.4286  -10.3623  -10.3623
  -10.2421   -9.8094   -6.5541   -6.4279   -6.0398   -6.0398   -5.6308   -5.6308   -5.5340   -5.1605
   -3.8287   -3.8287   -3.4935   -3.4935   -0.2844   -0.2844   -0.0852   -0.0852    1.2147    1.3634
    1.4028    1.4028    1.5135    1.5196    1.5937    1.5937    1.8996    1.8996    1.9749    1.9749
    2.2441    2.2735    3.2690    3.4180    3.5222    3.5222    3.6466    3.6466    3.9286    3.9286
    3.9712    3.9713    5.1720    5.2069    5.4188    5.4668    6.3867    6.3867    6.4546    6.4546
    6.9147    7.0523    7.4246    7.4246    7.4640    7.4640    9.5221    9.6021   10.3525   10.3525
   10.3875   10.3875   12.1046   12.1046   12.1149   12.1149   13.2906   13.2906   13.3611   13.3611
   13.8049   13.8070   14.2208   14.2532
  26  1  -27.3290  -27.3289  -27.3001  -27.3001  -25.9709  -25.9709  -25.9147  -25.9147  -23.6343  -23.6343
         -23.6343  -23.6343  -23.5124  -23.5124  -23.5124  -23.5124  -23.0586  -23.0288  -21.5010  -21.3733
  -20.1948  -20.1948  -20.1948  -20.1948  -20.1289  -20.1289  -20.1289  -20.1289  -17.1228  -17.1228
  -17.1228  -17.1228  -17.0874  -17.0874  -17.0874  -17.0874  -17.0433  -17.0433  -17.0220  -17.0220
  -15.7634  -15.7119  -15.6504  -15.6504  -15.5859  -15.5859  -14.7555  -14.7555  -14.7028  -14.7028
  -14.6285  -14.6285  -13.8969  -13.8969  -13.6790  -13.6790  -13.6342  -13.6342  -13.4956  -13.4956
  -12.6745  -12.6745  -11.1795  -11.1795  -11.1794  -11.1794  -10.8032  -10.3976  -10.3976  -10.3976
  -10.3976  -10.3793   -6.1757   -5.8265   -5.7147   -5.7147   -5.7147   -5.7147   -5.3020   -5.3020
   -5.3020   -5.3020   -1.9070   -1.9070   -1.6620   -1.6620    0.6437    0.8159    0.8159    0.8451
    0.9768    0.9768    1.1492    1.1493    1.1971    1.1971    3.3357    3.3357    3.3357    3.3357
    3.3654    3.3654    3.3834    3.3834    3.4821    3.4821    3.4821    3.4822    3.7123    3.7123
    3.7694    3.7694    3.9582    3.9582    3.9815    3.9815    5.7331    5.7332    5.7914    5.7914
    8.6156    8.6156    8.6156    8.6156    8.6841    8.6841    8.6841    8.6841    9.8713    9.8713
    9.8964    9.8964   11.0829   11.0938   13.0163   13.1457   13.6573   13.6574   13.6574   13.6574
   13.6763   13.6763   13.6763   13.6763
  27  1  -27.5140  -27.4732  -26.7901  -26.7901  -26.7843  -26.7843  -24.8912  -24.8912  -24.7860  -24.7860
         -23.7559  -23.6282  -23.3150  -23.3150  -23.2199  -23.2199  -22.6544  -22.6219  -21.2684  -21.1617
  -21.0707  -21.0707  -20.9600  -20.9600  -19.5669  -19.5640  -18.5721  -18.5721  -18.5534  -18.5534
  -17.7899  -17.7570  -17.2921  -17.2640  -16.5944  -16.5944  -16.5408  -16.5408  -16.1760  -16.1760
  -16.1287  -16.1287  -15.7883  -15.7883  -15.7466  -15.7466  -14.7826  -14.4711  -14.4711  -14.4174
  -14.4174  -14.2109  -14.2109  -14.1940  -14.1705  -14.0513  -13.5363  -13.5038  -13.4425  -13.4425
  -12.4670  -12.4670  -11.6063  -11.6063  -11.2705  -10.9563  -10.9563  -10.4286  -10.3623  -10.3623
  -10.2421   -9.8094   -6.5541   -6.4279   -6.0398   -6.0398   -5.6308   -5.6308   -5.5340   -5.1605
   -3.8287   -3.8287   -3.4935   -3.4935   -0.2844   -0.2844   -0.0852   -0.0852    1.2147    1.3634
    1.4028    1.4028    1.5135    1.5196    1.5937    1.5937    1.8996    1.8996    1.9749    1.9749
    2.2441    2.2735    3.2690    3.4180    3.5222    3.5222    3.6466    3.6466    3.9286    3.9286
    3.9712    3.9713    5.1720    5.2069    5.4188    5.4668    6.3867    6.3867    6.4546    6.4546
    6.9147    7.0523    7.4246    7.4246    7.4640    7.4640    9.5221    9.6021   10.3525   10.3525
   10.3875   10.3875   12.1046   12.1046   12.1149   12.1149   13.2906   13.2906   13.3611   13.3611
   13.8049   13.8070   14.2208   14.2532
  28  1  -27.3290  -27.3289  -27.3001  -27.3001  -25.9709  -25.9709  -25.9147  -25.9147  -23.6343  -23.6343
         -23.6343  -23.6343  -23.5124  -23.5124  -23.5124  -23.5124  -23.0586  -23.0288  -21.5010  -21.3733
  -20.1948  -20.1948  -20.1948  -20.1948  -20.1289  -20.1289  -20.1289  -20.1289  -17.1228  -17.1228
  -17.1228  -17.1228  -17.0874  -17.0874  -17.0874  -17.0874  -17.0433  -17.0433  -17.0220  -17.0220
  -15.7634  -15.7119  -15.6504  -15.6504  -15.5859  -15.5859  -14.7555  -14.7555  -14.7028  -14.7028
  -14.6285  -14.6285  -13.8969  -13.8969  -13.6790  -13.6790  -13.6342  -13.6342  -13.4956  -13.4956
  -12.6745  -12.6745  -11.1795  -11.1795  -11.1794  -11.1794  -10.8032  -10.3976  -10.3976  -10.3976
  -10.3976  -10.3793   -6.1757   -5.8265   -5.7147   -5.7147   -5.7147   -5.7147   -5.3020   -5.3020
   -5.3020   -5.3020   -1.9070   -1.9070   -1.6620   -1.6620    0.6437    0.8159    0.8159    0.8451
    0.9768    0.9768    1.1492    1.1493    1.1971    1.1971    3.3357    3.3357    3.3357    3.3357
    3.3654    3.3654    3.3834    3.3834    3.4821    3.4821    3.4821    3.4822    3.7123    3.7123
    3.7694    3.7694    3.9582    3.9582    3.9815    3.9815    5.7331    5.7332    5.7914    5.7914
    8.6156    8.6156    8.6156    8.6156    8.6841    8.6841    8.6841    8.6841    9.8713    9.8713
    9.8964    9.8964   11.0829   11.0938   13.0163   13.1457   13.6573   13.6574   13.6574   13.6574
   13.6763   13.6763   13.6763   13.6763
  29  1  -27.5067  -27.5067  -26.7995  -26.7995  -26.7995  -26.7995  -24.8461  -24.8461  -24.8461  -24.8461
         -23.6957  -23.6957  -23.2678  -23.2678  -23.2678  -23.2678  -22.6355  -22.6355  -21.2194  -21.2194
  -21.0191  -21.0191  -21.0191  -21.0191  -19.5647  -19.5647  -18.5631  -18.5631  -18.5631  -18.5631
  -17.7758  -17.7758  -17.2787  -17.2787  -16.5701  -16.5701  -16.5700  -16.5700  -16.1527  -16.1527
  -16.1527  -16.1527  -15.7687  -15.7687  -15.7687  -15.7687  -14.4477  -14.4477  -14.4477  -14.4477
  -14.4263  -14.4263  -14.1811  -14.1811  -13.8448  -13.8448  -13.8448  -13.8448  -13.5205  -13.5205
  -12.0673  -12.0673  -12.0673  -12.0673  -10.8719  -10.8719  -10.6529  -10.6529  -10.6529  -10.6529
  -10.0005  -10.0005   -6.5383   -6.5383   -5.8768   -5.8768   -5.8768   -5.8768   -5.3465   -5.3465
   -3.6616   -3.6616   -3.6616   -3.6616   -0.1881   -0.1881   -0.1881   -0.1881    1.2808    1.2808
    1.5044    1.5044    1.5044    1.5044    1.5431    1.5431    1.9588    1.9588    1.9588    1.9588
    2.2591    2.2591    3.3480    3.3480    3.5912    3.5912    3.5912    3.5912    3.9570    3.9570
    3.9570    3.9570    5.1906    5.1906    5.4433    5.4433    6.4332    6.4332    6.4332    6.4332
    6.9920    6.9920    7.4462    7.4462    7.4462    7.4462    9.5609    9.5609   10.3702   10.3702
   10.3702   10.3702   12.1105   12.1105   12.1105   12.1105   13.3257   13.3257   13.3257   13.3257
   13.8061   13.8061   14.2365   14.2365
  30  1  -27.8699  -27.8699  -26.4561  -26.4561  -25.7902  -25.7902  -25.7901  -25.7901  -24.5524  -24.5524
         -24.5524  -24.5524  -23.9969  -23.9969  -22.4818  -22.4818  -22.4817  -22.4817  -20.7430  -20.7430
  -20.7430  -20.7430  -20.3462  -20.3462  -19.4521  -19.4521  -19.4521  -19.4521  -18.3769  -18.3769
  -18.3769  -18.3769  -17.6224  -17.6224  -17.6224  -17.6224  -16.6352  -16.6352  -15.8528  -15.8528
  -15.8528  -15.8528  -15.5917  -15.5917  -15.2674  -15.2674  -15.2674  -15.2674  -14.7018  -14.7018
  -14.4841  -14.4841  -13.5598  -13.5598  -13.1944  -13.1944  -12.9694  -12.9694  -12.9693  -12.9693
  -12.9019  -12.9019  -11.8058  -11.8058  -11.8058  -11.8058  -11.3087  -11.3087   -9.5848   -9.5848
   -9.5848   -9.5848   -6.8836   -6.8836   -6.8836   -6.8836   -5.0177   -5.0177   -4.1845   -4.1845
   -4.1845   -4.1845   -2.1090   -2.1090   -2.1090   -2.1090   -0.8816   -0.8816    0.8248    0.8248
    0.8591    0.8591    1.1828    1.1828    1.3673    1.3673    1.6413    1.6413    1.6414    1.6414
    1.8444    1.8444    1.8444    1.8444    2.1166    2.1166    4.5308    4.5308    5.5448    5.5448
    5.5448    5.5448    5.9920    5.9920    6.4437    6.4437    6.4437    6.4437    7.8362    7.8362
    8.2031    8.2031    8.2031    8.2031    8.8594    8.8594    8.8594    8.8594    9.8554    9.8554
    9.8554    9.8554   10.4079   10.4079   12.0045   12.0045   12.0045   12.0045   12.2595   12.2595
   14.7115   14.7115   14.7115   14.7115
  31  1  -27.8699  -27.8699  -26.4561  -26.4561  -25.7902  -25.7902  -25.7901  -25.7901  -24.5524  -24.5524
         -24.5524  -24.5524  -23.9969  -23.9969  -22.4818  -22.4818  -22.4817  -22.4817  -20.7430  -20.7430
  -20.7430  -20.7430  -20.3462  -20.3462  -19.4521  -19.4521  -19.4521  -19.4521  -18.3769  -18.3769
  -18.3769  -18.3769  -17.6224  -17.6224  -17.6224  -17.6224  -16.6352  -16.6352  -15.8528  -15.8528
  -15.8528  -15.8528  -15.5917  -15.5917  -15.2674  -15.2674  -15.2674  -15.2674  -14.7018  -14.7018
  -14.4841  -14.4841  -13.5598  -13.5598  -13.1944  -13.1944  -12.9694  -12.9694  -12.9693  -12.9693
  -12.9019  -12.9019  -11.8058  -11.8058  -11.8058  -11.8058  -11.3087  -11.3087   -9.5848   -9.5848
   -9.5848   -9.5848   -6.8836   -6.8836   -6.8836   -6.8836   -5.0177   -5.0177   -4.1845   -4.1845
   -4.1845   -4.1845   -2.1090   -2.1090   -2.1090   -2.1090   -0.8816   -0.8816    0.8248    0.8248
    0.8591    0.8591    1.1828    1.1828    1.3673    1.3673    1.6413    1.6413    1.6414    1.6414
    1.8444    1.8444    1.8444    1.8444    2.1166    2.1166    4.5308    4.5308    5.5448    5.5448
    5.5448    5.5448    5.9920    5.9920    6.4437    6.4437    6.4437    6.4437    7.8362    7.8362
    8.2031    8.2031    8.2031    8.2031    8.8594    8.8594    8.8594    8.8594    9.8554    9.8554
    9.8554    9.8554   10.4079   10.4079   12.0045   12.0045   12.0045   12.0045   12.2595   12.2595
   14.7115   14.7115   14.7115   14.7115
  32  1  -27.5067  -27.5067  -26.7995  -26.7995  -26.7995  -26.7995  -24.8461  -24.8461  -24.8461  -24.8461
         -23.6957  -23.6957  -23.2678  -23.2678  -23.2678  -23.2678  -22.6355  -22.6355  -21.2194  -21.2194
  -21.0191  -21.0191  -21.0191  -21.0191  -19.5647  -19.5647  -18.5631  -18.5631  -18.5631  -18.5631
  -17.7758  -17.7758  -17.2787  -17.2787  -16.5701  -16.5701  -16.5700  -16.5700  -16.1527  -16.1527
  -16.1527  -16.1527  -15.7687  -15.7687  -15.7687  -15.7687  -14.4477  -14.4477  -14.4477  -14.4477
  -14.4263  -14.4263  -14.1811  -14.1811  -13.8448  -13.8448  -13.8448  -13.8448  -13.5205  -13.5205
  -12.0673  -12.0673  -12.0673  -12.0673  -10.8719  -10.8719  -10.6529  -10.6529  -10.6529  -10.6529
  -10.0005  -10.0005   -6.5383   -6.5383   -5.8768   -5.8768   -5.8768   -5.8768   -5.3465   -5.3465
   -3.6616   -3.6616   -3.6616   -3.6616   -0.1881   -0.1881   -0.1881   -0.1881    1.2808    1.2808
    1.5044    1.5044    1.5044    1.5044    1.5431    1.5431    1.9588    1.9588    1.9588    1.9588
    2.2591    2.2591    3.3480    3.3480    3.5912    3.5912    3.5912    3.5912    3.9570    3.9570
    3.9570    3.9570    5.1906    5.1906    5.4433    5.4433    6.4332    6.4332    6.4332    6.4332
    6.9920    6.9920    7.4462    7.4462    7.4462    7.4462    9.5609    9.5609   10.3702   10.3702
   10.3702   10.3702   12.1105   12.1105   12.1105   12.1105   13.3257   13.3257   13.3257   13.3257
   13.8061   13.8061   14.2365   14.2365
  33  1  -27.8699  -27.8699  -26.4561  -26.4561  -25.7902  -25.7902  -25.7901  -25.7901  -24.5524  -24.5524
         -24.5524  -24.5524  -23.9969  -23.9969  -22.4818  -22.4818  -22.4817  -22.4817  -20.7430  -20.7430
  -20.7430  -20.7430  -20.3462  -20.3462  -19.4521  -19.4521  -19.4521  -19.4521  -18.3769  -18.3769
  -18.3769  -18.3769  -17.6224  -17.6224  -17.6224  -17.6224  -16.6352  -16.6352  -15.8528  -15.8528
  -15.8528  -15.8528  -15.5917  -15.5917  -15.2674  -15.2674  -15.2674  -15.2674  -14.7018  -14.7018
  -14.4841  -14.4841  -13.5598  -13.5598  -13.1944  -13.1944  -12.9694  -12.9694  -12.9693  -12.9693
  -12.9019  -12.9019  -11.8058  -11.8058  -11.8058  -11.8058  -11.3087  -11.3087   -9.5848   -9.5848
   -9.5848   -9.5848   -6.8836   -6.8836   -6.8836   -6.8836   -5.0177   -5.0177   -4.1845   -4.1845
   -4.1845   -4.1845   -2.1090   -2.1090   -2.1090   -2.1090   -0.8816   -0.8816    0.8248    0.8248
    0.8591    0.8591    1.1828    1.1828    1.3673    1.3673    1.6413    1.6413    1.6414    1.6414
    1.8444    1.8444    1.8444    1.8444    2.1166    2.1166    4.5308    4.5308    5.5448    5.5448
    5.5448    5.5448    5.9920    5.9920    6.4437    6.4437    6.4437    6.4437    7.8362    7.8362
    8.2031    8.2031    8.2031    8.2031    8.8594    8.8594    8.8594    8.8594    9.8554    9.8554
    9.8554    9.8554   10.4079   10.4079   12.0045   12.0045   12.0045   12.0045   12.2595   12.2595
   14.7115   14.7115   14.7115   14.7115
  34  1  -28.0537  -28.0537  -25.3113  -25.3113  -25.3113  -25.3113  -25.3113  -25.3113  -25.3113  -25.3113
         -25.3113  -25.3113  -25.3113  -25.3113  -21.4624  -21.4624  -21.4624  -21.4624  -21.4466  -21.4466
  -21.4466  -21.4466  -18.9684  -18.9684  -18.9684  -18.9684  -18.5754  -18.5754  -18.5754  -18.5754
  -18.5754  -18.5754  -18.5754  -18.5754  -18.5754  -18.5754  -18.5754  -18.5754  -15.1619  -15.1619
  -15.1619  -15.1619  -15.1619  -15.1619  -15.1619  -15.1619  -15.1619  -15.1619  -15.1619  -15.1619
  -14.8382  -14.8382  -12.5781  -12.5781  -12.5781  -12.5781  -12.5340  -12.5340  -12.5340  -12.5340
  -12.5340  -12.5340  -12.5339  -12.5339  -12.5339  -12.5339  -12.5339  -12.5339   -8.2589   -8.2589
   -8.2589   -8.2589   -8.2401   -8.2401   -8.2401   -8.2401   -2.9813   -2.9813   -2.9813   -2.9813
   -2.9813   -2.9813   -2.9813   -2.9813   -2.9813   -2.9813   -2.9813   -2.9813    0.5974    0.5974
    0.5974    0.5974    1.0053    1.0053    1.0053    1.0053    1.0053    1.0053    1.0053    1.0053
    1.0053    1.0053    1.0053    1.0053    2.5438    2.5438    4.1857    4.1857    7.2411    7.2411
    7.2411    7.2411    7.2443    7.2443    7.2443    7.2443    8.5487    8.5487    8.5487    8.5487
    8.5487    8.5487    8.5487    8.5487    8.5487    8.5487    8.5487    8.5487   10.2314   10.2314
   10.2314   10.2314   10.2314   10.2314   10.2314   10.2314   10.2314   10.2314   10.2314   10.2314
   15.0666   15.0666   15.0666   15.0666
  35  1  -27.8699  -27.8699  -26.4561  -26.4561  -25.7902  -25.7902  -25.7901  -25.7901  -24.5524  -24.5524
         -24.5524  -24.5524  -23.9969  -23.9969  -22.4818  -22.4818  -22.4817  -22.4817  -20.7430  -20.7430
  -20.7430  -20.7430  -20.3462  -20.3462  -19.4521  -19.4521  -19.4521  -19.4521  -18.3769  -18.3769
  -18.3769  -18.3769  -17.6224  -17.6224  -17.6224  -17.6224  -16.6352  -16.6352  -15.8528  -15.8528
  -15.8528  -15.8528  -15.5917  -15.5917  -15.2674  -15.2674  -15.2674  -15.2674  -14.7018  -14.7018
  -14.4841  -14.4841  -13.5598  -13.5598  -13.1944  -13.1944  -12.9694  -12.9694  -12.9693  -12.9693
  -12.9019  -12.9019  -11.8058  -11.8058  -11.8058  -11.8058  -11.3087  -11.3087   -9.5848   -9.5848
   -9.5848   -9.5848   -6.8836   -6.8836   -6.8836   -6.8836   -5.0177   -5.0177   -4.1845   -4.1845
   -4.1845   -4.1845   -2.1090   -2.1090   -2.1090   -2.1090   -0.8816   -0.8816    0.8248    0.8248
    0.8591    0.8591    1.1828    1.1828    1.3673    1.3673    1.6413    1.6413    1.6414    1.6414
    1.8444    1.8444    1.8444    1.8444    2.1166    2.1166    4.5308    4.5308    5.5448    5.5448
    5.5448    5.5448    5.9920    5.9920    6.4437    6.4437    6.4437    6.4437    7.8362    7.8362
    8.2031    8.2031    8.2031    8.2031    8.8594    8.8594    8.8594    8.8594    9.8554    9.8554
    9.8554    9.8554   10.4079   10.4079   12.0045   12.0045   12.0045   12.0045   12.2595   12.2595
   14.7115   14.7115   14.7115   14.7115
  36  1  -27.3275  -27.3275  -27.3275  -27.3275  -25.9535  -25.9535  -25.9535  -25.9535  -23.5762  -23.5762
         -23.5762  -23.5762  -23.5762  -23.5762  -23.5762  -23.5762  -23.0413  -23.0413  -21.4438  -21.4438
  -20.1628  -20.1628  -20.1628  -20.1628  -20.1628  -20.1628  -20.1628  -20.1628  -17.1062  -17.1062
  -17.1062  -17.1062  -17.1062  -17.1062  -17.1062  -17.1062  -17.0325  -17.0325  -17.0325  -17.0325
  -15.7379  -15.7379  -15.6226  -15.6226  -15.6226  -15.6226  -14.7298  -14.7298  -14.7298  -14.7298
  -14.2749  -14.2749  -14.2749  -14.2749  -13.6566  -13.6566  -13.6566  -13.6566  -13.1133  -13.1133
  -13.1132  -13.1132  -10.8032  -10.8032  -10.8032  -10.8032  -10.8032  -10.8032  -10.8032  -10.8032
  -10.5699  -10.5699   -6.0622   -6.0622   -5.5197   -5.5197   -5.5197   -5.5197   -5.5197   -5.5197
   -5.5197   -5.5197   -1.7857   -1.7857   -1.7857   -1.7857    0.7509    0.7509    0.8866    0.8866
    0.8866    0.8866    1.2005    1.2005    1.2005    1.2005    3.3745    3.3745    3.3745    3.3745
    3.4140    3.4140    3.4140    3.4140    3.4140    3.4140    3.4140    3.4140    3.7477    3.7477
    3.7477    3.7477    3.9915    3.9915    3.9915    3.9915    5.7669    5.7669    5.7669    5.7669
    8.6529    8.6529    8.6529    8.6529    8.6530    8.6530    8.6530    8.6530    9.8838    9.8838
    9.8838    9.8838   11.0881   11.0881   13.0799   13.0799   13.6672   13.6672   13.6672   13.6672
   13.6673   13.6673   13.6673   13.6673
  37  1  -27.8699  -27.8699  -26.4561  -26.4561  -25.7902  -25.7902  -25.7901  -25.7901  -24.5524  -24.5524
         -24.5524  -24.5524  -23.9969  -23.9969  -22.4818  -22.4818  -22.4817  -22.4817  -20.7430  -20.7430
  -20.7430  -20.7430  -20.3462  -20.3462  -19.4521  -19.4521  -19.4521  -19.4521  -18.3769  -18.3769
  -18.3769  -18.3769  -17.6224  -17.6224  -17.6224  -17.6224  -16.6352  -16.6352  -15.8528  -15.8528
  -15.8528  -15.8528  -15.5917  -15.5917  -15.2674  -15.2674  -15.2674  -15.2674  -14.7018  -14.7018
  -14.4841  -14.4841  -13.5598  -13.5598  -13.1944  -13.1944  -12.9694  -12.9694  -12.9693  -12.9693
  -12.9019  -12.9019  -11.8058  -11.8058  -11.8058  -11.8058  -11.3087  -11.3087   -9.5848   -9.5848
   -9.5848   -9.5848   -6.8836   -6.8836   -6.8836   -6.8836   -5.0177   -5.0177   -4.1845   -4.1845
   -4.1845   -4.1845   -2.1090   -2.1090   -2.1090   -2.1090   -0.8816   -0.8816    0.8248    0.8248
    0.8591    0.8591    1.1828    1.1828    1.3673    1.3673    1.6413    1.6413    1.6414    1.6414
    1.8444    1.8444    1.8444    1.8444    2.1166    2.1166    4.5308    4.5308    5.5448    5.5448
    5.5448    5.5448    5.9920    5.9920    6.4437    6.4437    6.4437    6.4437    7.8362    7.8362
    8.2031    8.2031    8.2031    8.2031    8.8594    8.8594    8.8594    8.8594    9.8554    9.8554
    9.8554    9.8554   10.4079   10.4079   12.0045   12.0045   12.0045   12.0045   12.2595   12.2595
   14.7115   14.7115   14.7115   14.7115
  38  1  -27.8699  -27.8699  -26.4561  -26.4561  -25.7902  -25.7902  -25.7901  -25.7901  -24.5524  -24.5524
         -24.5524  -24.5524  -23.9969  -23.9969  -22.4818  -22.4818  -22.4817  -22.4817  -20.7430  -20.7430
  -20.7430  -20.7430  -20.3462  -20.3462  -19.4521  -19.4521  -19.4521  -19.4521  -18.3769  -18.3769
  -18.3769  -18.3769  -17.6224  -17.6224  -17.6224  -17.6224  -16.6352  -16.6352  -15.8528  -15.8528
  -15.8528  -15.8528  -15.5917  -15.5917  -15.2674  -15.2674  -15.2674  -15.2674  -14.7018  -14.7018
  -14.4841  -14.4841  -13.5598  -13.5598  -13.1944  -13.1944  -12.9694  -12.9694  -12.9693  -12.9693
  -12.9019  -12.9019  -11.8058  -11.8058  -11.8058  -11.8058  -11.3087  -11.3087   -9.5848   -9.5848
   -9.5848   -9.5848   -6.8836   -6.8836   -6.8836   -6.8836   -5.0177   -5.0177   -4.1845   -4.1845
   -4.1845   -4.1845   -2.1090   -2.1090   -2.1090   -2.1090   -0.8816   -0.8816    0.8248    0.8248
    0.8591    0.8591    1.1828    1.1828    1.3673    1.3673    1.6413    1.6413    1.6414    1.6414
    1.8444    1.8444    1.8444    1.8444    2.1166    2.1166    4.5308    4.5308    5.5448    5.5448
    5.5448    5.5448    5.9920    5.9920    6.4437    6.4437    6.4437    6.4437    7.8362    7.8362
    8.2031    8.2031    8.2031    8.2031    8.8594    8.8594    8.8594    8.8594    9.8554    9.8554
    9.8554    9.8554   10.4079   10.4079   12.0045   12.0045   12.0045   12.0045   12.2595   12.2595
   14.7115   14.7115   14.7115   14.7115
  39  1  -27.5067  -27.5067  -26.7995  -26.7995  -26.7995  -26.7995  -24.8461  -24.8461  -24.8461  -24.8461
         -23.6957  -23.6957  -23.2678  -23.2678  -23.2678  -23.2678  -22.6355  -22.6355  -21.2194  -21.2194
  -21.0191  -21.0191  -21.0191  -21.0191  -19.5647  -19.5647  -18.5631  -18.5631  -18.5631  -18.5631
  -17.7758  -17.7758  -17.2787  -17.2787  -16.5701  -16.5701  -16.5700  -16.5700  -16.1527  -16.1527
  -16.1527  -16.1527  -15.7687  -15.7687  -15.7687  -15.7687  -14.4477  -14.4477  -14.4477  -14.4477
  -14.4263  -14.4263  -14.1811  -14.1811  -13.8448  -13.8448  -13.8448  -13.8448  -13.5205  -13.5205
  -12.0673  -12.0673  -12.0673  -12.0673  -10.8719  -10.8719  -10.6529  -10.6529  -10.6529  -10.6529
  -10.0005  -10.0005   -6.5383   -6.5383   -5.8768   -5.8768   -5.8768   -5.8768   -5.3465   -5.3465
   -3.6616   -3.6616   -3.6616   -3.6616   -0.1881   -0.1881   -0.1881   -0.1881    1.2808    1.2808
    1.5044    1.5044    1.5044    1.5044    1.5431    1.5431    1.9588    1.9588    1.9588    1.9588
    2.2591    2.2591    3.3480    3.3480    3.5912    3.5912    3.5912    3.5912    3.9570    3.9570
    3.9570    3.9570    5.1906    5.1906    5.4433    5.4433    6.4332    6.4332    6.4332    6.4332
    6.9920    6.9920    7.4462    7.4462    7.4462    7.4462    9.5609    9.5609   10.3702   10.3702
   10.3702   10.3702   12.1105   12.1105   12.1105   12.1105   13.3257   13.3257   13.3257   13.3257
   13.8061   13.8061   14.2365   14.2365
  40  1  -27.5067  -27.5067  -26.7995  -26.7995  -26.7995  -26.7995  -24.8461  -24.8461  -24.8461  -24.8461
         -23.6957  -23.6957  -23.2678  -23.2678  -23.2678  -23.2678  -22.6355  -22.6355  -21.2194  -21.2194
  -21.0191  -21.0191  -21.0191  -21.0191  -19.5647  -19.5647  -18.5631  -18.5631  -18.5631  -18.5631
  -17.7758  -17.7758  -17.2787  -17.2787  -16.5701  -16.5701  -16.5700  -16.5700  -16.1527  -16.1527
  -16.1527  -16.1527  -15.7687  -15.7687  -15.7687  -15.7687  -14.4477  -14.4477  -14.4477  -14.4477
  -14.4263  -14.4263  -14.1811  -14.1811  -13.8448  -13.8448  -13.8448  -13.8448  -13.5205  -13.5205
  -12.0673  -12.0673  -12.0673  -12.0673  -10.8719  -10.8719  -10.6529  -10.6529  -10.6529  -10.6529
  -10.0005  -10.0005   -6.5383   -6.5383   -5.8768   -5.8768   -5.8768   -5.8768   -5.3465   -5.3465
   -3.6616   -3.6616   -3.6616   -3.6616   -0.1881   -0.1881   -0.1881   -0.1881    1.2808    1.2808
    1.5044    1.5044    1.5044    1.5044    1.5431    1.5431    1.9588    1.9588    1.9588    1.9588
    2.2591    2.2591    3.3480    3.3480    3.5912    3.5912    3.5912    3.5912    3.9570    3.9570
    3.9570    3.9570    5.1906    5.1906    5.4433    5.4433    6.4332    6.4332    6.4332    6.4332
    6.9920    6.9920    7.4462    7.4462    7.4462    7.4462    9.5609    9.5609   10.3702   10.3702
   10.3702   10.3702   12.1105   12.1105   12.1105   12.1105   13.3257   13.3257   13.3257   13.3257
   13.8061   13.8061   14.2365   14.2365
  41  1  -27.5067  -27.5067  -26.7995  -26.7995  -26.7995  -26.7995  -24.8461  -24.8461  -24.8461  -24.8461
         -23.6957  -23.6957  -23.2678  -23.2678  -23.2678  -23.2678  -22.6355  -22.6355  -21.2194  -21.2194
  -21.0191  -21.0191  -21.0191  -21.0191  -19.5647  -19.5647  -18.5631  -18.5631  -18.5631  -18.5631
  -17.7758  -17.7758  -17.2787  -17.2787  -16.5701  -16.5701  -16.5700  -16.5700  -16.1527  -16.1527
  -16.1527  -16.1527  -15.7687  -15.7687  -15.7687  -15.7687  -14.4477  -14.4477  -14.4477  -14.4477
  -14.4263  -14.4263  -14.1811  -14.1811  -13.8448  -13.8448  -13.8448  -13.8448  -13.5205  -13.5205
  -12.0673  -12.0673  -12.0673  -12.0673  -10.8719  -10.8719  -10.6529  -10.6529  -10.6529  -10.6529
  -10.0005  -10.0005   -6.5383   -6.5383   -5.8768   -5.8768   -5.8768   -5.8768   -5.3465   -5.3465
   -3.6616   -3.6616   -3.6616   -3.6616   -0.1881   -0.1881   -0.1881   -0.1881    1.2808    1.2808
    1.5044    1.5044    1.5044    1.5044    1.5431    1.5431    1.9588    1.9588    1.9588    1.9588
    2.2591    2.2591    3.3480    3.3480    3.5912    3.5912    3.5912    3.5912    3.9570    3.9570
    3.9570    3.9570    5.1906    5.1906    5.4433    5.4433    6.4332    6.4332    6.4332    6.4332
    6.9920    6.9920    7.4462    7.4462    7.4462    7.4462    9.5609    9.5609   10.3702   10.3702
   10.3702   10.3702   12.1105   12.1105   12.1105   12.1105   13.3257   13.3257   13.3257   13.3257
   13.8061   13.8061   14.2365   14.2365
  42  1  -27.3275  -27.3275  -27.3275  -27.3275  -25.9535  -25.9535  -25.9535  -25.9535  -23.5762  -23.5762
         -23.5762  -23.5762  -23.5762  -23.5762  -23.5762  -23.5762  -23.0413  -23.0413  -21.4438  -21.4438
  -20.1628  -20.1628  -20.1628  -20.1628  -20.1628  -20.1628  -20.1628  -20.1628  -17.1062  -17.1062
  -17.1062  -17.1062  -17.1062  -17.1062  -17.1062  -17.1062  -17.0325  -17.0325  -17.0325  -17.0325
  -15.7379  -15.7379  -15.6226  -15.6226  -15.6226  -15.6226  -14.7298  -14.7298  -14.7298  -14.7298
  -14.2749  -14.2749  -14.2749  -14.2749  -13.6566  -13.6566  -13.6566  -13.6566  -13.1133  -13.1133
  -13.1132  -13.1132  -10.8032  -10.8032  -10.8032  -10.8032  -10.8032  -10.8032  -10.8032  -10.8032
  -10.5699  -10.5699   -6.0622   -6.0622   -5.5197   -5.5197   -5.5197   -5.5197   -5.5197   -5.5197
   -5.5197   -5.5197   -1.7857   -1.7857   -1.7857   -1.7857    0.7509    0.7509    0.8866    0.8866
    0.8866    0.8866    1.2005    1.2005    1.2005    1.2005    3.3745    3.3745    3.3745    3.3745
    3.4140    3.4140    3.4140    3.4140    3.4140    3.4140    3.4140    3.4140    3.7477    3.7477
    3.7477    3.7477    3.9915    3.9915    3.9915    3.9915    5.7669    5.7669    5.7669    5.7669
    8.6529    8.6529    8.6529    8.6529    8.6530    8.6530    8.6530    8.6530    9.8838    9.8838
    9.8838    9.8838   11.0881   11.0881   13.0799   13.0799   13.6672   13.6672   13.6672   13.6672
   13.6673   13.6673   13.6673   13.6673
  43  1  -27.5067  -27.5067  -26.7995  -26.7995  -26.7995  -26.7995  -24.8461  -24.8461  -24.8461  -24.8461
         -23.6957  -23.6957  -23.2678  -23.2678  -23.2678  -23.2678  -22.6355  -22.6355  -21.2194  -21.2194
  -21.0191  -21.0191  -21.0191  -21.0191  -19.5647  -19.5647  -18.5631  -18.5631  -18.5631  -18.5631
  -17.7758  -17.7758  -17.2787  -17.2787  -16.5701  -16.5701  -16.5700  -16.5700  -16.1527  -16.1527
  -16.1527  -16.1527  -15.7687  -15.7687  -15.7687  -15.7687  -14.4477  -14.4477  -14.4477  -14.4477
  -14.4263  -14.4263  -14.1811  -14.1811  -13.8448  -13.8448  -13.8448  -13.8448  -13.5205  -13.5205
  -12.0673  -12.0673  -12.0673  -12.0673  -10.8719  -10.8719  -10.6529  -10.6529  -10.6529  -10.6529
  -10.0005  -10.0005   -6.5383   -6.5383   -5.8768   -5.8768   -5.8768   -5.8768   -5.3465   -5.3465
   -3.6616   -3.6616   -3.6616   -3.6616   -0.1881   -0.1881   -0.1881   -0.1881    1.2808    1.2808
    1.5044    1.5044    1.5044    1.5044    1.5431    1.5431    1.9588    1.9588    1.9588    1.9588
    2.2591    2.2591    3.3480    3.3480    3.5912    3.5912    3.5912    3.5912    3.9570    3.9570
    3.9570    3.9570    5.1906    5.1906    5.4433    5.4433    6.4332    6.4332    6.4332    6.4332
    6.9920    6.9920    7.4462    7.4462    7.4462    7.4462    9.5609    9.5609   10.3702   10.3702
   10.3702   10.3702   12.1105   12.1105   12.1105   12.1105   13.3257   13.3257   13.3257   13.3257
   13.8061   13.8061   14.2365   14.2365
  44  1  -27.3275  -27.3275  -27.3275  -27.3275  -25.9535  -25.9535  -25.9535  -25.9535  -23.5762  -23.5762
         -23.5762  -23.5762  -23.5762  -23.5762  -23.5762  -23.5762  -23.0413  -23.0413  -21.4438  -21.4438
  -20.1628  -20.1628  -20.1628  -20.1628  -20.1628  -20.1628  -20.1628  -20.1628  -17.1062  -17.1062
  -17.1062  -17.1062  -17.1062  -17.1062  -17.1062  -17.1062  -17.0325  -17.0325  -17.0325  -17.0325
  -15.7379  -15.7379  -15.6226  -15.6226  -15.6226  -15.6226  -14.7298  -14.7298  -14.7298  -14.7298
  -14.2749  -14.2749  -14.2749  -14.2749  -13.6566  -13.6566  -13.6566  -13.6566  -13.1133  -13.1133
  -13.1132  -13.1132  -10.8032  -10.8032  -10.8032  -10.8032  -10.8032  -10.8032  -10.8032  -10.8032
  -10.5699  -10.5699   -6.0622   -6.0622   -5.5197   -5.5197   -5.5197   -5.5197   -5.5197   -5.5197
   -5.5197   -5.5197   -1.7857   -1.7857   -1.7857   -1.7857    0.7509    0.7509    0.8866    0.8866
    0.8866    0.8866    1.2005    1.2005    1.2005    1.2005    3.3745    3.3745    3.3745    3.3745
    3.4140    3.4140    3.4140    3.4140    3.4140    3.4140    3.4140    3.4140    3.7477    3.7477
    3.7477    3.7477    3.9915    3.9915    3.9915    3.9915    5.7669    5.7669    5.7669    5.7669
    8.6529    8.6529    8.6529    8.6529    8.6530    8.6530    8.6530    8.6530    9.8838    9.8838
    9.8838    9.8838   11.0881   11.0881   13.0799   13.0799   13.6672   13.6672   13.6672   13.6672
   13.6673   13.6673   13.6673   13.6673
siesta: Fermi energy =      -8.254742 eV

siesta: Program's energy decomposition (eV):
siesta: Ebs     =     -2560.419655
siesta: Eions   =      9434.507561
siesta: Ena     =      2268.083521
siesta: Ekin    =      3625.700714
siesta: Enl     =      -340.768575
siesta: Eso     =         0.000000
siesta: Edftu   =         0.000000
siesta: DEna    =        -0.782490
siesta: DUscf   =         2.507669
siesta: DUext   =         0.000000
siesta: Exc     =     -1633.555985
siesta: eta*DQ  =         0.000000
siesta: Emadel  =         0.000000
siesta: Emeta   =         0.000000
siesta: Emolmec =        -4.603466
siesta: Ekinion =         0.000000
siesta: Eharris =     -5517.926173
siesta: Etot    =     -5517.926173
siesta: FreeEng =     -5517.937144

siesta: Final energy (eV):
siesta:  Band Struct. =   -2560.419655
siesta:       Kinetic =    3625.700714
siesta:       Hartree =    1250.880162
siesta:       Edftu   =       0.000000
siesta:       Eso     =       0.000000
siesta:    Ext. field =       0.000000
siesta:   Exch.-corr. =   -1633.555985
siesta:  Ion-electron =   -6552.829724
siesta:       Ion-ion =   -2203.517874
siesta:       Ekinion =       0.000000
siesta:         Total =   -5517.926173
siesta:         Fermi =      -8.254742

siesta: Stress tensor (static) (eV/Ang**3):
siesta:    -0.239943    0.000000   -0.000000
siesta:     0.000000   -0.239943    0.000000
siesta:    -0.000000    0.000000    0.166028

siesta: Cell volume =        311.220261 Ang**3

siesta: Pressure (static):
siesta:                Solid            Molecule  Units
siesta:           0.00113944          0.00113947  Ry/Bohr**3
siesta:           0.10461912          0.10462186  eV/Ang**3
siesta:         167.62011835        167.62451220  kBar
(Free)E+ p_basis*V_orbitals  =       -5499.634098
(Free)Eharris+ p_basis*V_orbitals  =       -5499.634098

cite: Please see "graphite_scf.bib" for an exhaustive BiBTeX file.
cite: Please clearly indicate Siesta version in published work: 4.1.5
cite: This calculation has made use of the following articles
cite: which are encouraged to be cited in a published work.
        Primary SIESTA paper
          DOI: www.doi.org/10.1088/0953-8984/14/11/302

>> End of run:   1-NOV-2022  14:18:23
Job completed
