Siesta Version  : 4.1.5
Architecture    : x86_64-unknown-linux-gnu--unknown
Compiler version: GNU Fortran (GCC) 11.3.0
Compiler flags  : mpif90 -g -O2 -fallow-argument-mismatch
PP flags        : -DMPI -DFC_HAVE_FLUSH -DFC_HAVE_ABORT
Libraries       :  -I/global/software/sl-7.x86_64/modules/intel/2020.4.304/mkl/include  /globall/software/sl-7.x86_64/modules/intel/2020.4.304/mkl/lib/intel64/libmkl_scalapack_lp64.a -Wl,--start-group /global/software/sl-7.x86_64/modules/intel/2020.4.304/mkl/lib/intel64/libmkl_intel_lp64.a /global/software/sl-7.x86_64/modules/intel/2020.4.304/mkl/lib/intel64/libmkl_sequential.a /global/software/sl-7.x86_64/modules/intel/2020.4.304/mkl/lib/intel64/libmkl_core.a /global/software/sl-7.x86_64/modules/intel/2020.4.304/mkl/lib/intel64/libmkl_blacs_openmpi_lp64.a -Wl,--end-group -lpthread -lm -ldl
PARALLEL version

* Running on 20 nodes in parallel
>> Start of run:   1-NOV-2022  14:31:59

                           ***********************       
                           *  WELCOME TO SIESTA  *       
                           ***********************       

reinit: Reading from standard input
reinit: Dumped input in INPUT_TMP.04389
************************** Dump of input data file ****************************
SystemName graphite_scf
SystemLabel graphite_scf
NumberOfAtoms   36
NumberOfSpecies 1
%block ChemicalSpeciesLabel
1  6   C-gga
%endblock ChemicalSpeciesLabel
PAO.BasisSize  SZ
PAO.EnergyShift  10 meV
%block PS.Lmax
C-gga   2
%endblock PS.Lmax
LatticeConstant 1.000000 Ang
%block LatticeVectors
	7.3920000000	0.0000000000	0.0000000000
	-3.6960000000	6.4016597848	0.0000000000
	0.0000000000	0.0000000000	7.3821000000
%endblock LatticeVectors
AtomicCoordinatesFormat Ang
%block AtomicCoordinatesAndAtomicSpecies
	0.00000000	0.00000000	1.84552500	1
	0.00000000	0.00000000	5.53657500	1
	-1.23200000	2.13388659	1.84552500	1
	-2.46400000	4.26777319	5.53657500	1
	2.46400000	4.26777319	1.84552500	1
	1.23200000	2.13388659	5.53657500	1
	2.46400000	0.00000000	1.84552500	1
	4.92800000	0.00000000	5.53657500	1
	2.46400000	0.00000000	5.53657500	1
	4.92800000	0.00000000	1.84552500	1
	2.46400000	4.26777319	5.53657500	1
	1.23200000	2.13388659	1.84552500	1
	-1.23200000	2.13388659	5.53657500	1
	-2.46400000	4.26777319	1.84552500	1
	0.00000000	4.26777319	1.84552500	1
	3.69600000	2.13388659	5.53657500	1
	3.69600000	2.13388659	1.84552500	1
	0.00000000	4.26777319	5.53657500	1
	0.00000000	1.42258964	1.84552500	1
	3.69600000	4.97907014	5.53657500	1
	2.46400123	5.69036496	1.84552500	1
	1.23199877	0.71129482	5.53657500	1
	-2.46400123	5.69036496	1.84552500	1
	6.16000123	0.71129482	5.53657500	1
	-1.23200000	3.55647624	1.84552500	1
	4.92800000	2.84518355	5.53657500	1
	1.23200123	3.55647837	1.84552500	1
	2.46399877	2.84518142	5.53657500	1
	-0.00000123	5.69036496	1.84552500	1
	3.69600123	0.71129482	5.53657500	1
	2.46400000	1.42258964	1.84552500	1
	1.23200000	4.97907014	5.53657500	1
	4.92800123	1.42259177	1.84552500	1
	-1.23200123	4.97906801	5.53657500	1
	3.69599877	3.55647837	1.84552500	1
	0.00000123	2.84518142	5.53657500	1
%endblock AtomicCoordinatesAndAtomicSpecies
Kgrid_NoTRS  T
%block kgrid_MonkhorstPack
4       0       0       0.0
0       4       0       0.0
0       0       4       0.0
%endblock kgrid_MonkhorstPack
AtomCoorFormatOut Ang
BlockSize 1
#ProcessorY 12
Diag.ParallelOverK   T
Diag.DivideAndConquer F
MeshCutoff   300 Ry
SCF.FreeE.Tolerance 1E-3 eV
SCF.EDM.Tolerance   5E-3 eV
DM.Tolerance  1E-3
DM.Require.Energy.Convergence T
DM.NumberPulay 4
#XC.Functional GGA
#CX.Authors    PBE
UseSaveData        F
SolutionMethod     diagon
MD.TypeOfRun       CG
MD.VariableCell    F
MD.NumCGsteps      00
MD.MaxCGDispl      0.200000 Bohr
#MD.MaxStressTol    1.000000 GPa
#MD.MaxForceTol     0.010000 eV/Ang
WriteMDHistory T
WriteCoorStep T
WriteForces T
WriteCoorStep    T
WriteEigenValues T
WriteDM    F
MM.UnitsDistance Ang  # what this program prints out DO NOT CHANGE
MM.UnitsEnergy    eV  # what this program prints out DO NOT CHANGE
MM.Grimme.S6     0.75 # Grimme-paper for PBE (correct for your functional)
MM.Grimme.D     20.   # Grimme-paper (correct for your functional)
%block MM.Potentials
  1   1 Grimme     18.14      2.904 # C, 10.1002/jcc.20495
%endblock MM.Potentials
#%block ProjectedDensityOfStates
# -200.0  120.0  0.4  12800  eV
#%endblock ProjectedDensityOfStates
************************** End of input data file *****************************

reinit: -----------------------------------------------------------------------
reinit: System Name: graphite_scf
reinit: -----------------------------------------------------------------------
reinit: System Label: graphite_scf
reinit: -----------------------------------------------------------------------
Reading two-body potentials
Grimme - two-body potential between 1 and 1

initatom: Reading input for the pseudopotentials and atomic orbitals ----------
Species number:   1 Atomic number:    6 Label: C-gga

Ground state valence configuration:   2s02  2p02
Reading pseudopotential information in formatted form from C-gga.psf

Valence configuration for pseudopotential generation:
2s( 2.00) rc: 1.56
2p( 2.00) rc: 1.56
3d( 0.00) rc: 1.56
4f( 0.00) rc: 1.56
relmxkb: Read Max KB Ang. Momentum=    2 for species C-gga

<basis_specs>
===============================================================================
C-gga                Z=   6    Mass=  12.010        Charge= 0.17977+309
Lmxo=1 Lmxkb= 2    BasisType=split      Semic=F
L=0  Nsemic=0  Cnfigmx=2
          i=1  nzeta=1  polorb=0  (2s)
            splnorm:   0.15000    
               vcte:    0.0000    
               rinn:    0.0000    
               qcoe:    0.0000    
               qyuk:    0.0000    
               qwid:   0.10000E-01
                rcs:    0.0000    
            lambdas:    1.0000    
L=1  Nsemic=0  Cnfigmx=2
          i=1  nzeta=1  polorb=0  (2p)
            splnorm:   0.15000    
               vcte:    0.0000    
               rinn:    0.0000    
               qcoe:    0.0000    
               qyuk:    0.0000    
               qwid:   0.10000E-01
                rcs:    0.0000    
            lambdas:    1.0000    
-------------------------------------------------------------------------------
L=0  Nkbl=1  erefs: 0.17977+309
L=1  Nkbl=1  erefs: 0.17977+309
L=2  Nkbl=1  erefs: 0.17977+309
===============================================================================
</basis_specs>

atom: Called for C-gga                 (Z =   6)

read_vps: Pseudopotential generation method:
read_vps: ATM 3.2.2 Troullier-Martins                       
Valence charge for ps generation:    4.00000

xc_check: Exchange-correlation functional:
xc_check: Ceperley-Alder
xc_check: WARNING: Pseudopotential generated with GGA PBE functional
V l=0 = -2*Zval/r beyond r=  1.5227
V l=1 = -2*Zval/r beyond r=  1.5227
V l=2 = -2*Zval/r beyond r=  1.5227
All V_l potentials equal beyond r=  1.4851
This should be close to max(r_c) in ps generation
All pots = -2*Zval/r beyond r=  1.5227

VLOCAL1: 99.0% of the norm of Vloc inside     19.682 Ry
VLOCAL1: 99.9% of the norm of Vloc inside     44.856 Ry
atom: Maximum radius for 4*pi*r*r*local-pseudopot. charge    1.79142
atom: Maximum radius for r*vlocal+2*Zval:    1.54183
GHOST: No ghost state for L =  0
GHOST: No ghost state for L =  1
GHOST: No ghost state for L =  2

KBgen: Kleinman-Bylander projectors: 
   l= 0   rc=  1.661951   el= -0.994756   Ekb=  5.296364   kbcos=  0.313951
   l= 1   rc=  1.661951   el= -0.376633   Ekb= -4.104879   kbcos= -0.344765
   l= 2   rc=  1.747182   el=  0.002326   Ekb= -1.006421   kbcos= -0.008606

KBgen: Total number of Kleinman-Bylander projectors:    9
atom: -------------------------------------------------------------------------

atom: SANKEY-TYPE ORBITALS:

SPLIT: Orbitals with angular momentum L= 0

SPLIT: Basis orbitals for state 2s

SPLIT: PAO cut-off radius determined from an
SPLIT: energy shift=  0.000735 Ry

   izeta = 1
                 lambda =    1.000000
                     rc =    5.948690
                 energy =   -0.994108
                kinetic =    0.809152
    potential(screened) =   -1.803260
       potential(ionic) =   -5.360717

SPLIT: Orbitals with angular momentum L= 1

SPLIT: Basis orbitals for state 2p

SPLIT: PAO cut-off radius determined from an
SPLIT: energy shift=  0.000735 Ry

   izeta = 1
                 lambda =    1.000000
                     rc =    7.638387
                 energy =   -0.375915
                kinetic =    2.245823
    potential(screened) =   -2.621738
       potential(ionic) =   -5.993382
atom: Total number of Sankey-type orbitals:  4

atm_pop: Valence configuration (for local Pseudopot. screening):
 2s( 2.00)                                                            
 2p( 2.00)                                                            
Vna: chval, zval:    4.00000   4.00000

Vna:  Cut-off radius for the neutral-atom potential:   7.638387

atom: _________________________________________________________________________

prinput: Basis input ----------------------------------------------------------

PAO.BasisType split     

%block ChemicalSpeciesLabel
    1    6 C-gga                   # Species index, atomic number, species label
%endblock ChemicalSpeciesLabel

%block PAO.Basis                 # Define Basis set
C-gga                 2                    # Species label, number of l-shells
 n=2   0   1                         # n, l, Nzeta 
   5.949   
   1.000   
 n=2   1   1                         # n, l, Nzeta 
   7.638   
   1.000   
%endblock PAO.Basis

prinput: ----------------------------------------------------------------------

coor:   Atomic-coordinates input format  =     Cartesian coordinates
coor:                                          (in Angstroms)

siesta: Atomic coordinates (Bohr) and species
siesta:      0.00000   0.00000   3.48754  1        1
siesta:      0.00000   0.00000  10.46261  1        2
siesta:     -2.32814   4.03246   3.48754  1        3
siesta:     -4.65629   8.06493  10.46261  1        4
siesta:      4.65629   8.06493   3.48754  1        5
siesta:      2.32814   4.03246  10.46261  1        6
siesta:      4.65629   0.00000   3.48754  1        7
siesta:      9.31257   0.00000  10.46261  1        8
siesta:      4.65629   0.00000  10.46261  1        9
siesta:      9.31257   0.00000   3.48754  1       10
siesta:      4.65629   8.06493  10.46261  1       11
siesta:      2.32814   4.03246   3.48754  1       12
siesta:     -2.32814   4.03246  10.46261  1       13
siesta:     -4.65629   8.06493   3.48754  1       14
siesta:      0.00000   8.06493   3.48754  1       15
siesta:      6.98443   4.03246  10.46261  1       16
siesta:      6.98443   4.03246   3.48754  1       17
siesta:      0.00000   8.06493  10.46261  1       18
siesta:      0.00000   2.68831   3.48754  1       19
siesta:      6.98443   9.40908  10.46261  1       20
siesta:      4.65629  10.75324   3.48754  1       21
siesta:      2.32814   1.34415  10.46261  1       22
siesta:     -4.65629  10.75324   3.48754  1       23
siesta:     11.64072   1.34415  10.46261  1       24
siesta:     -2.32814   6.72077   3.48754  1       25
siesta:      9.31257   5.37662  10.46261  1       26
siesta:      2.32815   6.72077   3.48754  1       27
siesta:      4.65628   5.37662  10.46261  1       28
siesta:     -0.00000  10.75324   3.48754  1       29
siesta:      6.98443   1.34415  10.46261  1       30
siesta:      4.65629   2.68831   3.48754  1       31
siesta:      2.32814   9.40908  10.46261  1       32
siesta:      9.31258   2.68831   3.48754  1       33
siesta:     -2.32815   9.40908  10.46261  1       34
siesta:      6.98443   6.72077   3.48754  1       35
siesta:      0.00000   5.37662  10.46261  1       36

siesta: System type = bulk      

initatomlists: Number of atoms, orbitals, and projectors:     36   144   324

siesta: ******************** Simulation parameters ****************************
siesta:
siesta: The following are some of the parameters of the simulation.
siesta: A complete list of the parameters used, including default values,
siesta: can be found in file out.fdf
siesta:
redata: Spin configuration                          = none
redata: Number of spin components                   = 1
redata: Time-Reversal Symmetry                      = T
redata: Spin spiral                                 = F
redata: Long output                                 =   F
redata: Number of Atomic Species                    =        1
redata: Charge density info will appear in .RHO file
redata: Write Mulliken Pop.                         = NO
redata: Matel table size (NRTAB)                    =     1024
redata: Mesh Cutoff                                 =   300.0000 Ry
redata: Net charge of the system                    =     0.0000 |e|
redata: Min. number of SCF Iter                     =        0
redata: Max. number of SCF Iter                     =     1000
redata: SCF convergence failure will abort job
redata: SCF mix quantity                            = Hamiltonian
redata: Mix DM or H after convergence               =   F
redata: Recompute H after scf cycle                 =   F
redata: Mix DM in first SCF step                    =   T
redata: Write Pulay info on disk                    =   F
redata: New DM Occupancy tolerance                  = 0.000000000001
redata: No kicks to SCF
redata: DM Mixing Weight for Kicks                  =     0.5000
redata: Require Harris convergence for SCF          =   F
redata: Harris energy tolerance for SCF             =     0.000100 eV
redata: Require DM convergence for SCF              =   T
redata: DM tolerance for SCF                        =     0.001000
redata: Require EDM convergence for SCF             =   F
redata: EDM tolerance for SCF                       =     0.005000 eV
redata: Require H convergence for SCF               =   T
redata: Hamiltonian tolerance for SCF               =     0.001000 eV
redata: Require (free) Energy convergence for SCF   =   T
redata: (free) Energy tolerance for SCF             =     0.001000 eV
redata: Using Saved Data (generic)                  =   F
redata: Use continuation files for DM               =   F
redata: Neglect nonoverlap interactions             =   F
redata: Method of Calculation                       = Diagonalization
redata: Electronic Temperature                      =   299.9869 K
redata: Fix the spin of the system                  =   F
redata: Dynamics option                             = Single-point calculation
mix.SCF: Pulay mixing                            = Pulay
mix.SCF:    Variant                              = stable
mix.SCF:    History steps                        = 4
mix.SCF:    Linear mixing weight                 =     0.250000
mix.SCF:    Mixing weight                        =     0.250000
mix.SCF:    SVD condition                        = 0.1000E-07
redata: ***********************************************************************

%block SCF.Mixers
  Pulay
%endblock SCF.Mixers

%block SCF.Mixer.Pulay
  # Mixing method
  method pulay
  variant stable

  # Mixing options
  weight 0.2500
  weight.linear 0.2500
  history 4
%endblock SCF.Mixer.Pulay

DM_history_depth set to one: no extrapolation allowed by default for geometry relaxation
Size of DM history Fstack: 1
Total number of electrons:   144.000000
Total ionic charge:   144.000000

* ProcessorY, Blocksize:    4   1


* Orbital distribution balance (max,min):     8     7

k-point displ. along   1 input, could be:     0.00    0.50
k-point displ. along   2 input, could be:     0.00    0.50
k-point displ. along   3 input, could be:     0.00    0.50
 Kpoints in:           48 . Kpoints trimmed:           44

siesta: k-grid: Number of k-points =    44
siesta: k-grid: Cutoff (effective) =    14.764 Ang
siesta: k-grid: Supercell and displacements
siesta: k-grid:    4   0   0      0.000
siesta: k-grid:    0   4   0      0.000
siesta: k-grid:    0   0   4      0.000

diag: Algorithm                                     = Expert
diag: Parallel over k                               =   T
diag: Use parallel 2D distribution                  =   T
diag: Parallel block-size                           = 1
diag: Parallel distribution                         =     4 x     5
diag: Used triangular part                          = Lower
diag: Absolute tolerance                            =  0.100E-15
diag: Orthogonalization factor                      =  0.100E-05
diag: Memory factor                                 =  1.0000

superc: Internal auxiliary supercell:     5 x     5 x     3  =      75
superc: Number of atoms, orbitals, and projectors:   2700  10800  24300


ts: **************************************************************
ts: Save H and S matrices                           =    F
ts: Save DM and EDM matrices                        =    F
ts: Only save the overlap matrix S                  =    F
ts: **************************************************************

************************ Begin: TS CHECKS AND WARNINGS ************************
************************ End: TS CHECKS AND WARNINGS **************************


                     ====================================
                        Single-point calculation
                     ====================================

outcoor: Atomic coordinates (Ang):                          
    0.00000000    0.00000000    1.84552500   1       1  C-gga
    0.00000000    0.00000000    5.53657500   1       2  C-gga
   -1.23200000    2.13388659    1.84552500   1       3  C-gga
   -2.46400000    4.26777319    5.53657500   1       4  C-gga
    2.46400000    4.26777319    1.84552500   1       5  C-gga
    1.23200000    2.13388659    5.53657500   1       6  C-gga
    2.46400000    0.00000000    1.84552500   1       7  C-gga
    4.92800000    0.00000000    5.53657500   1       8  C-gga
    2.46400000    0.00000000    5.53657500   1       9  C-gga
    4.92800000    0.00000000    1.84552500   1      10  C-gga
    2.46400000    4.26777319    5.53657500   1      11  C-gga
    1.23200000    2.13388659    1.84552500   1      12  C-gga
   -1.23200000    2.13388659    5.53657500   1      13  C-gga
   -2.46400000    4.26777319    1.84552500   1      14  C-gga
    0.00000000    4.26777319    1.84552500   1      15  C-gga
    3.69600000    2.13388659    5.53657500   1      16  C-gga
    3.69600000    2.13388659    1.84552500   1      17  C-gga
    0.00000000    4.26777319    5.53657500   1      18  C-gga
    0.00000000    1.42258964    1.84552500   1      19  C-gga
    3.69600000    4.97907014    5.53657500   1      20  C-gga
    2.46400123    5.69036496    1.84552500   1      21  C-gga
    1.23199877    0.71129482    5.53657500   1      22  C-gga
   -2.46400123    5.69036496    1.84552500   1      23  C-gga
    6.16000123    0.71129482    5.53657500   1      24  C-gga
   -1.23200000    3.55647624    1.84552500   1      25  C-gga
    4.92800000    2.84518355    5.53657500   1      26  C-gga
    1.23200123    3.55647837    1.84552500   1      27  C-gga
    2.46399877    2.84518142    5.53657500   1      28  C-gga
   -0.00000123    5.69036496    1.84552500   1      29  C-gga
    3.69600123    0.71129482    5.53657500   1      30  C-gga
    2.46400000    1.42258964    1.84552500   1      31  C-gga
    1.23200000    4.97907014    5.53657500   1      32  C-gga
    4.92800123    1.42259177    1.84552500   1      33  C-gga
   -1.23200123    4.97906801    5.53657500   1      34  C-gga
    3.69599877    3.55647837    1.84552500   1      35  C-gga
    0.00000123    2.84518142    5.53657500   1      36  C-gga

superc: Internal auxiliary supercell:     5 x     5 x     3  =      75
superc: Number of atoms, orbitals, and projectors:   2700  10800  24300

outcell: Unit cell vectors (Ang):
        7.392000    0.000000    0.000000
       -3.696000    6.401660    0.000000
        0.000000    0.000000    7.382100

outcell: Cell vector modules (Ang)   :    7.392000    7.392000    7.382100
outcell: Cell angles (23,13,12) (deg):     90.0000     90.0000    120.0000
outcell: Cell volume (Ang**3)        :    349.3289
<dSpData1D:S at geom step 0
  <sparsity:sparsity for geom step 0
    nrows_g=144 nrows=8 sparsity=.3383 nnzs=7016, refcount: 7>
  <dData1D:(new from dSpData1D) n=7016, refcount: 1>
refcount: 1>
new_DM -- step:     1
Initializing Density Matrix...
DM filled with atomic data:
<dSpData2D:DM initialized from atoms
  <sparsity:sparsity for geom step 0
    nrows_g=144 nrows=8 sparsity=.3383 nnzs=7016, refcount: 8>
  <dData2D:DM n=7016 m=1, refcount: 1>
refcount: 1>
No. of atoms with KB's overlaping orbs in proc 0. Max # of overlaps:     110     198
New grid distribution:   1
           1       1:   36    1:    9    1:    8
           2       1:   36    1:    9    9:   16
           3       1:   36    1:    9   17:   24
           4       1:   36    1:    9   25:   32
           5       1:   36    1:    9   33:   40
           6       1:   36   10:   18    1:    8
           7       1:   36   10:   18    9:   16
           8       1:   36   10:   18   17:   24
           9       1:   36   10:   18   25:   32
          10       1:   36   10:   18   33:   40
          11       1:   36   19:   27    1:    8
          12       1:   36   19:   27    9:   16
          13       1:   36   19:   27   17:   24
          14       1:   36   19:   27   25:   32
          15       1:   36   19:   27   33:   40
          16       1:   36   28:   36    1:    8
          17       1:   36   28:   36    9:   16
          18       1:   36   28:   36   17:   24
          19       1:   36   28:   36   25:   32
          20       1:   36   28:   36   33:   40

InitMesh: MESH =    72 x    72 x    80 =      414720
InitMesh: (bp) =    36 x    36 x    40 =       51840
InitMesh: Mesh cutoff (required, used) =   300.000   324.580 Ry
ExtMesh (bp) on 0 =   128 x   101 x    96 =     1241088
New grid distribution:   2
           1       1:   15   19:   36   31:   40
           2       1:   15    1:   18   11:   20
           3       1:   14    1:   18   31:   40
           4       1:   14    1:   18   21:   30
           5      15:   36    1:    9   27:   40
           6       1:   15    1:   18    1:   10
           7      16:   36   10:   18    7:   20
           8      15:   36    1:   18   21:   26
           9      16:   36    1:    9    7:   20
          10      15:   36   10:   18   27:   40
          11      16:   36   19:   36    1:    6
          12      16:   36   19:   27    7:   20
          13      16:   36    1:   18    1:    6
          14       1:   15   19:   36   21:   30
          15      16:   36   19:   27   27:   40
          16       1:   15   19:   36    1:   10
          17       1:   15   19:   36   11:   20
          18      16:   36   28:   36    7:   20
          19      16:   36   19:   36   21:   26
          20      16:   36   28:   36   27:   40
New grid distribution:   3
           1       1:   15    1:   18    1:   10
           2      16:   36   19:   27    8:   20
           3      16:   36    1:   18   21:   27
           4       1:   15    1:   18   21:   30
           5       1:   15   19:   36   31:   40
           6      16:   36   10:   18   28:   40
           7       1:   15    1:   18   11:   20
           8      16:   36   10:   18    8:   20
           9      16:   36    1:    9   28:   40
          10       1:   15    1:   18   31:   40
          11      16:   36   19:   36    1:    7
          12       1:   15   19:   36   11:   20
          13      16:   36   19:   36   21:   27
          14      16:   36    1:    9    8:   20
          15      16:   36   19:   27   28:   40
          16       1:   15   19:   36    1:   10
          17      16:   36    1:   18    1:    7
          18      16:   36   28:   36    8:   20
          19       1:   15   19:   36   21:   30
          20      16:   36   28:   36   28:   40
Setting up quadratic distribution...
ExtMesh (bp) on 0 =   107 x   110 x    98 =     1153460
PhiOnMesh: Number of (b)points on node 0 =                 2700
PhiOnMesh: nlist on node 0 =               282499

stepf: Fermi-Dirac step function

siesta: Program's energy decomposition (eV):
siesta: Ebs     =     -2576.486050
siesta: Eions   =      9434.507561
siesta: Ena     =      2270.342147
siesta: Ekin    =      3599.098674
siesta: Enl     =      -335.534246
siesta: Eso     =         0.000000
siesta: Edftu   =         0.000000
siesta: DEna    =        14.168575
siesta: DUscf   =         2.634699
siesta: DUext   =         0.000000
siesta: Exc     =     -1625.168040
siesta: eta*DQ  =         0.000000
siesta: Emadel  =         0.000000
siesta: Emeta   =         0.000000
siesta: Emolmec =        -3.628066
siesta: Ekinion =         0.000000
siesta: Eharris =     -5362.569857
siesta: Etot    =     -5512.593818
siesta: FreeEng =     -5512.605027

        iscf     Eharris(eV)        E_KS(eV)     FreeEng(eV)     dDmax    Ef(eV) dHmax(eV)
   scf:    1    -5362.569857    -5512.593818    -5512.605027  1.338162 -8.289153  0.077833
timer: Routine,Calls,Time,% = IterSCF        1       1.134  47.25
   scf:    2    -5512.597097    -5512.595466    -5512.606673  0.000625 -8.298981  0.058196
   scf:    3    -5512.599447    -5512.597480    -5512.608686  0.001899 -8.330578  0.002359
   scf:    4    -5512.597486    -5512.597486    -5512.608696  0.000270 -8.331448  0.000781

SCF Convergence by FreeE+DM+H criterion
|FreeE_i-FreeE_(i-1)| (eV) <     0.00100000
max |DM_out - DM_in|         :     0.0002701065
max |H_out - H_in|      (eV) :     0.0007812618
SCF cycle converged after 4 iterations

Using DM_out to compute the final energy and forces
No. of atoms with KB's overlaping orbs in proc 0. Max # of overlaps:     110     198

MM-Stress (kbar):        8.09        8.09       30.91        0.00       -0.00        0.00

siesta: E_KS(eV) =            -5512.5975

siesta: E_KS - E_eggbox =     -5512.5975

siesta: Atomic forces (eV/Ang):
     1    0.000000   -0.000000   -0.000000
     2   -0.000000   -0.000000   -0.000000
     3    0.000075   -0.000056   -0.000000
     4   -0.000075    0.000056   -0.000000
     5    0.000011    0.000093   -0.000000
     6   -0.000011   -0.000093   -0.000000
     7   -0.000086   -0.000037   -0.000000
     8    0.000086    0.000037   -0.000000
     9   -0.000015   -0.000013   -0.000000
    10    0.000015    0.000012   -0.000000
    11   -0.000003    0.000019   -0.000000
    12    0.000003   -0.000019    0.000000
    13    0.000018   -0.000007   -0.000000
    14   -0.000018    0.000007   -0.000000
    15   -0.000000   -0.000000    0.000000
    16   -0.000000    0.000000   -0.000000
    17    0.000000    0.000000   -0.000000
    18    0.000000   -0.000000   -0.000000
    19    0.000007    0.000130   -0.000000
    20   -0.000007   -0.000130    0.000000
    21   -0.000116   -0.000058    0.000000
    22    0.000116    0.000058    0.000000
    23    0.000109   -0.000071    0.000000
    24   -0.000109    0.000071   -0.000000
    25    0.000009    0.000115    0.000000
    26   -0.000009   -0.000116    0.000000
    27   -0.000104   -0.000050    0.000000
    28    0.000104    0.000050    0.000000
    29    0.000095   -0.000065   -0.000000
    30   -0.000095    0.000065    0.000000
    31    0.000009    0.000115    0.000000
    32   -0.000009   -0.000115    0.000000
    33   -0.000104   -0.000050    0.000000
    34    0.000104    0.000050   -0.000000
    35    0.000095   -0.000065    0.000000
    36   -0.000095    0.000064    0.000000
----------------------------------------
   Tot   -0.000000    0.000000   -0.000000
----------------------------------------
   Max    0.000130
   Res    0.000054    sqrt( Sum f_i^2 / 3N )
----------------------------------------
   Max    0.000130    constrained

Stress tensor Voigt[x,y,z,yz,xz,xy] (kbar):     -368.55     -368.55      180.14       -0.00       -0.00        0.00
(Free)E + p*V (eV/cell)    -5472.1313
Target enthalpy (eV/cell)    -5512.6087

siesta: Eigenvalues (eV):
  ik is       eps
   1  1  -27.6087  -27.5937  -26.9098  -26.9097  -26.8749  -26.8749  -25.0245  -25.0245  -24.8712  -24.8712
         -23.9057  -23.7180  -23.4737  -23.4737  -23.3264  -23.3264  -22.8195  -22.7503  -21.4052  -21.2706
  -21.2233  -21.2233  -21.0589  -21.0589  -19.7567  -19.7173  -18.7601  -18.7601  -18.7146  -18.7146
  -17.9394  -17.9229  -17.4596  -17.4490  -16.7638  -16.7638  -16.7255  -16.7255  -16.3533  -16.3533
  -16.3383  -16.3383  -15.9696  -15.9696  -15.9521  -15.9521  -14.6594  -14.6594  -14.6186  -14.6186
  -14.4035  -14.3933  -14.3798  -14.2199  -13.8689  -13.8689  -13.7427  -13.7124  -13.6269  -13.6269
  -12.2328  -12.2328  -11.8093  -11.8093  -11.1139  -10.8505  -10.8504  -10.6284  -10.5059  -10.5059
  -10.1846   -9.9243   -6.6732   -6.5435   -6.1178   -6.1178   -5.7877   -5.7877   -5.5892   -5.3308
   -3.9040   -3.9040   -3.6678   -3.6678   -0.3909   -0.3909   -0.2673   -0.2673    1.1046    1.1879
    1.2085    1.2285    1.2285    1.3270    1.3786    1.3786    1.6643    1.6643    1.7492    1.7492
    2.0362    2.0511    3.0874    3.1938    3.3411    3.3411    3.4083    3.4083    3.7096    3.7096
    3.7415    3.7415    4.9770    4.9856    5.2185    5.2649    6.1796    6.1796    6.1910    6.1910
    6.6953    6.8143    7.2150    7.2150    7.2357    7.2357    9.2815    9.3935   10.1107   10.1107
   10.1614   10.1614   11.8673   11.8674   11.8784   11.8784   13.0446   13.0446   13.1303   13.1303
   13.5626   13.5681   13.9780   14.0147
   2  1  -27.9860  -27.9458  -26.5782  -26.5199  -25.9360  -25.9360  -25.8343  -25.8343  -24.7389  -24.7389
         -24.5779  -24.5779  -24.1964  -24.0286  -22.7000  -22.7000  -22.5430  -22.5430  -20.9440  -20.9440
  -20.8487  -20.8487  -20.5542  -20.4092  -19.6553  -19.6553  -19.5536  -19.5536  -18.5400  -18.5400
  -18.5108  -18.5108  -17.8151  -17.8151  -17.7776  -17.7776  -16.8314  -16.7955  -16.0575  -16.0575
  -16.0351  -16.0351  -15.8032  -15.7803  -15.4780  -15.4780  -15.4444  -15.4444  -14.7040  -14.6731
  -14.6701  -14.5111  -13.6014  -13.4152  -13.3921  -13.3278  -13.1256  -13.1004  -13.0604  -13.0604
  -12.7227  -12.7227  -11.9860  -11.9860  -11.5576  -11.5576  -11.5075  -11.0919   -9.8396   -9.8396
   -9.4357   -9.4357   -7.0905   -7.0905   -6.8525   -6.8525   -5.3143   -4.9084   -4.4712   -4.4712
   -4.1224   -4.1224   -2.3503   -2.3503   -2.1290   -2.1290   -1.1051   -0.9282    0.5457    0.6050
    0.6500    0.7041    0.9215    0.9700    1.1435    1.1546    1.3685    1.3685    1.4986    1.4986
    1.5861    1.5861    1.6511    1.6511    1.9226    1.9927    4.3163    4.3575    5.3254    5.3254
    5.3384    5.3384    5.7604    5.7656    6.1757    6.1757    6.2224    6.2224    7.5588    7.6262
    7.9184    7.9184    8.0518    8.0518    8.6024    8.6024    8.6332    8.6332    9.6024    9.6024
    9.6298    9.6298   10.1704   10.1707   11.7283   11.7283   11.7902   11.7902   11.9513   12.0764
   14.4645   14.4645   14.4728   14.4728
   3  1  -27.9860  -27.9458  -26.5782  -26.5199  -25.9360  -25.9360  -25.8343  -25.8343  -24.7389  -24.7389
         -24.5779  -24.5779  -24.1964  -24.0286  -22.7000  -22.7000  -22.5430  -22.5430  -20.9440  -20.9440
  -20.8487  -20.8487  -20.5542  -20.4092  -19.6553  -19.6553  -19.5536  -19.5536  -18.5400  -18.5400
  -18.5108  -18.5108  -17.8151  -17.8151  -17.7776  -17.7776  -16.8314  -16.7955  -16.0575  -16.0575
  -16.0351  -16.0351  -15.8032  -15.7803  -15.4780  -15.4780  -15.4444  -15.4444  -14.7040  -14.6731
  -14.6701  -14.5111  -13.6014  -13.4152  -13.3921  -13.3278  -13.1256  -13.1004  -13.0604  -13.0604
  -12.7227  -12.7227  -11.9860  -11.9860  -11.5576  -11.5576  -11.5075  -11.0919   -9.8396   -9.8396
   -9.4357   -9.4357   -7.0905   -7.0905   -6.8525   -6.8525   -5.3143   -4.9084   -4.4712   -4.4712
   -4.1224   -4.1224   -2.3503   -2.3503   -2.1290   -2.1290   -1.1051   -0.9282    0.5457    0.6050
    0.6500    0.7041    0.9215    0.9700    1.1435    1.1546    1.3685    1.3685    1.4986    1.4986
    1.5861    1.5861    1.6511    1.6511    1.9226    1.9927    4.3163    4.3575    5.3254    5.3254
    5.3384    5.3384    5.7604    5.7656    6.1757    6.1757    6.2224    6.2224    7.5588    7.6262
    7.9184    7.9184    8.0518    8.0518    8.6024    8.6024    8.6332    8.6332    9.6024    9.6024
    9.6298    9.6298   10.1704   10.1707   11.7283   11.7283   11.7902   11.7902   11.9513   12.0764
   14.4645   14.4645   14.4728   14.4728
   4  1  -27.6087  -27.5937  -26.9098  -26.9097  -26.8749  -26.8749  -25.0245  -25.0245  -24.8712  -24.8712
         -23.9057  -23.7180  -23.4737  -23.4737  -23.3264  -23.3264  -22.8195  -22.7503  -21.4052  -21.2706
  -21.2233  -21.2233  -21.0589  -21.0589  -19.7567  -19.7173  -18.7601  -18.7601  -18.7146  -18.7146
  -17.9394  -17.9229  -17.4596  -17.4490  -16.7638  -16.7638  -16.7255  -16.7255  -16.3533  -16.3533
  -16.3383  -16.3383  -15.9696  -15.9696  -15.9521  -15.9521  -14.6594  -14.6594  -14.6186  -14.6186
  -14.4035  -14.3933  -14.3798  -14.2199  -13.8689  -13.8689  -13.7427  -13.7124  -13.6269  -13.6269
  -12.2328  -12.2328  -11.8093  -11.8093  -11.1139  -10.8505  -10.8504  -10.6284  -10.5059  -10.5059
  -10.1846   -9.9243   -6.6732   -6.5435   -6.1178   -6.1178   -5.7877   -5.7877   -5.5892   -5.3308
   -3.9040   -3.9040   -3.6678   -3.6678   -0.3909   -0.3909   -0.2673   -0.2673    1.1046    1.1879
    1.2085    1.2285    1.2285    1.3270    1.3786    1.3786    1.6643    1.6643    1.7492    1.7492
    2.0362    2.0511    3.0874    3.1938    3.3411    3.3411    3.4083    3.4083    3.7096    3.7096
    3.7415    3.7415    4.9770    4.9856    5.2185    5.2649    6.1796    6.1796    6.1910    6.1910
    6.6953    6.8143    7.2150    7.2150    7.2357    7.2357    9.2815    9.3935   10.1107   10.1107
   10.1614   10.1614   11.8673   11.8674   11.8784   11.8784   13.0446   13.0446   13.1303   13.1303
   13.5626   13.5681   13.9780   14.0147
   5  1  -27.9860  -27.9458  -26.5782  -26.5199  -25.9360  -25.9360  -25.8343  -25.8343  -24.7389  -24.7389
         -24.5779  -24.5779  -24.1964  -24.0286  -22.7000  -22.7000  -22.5430  -22.5430  -20.9440  -20.9440
  -20.8487  -20.8487  -20.5542  -20.4092  -19.6553  -19.6553  -19.5536  -19.5536  -18.5400  -18.5400
  -18.5108  -18.5108  -17.8151  -17.8151  -17.7776  -17.7776  -16.8314  -16.7955  -16.0575  -16.0575
  -16.0351  -16.0351  -15.8032  -15.7803  -15.4780  -15.4780  -15.4444  -15.4444  -14.7040  -14.6731
  -14.6701  -14.5111  -13.6014  -13.4152  -13.3921  -13.3278  -13.1256  -13.1004  -13.0604  -13.0604
  -12.7227  -12.7227  -11.9860  -11.9860  -11.5576  -11.5576  -11.5075  -11.0919   -9.8396   -9.8396
   -9.4357   -9.4357   -7.0905   -7.0905   -6.8525   -6.8525   -5.3143   -4.9084   -4.4712   -4.4712
   -4.1224   -4.1224   -2.3503   -2.3503   -2.1290   -2.1290   -1.1051   -0.9282    0.5457    0.6050
    0.6500    0.7041    0.9215    0.9700    1.1435    1.1546    1.3685    1.3685    1.4986    1.4986
    1.5861    1.5861    1.6511    1.6511    1.9226    1.9927    4.3163    4.3575    5.3254    5.3254
    5.3384    5.3384    5.7604    5.7656    6.1757    6.1757    6.2224    6.2224    7.5588    7.6262
    7.9184    7.9184    8.0518    8.0518    8.6024    8.6024    8.6332    8.6332    9.6024    9.6024
    9.6298    9.6298   10.1704   10.1707   11.7283   11.7283   11.7902   11.7902   11.9513   12.0764
   14.4645   14.4645   14.4728   14.4728
   6  1  -28.1770  -28.1244  -25.4735  -25.4735  -25.4735  -25.4735  -25.4735  -25.4735  -25.3458  -25.3458
         -25.3458  -25.3458  -25.3458  -25.3458  -21.6778  -21.6778  -21.6118  -21.6118  -21.6118  -21.6118
  -21.5416  -21.5416  -19.0967  -19.0967  -19.0967  -19.0967  -18.7702  -18.7702  -18.7702  -18.7702
  -18.7702  -18.7702  -18.7003  -18.7003  -18.7003  -18.7003  -18.7003  -18.7003  -15.3771  -15.3771
  -15.3771  -15.3771  -15.3770  -15.3770  -15.3501  -15.3501  -15.3501  -15.3501  -15.3501  -15.3501
  -14.8035  -14.6552  -12.8003  -12.8003  -12.7813  -12.7813  -12.6601  -12.6601  -12.6601  -12.6601
  -12.6601  -12.6601  -12.2823  -12.2823  -12.2823  -12.2823  -12.2823  -12.2823   -8.6123   -8.6123
   -8.3331   -8.3331   -8.3331   -8.3331   -8.0292   -8.0292   -3.2593   -3.2593   -3.2593   -3.2593
   -3.2593   -3.2593   -2.9465   -2.9465   -2.9465   -2.9465   -2.9465   -2.9465    0.3745    0.3745
    0.3884    0.3884    0.7362    0.7362    0.7362    0.7362    0.7362    0.7362    0.8487    0.8487
    0.8487    0.8487    0.8487    0.8487    2.3522    2.4166    3.9767    4.0108    6.9243    6.9243
    7.0283    7.0283    7.0283    7.0283    7.1360    7.1360    8.3129    8.3129    8.3129    8.3129
    8.3129    8.3129    8.3164    8.3164    8.3164    8.3164    8.3164    8.3164    9.9198    9.9198
    9.9198    9.9198    9.9198    9.9198   10.0268   10.0268   10.0268   10.0268   10.0269   10.0269
   14.8226   14.8226   14.8226   14.8226
   7  1  -27.4226  -27.4226  -27.4201  -27.4201  -26.0937  -26.0937  -26.0014  -26.0014  -23.7867  -23.7867
         -23.7867  -23.7867  -23.6055  -23.6055  -23.6055  -23.6055  -23.2200  -23.1556  -21.6279  -21.4650
  -20.3732  -20.3732  -20.3732  -20.3732  -20.2519  -20.2519  -20.2519  -20.2519  -17.2890  -17.2890
  -17.2890  -17.2890  -17.2740  -17.2740  -17.2740  -17.2740  -17.2241  -17.2241  -17.2208  -17.2208
  -15.9479  -15.9267  -15.8301  -15.8301  -15.7714  -15.7714  -14.9341  -14.9341  -14.9051  -14.9051
  -14.2702  -14.2702  -14.0730  -14.0730  -13.8800  -13.8800  -13.8488  -13.8488  -13.1931  -13.1931
  -12.8698  -12.8698  -11.0363  -11.0363  -11.0363  -11.0362  -10.7276  -10.5835  -10.5835  -10.5835
  -10.5835  -10.4867   -6.2739   -5.9702   -5.7748   -5.7748   -5.7748   -5.7748   -5.4693   -5.4693
   -5.4693   -5.4693   -2.0001   -2.0001   -1.8411   -1.8411    0.4728    0.6354    0.7088    0.7088
    0.8062    0.8062    0.8834    0.8834    0.9790    0.9790    3.1481    3.1481    3.1544    3.1544
    3.1545    3.1545    3.1545    3.1545    3.2544    3.2544    3.2544    3.2545    3.5212    3.5212
    3.5588    3.5588    3.6656    3.6656    3.7688    3.7688    5.5413    5.5413    5.5682    5.5683
    8.3853    8.3853    8.3853    8.3853    8.4568    8.4568    8.4568    8.4568    9.6473    9.6473
    9.6632    9.6632   10.8487   10.8504   12.7750   12.9181   13.4109   13.4109   13.4109   13.4109
   13.4414   13.4415   13.4415   13.4415
   8  1  -27.6087  -27.5937  -26.9098  -26.9097  -26.8749  -26.8749  -25.0245  -25.0245  -24.8712  -24.8712
         -23.9057  -23.7180  -23.4737  -23.4737  -23.3264  -23.3264  -22.8195  -22.7503  -21.4052  -21.2706
  -21.2233  -21.2233  -21.0589  -21.0589  -19.7567  -19.7173  -18.7601  -18.7601  -18.7146  -18.7146
  -17.9394  -17.9229  -17.4596  -17.4490  -16.7638  -16.7638  -16.7255  -16.7255  -16.3533  -16.3533
  -16.3383  -16.3383  -15.9696  -15.9696  -15.9521  -15.9521  -14.6594  -14.6594  -14.6186  -14.6186
  -14.4035  -14.3933  -14.3798  -14.2199  -13.8689  -13.8689  -13.7427  -13.7124  -13.6269  -13.6269
  -12.2328  -12.2328  -11.8093  -11.8093  -11.1139  -10.8505  -10.8504  -10.6284  -10.5059  -10.5059
  -10.1846   -9.9243   -6.6732   -6.5435   -6.1178   -6.1178   -5.7877   -5.7877   -5.5892   -5.3308
   -3.9040   -3.9040   -3.6678   -3.6678   -0.3909   -0.3909   -0.2673   -0.2673    1.1046    1.1879
    1.2085    1.2285    1.2285    1.3270    1.3786    1.3786    1.6643    1.6643    1.7492    1.7492
    2.0362    2.0511    3.0874    3.1938    3.3411    3.3411    3.4083    3.4083    3.7096    3.7096
    3.7415    3.7415    4.9770    4.9856    5.2185    5.2649    6.1796    6.1796    6.1910    6.1910
    6.6953    6.8143    7.2150    7.2150    7.2357    7.2357    9.2815    9.3935   10.1107   10.1107
   10.1614   10.1614   11.8673   11.8674   11.8784   11.8784   13.0446   13.0446   13.1303   13.1303
   13.5626   13.5681   13.9780   14.0147
   9  1  -27.6087  -27.5937  -26.9098  -26.9097  -26.8749  -26.8749  -25.0245  -25.0245  -24.8712  -24.8712
         -23.9057  -23.7180  -23.4737  -23.4737  -23.3264  -23.3264  -22.8195  -22.7503  -21.4052  -21.2706
  -21.2233  -21.2233  -21.0589  -21.0589  -19.7567  -19.7173  -18.7601  -18.7601  -18.7146  -18.7146
  -17.9394  -17.9229  -17.4596  -17.4490  -16.7638  -16.7638  -16.7255  -16.7255  -16.3533  -16.3533
  -16.3383  -16.3383  -15.9696  -15.9696  -15.9521  -15.9521  -14.6594  -14.6594  -14.6186  -14.6186
  -14.4035  -14.3933  -14.3798  -14.2199  -13.8689  -13.8689  -13.7427  -13.7124  -13.6269  -13.6269
  -12.2328  -12.2328  -11.8093  -11.8093  -11.1139  -10.8505  -10.8504  -10.6284  -10.5059  -10.5059
  -10.1846   -9.9243   -6.6732   -6.5435   -6.1178   -6.1178   -5.7877   -5.7877   -5.5892   -5.3308
   -3.9040   -3.9040   -3.6678   -3.6678   -0.3909   -0.3909   -0.2673   -0.2673    1.1046    1.1879
    1.2085    1.2285    1.2285    1.3270    1.3786    1.3786    1.6643    1.6643    1.7492    1.7492
    2.0362    2.0511    3.0874    3.1938    3.3411    3.3411    3.4083    3.4083    3.7096    3.7096
    3.7415    3.7415    4.9770    4.9856    5.2185    5.2649    6.1796    6.1796    6.1910    6.1910
    6.6953    6.8143    7.2150    7.2150    7.2357    7.2357    9.2815    9.3935   10.1107   10.1107
   10.1614   10.1614   11.8673   11.8674   11.8784   11.8784   13.0446   13.0446   13.1303   13.1303
   13.5626   13.5681   13.9780   14.0147
  10  1  -27.4226  -27.4226  -27.4201  -27.4201  -26.0937  -26.0937  -26.0014  -26.0014  -23.7867  -23.7867
         -23.7867  -23.7867  -23.6055  -23.6055  -23.6055  -23.6055  -23.2200  -23.1556  -21.6279  -21.4650
  -20.3732  -20.3732  -20.3732  -20.3732  -20.2519  -20.2519  -20.2519  -20.2519  -17.2890  -17.2890
  -17.2890  -17.2890  -17.2740  -17.2740  -17.2740  -17.2740  -17.2241  -17.2241  -17.2208  -17.2208
  -15.9479  -15.9267  -15.8301  -15.8301  -15.7714  -15.7714  -14.9341  -14.9341  -14.9051  -14.9051
  -14.2702  -14.2702  -14.0730  -14.0730  -13.8800  -13.8800  -13.8488  -13.8488  -13.1931  -13.1931
  -12.8698  -12.8698  -11.0363  -11.0363  -11.0363  -11.0362  -10.7276  -10.5835  -10.5835  -10.5835
  -10.5835  -10.4867   -6.2739   -5.9702   -5.7748   -5.7748   -5.7748   -5.7748   -5.4693   -5.4693
   -5.4693   -5.4693   -2.0001   -2.0001   -1.8411   -1.8411    0.4728    0.6354    0.7088    0.7088
    0.8062    0.8062    0.8834    0.8834    0.9790    0.9790    3.1481    3.1481    3.1544    3.1544
    3.1545    3.1545    3.1545    3.1545    3.2544    3.2544    3.2544    3.2545    3.5212    3.5212
    3.5588    3.5588    3.6656    3.6656    3.7688    3.7688    5.5413    5.5413    5.5682    5.5683
    8.3853    8.3853    8.3853    8.3853    8.4568    8.4568    8.4568    8.4568    9.6473    9.6473
    9.6632    9.6632   10.8487   10.8504   12.7750   12.9181   13.4109   13.4109   13.4109   13.4109
   13.4414   13.4415   13.4415   13.4415
  11  1  -27.6087  -27.5937  -26.9098  -26.9097  -26.8749  -26.8749  -25.0245  -25.0245  -24.8712  -24.8712
         -23.9057  -23.7180  -23.4737  -23.4737  -23.3264  -23.3264  -22.8195  -22.7503  -21.4052  -21.2706
  -21.2233  -21.2233  -21.0589  -21.0589  -19.7567  -19.7173  -18.7601  -18.7601  -18.7146  -18.7146
  -17.9394  -17.9229  -17.4596  -17.4490  -16.7638  -16.7638  -16.7255  -16.7255  -16.3533  -16.3533
  -16.3383  -16.3383  -15.9696  -15.9696  -15.9521  -15.9521  -14.6594  -14.6594  -14.6186  -14.6186
  -14.4035  -14.3933  -14.3798  -14.2199  -13.8689  -13.8689  -13.7427  -13.7124  -13.6269  -13.6269
  -12.2328  -12.2328  -11.8093  -11.8093  -11.1139  -10.8505  -10.8504  -10.6284  -10.5059  -10.5059
  -10.1846   -9.9243   -6.6732   -6.5435   -6.1178   -6.1178   -5.7877   -5.7877   -5.5892   -5.3308
   -3.9040   -3.9040   -3.6678   -3.6678   -0.3909   -0.3909   -0.2673   -0.2673    1.1046    1.1879
    1.2085    1.2285    1.2285    1.3270    1.3786    1.3786    1.6643    1.6643    1.7492    1.7492
    2.0362    2.0511    3.0874    3.1938    3.3411    3.3411    3.4083    3.4083    3.7096    3.7096
    3.7415    3.7415    4.9770    4.9856    5.2185    5.2649    6.1796    6.1796    6.1910    6.1910
    6.6953    6.8143    7.2150    7.2150    7.2357    7.2357    9.2815    9.3935   10.1107   10.1107
   10.1614   10.1614   11.8673   11.8674   11.8784   11.8784   13.0446   13.0446   13.1303   13.1303
   13.5626   13.5681   13.9780   14.0147
  12  1  -27.4226  -27.4226  -27.4201  -27.4201  -26.0937  -26.0937  -26.0014  -26.0014  -23.7867  -23.7867
         -23.7867  -23.7867  -23.6055  -23.6055  -23.6055  -23.6055  -23.2200  -23.1556  -21.6279  -21.4650
  -20.3732  -20.3732  -20.3732  -20.3732  -20.2519  -20.2519  -20.2519  -20.2519  -17.2890  -17.2890
  -17.2890  -17.2890  -17.2740  -17.2740  -17.2740  -17.2740  -17.2241  -17.2241  -17.2208  -17.2208
  -15.9479  -15.9267  -15.8301  -15.8301  -15.7714  -15.7714  -14.9341  -14.9341  -14.9051  -14.9051
  -14.2702  -14.2702  -14.0730  -14.0730  -13.8800  -13.8800  -13.8488  -13.8488  -13.1931  -13.1931
  -12.8698  -12.8698  -11.0363  -11.0363  -11.0363  -11.0362  -10.7276  -10.5835  -10.5835  -10.5835
  -10.5835  -10.4867   -6.2739   -5.9702   -5.7748   -5.7748   -5.7748   -5.7748   -5.4693   -5.4693
   -5.4693   -5.4693   -2.0001   -2.0001   -1.8411   -1.8411    0.4728    0.6354    0.7088    0.7088
    0.8062    0.8062    0.8834    0.8834    0.9790    0.9790    3.1481    3.1481    3.1544    3.1544
    3.1545    3.1545    3.1545    3.1545    3.2544    3.2544    3.2544    3.2545    3.5212    3.5212
    3.5588    3.5588    3.6656    3.6656    3.7688    3.7688    5.5413    5.5413    5.5682    5.5683
    8.3853    8.3853    8.3853    8.3853    8.4568    8.4568    8.4568    8.4568    9.6473    9.6473
    9.6632    9.6632   10.8487   10.8504   12.7750   12.9181   13.4109   13.4109   13.4109   13.4109
   13.4414   13.4415   13.4415   13.4415
  13  1  -27.6150  -27.6020  -26.9108  -26.9108  -26.8881  -26.8881  -25.0066  -25.0066  -24.8990  -24.8990
         -23.8809  -23.7483  -23.4525  -23.4525  -23.3481  -23.3481  -22.8070  -22.7576  -21.3906  -21.2947
  -21.2031  -21.2031  -21.0863  -21.0863  -19.7503  -19.7225  -18.7538  -18.7538  -18.7216  -18.7215
  -17.9393  -17.9278  -17.4589  -17.4513  -16.7600  -16.7600  -16.7333  -16.7333  -16.3513  -16.3513
  -16.3407  -16.3407  -15.9678  -15.9678  -15.9557  -15.9557  -14.6560  -14.6560  -14.6278  -14.6278
  -14.3914  -14.3827  -14.3646  -14.2316  -13.8262  -13.8262  -13.7374  -13.7149  -13.6524  -13.6524
  -12.1765  -12.1765  -11.8781  -11.8781  -11.0497  -10.8009  -10.8009  -10.7072  -10.5567  -10.5567
  -10.1433   -9.9582   -6.6695   -6.5760   -6.0840   -6.0840   -5.8491   -5.8491   -5.5517   -5.3692
   -3.8698   -3.8698   -3.7027   -3.7027   -0.3729   -0.3729   -0.2855   -0.2855    1.1148    1.1697
    1.2492    1.2526    1.2526    1.3245    1.3589    1.3590    1.6936    1.6936    1.7498    1.7498
    2.0385    2.0490    3.1046    3.1799    3.3547    3.3547    3.4027    3.4027    3.7189    3.7189
    3.7409    3.7409    4.9783    4.9843    5.2254    5.2582    6.1905    6.1905    6.1972    6.1972
    6.7181    6.8030    7.2191    7.2191    7.2341    7.2341    9.2975    9.3768   10.1188   10.1188
   10.1547   10.1547   11.8694   11.8694   11.8772   11.8772   13.0579   13.0579   13.1186   13.1186
   13.5634   13.5673   13.9833   14.0092
  14  1  -27.9889  -27.9578  -26.5757  -26.5363  -25.9267  -25.9267  -25.8561  -25.8561  -24.7193  -24.7193
         -24.6060  -24.6060  -24.1745  -24.0560  -22.6770  -22.6770  -22.5658  -22.5658  -20.9303  -20.9303
  -20.8627  -20.8627  -20.5356  -20.4327  -19.6422  -19.6422  -19.5700  -19.5700  -18.5380  -18.5380
  -18.5173  -18.5173  -17.8111  -17.8111  -17.7846  -17.7846  -16.8281  -16.8033  -16.0546  -16.0546
  -16.0388  -16.0388  -15.7998  -15.7836  -15.4741  -15.4741  -15.4505  -15.4505  -14.6995  -14.6776
  -14.6301  -14.5099  -13.5583  -13.4118  -13.3954  -13.3636  -13.1219  -13.1041  -13.0124  -13.0124
  -12.7738  -12.7738  -11.9291  -11.9291  -11.6272  -11.6272  -11.4514  -11.1579   -9.7816   -9.7816
   -9.4953   -9.4953   -7.0613   -7.0613   -6.8930   -6.8930   -5.2644   -4.9763   -4.4242   -4.4242
   -4.1770   -4.1770   -2.3186   -2.3186   -2.1620   -2.1620   -1.0799   -0.9547    0.5718    0.6191
    0.6487    0.6843    0.9416    0.9753    1.1451    1.1530    1.3915    1.3915    1.4842    1.4842
    1.6041    1.6041    1.6512    1.6512    1.9333    1.9829    4.3226    4.3518    5.3282    5.3282
    5.3374    5.3374    5.7611    5.7648    6.1894    6.1894    6.2212    6.2212    7.5777    7.6237
    7.9374    7.9374    8.0318    8.0318    8.6107    8.6107    8.6321    8.6321    9.6100    9.6100
    9.6287    9.6287   10.1704   10.1706   11.7407   11.7407   11.7842   11.7842   11.9742   12.0625
   14.4657   14.4657   14.4716   14.4716
  15  1  -27.9889  -27.9578  -26.5757  -26.5363  -25.9267  -25.9267  -25.8561  -25.8561  -24.7193  -24.7193
         -24.6060  -24.6060  -24.1745  -24.0560  -22.6770  -22.6770  -22.5658  -22.5658  -20.9303  -20.9303
  -20.8627  -20.8627  -20.5356  -20.4327  -19.6422  -19.6422  -19.5700  -19.5700  -18.5380  -18.5380
  -18.5173  -18.5173  -17.8111  -17.8111  -17.7846  -17.7846  -16.8281  -16.8033  -16.0546  -16.0546
  -16.0388  -16.0388  -15.7998  -15.7836  -15.4741  -15.4741  -15.4505  -15.4505  -14.6995  -14.6776
  -14.6301  -14.5099  -13.5583  -13.4118  -13.3954  -13.3636  -13.1219  -13.1041  -13.0124  -13.0124
  -12.7738  -12.7738  -11.9291  -11.9291  -11.6272  -11.6272  -11.4514  -11.1579   -9.7816   -9.7816
   -9.4953   -9.4953   -7.0613   -7.0613   -6.8930   -6.8930   -5.2644   -4.9763   -4.4242   -4.4242
   -4.1770   -4.1770   -2.3186   -2.3186   -2.1620   -2.1620   -1.0799   -0.9547    0.5718    0.6191
    0.6487    0.6843    0.9416    0.9753    1.1451    1.1530    1.3915    1.3915    1.4842    1.4842
    1.6041    1.6041    1.6512    1.6512    1.9333    1.9829    4.3226    4.3518    5.3282    5.3282
    5.3374    5.3374    5.7611    5.7648    6.1894    6.1894    6.2212    6.2212    7.5777    7.6237
    7.9374    7.9374    8.0318    8.0318    8.6107    8.6107    8.6321    8.6321    9.6100    9.6100
    9.6287    9.6287   10.1704   10.1706   11.7407   11.7407   11.7842   11.7842   11.9742   12.0625
   14.4657   14.4657   14.4716   14.4716
  16  1  -27.6150  -27.6020  -26.9108  -26.9108  -26.8881  -26.8881  -25.0066  -25.0066  -24.8990  -24.8990
         -23.8809  -23.7483  -23.4525  -23.4525  -23.3481  -23.3481  -22.8070  -22.7576  -21.3906  -21.2947
  -21.2031  -21.2031  -21.0863  -21.0863  -19.7503  -19.7225  -18.7538  -18.7538  -18.7216  -18.7215
  -17.9393  -17.9278  -17.4589  -17.4513  -16.7600  -16.7600  -16.7333  -16.7333  -16.3513  -16.3513
  -16.3407  -16.3407  -15.9678  -15.9678  -15.9557  -15.9557  -14.6560  -14.6560  -14.6278  -14.6278
  -14.3914  -14.3827  -14.3646  -14.2316  -13.8262  -13.8262  -13.7374  -13.7149  -13.6524  -13.6524
  -12.1765  -12.1765  -11.8781  -11.8781  -11.0497  -10.8009  -10.8009  -10.7072  -10.5567  -10.5567
  -10.1433   -9.9582   -6.6695   -6.5760   -6.0840   -6.0840   -5.8491   -5.8491   -5.5517   -5.3692
   -3.8698   -3.8698   -3.7027   -3.7027   -0.3729   -0.3729   -0.2855   -0.2855    1.1148    1.1697
    1.2492    1.2526    1.2526    1.3245    1.3589    1.3590    1.6936    1.6936    1.7498    1.7498
    2.0385    2.0490    3.1046    3.1799    3.3547    3.3547    3.4027    3.4027    3.7189    3.7189
    3.7409    3.7409    4.9783    4.9843    5.2254    5.2582    6.1905    6.1905    6.1972    6.1972
    6.7181    6.8030    7.2191    7.2191    7.2341    7.2341    9.2975    9.3768   10.1188   10.1188
   10.1547   10.1547   11.8694   11.8694   11.8772   11.8772   13.0579   13.0579   13.1186   13.1186
   13.5634   13.5673   13.9833   14.0092
  17  1  -27.9889  -27.9578  -26.5757  -26.5363  -25.9267  -25.9267  -25.8561  -25.8561  -24.7193  -24.7193
         -24.6060  -24.6060  -24.1745  -24.0560  -22.6770  -22.6770  -22.5658  -22.5658  -20.9303  -20.9303
  -20.8627  -20.8627  -20.5356  -20.4327  -19.6422  -19.6422  -19.5700  -19.5700  -18.5380  -18.5380
  -18.5173  -18.5173  -17.8111  -17.8111  -17.7846  -17.7846  -16.8281  -16.8033  -16.0546  -16.0546
  -16.0388  -16.0388  -15.7998  -15.7836  -15.4741  -15.4741  -15.4505  -15.4505  -14.6995  -14.6776
  -14.6301  -14.5099  -13.5583  -13.4118  -13.3954  -13.3636  -13.1219  -13.1041  -13.0124  -13.0124
  -12.7738  -12.7738  -11.9291  -11.9291  -11.6272  -11.6272  -11.4514  -11.1579   -9.7816   -9.7816
   -9.4953   -9.4953   -7.0613   -7.0613   -6.8930   -6.8930   -5.2644   -4.9763   -4.4242   -4.4242
   -4.1770   -4.1770   -2.3186   -2.3186   -2.1620   -2.1620   -1.0799   -0.9547    0.5718    0.6191
    0.6487    0.6843    0.9416    0.9753    1.1451    1.1530    1.3915    1.3915    1.4842    1.4842
    1.6041    1.6041    1.6512    1.6512    1.9333    1.9829    4.3226    4.3518    5.3282    5.3282
    5.3374    5.3374    5.7611    5.7648    6.1894    6.1894    6.2212    6.2212    7.5777    7.6237
    7.9374    7.9374    8.0318    8.0318    8.6107    8.6107    8.6321    8.6321    9.6100    9.6100
    9.6287    9.6287   10.1704   10.1706   11.7407   11.7407   11.7842   11.7842   11.9742   12.0625
   14.4657   14.4657   14.4716   14.4716
  18  1  -28.1782  -28.1381  -25.4599  -25.4599  -25.4599  -25.4599  -25.4599  -25.4599  -25.3706  -25.3706
         -25.3706  -25.3706  -25.3706  -25.3706  -21.6587  -21.6587  -21.6086  -21.6086  -21.6086  -21.6086
  -21.5624  -21.5624  -19.1004  -19.1004  -19.1004  -19.1004  -18.7621  -18.7621  -18.7621  -18.7621
  -18.7621  -18.7621  -18.7125  -18.7125  -18.7125  -18.7125  -18.7125  -18.7125  -15.3731  -15.3731
  -15.3731  -15.3731  -15.3731  -15.3731  -15.3540  -15.3540  -15.3540  -15.3540  -15.3540  -15.3540
  -14.7624  -14.6479  -12.7976  -12.7976  -12.7841  -12.7841  -12.6088  -12.6088  -12.6088  -12.6088
  -12.6088  -12.6088  -12.3424  -12.3424  -12.3424  -12.3424  -12.3424  -12.3424   -8.5332   -8.5332
   -8.3309   -8.3309   -8.3309   -8.3309   -8.1214   -8.1214   -3.2161   -3.2161   -3.2161   -3.2161
   -3.2161   -3.2161   -2.9945   -2.9945   -2.9945   -2.9945   -2.9945   -2.9945    0.3765    0.3765
    0.3863    0.3863    0.7589    0.7589    0.7589    0.7589    0.7589    0.7589    0.8397    0.8397
    0.8397    0.8397    0.8397    0.8397    2.3619    2.4073    3.9820    4.0061    6.9547    6.9547
    7.0276    7.0276    7.0276    7.0276    7.1044    7.1044    8.3134    8.3134    8.3134    8.3134
    8.3134    8.3134    8.3158    8.3158    8.3158    8.3158    8.3158    8.3158    9.9455    9.9455
    9.9455    9.9455    9.9455    9.9455   10.0195   10.0195   10.0195   10.0195   10.0195   10.0195
   14.8227   14.8227   14.8227   14.8227
  19  1  -27.9889  -27.9578  -26.5757  -26.5363  -25.9267  -25.9267  -25.8561  -25.8561  -24.7193  -24.7193
         -24.6060  -24.6060  -24.1745  -24.0560  -22.6770  -22.6770  -22.5658  -22.5658  -20.9303  -20.9303
  -20.8627  -20.8627  -20.5356  -20.4327  -19.6422  -19.6422  -19.5700  -19.5700  -18.5380  -18.5380
  -18.5173  -18.5173  -17.8111  -17.8111  -17.7846  -17.7846  -16.8281  -16.8033  -16.0546  -16.0546
  -16.0388  -16.0388  -15.7998  -15.7836  -15.4741  -15.4741  -15.4505  -15.4505  -14.6995  -14.6776
  -14.6301  -14.5099  -13.5583  -13.4118  -13.3954  -13.3636  -13.1219  -13.1041  -13.0124  -13.0124
  -12.7738  -12.7738  -11.9291  -11.9291  -11.6272  -11.6272  -11.4514  -11.1579   -9.7816   -9.7816
   -9.4953   -9.4953   -7.0613   -7.0613   -6.8930   -6.8930   -5.2644   -4.9763   -4.4242   -4.4242
   -4.1770   -4.1770   -2.3186   -2.3186   -2.1620   -2.1620   -1.0799   -0.9547    0.5718    0.6191
    0.6487    0.6843    0.9416    0.9753    1.1451    1.1530    1.3915    1.3915    1.4842    1.4842
    1.6041    1.6041    1.6512    1.6512    1.9333    1.9829    4.3226    4.3518    5.3282    5.3282
    5.3374    5.3374    5.7611    5.7648    6.1894    6.1894    6.2212    6.2212    7.5777    7.6237
    7.9374    7.9374    8.0318    8.0318    8.6107    8.6107    8.6321    8.6321    9.6100    9.6100
    9.6287    9.6287   10.1704   10.1706   11.7407   11.7407   11.7842   11.7842   11.9742   12.0625
   14.4657   14.4657   14.4716   14.4716
  20  1  -27.4307  -27.4307  -27.4266  -27.4266  -26.0860  -26.0860  -26.0222  -26.0222  -23.7623  -23.7623
         -23.7623  -23.7623  -23.6343  -23.6343  -23.6343  -23.6343  -23.2084  -23.1624  -21.6108  -21.4948
  -20.3567  -20.3567  -20.3567  -20.3567  -20.2706  -20.2706  -20.2706  -20.2706  -17.2878  -17.2878
  -17.2878  -17.2878  -17.2773  -17.2773  -17.2773  -17.2773  -17.2235  -17.2235  -17.2212  -17.2212
  -15.9447  -15.9298  -15.8243  -15.8243  -15.7835  -15.7835  -14.9321  -14.9321  -14.9124  -14.9124
  -14.2293  -14.2293  -14.0850  -14.0850  -13.8754  -13.8754  -13.8534  -13.8533  -13.1458  -13.1458
  -12.9170  -12.9170  -10.9753  -10.9753  -10.9753  -10.9753  -10.6898  -10.6556  -10.6556  -10.6555
  -10.6555  -10.5187   -6.2497   -6.0335   -5.7348   -5.7348   -5.7348   -5.7348   -5.5181   -5.5181
   -5.5181   -5.5181   -1.9766   -1.9766   -1.8642   -1.8642    0.4986    0.6138    0.7207    0.7207
    0.7872    0.7872    0.9189    0.9189    0.9798    0.9798    3.1489    3.1490    3.1534    3.1534
    3.1713    3.1713    3.1713    3.1713    3.2421    3.2422    3.2422    3.2422    3.5281    3.5281
    3.5544    3.5544    3.7004    3.7004    3.7695    3.7695    5.5479    5.5479    5.5675    5.5675
    8.3980    8.3980    8.3980    8.3980    8.4489    8.4489    8.4489    8.4489    9.6496    9.6496
    9.6609    9.6609   10.8489   10.8502   12.7969   12.8983   13.4158   13.4158   13.4158   13.4158
   13.4374   13.4374   13.4374   13.4374
  21  1  -27.9889  -27.9578  -26.5757  -26.5363  -25.9267  -25.9267  -25.8561  -25.8561  -24.7193  -24.7193
         -24.6060  -24.6060  -24.1745  -24.0560  -22.6770  -22.6770  -22.5658  -22.5658  -20.9303  -20.9303
  -20.8627  -20.8627  -20.5356  -20.4327  -19.6422  -19.6422  -19.5700  -19.5700  -18.5380  -18.5380
  -18.5173  -18.5173  -17.8111  -17.8111  -17.7846  -17.7846  -16.8281  -16.8033  -16.0546  -16.0546
  -16.0388  -16.0388  -15.7998  -15.7836  -15.4741  -15.4741  -15.4505  -15.4505  -14.6995  -14.6776
  -14.6301  -14.5099  -13.5583  -13.4118  -13.3954  -13.3636  -13.1219  -13.1041  -13.0124  -13.0124
  -12.7738  -12.7738  -11.9291  -11.9291  -11.6272  -11.6272  -11.4514  -11.1579   -9.7816   -9.7816
   -9.4953   -9.4953   -7.0613   -7.0613   -6.8930   -6.8930   -5.2644   -4.9763   -4.4242   -4.4242
   -4.1770   -4.1770   -2.3186   -2.3186   -2.1620   -2.1620   -1.0799   -0.9547    0.5718    0.6191
    0.6487    0.6843    0.9416    0.9753    1.1451    1.1530    1.3915    1.3915    1.4842    1.4842
    1.6041    1.6041    1.6512    1.6512    1.9333    1.9829    4.3226    4.3518    5.3282    5.3282
    5.3374    5.3374    5.7611    5.7648    6.1894    6.1894    6.2212    6.2212    7.5777    7.6237
    7.9374    7.9374    8.0318    8.0318    8.6107    8.6107    8.6321    8.6321    9.6100    9.6100
    9.6287    9.6287   10.1704   10.1706   11.7407   11.7407   11.7842   11.7842   11.9742   12.0625
   14.4657   14.4657   14.4716   14.4716
  22  1  -27.9889  -27.9578  -26.5757  -26.5363  -25.9267  -25.9267  -25.8561  -25.8561  -24.7193  -24.7193
         -24.6060  -24.6060  -24.1745  -24.0560  -22.6770  -22.6770  -22.5658  -22.5658  -20.9303  -20.9303
  -20.8627  -20.8627  -20.5356  -20.4327  -19.6422  -19.6422  -19.5700  -19.5700  -18.5380  -18.5380
  -18.5173  -18.5173  -17.8111  -17.8111  -17.7846  -17.7846  -16.8281  -16.8033  -16.0546  -16.0546
  -16.0388  -16.0388  -15.7998  -15.7836  -15.4741  -15.4741  -15.4505  -15.4505  -14.6995  -14.6776
  -14.6301  -14.5099  -13.5583  -13.4118  -13.3954  -13.3636  -13.1219  -13.1041  -13.0124  -13.0124
  -12.7738  -12.7738  -11.9291  -11.9291  -11.6272  -11.6272  -11.4514  -11.1579   -9.7816   -9.7816
   -9.4953   -9.4953   -7.0613   -7.0613   -6.8930   -6.8930   -5.2644   -4.9763   -4.4242   -4.4242
   -4.1770   -4.1770   -2.3186   -2.3186   -2.1620   -2.1620   -1.0799   -0.9547    0.5718    0.6191
    0.6487    0.6843    0.9416    0.9753    1.1451    1.1530    1.3915    1.3915    1.4842    1.4842
    1.6041    1.6041    1.6512    1.6512    1.9333    1.9829    4.3226    4.3518    5.3282    5.3282
    5.3374    5.3374    5.7611    5.7648    6.1894    6.1894    6.2212    6.2212    7.5777    7.6237
    7.9374    7.9374    8.0318    8.0318    8.6107    8.6107    8.6321    8.6321    9.6100    9.6100
    9.6287    9.6287   10.1704   10.1706   11.7407   11.7407   11.7842   11.7842   11.9742   12.0625
   14.4657   14.4657   14.4716   14.4716
  23  1  -27.6150  -27.6020  -26.9108  -26.9108  -26.8881  -26.8881  -25.0066  -25.0066  -24.8990  -24.8990
         -23.8809  -23.7483  -23.4525  -23.4525  -23.3481  -23.3481  -22.8070  -22.7576  -21.3906  -21.2947
  -21.2031  -21.2031  -21.0863  -21.0863  -19.7503  -19.7225  -18.7538  -18.7538  -18.7216  -18.7215
  -17.9393  -17.9278  -17.4589  -17.4513  -16.7600  -16.7600  -16.7333  -16.7333  -16.3513  -16.3513
  -16.3407  -16.3407  -15.9678  -15.9678  -15.9557  -15.9557  -14.6560  -14.6560  -14.6278  -14.6278
  -14.3914  -14.3827  -14.3646  -14.2316  -13.8262  -13.8262  -13.7374  -13.7149  -13.6524  -13.6524
  -12.1765  -12.1765  -11.8781  -11.8781  -11.0497  -10.8009  -10.8009  -10.7072  -10.5567  -10.5567
  -10.1433   -9.9582   -6.6695   -6.5760   -6.0840   -6.0840   -5.8491   -5.8491   -5.5517   -5.3692
   -3.8698   -3.8698   -3.7027   -3.7027   -0.3729   -0.3729   -0.2855   -0.2855    1.1148    1.1697
    1.2492    1.2526    1.2526    1.3245    1.3589    1.3590    1.6936    1.6936    1.7498    1.7498
    2.0385    2.0490    3.1046    3.1799    3.3547    3.3547    3.4027    3.4027    3.7189    3.7189
    3.7409    3.7409    4.9783    4.9843    5.2254    5.2582    6.1905    6.1905    6.1972    6.1972
    6.7181    6.8030    7.2191    7.2191    7.2341    7.2341    9.2975    9.3768   10.1188   10.1188
   10.1547   10.1547   11.8694   11.8694   11.8772   11.8772   13.0579   13.0579   13.1186   13.1186
   13.5634   13.5673   13.9833   14.0092
  24  1  -27.6150  -27.6020  -26.9108  -26.9108  -26.8881  -26.8881  -25.0066  -25.0066  -24.8990  -24.8990
         -23.8809  -23.7483  -23.4525  -23.4525  -23.3481  -23.3481  -22.8070  -22.7576  -21.3906  -21.2947
  -21.2031  -21.2031  -21.0863  -21.0863  -19.7503  -19.7225  -18.7538  -18.7538  -18.7216  -18.7215
  -17.9393  -17.9278  -17.4589  -17.4513  -16.7600  -16.7600  -16.7333  -16.7333  -16.3513  -16.3513
  -16.3407  -16.3407  -15.9678  -15.9678  -15.9557  -15.9557  -14.6560  -14.6560  -14.6278  -14.6278
  -14.3914  -14.3827  -14.3646  -14.2316  -13.8262  -13.8262  -13.7374  -13.7149  -13.6524  -13.6524
  -12.1765  -12.1765  -11.8781  -11.8781  -11.0497  -10.8009  -10.8009  -10.7072  -10.5567  -10.5567
  -10.1433   -9.9582   -6.6695   -6.5760   -6.0840   -6.0840   -5.8491   -5.8491   -5.5517   -5.3692
   -3.8698   -3.8698   -3.7027   -3.7027   -0.3729   -0.3729   -0.2855   -0.2855    1.1148    1.1697
    1.2492    1.2526    1.2526    1.3245    1.3589    1.3590    1.6936    1.6936    1.7498    1.7498
    2.0385    2.0490    3.1046    3.1799    3.3547    3.3547    3.4027    3.4027    3.7189    3.7189
    3.7409    3.7409    4.9783    4.9843    5.2254    5.2582    6.1905    6.1905    6.1972    6.1972
    6.7181    6.8030    7.2191    7.2191    7.2341    7.2341    9.2975    9.3768   10.1188   10.1188
   10.1547   10.1547   11.8694   11.8694   11.8772   11.8772   13.0579   13.0579   13.1186   13.1186
   13.5634   13.5673   13.9833   14.0092
  25  1  -27.6150  -27.6020  -26.9108  -26.9108  -26.8881  -26.8881  -25.0066  -25.0066  -24.8990  -24.8990
         -23.8809  -23.7483  -23.4525  -23.4525  -23.3481  -23.3481  -22.8070  -22.7576  -21.3906  -21.2947
  -21.2031  -21.2031  -21.0863  -21.0863  -19.7503  -19.7225  -18.7538  -18.7538  -18.7216  -18.7215
  -17.9393  -17.9278  -17.4589  -17.4513  -16.7600  -16.7600  -16.7333  -16.7333  -16.3513  -16.3513
  -16.3407  -16.3407  -15.9678  -15.9678  -15.9557  -15.9557  -14.6560  -14.6560  -14.6278  -14.6278
  -14.3914  -14.3827  -14.3646  -14.2316  -13.8262  -13.8262  -13.7374  -13.7149  -13.6524  -13.6524
  -12.1765  -12.1765  -11.8781  -11.8781  -11.0497  -10.8009  -10.8009  -10.7072  -10.5567  -10.5567
  -10.1433   -9.9582   -6.6695   -6.5760   -6.0840   -6.0840   -5.8491   -5.8491   -5.5517   -5.3692
   -3.8698   -3.8698   -3.7027   -3.7027   -0.3729   -0.3729   -0.2855   -0.2855    1.1148    1.1697
    1.2492    1.2526    1.2526    1.3245    1.3589    1.3590    1.6936    1.6936    1.7498    1.7498
    2.0385    2.0490    3.1046    3.1799    3.3547    3.3547    3.4027    3.4027    3.7189    3.7189
    3.7409    3.7409    4.9783    4.9843    5.2254    5.2582    6.1905    6.1905    6.1972    6.1972
    6.7181    6.8030    7.2191    7.2191    7.2341    7.2341    9.2975    9.3768   10.1188   10.1188
   10.1547   10.1547   11.8694   11.8694   11.8772   11.8772   13.0579   13.0579   13.1186   13.1186
   13.5634   13.5673   13.9833   14.0092
  26  1  -27.4307  -27.4307  -27.4266  -27.4266  -26.0860  -26.0860  -26.0222  -26.0222  -23.7623  -23.7623
         -23.7623  -23.7623  -23.6343  -23.6343  -23.6343  -23.6343  -23.2084  -23.1624  -21.6108  -21.4948
  -20.3567  -20.3567  -20.3567  -20.3567  -20.2706  -20.2706  -20.2706  -20.2706  -17.2878  -17.2878
  -17.2878  -17.2878  -17.2773  -17.2773  -17.2773  -17.2773  -17.2235  -17.2235  -17.2212  -17.2212
  -15.9447  -15.9298  -15.8243  -15.8243  -15.7835  -15.7835  -14.9321  -14.9321  -14.9124  -14.9124
  -14.2293  -14.2293  -14.0850  -14.0850  -13.8754  -13.8754  -13.8534  -13.8533  -13.1458  -13.1458
  -12.9170  -12.9170  -10.9753  -10.9753  -10.9753  -10.9753  -10.6898  -10.6556  -10.6556  -10.6555
  -10.6555  -10.5187   -6.2497   -6.0335   -5.7348   -5.7348   -5.7348   -5.7348   -5.5181   -5.5181
   -5.5181   -5.5181   -1.9766   -1.9766   -1.8642   -1.8642    0.4986    0.6138    0.7207    0.7207
    0.7872    0.7872    0.9189    0.9189    0.9798    0.9798    3.1489    3.1490    3.1534    3.1534
    3.1713    3.1713    3.1713    3.1713    3.2421    3.2422    3.2422    3.2422    3.5281    3.5281
    3.5544    3.5544    3.7004    3.7004    3.7695    3.7695    5.5479    5.5479    5.5675    5.5675
    8.3980    8.3980    8.3980    8.3980    8.4489    8.4489    8.4489    8.4489    9.6496    9.6496
    9.6609    9.6609   10.8489   10.8502   12.7969   12.8983   13.4158   13.4158   13.4158   13.4158
   13.4374   13.4374   13.4374   13.4374
  27  1  -27.6150  -27.6020  -26.9108  -26.9108  -26.8881  -26.8881  -25.0066  -25.0066  -24.8990  -24.8990
         -23.8809  -23.7483  -23.4525  -23.4525  -23.3481  -23.3481  -22.8070  -22.7576  -21.3906  -21.2947
  -21.2031  -21.2031  -21.0863  -21.0863  -19.7503  -19.7225  -18.7538  -18.7538  -18.7216  -18.7215
  -17.9393  -17.9278  -17.4589  -17.4513  -16.7600  -16.7600  -16.7333  -16.7333  -16.3513  -16.3513
  -16.3407  -16.3407  -15.9678  -15.9678  -15.9557  -15.9557  -14.6560  -14.6560  -14.6278  -14.6278
  -14.3914  -14.3827  -14.3646  -14.2316  -13.8262  -13.8262  -13.7374  -13.7149  -13.6524  -13.6524
  -12.1765  -12.1765  -11.8781  -11.8781  -11.0497  -10.8009  -10.8009  -10.7072  -10.5567  -10.5567
  -10.1433   -9.9582   -6.6695   -6.5760   -6.0840   -6.0840   -5.8491   -5.8491   -5.5517   -5.3692
   -3.8698   -3.8698   -3.7027   -3.7027   -0.3729   -0.3729   -0.2855   -0.2855    1.1148    1.1697
    1.2492    1.2526    1.2526    1.3245    1.3589    1.3590    1.6936    1.6936    1.7498    1.7498
    2.0385    2.0490    3.1046    3.1799    3.3547    3.3547    3.4027    3.4027    3.7189    3.7189
    3.7409    3.7409    4.9783    4.9843    5.2254    5.2582    6.1905    6.1905    6.1972    6.1972
    6.7181    6.8030    7.2191    7.2191    7.2341    7.2341    9.2975    9.3768   10.1188   10.1188
   10.1547   10.1547   11.8694   11.8694   11.8772   11.8772   13.0579   13.0579   13.1186   13.1186
   13.5634   13.5673   13.9833   14.0092
  28  1  -27.4307  -27.4307  -27.4266  -27.4266  -26.0860  -26.0860  -26.0222  -26.0222  -23.7623  -23.7623
         -23.7623  -23.7623  -23.6343  -23.6343  -23.6343  -23.6343  -23.2084  -23.1624  -21.6108  -21.4948
  -20.3567  -20.3567  -20.3567  -20.3567  -20.2706  -20.2706  -20.2706  -20.2706  -17.2878  -17.2878
  -17.2878  -17.2878  -17.2773  -17.2773  -17.2773  -17.2773  -17.2235  -17.2235  -17.2212  -17.2212
  -15.9447  -15.9298  -15.8243  -15.8243  -15.7835  -15.7835  -14.9321  -14.9321  -14.9124  -14.9124
  -14.2293  -14.2293  -14.0850  -14.0850  -13.8754  -13.8754  -13.8534  -13.8533  -13.1458  -13.1458
  -12.9170  -12.9170  -10.9753  -10.9753  -10.9753  -10.9753  -10.6898  -10.6556  -10.6556  -10.6555
  -10.6555  -10.5187   -6.2497   -6.0335   -5.7348   -5.7348   -5.7348   -5.7348   -5.5181   -5.5181
   -5.5181   -5.5181   -1.9766   -1.9766   -1.8642   -1.8642    0.4986    0.6138    0.7207    0.7207
    0.7872    0.7872    0.9189    0.9189    0.9798    0.9798    3.1489    3.1490    3.1534    3.1534
    3.1713    3.1713    3.1713    3.1713    3.2421    3.2422    3.2422    3.2422    3.5281    3.5281
    3.5544    3.5544    3.7004    3.7004    3.7695    3.7695    5.5479    5.5479    5.5675    5.5675
    8.3980    8.3980    8.3980    8.3980    8.4489    8.4489    8.4489    8.4489    9.6496    9.6496
    9.6609    9.6609   10.8489   10.8502   12.7969   12.8983   13.4158   13.4158   13.4158   13.4158
   13.4374   13.4374   13.4374   13.4374
  29  1  -27.6155  -27.6155  -26.9063  -26.9063  -26.9063  -26.9063  -24.9577  -24.9577  -24.9577  -24.9577
         -23.8173  -23.8173  -23.4006  -23.4006  -23.4006  -23.4006  -22.7797  -22.7797  -21.3474  -21.3474
  -21.1482  -21.1482  -21.1482  -21.1482  -19.7357  -19.7357  -18.7380  -18.7380  -18.7380  -18.7380
  -17.9360  -17.9360  -17.4559  -17.4559  -16.7486  -16.7486  -16.7486  -16.7486  -16.3462  -16.3462
  -16.3462  -16.3462  -15.9626  -15.9626  -15.9626  -15.9626  -14.6446  -14.6446  -14.6446  -14.6446
  -14.3868  -14.3868  -14.2859  -14.2859  -13.7311  -13.7311  -13.7311  -13.7311  -13.7249  -13.7249
  -12.0334  -12.0334  -12.0334  -12.0334  -10.8856  -10.8856  -10.6795  -10.6795  -10.6795  -10.6795
  -10.0470  -10.0470   -6.6371   -6.6371   -5.9802   -5.9802   -5.9802   -5.9802   -5.4608   -5.4608
   -3.7866   -3.7866   -3.7866   -3.7866   -0.3293   -0.3293   -0.3293   -0.3293    1.1408    1.1408
    1.3027    1.3027    1.3080    1.3080    1.3080    1.3080    1.7360    1.7360    1.7361    1.7361
    2.0438    2.0438    3.1439    3.1439    3.3826    3.3826    3.3826    3.3826    3.7342    3.7342
    3.7342    3.7342    4.9813    4.9813    5.2419    5.2419    6.2022    6.2022    6.2022    6.2022
    6.7662    6.7662    7.2278    7.2278    7.2278    7.2278    9.3368    9.3368   10.1375   10.1375
   10.1375   10.1375   11.8737   11.8737   11.8738   11.8738   13.0891   13.0891   13.0891   13.0891
   13.5654   13.5654   13.9961   13.9961
  30  1  -27.9802  -27.9802  -26.5627  -26.5627  -25.8976  -25.8976  -25.8976  -25.8976  -24.6668  -24.6668
         -24.6668  -24.6668  -24.1180  -24.1180  -22.6212  -22.6212  -22.6212  -22.6212  -20.8967  -20.8967
  -20.8967  -20.8967  -20.4867  -20.4867  -19.6078  -19.6078  -19.6078  -19.6078  -18.5299  -18.5299
  -18.5299  -18.5299  -17.7993  -17.7993  -17.7993  -17.7993  -16.8178  -16.8178  -16.0471  -16.0471
  -16.0471  -16.0471  -15.7917  -15.7917  -15.4633  -15.4633  -15.4633  -15.4633  -14.6885  -14.6885
  -14.5507  -14.5507  -13.4575  -13.4575  -13.4035  -13.4035  -13.1130  -13.1130  -12.8946  -12.8946
  -12.8946  -12.8946  -11.7844  -11.7844  -11.7844  -11.7844  -11.3096  -11.3096   -9.6393   -9.6393
   -9.6393   -9.6393   -6.9828   -6.9828   -6.9828   -6.9828   -5.1293   -5.1293   -4.3043   -4.3043
   -4.3043   -4.3043   -2.2410   -2.2410   -2.2410   -2.2410   -1.0180   -1.0180    0.6311    0.6311
    0.6400    0.6400    0.9708    0.9708    1.1490    1.1490    1.4421    1.4421    1.4421    1.4421
    1.6364    1.6364    1.6365    1.6365    1.9586    1.9586    4.3375    4.3375    5.3337    5.3337
    5.3337    5.3337    5.7629    5.7629    6.2114    6.2114    6.2114    6.2114    7.6087    7.6087
    7.9841    7.9841    7.9841    7.9841    8.6249    8.6249    8.6250    8.6250    9.6225    9.6225
    9.6225    9.6225   10.1705   10.1705   11.7655   11.7655   11.7655   11.7655   12.0228   12.0228
   14.4687   14.4687   14.4687   14.4687
  31  1  -27.9802  -27.9802  -26.5627  -26.5627  -25.8976  -25.8976  -25.8976  -25.8976  -24.6668  -24.6668
         -24.6668  -24.6668  -24.1180  -24.1180  -22.6212  -22.6212  -22.6212  -22.6212  -20.8967  -20.8967
  -20.8967  -20.8967  -20.4867  -20.4867  -19.6078  -19.6078  -19.6078  -19.6078  -18.5299  -18.5299
  -18.5299  -18.5299  -17.7993  -17.7993  -17.7993  -17.7993  -16.8178  -16.8178  -16.0471  -16.0471
  -16.0471  -16.0471  -15.7917  -15.7917  -15.4633  -15.4633  -15.4633  -15.4633  -14.6885  -14.6885
  -14.5507  -14.5507  -13.4575  -13.4575  -13.4035  -13.4035  -13.1130  -13.1130  -12.8946  -12.8946
  -12.8946  -12.8946  -11.7844  -11.7844  -11.7844  -11.7844  -11.3096  -11.3096   -9.6393   -9.6393
   -9.6393   -9.6393   -6.9828   -6.9828   -6.9828   -6.9828   -5.1293   -5.1293   -4.3043   -4.3043
   -4.3043   -4.3043   -2.2410   -2.2410   -2.2410   -2.2410   -1.0180   -1.0180    0.6311    0.6311
    0.6400    0.6400    0.9708    0.9708    1.1490    1.1490    1.4421    1.4421    1.4421    1.4421
    1.6364    1.6364    1.6365    1.6365    1.9586    1.9586    4.3375    4.3375    5.3337    5.3337
    5.3337    5.3337    5.7629    5.7629    6.2114    6.2114    6.2114    6.2114    7.6087    7.6087
    7.9841    7.9841    7.9841    7.9841    8.6249    8.6249    8.6250    8.6250    9.6225    9.6225
    9.6225    9.6225   10.1705   10.1705   11.7655   11.7655   11.7655   11.7655   12.0228   12.0228
   14.4687   14.4687   14.4687   14.4687
  32  1  -27.6155  -27.6155  -26.9063  -26.9063  -26.9063  -26.9063  -24.9577  -24.9577  -24.9577  -24.9577
         -23.8173  -23.8173  -23.4006  -23.4006  -23.4006  -23.4006  -22.7797  -22.7797  -21.3474  -21.3474
  -21.1482  -21.1482  -21.1482  -21.1482  -19.7357  -19.7357  -18.7380  -18.7380  -18.7380  -18.7380
  -17.9360  -17.9360  -17.4559  -17.4559  -16.7486  -16.7486  -16.7486  -16.7486  -16.3462  -16.3462
  -16.3462  -16.3462  -15.9626  -15.9626  -15.9626  -15.9626  -14.6446  -14.6446  -14.6446  -14.6446
  -14.3868  -14.3868  -14.2859  -14.2859  -13.7311  -13.7311  -13.7311  -13.7311  -13.7249  -13.7249
  -12.0334  -12.0334  -12.0334  -12.0334  -10.8856  -10.8856  -10.6795  -10.6795  -10.6795  -10.6795
  -10.0470  -10.0470   -6.6371   -6.6371   -5.9802   -5.9802   -5.9802   -5.9802   -5.4608   -5.4608
   -3.7866   -3.7866   -3.7866   -3.7866   -0.3293   -0.3293   -0.3293   -0.3293    1.1408    1.1408
    1.3027    1.3027    1.3080    1.3080    1.3080    1.3080    1.7360    1.7360    1.7361    1.7361
    2.0438    2.0438    3.1439    3.1439    3.3826    3.3826    3.3826    3.3826    3.7342    3.7342
    3.7342    3.7342    4.9813    4.9813    5.2419    5.2419    6.2022    6.2022    6.2022    6.2022
    6.7662    6.7662    7.2278    7.2278    7.2278    7.2278    9.3368    9.3368   10.1375   10.1375
   10.1375   10.1375   11.8737   11.8737   11.8738   11.8738   13.0891   13.0891   13.0891   13.0891
   13.5654   13.5654   13.9961   13.9961
  33  1  -27.9802  -27.9802  -26.5627  -26.5627  -25.8976  -25.8976  -25.8976  -25.8976  -24.6668  -24.6668
         -24.6668  -24.6668  -24.1180  -24.1180  -22.6212  -22.6212  -22.6212  -22.6212  -20.8967  -20.8967
  -20.8967  -20.8967  -20.4867  -20.4867  -19.6078  -19.6078  -19.6078  -19.6078  -18.5299  -18.5299
  -18.5299  -18.5299  -17.7993  -17.7993  -17.7993  -17.7993  -16.8178  -16.8178  -16.0471  -16.0471
  -16.0471  -16.0471  -15.7917  -15.7917  -15.4633  -15.4633  -15.4633  -15.4633  -14.6885  -14.6885
  -14.5507  -14.5507  -13.4575  -13.4575  -13.4035  -13.4035  -13.1130  -13.1130  -12.8946  -12.8946
  -12.8946  -12.8946  -11.7844  -11.7844  -11.7844  -11.7844  -11.3096  -11.3096   -9.6393   -9.6393
   -9.6393   -9.6393   -6.9828   -6.9828   -6.9828   -6.9828   -5.1293   -5.1293   -4.3043   -4.3043
   -4.3043   -4.3043   -2.2410   -2.2410   -2.2410   -2.2410   -1.0180   -1.0180    0.6311    0.6311
    0.6400    0.6400    0.9708    0.9708    1.1490    1.1490    1.4421    1.4421    1.4421    1.4421
    1.6364    1.6364    1.6365    1.6365    1.9586    1.9586    4.3375    4.3375    5.3337    5.3337
    5.3337    5.3337    5.7629    5.7629    6.2114    6.2114    6.2114    6.2114    7.6087    7.6087
    7.9841    7.9841    7.9841    7.9841    8.6249    8.6249    8.6250    8.6250    9.6225    9.6225
    9.6225    9.6225   10.1705   10.1705   11.7655   11.7655   11.7655   11.7655   12.0228   12.0228
   14.4687   14.4687   14.4687   14.4687
  34  1  -28.1651  -28.1651  -25.4208  -25.4208  -25.4208  -25.4208  -25.4208  -25.4208  -25.4208  -25.4208
         -25.4208  -25.4208  -25.4208  -25.4208  -21.6114  -21.6114  -21.6114  -21.6114  -21.6054  -21.6054
  -21.6054  -21.6054  -19.1042  -19.1042  -19.1042  -19.1042  -18.7393  -18.7393  -18.7393  -18.7393
  -18.7393  -18.7393  -18.7393  -18.7393  -18.7393  -18.7393  -18.7393  -18.7393  -15.3635  -15.3635
  -15.3635  -15.3635  -15.3635  -15.3635  -15.3635  -15.3635  -15.3635  -15.3635  -15.3635  -15.3635
  -14.6827  -14.6827  -12.7909  -12.7909  -12.7909  -12.7909  -12.4799  -12.4799  -12.4799  -12.4799
  -12.4799  -12.4799  -12.4799  -12.4799  -12.4799  -12.4799  -12.4799  -12.4799   -8.3338   -8.3338
   -8.3338   -8.3338   -8.3286   -8.3286   -8.3286   -8.3286   -3.1077   -3.1077   -3.1077   -3.1077
   -3.1077   -3.1077   -3.1077   -3.1077   -3.1077   -3.1077   -3.1077   -3.1077    0.3814    0.3814
    0.3814    0.3814    0.8060    0.8060    0.8060    0.8060    0.8060    0.8060    0.8061    0.8061
    0.8061    0.8061    0.8061    0.8061    2.3848    2.3848    3.9944    3.9944    7.0269    7.0269
    7.0269    7.0269    7.0289    7.0289    7.0289    7.0289    8.3146    8.3146    8.3146    8.3146
    8.3146    8.3146    8.3146    8.3146    8.3146    8.3146    8.3146    8.3146    9.9915    9.9915
    9.9915    9.9915    9.9915    9.9915    9.9916    9.9916    9.9916    9.9916    9.9916    9.9916
   14.8228   14.8228   14.8228   14.8228
  35  1  -27.9802  -27.9802  -26.5627  -26.5627  -25.8976  -25.8976  -25.8976  -25.8976  -24.6668  -24.6668
         -24.6668  -24.6668  -24.1180  -24.1180  -22.6212  -22.6212  -22.6212  -22.6212  -20.8967  -20.8967
  -20.8967  -20.8967  -20.4867  -20.4867  -19.6078  -19.6078  -19.6078  -19.6078  -18.5299  -18.5299
  -18.5299  -18.5299  -17.7993  -17.7993  -17.7993  -17.7993  -16.8178  -16.8178  -16.0471  -16.0471
  -16.0471  -16.0471  -15.7917  -15.7917  -15.4633  -15.4633  -15.4633  -15.4633  -14.6885  -14.6885
  -14.5507  -14.5507  -13.4575  -13.4575  -13.4035  -13.4035  -13.1130  -13.1130  -12.8946  -12.8946
  -12.8946  -12.8946  -11.7844  -11.7844  -11.7844  -11.7844  -11.3096  -11.3096   -9.6393   -9.6393
   -9.6393   -9.6393   -6.9828   -6.9828   -6.9828   -6.9828   -5.1293   -5.1293   -4.3043   -4.3043
   -4.3043   -4.3043   -2.2410   -2.2410   -2.2410   -2.2410   -1.0180   -1.0180    0.6311    0.6311
    0.6400    0.6400    0.9708    0.9708    1.1490    1.1490    1.4421    1.4421    1.4421    1.4421
    1.6364    1.6364    1.6365    1.6365    1.9586    1.9586    4.3375    4.3375    5.3337    5.3337
    5.3337    5.3337    5.7629    5.7629    6.2114    6.2114    6.2114    6.2114    7.6087    7.6087
    7.9841    7.9841    7.9841    7.9841    8.6249    8.6249    8.6250    8.6250    9.6225    9.6225
    9.6225    9.6225   10.1705   10.1705   11.7655   11.7655   11.7655   11.7655   12.0228   12.0228
   14.4687   14.4687   14.4687   14.4687
  36  1  -27.4356  -27.4356  -27.4356  -27.4356  -26.0604  -26.0604  -26.0604  -26.0604  -23.7005  -23.7005
         -23.7005  -23.7005  -23.7005  -23.7005  -23.7005  -23.7005  -23.1830  -23.1830  -21.5590  -21.5590
  -20.3148  -20.3148  -20.3147  -20.3147  -20.3147  -20.3147  -20.3147  -20.3147  -17.2836  -17.2836
  -17.2836  -17.2836  -17.2836  -17.2836  -17.2836  -17.2836  -17.2223  -17.2223  -17.2223  -17.2223
  -15.9372  -15.9372  -15.8070  -15.8070  -15.8070  -15.8070  -14.9246  -14.9246  -14.9246  -14.9246
  -14.1436  -14.1436  -14.1436  -14.1436  -13.8644  -13.8644  -13.8644  -13.8644  -13.0315  -13.0315
  -13.0315  -13.0315  -10.8209  -10.8209  -10.8209  -10.8209  -10.8209  -10.8209  -10.8209  -10.8209
  -10.6015  -10.6015   -6.1610   -6.1610   -5.6308   -5.6308   -5.6308   -5.6308   -5.6307   -5.6307
   -5.6307   -5.6307   -1.9202   -1.9202   -1.9202   -1.9202    0.5582    0.5582    0.7517    0.7517
    0.7517    0.7517    0.9655    0.9655    0.9655    0.9655    3.1511    3.1511    3.1511    3.1511
    3.2090    3.2090    3.2090    3.2090    3.2090    3.2090    3.2090    3.2090    3.5423    3.5423
    3.5423    3.5423    3.7526    3.7526    3.7526    3.7526    5.5605    5.5605    5.5606    5.5606
    8.4258    8.4258    8.4258    8.4258    8.4259    8.4259    8.4259    8.4259    9.6552    9.6552
    9.6553    9.6553   10.8495   10.8495   12.8486   12.8486   13.4269   13.4269   13.4270   13.4270
   13.4270   13.4270   13.4270   13.4270
  37  1  -27.9802  -27.9802  -26.5627  -26.5627  -25.8976  -25.8976  -25.8976  -25.8976  -24.6668  -24.6668
         -24.6668  -24.6668  -24.1180  -24.1180  -22.6212  -22.6212  -22.6212  -22.6212  -20.8967  -20.8967
  -20.8967  -20.8967  -20.4867  -20.4867  -19.6078  -19.6078  -19.6078  -19.6078  -18.5299  -18.5299
  -18.5299  -18.5299  -17.7993  -17.7993  -17.7993  -17.7993  -16.8178  -16.8178  -16.0471  -16.0471
  -16.0471  -16.0471  -15.7917  -15.7917  -15.4633  -15.4633  -15.4633  -15.4633  -14.6885  -14.6885
  -14.5507  -14.5507  -13.4575  -13.4575  -13.4035  -13.4035  -13.1130  -13.1130  -12.8946  -12.8946
  -12.8946  -12.8946  -11.7844  -11.7844  -11.7844  -11.7844  -11.3096  -11.3096   -9.6393   -9.6393
   -9.6393   -9.6393   -6.9828   -6.9828   -6.9828   -6.9828   -5.1293   -5.1293   -4.3043   -4.3043
   -4.3043   -4.3043   -2.2410   -2.2410   -2.2410   -2.2410   -1.0180   -1.0180    0.6311    0.6311
    0.6400    0.6400    0.9708    0.9708    1.1490    1.1490    1.4421    1.4421    1.4421    1.4421
    1.6364    1.6364    1.6365    1.6365    1.9586    1.9586    4.3375    4.3375    5.3337    5.3337
    5.3337    5.3337    5.7629    5.7629    6.2114    6.2114    6.2114    6.2114    7.6087    7.6087
    7.9841    7.9841    7.9841    7.9841    8.6249    8.6249    8.6250    8.6250    9.6225    9.6225
    9.6225    9.6225   10.1705   10.1705   11.7655   11.7655   11.7655   11.7655   12.0228   12.0228
   14.4687   14.4687   14.4687   14.4687
  38  1  -27.9802  -27.9802  -26.5627  -26.5627  -25.8976  -25.8976  -25.8976  -25.8976  -24.6668  -24.6668
         -24.6668  -24.6668  -24.1180  -24.1180  -22.6212  -22.6212  -22.6212  -22.6212  -20.8967  -20.8967
  -20.8967  -20.8967  -20.4867  -20.4867  -19.6078  -19.6078  -19.6078  -19.6078  -18.5299  -18.5299
  -18.5299  -18.5299  -17.7993  -17.7993  -17.7993  -17.7993  -16.8178  -16.8178  -16.0471  -16.0471
  -16.0471  -16.0471  -15.7917  -15.7917  -15.4633  -15.4633  -15.4633  -15.4633  -14.6885  -14.6885
  -14.5507  -14.5507  -13.4575  -13.4575  -13.4035  -13.4035  -13.1130  -13.1130  -12.8946  -12.8946
  -12.8946  -12.8946  -11.7844  -11.7844  -11.7844  -11.7844  -11.3096  -11.3096   -9.6393   -9.6393
   -9.6393   -9.6393   -6.9828   -6.9828   -6.9828   -6.9828   -5.1293   -5.1293   -4.3043   -4.3043
   -4.3043   -4.3043   -2.2410   -2.2410   -2.2410   -2.2410   -1.0180   -1.0180    0.6311    0.6311
    0.6400    0.6400    0.9708    0.9708    1.1490    1.1490    1.4421    1.4421    1.4421    1.4421
    1.6364    1.6364    1.6365    1.6365    1.9586    1.9586    4.3375    4.3375    5.3337    5.3337
    5.3337    5.3337    5.7629    5.7629    6.2114    6.2114    6.2114    6.2114    7.6087    7.6087
    7.9841    7.9841    7.9841    7.9841    8.6249    8.6249    8.6250    8.6250    9.6225    9.6225
    9.6225    9.6225   10.1705   10.1705   11.7655   11.7655   11.7655   11.7655   12.0228   12.0228
   14.4687   14.4687   14.4687   14.4687
  39  1  -27.6155  -27.6155  -26.9063  -26.9063  -26.9063  -26.9063  -24.9577  -24.9577  -24.9577  -24.9577
         -23.8173  -23.8173  -23.4006  -23.4006  -23.4006  -23.4006  -22.7797  -22.7797  -21.3474  -21.3474
  -21.1482  -21.1482  -21.1482  -21.1482  -19.7357  -19.7357  -18.7380  -18.7380  -18.7380  -18.7380
  -17.9360  -17.9360  -17.4559  -17.4559  -16.7486  -16.7486  -16.7486  -16.7486  -16.3462  -16.3462
  -16.3462  -16.3462  -15.9626  -15.9626  -15.9626  -15.9626  -14.6446  -14.6446  -14.6446  -14.6446
  -14.3868  -14.3868  -14.2859  -14.2859  -13.7311  -13.7311  -13.7311  -13.7311  -13.7249  -13.7249
  -12.0334  -12.0334  -12.0334  -12.0334  -10.8856  -10.8856  -10.6795  -10.6795  -10.6795  -10.6795
  -10.0470  -10.0470   -6.6371   -6.6371   -5.9802   -5.9802   -5.9802   -5.9802   -5.4608   -5.4608
   -3.7866   -3.7866   -3.7866   -3.7866   -0.3293   -0.3293   -0.3293   -0.3293    1.1408    1.1408
    1.3027    1.3027    1.3080    1.3080    1.3080    1.3080    1.7360    1.7360    1.7361    1.7361
    2.0438    2.0438    3.1439    3.1439    3.3826    3.3826    3.3826    3.3826    3.7342    3.7342
    3.7342    3.7342    4.9813    4.9813    5.2419    5.2419    6.2022    6.2022    6.2022    6.2022
    6.7662    6.7662    7.2278    7.2278    7.2278    7.2278    9.3368    9.3368   10.1375   10.1375
   10.1375   10.1375   11.8737   11.8737   11.8738   11.8738   13.0891   13.0891   13.0891   13.0891
   13.5654   13.5654   13.9961   13.9961
  40  1  -27.6155  -27.6155  -26.9063  -26.9063  -26.9063  -26.9063  -24.9577  -24.9577  -24.9577  -24.9577
         -23.8173  -23.8173  -23.4006  -23.4006  -23.4006  -23.4006  -22.7797  -22.7797  -21.3474  -21.3474
  -21.1482  -21.1482  -21.1482  -21.1482  -19.7357  -19.7357  -18.7380  -18.7380  -18.7380  -18.7380
  -17.9360  -17.9360  -17.4559  -17.4559  -16.7486  -16.7486  -16.7486  -16.7486  -16.3462  -16.3462
  -16.3462  -16.3462  -15.9626  -15.9626  -15.9626  -15.9626  -14.6446  -14.6446  -14.6446  -14.6446
  -14.3868  -14.3868  -14.2859  -14.2859  -13.7311  -13.7311  -13.7311  -13.7311  -13.7249  -13.7249
  -12.0334  -12.0334  -12.0334  -12.0334  -10.8856  -10.8856  -10.6795  -10.6795  -10.6795  -10.6795
  -10.0470  -10.0470   -6.6371   -6.6371   -5.9802   -5.9802   -5.9802   -5.9802   -5.4608   -5.4608
   -3.7866   -3.7866   -3.7866   -3.7866   -0.3293   -0.3293   -0.3293   -0.3293    1.1408    1.1408
    1.3027    1.3027    1.3080    1.3080    1.3080    1.3080    1.7360    1.7360    1.7361    1.7361
    2.0438    2.0438    3.1439    3.1439    3.3826    3.3826    3.3826    3.3826    3.7342    3.7342
    3.7342    3.7342    4.9813    4.9813    5.2419    5.2419    6.2022    6.2022    6.2022    6.2022
    6.7662    6.7662    7.2278    7.2278    7.2278    7.2278    9.3368    9.3368   10.1375   10.1375
   10.1375   10.1375   11.8737   11.8737   11.8738   11.8738   13.0891   13.0891   13.0891   13.0891
   13.5654   13.5654   13.9961   13.9961
  41  1  -27.6155  -27.6155  -26.9063  -26.9063  -26.9063  -26.9063  -24.9577  -24.9577  -24.9577  -24.9577
         -23.8173  -23.8173  -23.4006  -23.4006  -23.4006  -23.4006  -22.7797  -22.7797  -21.3474  -21.3474
  -21.1482  -21.1482  -21.1482  -21.1482  -19.7357  -19.7357  -18.7380  -18.7380  -18.7380  -18.7380
  -17.9360  -17.9360  -17.4559  -17.4559  -16.7486  -16.7486  -16.7486  -16.7486  -16.3462  -16.3462
  -16.3462  -16.3462  -15.9626  -15.9626  -15.9626  -15.9626  -14.6446  -14.6446  -14.6446  -14.6446
  -14.3868  -14.3868  -14.2859  -14.2859  -13.7311  -13.7311  -13.7311  -13.7311  -13.7249  -13.7249
  -12.0334  -12.0334  -12.0334  -12.0334  -10.8856  -10.8856  -10.6795  -10.6795  -10.6795  -10.6795
  -10.0470  -10.0470   -6.6371   -6.6371   -5.9802   -5.9802   -5.9802   -5.9802   -5.4608   -5.4608
   -3.7866   -3.7866   -3.7866   -3.7866   -0.3293   -0.3293   -0.3293   -0.3293    1.1408    1.1408
    1.3027    1.3027    1.3080    1.3080    1.3080    1.3080    1.7360    1.7360    1.7361    1.7361
    2.0438    2.0438    3.1439    3.1439    3.3826    3.3826    3.3826    3.3826    3.7342    3.7342
    3.7342    3.7342    4.9813    4.9813    5.2419    5.2419    6.2022    6.2022    6.2022    6.2022
    6.7662    6.7662    7.2278    7.2278    7.2278    7.2278    9.3368    9.3368   10.1375   10.1375
   10.1375   10.1375   11.8737   11.8737   11.8738   11.8738   13.0891   13.0891   13.0891   13.0891
   13.5654   13.5654   13.9961   13.9961
  42  1  -27.4356  -27.4356  -27.4356  -27.4356  -26.0604  -26.0604  -26.0604  -26.0604  -23.7005  -23.7005
         -23.7005  -23.7005  -23.7005  -23.7005  -23.7005  -23.7005  -23.1830  -23.1830  -21.5590  -21.5590
  -20.3148  -20.3148  -20.3147  -20.3147  -20.3147  -20.3147  -20.3147  -20.3147  -17.2836  -17.2836
  -17.2836  -17.2836  -17.2836  -17.2836  -17.2836  -17.2836  -17.2223  -17.2223  -17.2223  -17.2223
  -15.9372  -15.9372  -15.8070  -15.8070  -15.8070  -15.8070  -14.9246  -14.9246  -14.9246  -14.9246
  -14.1436  -14.1436  -14.1436  -14.1436  -13.8644  -13.8644  -13.8644  -13.8644  -13.0315  -13.0315
  -13.0315  -13.0315  -10.8209  -10.8209  -10.8209  -10.8209  -10.8209  -10.8209  -10.8209  -10.8209
  -10.6015  -10.6015   -6.1610   -6.1610   -5.6308   -5.6308   -5.6308   -5.6308   -5.6307   -5.6307
   -5.6307   -5.6307   -1.9202   -1.9202   -1.9202   -1.9202    0.5582    0.5582    0.7517    0.7517
    0.7517    0.7517    0.9655    0.9655    0.9655    0.9655    3.1511    3.1511    3.1511    3.1511
    3.2090    3.2090    3.2090    3.2090    3.2090    3.2090    3.2090    3.2090    3.5423    3.5423
    3.5423    3.5423    3.7526    3.7526    3.7526    3.7526    5.5605    5.5605    5.5606    5.5606
    8.4258    8.4258    8.4258    8.4258    8.4259    8.4259    8.4259    8.4259    9.6552    9.6552
    9.6553    9.6553   10.8495   10.8495   12.8486   12.8486   13.4269   13.4269   13.4270   13.4270
   13.4270   13.4270   13.4270   13.4270
  43  1  -27.6155  -27.6155  -26.9063  -26.9063  -26.9063  -26.9063  -24.9577  -24.9577  -24.9577  -24.9577
         -23.8173  -23.8173  -23.4006  -23.4006  -23.4006  -23.4006  -22.7797  -22.7797  -21.3474  -21.3474
  -21.1482  -21.1482  -21.1482  -21.1482  -19.7357  -19.7357  -18.7380  -18.7380  -18.7380  -18.7380
  -17.9360  -17.9360  -17.4559  -17.4559  -16.7486  -16.7486  -16.7486  -16.7486  -16.3462  -16.3462
  -16.3462  -16.3462  -15.9626  -15.9626  -15.9626  -15.9626  -14.6446  -14.6446  -14.6446  -14.6446
  -14.3868  -14.3868  -14.2859  -14.2859  -13.7311  -13.7311  -13.7311  -13.7311  -13.7249  -13.7249
  -12.0334  -12.0334  -12.0334  -12.0334  -10.8856  -10.8856  -10.6795  -10.6795  -10.6795  -10.6795
  -10.0470  -10.0470   -6.6371   -6.6371   -5.9802   -5.9802   -5.9802   -5.9802   -5.4608   -5.4608
   -3.7866   -3.7866   -3.7866   -3.7866   -0.3293   -0.3293   -0.3293   -0.3293    1.1408    1.1408
    1.3027    1.3027    1.3080    1.3080    1.3080    1.3080    1.7360    1.7360    1.7361    1.7361
    2.0438    2.0438    3.1439    3.1439    3.3826    3.3826    3.3826    3.3826    3.7342    3.7342
    3.7342    3.7342    4.9813    4.9813    5.2419    5.2419    6.2022    6.2022    6.2022    6.2022
    6.7662    6.7662    7.2278    7.2278    7.2278    7.2278    9.3368    9.3368   10.1375   10.1375
   10.1375   10.1375   11.8737   11.8737   11.8738   11.8738   13.0891   13.0891   13.0891   13.0891
   13.5654   13.5654   13.9961   13.9961
  44  1  -27.4356  -27.4356  -27.4356  -27.4356  -26.0604  -26.0604  -26.0604  -26.0604  -23.7005  -23.7005
         -23.7005  -23.7005  -23.7005  -23.7005  -23.7005  -23.7005  -23.1830  -23.1830  -21.5590  -21.5590
  -20.3148  -20.3148  -20.3147  -20.3147  -20.3147  -20.3147  -20.3147  -20.3147  -17.2836  -17.2836
  -17.2836  -17.2836  -17.2836  -17.2836  -17.2836  -17.2836  -17.2223  -17.2223  -17.2223  -17.2223
  -15.9372  -15.9372  -15.8070  -15.8070  -15.8070  -15.8070  -14.9246  -14.9246  -14.9246  -14.9246
  -14.1436  -14.1436  -14.1436  -14.1436  -13.8644  -13.8644  -13.8644  -13.8644  -13.0315  -13.0315
  -13.0315  -13.0315  -10.8209  -10.8209  -10.8209  -10.8209  -10.8209  -10.8209  -10.8209  -10.8209
  -10.6015  -10.6015   -6.1610   -6.1610   -5.6308   -5.6308   -5.6308   -5.6308   -5.6307   -5.6307
   -5.6307   -5.6307   -1.9202   -1.9202   -1.9202   -1.9202    0.5582    0.5582    0.7517    0.7517
    0.7517    0.7517    0.9655    0.9655    0.9655    0.9655    3.1511    3.1511    3.1511    3.1511
    3.2090    3.2090    3.2090    3.2090    3.2090    3.2090    3.2090    3.2090    3.5423    3.5423
    3.5423    3.5423    3.7526    3.7526    3.7526    3.7526    5.5605    5.5605    5.5606    5.5606
    8.4258    8.4258    8.4258    8.4258    8.4259    8.4259    8.4259    8.4259    9.6552    9.6552
    9.6553    9.6553   10.8495   10.8495   12.8486   12.8486   13.4269   13.4269   13.4270   13.4270
   13.4270   13.4270   13.4270   13.4270
siesta: Fermi energy =      -8.331448 eV

siesta: Program's energy decomposition (eV):
siesta: Ebs     =     -2576.802973
siesta: Eions   =      9434.507561
siesta: Ena     =      2270.342147
siesta: Ekin    =      3598.997363
siesta: Enl     =      -336.082595
siesta: Eso     =         0.000000
siesta: Edftu   =         0.000000
siesta: DEna    =        14.721238
siesta: DUscf   =         2.618974
siesta: DUext   =         0.000000
siesta: Exc     =     -1625.058986
siesta: eta*DQ  =         0.000000
siesta: Emadel  =         0.000000
siesta: Emeta   =         0.000000
siesta: Emolmec =        -3.628066
siesta: Ekinion =         0.000000
siesta: Eharris =     -5512.597486
siesta: Etot    =     -5512.597486
siesta: FreeEng =     -5512.608696

siesta: Final energy (eV):
siesta:  Band Struct. =   -2576.802973
siesta:       Kinetic =    3598.997363
siesta:       Hartree =    1669.046061
siesta:       Edftu   =       0.000000
siesta:       Eso     =       0.000000
siesta:    Ext. field =       0.000000
siesta:   Exch.-corr. =   -1625.058986
siesta:  Ion-electron =   -7389.987384
siesta:       Ion-ion =   -1761.966474
siesta:       Ekinion =       0.000000
siesta:         Total =   -5512.597486
siesta:         Fermi =      -8.331448

siesta: Stress tensor (static) (eV/Ang**3):
siesta:    -0.230025    0.000000    0.000000
siesta:     0.000000   -0.230025   -0.000000
siesta:    -0.000000   -0.000000    0.112435

siesta: Cell volume =        349.328864 Ang**3

siesta: Pressure (static):
siesta:                Solid            Molecule  Units
siesta:           0.00126199          0.00126202  Ry/Bohr**3
siesta:           0.11587188          0.11587433  eV/Ang**3
siesta:         185.64921814        185.65315147  kBar
(Free)E+ p_basis*V_orbitals  =       -5494.305649
(Free)Eharris+ p_basis*V_orbitals  =       -5494.305649

cite: Please see "graphite_scf.bib" for an exhaustive BiBTeX file.
cite: Please clearly indicate Siesta version in published work: 4.1.5
cite: This calculation has made use of the following articles
cite: which are encouraged to be cited in a published work.
        Primary SIESTA paper
          DOI: www.doi.org/10.1088/0953-8984/14/11/302

>> End of run:   1-NOV-2022  14:32:05
Job completed
