Siesta Version  : 4.1.5
Architecture    : x86_64-unknown-linux-gnu--unknown
Compiler version: GNU Fortran (GCC) 11.3.0
Compiler flags  : mpif90 -g -O2 -fallow-argument-mismatch
PP flags        : -DMPI -DFC_HAVE_FLUSH -DFC_HAVE_ABORT
Libraries       :  -I/global/software/sl-7.x86_64/modules/intel/2020.4.304/mkl/include  /globall/software/sl-7.x86_64/modules/intel/2020.4.304/mkl/lib/intel64/libmkl_scalapack_lp64.a -Wl,--start-group /global/software/sl-7.x86_64/modules/intel/2020.4.304/mkl/lib/intel64/libmkl_intel_lp64.a /global/software/sl-7.x86_64/modules/intel/2020.4.304/mkl/lib/intel64/libmkl_sequential.a /global/software/sl-7.x86_64/modules/intel/2020.4.304/mkl/lib/intel64/libmkl_core.a /global/software/sl-7.x86_64/modules/intel/2020.4.304/mkl/lib/intel64/libmkl_blacs_openmpi_lp64.a -Wl,--end-group -lpthread -lm -ldl
PARALLEL version

* Running on 20 nodes in parallel
>> Start of run:   1-NOV-2022  14:23:19

                           ***********************       
                           *  WELCOME TO SIESTA  *       
                           ***********************       

reinit: Reading from standard input
reinit: Dumped input in INPUT_TMP.84290
************************** Dump of input data file ****************************
SystemName graphite_scf
SystemLabel graphite_scf
NumberOfAtoms   36
NumberOfSpecies 1
%block ChemicalSpeciesLabel
1  6   C-gga
%endblock ChemicalSpeciesLabel
PAO.BasisSize  SZ
PAO.EnergyShift  10 meV
%block PS.Lmax
C-gga   2
%endblock PS.Lmax
LatticeConstant 1.000000 Ang
%block LatticeVectors
	7.3920000000	0.0000000000	0.0000000000
	-3.6960000000	6.4016597848	0.0000000000
	0.0000000000	0.0000000000	5.3688000000
%endblock LatticeVectors
AtomicCoordinatesFormat Ang
%block AtomicCoordinatesAndAtomicSpecies
	0.00000000	0.00000000	1.34220000	1
	0.00000000	0.00000000	4.02660000	1
	-1.23200000	2.13388659	1.34220000	1
	-2.46400000	4.26777319	4.02660000	1
	2.46400000	4.26777319	1.34220000	1
	1.23200000	2.13388659	4.02660000	1
	2.46400000	0.00000000	1.34220000	1
	4.92800000	0.00000000	4.02660000	1
	2.46400000	0.00000000	4.02660000	1
	4.92800000	0.00000000	1.34220000	1
	2.46400000	4.26777319	4.02660000	1
	1.23200000	2.13388659	1.34220000	1
	-1.23200000	2.13388659	4.02660000	1
	-2.46400000	4.26777319	1.34220000	1
	0.00000000	4.26777319	1.34220000	1
	3.69600000	2.13388659	4.02660000	1
	3.69600000	2.13388659	1.34220000	1
	0.00000000	4.26777319	4.02660000	1
	0.00000000	1.42258964	1.34220000	1
	3.69600000	4.97907014	4.02660000	1
	2.46400123	5.69036496	1.34220000	1
	1.23199877	0.71129482	4.02660000	1
	-2.46400123	5.69036496	1.34220000	1
	6.16000123	0.71129482	4.02660000	1
	-1.23200000	3.55647624	1.34220000	1
	4.92800000	2.84518355	4.02660000	1
	1.23200123	3.55647837	1.34220000	1
	2.46399877	2.84518142	4.02660000	1
	-0.00000123	5.69036496	1.34220000	1
	3.69600123	0.71129482	4.02660000	1
	2.46400000	1.42258964	1.34220000	1
	1.23200000	4.97907014	4.02660000	1
	4.92800123	1.42259177	1.34220000	1
	-1.23200123	4.97906801	4.02660000	1
	3.69599877	3.55647837	1.34220000	1
	0.00000123	2.84518142	4.02660000	1
%endblock AtomicCoordinatesAndAtomicSpecies
Kgrid_NoTRS  T
%block kgrid_MonkhorstPack
4       0       0       0.0
0       4       0       0.0
0       0       4       0.0
%endblock kgrid_MonkhorstPack
AtomCoorFormatOut Ang
BlockSize 1
#ProcessorY 12
Diag.ParallelOverK   T
Diag.DivideAndConquer F
MeshCutoff   300 Ry
SCF.FreeE.Tolerance 1E-3 eV
SCF.EDM.Tolerance   5E-3 eV
DM.Tolerance  1E-3
DM.Require.Energy.Convergence T
DM.NumberPulay 4
#XC.Functional GGA
#CX.Authors    PBE
UseSaveData        F
SolutionMethod     diagon
MD.TypeOfRun       CG
MD.VariableCell    F
MD.NumCGsteps      00
MD.MaxCGDispl      0.200000 Bohr
#MD.MaxStressTol    1.000000 GPa
#MD.MaxForceTol     0.010000 eV/Ang
WriteMDHistory T
WriteCoorStep T
WriteForces T
WriteCoorStep    T
WriteEigenValues T
WriteDM    F
MM.UnitsDistance Ang  # what this program prints out DO NOT CHANGE
MM.UnitsEnergy    eV  # what this program prints out DO NOT CHANGE
MM.Grimme.S6     0.75 # Grimme-paper for PBE (correct for your functional)
MM.Grimme.D     20.   # Grimme-paper (correct for your functional)
%block MM.Potentials
  1   1 Grimme     18.14      2.904 # C, 10.1002/jcc.20495
%endblock MM.Potentials
#%block ProjectedDensityOfStates
# -200.0  120.0  0.4  12800  eV
#%endblock ProjectedDensityOfStates
************************** End of input data file *****************************

reinit: -----------------------------------------------------------------------
reinit: System Name: graphite_scf
reinit: -----------------------------------------------------------------------
reinit: System Label: graphite_scf
reinit: -----------------------------------------------------------------------
Reading two-body potentials
Grimme - two-body potential between 1 and 1

initatom: Reading input for the pseudopotentials and atomic orbitals ----------
Species number:   1 Atomic number:    6 Label: C-gga

Ground state valence configuration:   2s02  2p02
Reading pseudopotential information in formatted form from C-gga.psf

Valence configuration for pseudopotential generation:
2s( 2.00) rc: 1.56
2p( 2.00) rc: 1.56
3d( 0.00) rc: 1.56
4f( 0.00) rc: 1.56
relmxkb: Read Max KB Ang. Momentum=    2 for species C-gga

<basis_specs>
===============================================================================
C-gga                Z=   6    Mass=  12.010        Charge= 0.17977+309
Lmxo=1 Lmxkb= 2    BasisType=split      Semic=F
L=0  Nsemic=0  Cnfigmx=2
          i=1  nzeta=1  polorb=0  (2s)
            splnorm:   0.15000    
               vcte:    0.0000    
               rinn:    0.0000    
               qcoe:    0.0000    
               qyuk:    0.0000    
               qwid:   0.10000E-01
                rcs:    0.0000    
            lambdas:    1.0000    
L=1  Nsemic=0  Cnfigmx=2
          i=1  nzeta=1  polorb=0  (2p)
            splnorm:   0.15000    
               vcte:    0.0000    
               rinn:    0.0000    
               qcoe:    0.0000    
               qyuk:    0.0000    
               qwid:   0.10000E-01
                rcs:    0.0000    
            lambdas:    1.0000    
-------------------------------------------------------------------------------
L=0  Nkbl=1  erefs: 0.17977+309
L=1  Nkbl=1  erefs: 0.17977+309
L=2  Nkbl=1  erefs: 0.17977+309
===============================================================================
</basis_specs>

atom: Called for C-gga                 (Z =   6)

read_vps: Pseudopotential generation method:
read_vps: ATM 3.2.2 Troullier-Martins                       
Valence charge for ps generation:    4.00000

xc_check: Exchange-correlation functional:
xc_check: Ceperley-Alder
xc_check: WARNING: Pseudopotential generated with GGA PBE functional
V l=0 = -2*Zval/r beyond r=  1.5227
V l=1 = -2*Zval/r beyond r=  1.5227
V l=2 = -2*Zval/r beyond r=  1.5227
All V_l potentials equal beyond r=  1.4851
This should be close to max(r_c) in ps generation
All pots = -2*Zval/r beyond r=  1.5227

VLOCAL1: 99.0% of the norm of Vloc inside     19.682 Ry
VLOCAL1: 99.9% of the norm of Vloc inside     44.856 Ry
atom: Maximum radius for 4*pi*r*r*local-pseudopot. charge    1.79142
atom: Maximum radius for r*vlocal+2*Zval:    1.54183
GHOST: No ghost state for L =  0
GHOST: No ghost state for L =  1
GHOST: No ghost state for L =  2

KBgen: Kleinman-Bylander projectors: 
   l= 0   rc=  1.661951   el= -0.994756   Ekb=  5.296364   kbcos=  0.313951
   l= 1   rc=  1.661951   el= -0.376633   Ekb= -4.104879   kbcos= -0.344765
   l= 2   rc=  1.747182   el=  0.002326   Ekb= -1.006421   kbcos= -0.008606

KBgen: Total number of Kleinman-Bylander projectors:    9
atom: -------------------------------------------------------------------------

atom: SANKEY-TYPE ORBITALS:

SPLIT: Orbitals with angular momentum L= 0

SPLIT: Basis orbitals for state 2s

SPLIT: PAO cut-off radius determined from an
SPLIT: energy shift=  0.000735 Ry

   izeta = 1
                 lambda =    1.000000
                     rc =    5.948690
                 energy =   -0.994108
                kinetic =    0.809152
    potential(screened) =   -1.803260
       potential(ionic) =   -5.360717

SPLIT: Orbitals with angular momentum L= 1

SPLIT: Basis orbitals for state 2p

SPLIT: PAO cut-off radius determined from an
SPLIT: energy shift=  0.000735 Ry

   izeta = 1
                 lambda =    1.000000
                     rc =    7.638387
                 energy =   -0.375915
                kinetic =    2.245823
    potential(screened) =   -2.621738
       potential(ionic) =   -5.993382
atom: Total number of Sankey-type orbitals:  4

atm_pop: Valence configuration (for local Pseudopot. screening):
 2s( 2.00)                                                            
 2p( 2.00)                                                            
Vna: chval, zval:    4.00000   4.00000

Vna:  Cut-off radius for the neutral-atom potential:   7.638387

atom: _________________________________________________________________________

prinput: Basis input ----------------------------------------------------------

PAO.BasisType split     

%block ChemicalSpeciesLabel
    1    6 C-gga                   # Species index, atomic number, species label
%endblock ChemicalSpeciesLabel

%block PAO.Basis                 # Define Basis set
C-gga                 2                    # Species label, number of l-shells
 n=2   0   1                         # n, l, Nzeta 
   5.949   
   1.000   
 n=2   1   1                         # n, l, Nzeta 
   7.638   
   1.000   
%endblock PAO.Basis

prinput: ----------------------------------------------------------------------

coor:   Atomic-coordinates input format  =     Cartesian coordinates
coor:                                          (in Angstroms)

siesta: Atomic coordinates (Bohr) and species
siesta:      0.00000   0.00000   2.53639  1        1
siesta:      0.00000   0.00000   7.60917  1        2
siesta:     -2.32814   4.03246   2.53639  1        3
siesta:     -4.65629   8.06493   7.60917  1        4
siesta:      4.65629   8.06493   2.53639  1        5
siesta:      2.32814   4.03246   7.60917  1        6
siesta:      4.65629   0.00000   2.53639  1        7
siesta:      9.31257   0.00000   7.60917  1        8
siesta:      4.65629   0.00000   7.60917  1        9
siesta:      9.31257   0.00000   2.53639  1       10
siesta:      4.65629   8.06493   7.60917  1       11
siesta:      2.32814   4.03246   2.53639  1       12
siesta:     -2.32814   4.03246   7.60917  1       13
siesta:     -4.65629   8.06493   2.53639  1       14
siesta:      0.00000   8.06493   2.53639  1       15
siesta:      6.98443   4.03246   7.60917  1       16
siesta:      6.98443   4.03246   2.53639  1       17
siesta:      0.00000   8.06493   7.60917  1       18
siesta:      0.00000   2.68831   2.53639  1       19
siesta:      6.98443   9.40908   7.60917  1       20
siesta:      4.65629  10.75324   2.53639  1       21
siesta:      2.32814   1.34415   7.60917  1       22
siesta:     -4.65629  10.75324   2.53639  1       23
siesta:     11.64072   1.34415   7.60917  1       24
siesta:     -2.32814   6.72077   2.53639  1       25
siesta:      9.31257   5.37662   7.60917  1       26
siesta:      2.32815   6.72077   2.53639  1       27
siesta:      4.65628   5.37662   7.60917  1       28
siesta:     -0.00000  10.75324   2.53639  1       29
siesta:      6.98443   1.34415   7.60917  1       30
siesta:      4.65629   2.68831   2.53639  1       31
siesta:      2.32814   9.40908   7.60917  1       32
siesta:      9.31258   2.68831   2.53639  1       33
siesta:     -2.32815   9.40908   7.60917  1       34
siesta:      6.98443   6.72077   2.53639  1       35
siesta:      0.00000   5.37662   7.60917  1       36

siesta: System type = bulk      

initatomlists: Number of atoms, orbitals, and projectors:     36   144   324

siesta: ******************** Simulation parameters ****************************
siesta:
siesta: The following are some of the parameters of the simulation.
siesta: A complete list of the parameters used, including default values,
siesta: can be found in file out.fdf
siesta:
redata: Spin configuration                          = none
redata: Number of spin components                   = 1
redata: Time-Reversal Symmetry                      = T
redata: Spin spiral                                 = F
redata: Long output                                 =   F
redata: Number of Atomic Species                    =        1
redata: Charge density info will appear in .RHO file
redata: Write Mulliken Pop.                         = NO
redata: Matel table size (NRTAB)                    =     1024
redata: Mesh Cutoff                                 =   300.0000 Ry
redata: Net charge of the system                    =     0.0000 |e|
redata: Min. number of SCF Iter                     =        0
redata: Max. number of SCF Iter                     =     1000
redata: SCF convergence failure will abort job
redata: SCF mix quantity                            = Hamiltonian
redata: Mix DM or H after convergence               =   F
redata: Recompute H after scf cycle                 =   F
redata: Mix DM in first SCF step                    =   T
redata: Write Pulay info on disk                    =   F
redata: New DM Occupancy tolerance                  = 0.000000000001
redata: No kicks to SCF
redata: DM Mixing Weight for Kicks                  =     0.5000
redata: Require Harris convergence for SCF          =   F
redata: Harris energy tolerance for SCF             =     0.000100 eV
redata: Require DM convergence for SCF              =   T
redata: DM tolerance for SCF                        =     0.001000
redata: Require EDM convergence for SCF             =   F
redata: EDM tolerance for SCF                       =     0.005000 eV
redata: Require H convergence for SCF               =   T
redata: Hamiltonian tolerance for SCF               =     0.001000 eV
redata: Require (free) Energy convergence for SCF   =   T
redata: (free) Energy tolerance for SCF             =     0.001000 eV
redata: Using Saved Data (generic)                  =   F
redata: Use continuation files for DM               =   F
redata: Neglect nonoverlap interactions             =   F
redata: Method of Calculation                       = Diagonalization
redata: Electronic Temperature                      =   299.9869 K
redata: Fix the spin of the system                  =   F
redata: Dynamics option                             = Single-point calculation
mix.SCF: Pulay mixing                            = Pulay
mix.SCF:    Variant                              = stable
mix.SCF:    History steps                        = 4
mix.SCF:    Linear mixing weight                 =     0.250000
mix.SCF:    Mixing weight                        =     0.250000
mix.SCF:    SVD condition                        = 0.1000E-07
redata: ***********************************************************************

%block SCF.Mixers
  Pulay
%endblock SCF.Mixers

%block SCF.Mixer.Pulay
  # Mixing method
  method pulay
  variant stable

  # Mixing options
  weight 0.2500
  weight.linear 0.2500
  history 4
%endblock SCF.Mixer.Pulay

DM_history_depth set to one: no extrapolation allowed by default for geometry relaxation
Size of DM history Fstack: 1
Total number of electrons:   144.000000
Total ionic charge:   144.000000

* ProcessorY, Blocksize:    4   1


* Orbital distribution balance (max,min):     8     7

k-point displ. along   1 input, could be:     0.00    0.50
k-point displ. along   2 input, could be:     0.00    0.50
k-point displ. along   3 input, could be:     0.00    0.50
 Kpoints in:           48 . Kpoints trimmed:           44

siesta: k-grid: Number of k-points =    44
siesta: k-grid: Cutoff (effective) =    10.738 Ang
siesta: k-grid: Supercell and displacements
siesta: k-grid:    4   0   0      0.000
siesta: k-grid:    0   4   0      0.000
siesta: k-grid:    0   0   4      0.000

diag: Algorithm                                     = Expert
diag: Parallel over k                               =   T
diag: Use parallel 2D distribution                  =   T
diag: Parallel block-size                           = 1
diag: Parallel distribution                         =     4 x     5
diag: Used triangular part                          = Lower
diag: Absolute tolerance                            =  0.100E-15
diag: Orthogonalization factor                      =  0.100E-05
diag: Memory factor                                 =  1.0000

superc: Internal auxiliary supercell:     5 x     5 x     5  =     125
superc: Number of atoms, orbitals, and projectors:   4500  18000  40500


ts: **************************************************************
ts: Save H and S matrices                           =    F
ts: Save DM and EDM matrices                        =    F
ts: Only save the overlap matrix S                  =    F
ts: **************************************************************

************************ Begin: TS CHECKS AND WARNINGS ************************
************************ End: TS CHECKS AND WARNINGS **************************


                     ====================================
                        Single-point calculation
                     ====================================

outcoor: Atomic coordinates (Ang):                          
    0.00000000    0.00000000    1.34220000   1       1  C-gga
    0.00000000    0.00000000    4.02660000   1       2  C-gga
   -1.23200000    2.13388659    1.34220000   1       3  C-gga
   -2.46400000    4.26777319    4.02660000   1       4  C-gga
    2.46400000    4.26777319    1.34220000   1       5  C-gga
    1.23200000    2.13388659    4.02660000   1       6  C-gga
    2.46400000    0.00000000    1.34220000   1       7  C-gga
    4.92800000    0.00000000    4.02660000   1       8  C-gga
    2.46400000    0.00000000    4.02660000   1       9  C-gga
    4.92800000    0.00000000    1.34220000   1      10  C-gga
    2.46400000    4.26777319    4.02660000   1      11  C-gga
    1.23200000    2.13388659    1.34220000   1      12  C-gga
   -1.23200000    2.13388659    4.02660000   1      13  C-gga
   -2.46400000    4.26777319    1.34220000   1      14  C-gga
    0.00000000    4.26777319    1.34220000   1      15  C-gga
    3.69600000    2.13388659    4.02660000   1      16  C-gga
    3.69600000    2.13388659    1.34220000   1      17  C-gga
    0.00000000    4.26777319    4.02660000   1      18  C-gga
    0.00000000    1.42258964    1.34220000   1      19  C-gga
    3.69600000    4.97907014    4.02660000   1      20  C-gga
    2.46400123    5.69036496    1.34220000   1      21  C-gga
    1.23199877    0.71129482    4.02660000   1      22  C-gga
   -2.46400123    5.69036496    1.34220000   1      23  C-gga
    6.16000123    0.71129482    4.02660000   1      24  C-gga
   -1.23200000    3.55647624    1.34220000   1      25  C-gga
    4.92800000    2.84518355    4.02660000   1      26  C-gga
    1.23200123    3.55647837    1.34220000   1      27  C-gga
    2.46399877    2.84518142    4.02660000   1      28  C-gga
   -0.00000123    5.69036496    1.34220000   1      29  C-gga
    3.69600123    0.71129482    4.02660000   1      30  C-gga
    2.46400000    1.42258964    1.34220000   1      31  C-gga
    1.23200000    4.97907014    4.02660000   1      32  C-gga
    4.92800123    1.42259177    1.34220000   1      33  C-gga
   -1.23200123    4.97906801    4.02660000   1      34  C-gga
    3.69599877    3.55647837    1.34220000   1      35  C-gga
    0.00000123    2.84518142    4.02660000   1      36  C-gga

superc: Internal auxiliary supercell:     5 x     5 x     5  =     125
superc: Number of atoms, orbitals, and projectors:   4500  18000  40500

outcell: Unit cell vectors (Ang):
        7.392000    0.000000    0.000000
       -3.696000    6.401660    0.000000
        0.000000    0.000000    5.368800

outcell: Cell vector modules (Ang)   :    7.392000    7.392000    5.368800
outcell: Cell angles (23,13,12) (deg):     90.0000     90.0000    120.0000
outcell: Cell volume (Ang**3)        :    254.0574
<dSpData1D:S at geom step 0
  <sparsity:sparsity for geom step 0
    nrows_g=144 nrows=8 sparsity=.4900 nnzs=10160, refcount: 7>
  <dData1D:(new from dSpData1D) n=10160, refcount: 1>
refcount: 1>
new_DM -- step:     1
Initializing Density Matrix...
DM filled with atomic data:
<dSpData2D:DM initialized from atoms
  <sparsity:sparsity for geom step 0
    nrows_g=144 nrows=8 sparsity=.4900 nnzs=10160, refcount: 8>
  <dData2D:DM n=10160 m=1, refcount: 1>
refcount: 1>
No. of atoms with KB's overlaping orbs in proc 0. Max # of overlaps:     144     280
New grid distribution:   1
           1       1:   36    1:    9    1:    6
           2       1:   36    1:    9    7:   12
           3       1:   36    1:    9   13:   18
           4       1:   36    1:    9   19:   24
           5       1:   36    1:    9   25:   30
           6       1:   36   10:   18    1:    6
           7       1:   36   10:   18    7:   12
           8       1:   36   10:   18   13:   18
           9       1:   36   10:   18   19:   24
          10       1:   36   10:   18   25:   30
          11       1:   36   19:   27    1:    6
          12       1:   36   19:   27    7:   12
          13       1:   36   19:   27   13:   18
          14       1:   36   19:   27   19:   24
          15       1:   36   19:   27   25:   30
          16       1:   36   28:   36    1:    6
          17       1:   36   28:   36    7:   12
          18       1:   36   28:   36   13:   18
          19       1:   36   28:   36   19:   24
          20       1:   36   28:   36   25:   30

InitMesh: MESH =    72 x    72 x    60 =      311040
InitMesh: (bp) =    36 x    36 x    30 =       38880
InitMesh: Mesh cutoff (required, used) =   300.000   345.183 Ry
ExtMesh (bp) on 0 =   128 x   101 x    98 =     1266944
New grid distribution:   2
           1      10:   18   25:   36   13:   30
           2      28:   36   25:   36   13:   30
           3       1:   18    1:    6   13:   30
           4      19:   36    1:    6   13:   30
           5       1:   18   28:   36    1:   12
           6      19:   36   28:   36    1:   12
           7      28:   36    7:   18   13:   30
           8       1:    9    7:   18   13:   30
           9      10:   18    7:   18   13:   30
          10      19:   27    7:   18   13:   30
          11       1:   18   19:   27    1:   12
          12      19:   36   19:   27    1:   12
          13       1:   18   19:   24   13:   30
          14      19:   36   19:   24   13:   30
          15       1:   18    1:    9    1:   12
          16      19:   36    1:    9    1:   12
          17       1:   18   10:   18    1:   12
          18       1:    9   25:   36   13:   30
          19      19:   27   25:   36   13:   30
          20      19:   36   10:   18    1:   12
New grid distribution:   3
           1      10:   18   25:   36   13:   30
           2      28:   36   25:   36   13:   30
           3       1:   18    1:    6   13:   30
           4      19:   36    1:    6   13:   30
           5       1:   18   28:   36    1:   12
           6      19:   36   28:   36    1:   12
           7      28:   36    7:   18   13:   30
           8       1:    9    7:   18   13:   30
           9      10:   18    7:   18   13:   30
          10      19:   27    7:   18   13:   30
          11       1:   18   19:   27    1:   12
          12      19:   36   19:   27    1:   12
          13       1:   18   19:   24   13:   30
          14      19:   36   19:   24   13:   30
          15       1:   18    1:    9    1:   12
          16      19:   36    1:    9    1:   12
          17       1:   18   10:   18    1:   12
          18       1:    9   25:   36   13:   30
          19      19:   27   25:   36   13:   30
          20      19:   36   10:   18    1:   12
Setting up quadratic distribution...
ExtMesh (bp) on 0 =   101 x   104 x   110 =     1155440
PhiOnMesh: Number of (b)points on node 0 =                 1944
PhiOnMesh: nlist on node 0 =               278494

stepf: Fermi-Dirac step function

siesta: Program's energy decomposition (eV):
siesta: Ebs     =     -2549.551255
siesta: Eions   =      9434.507561
siesta: Ena     =      2254.433623
siesta: Ekin    =      3725.033233
siesta: Enl     =      -355.691870
siesta: Eso     =         0.000000
siesta: Edftu   =         0.000000
siesta: DEna    =       -52.073531
siesta: DUscf   =         3.428438
siesta: DUext   =         0.000000
siesta: Exc     =     -1661.015181
siesta: eta*DQ  =         0.000000
siesta: Emadel  =         0.000000
siesta: Emeta   =         0.000000
siesta: Emolmec =        -6.648755
siesta: Ekinion =         0.000000
siesta: Eharris =     -5352.746345
siesta: Etot    =     -5527.041604
siesta: FreeEng =     -5527.048874

        iscf     Eharris(eV)        E_KS(eV)     FreeEng(eV)     dDmax    Ef(eV) dHmax(eV)
   scf:    1    -5352.746345    -5527.041604    -5527.048874  1.328652 -8.611255  0.485377
timer: Routine,Calls,Time,% = IterSCF        1       1.609  48.82
   scf:    2    -5527.105635    -5527.079511    -5527.087227  0.010515 -8.526388  0.343869
   scf:    3    -5527.089450    -5527.089455    -5527.096322  0.008767 -8.309419  0.044389
   scf:    4    -5527.095602    -5527.094045    -5527.101458  0.006280 -8.302102  0.001111
   scf:    5    -5527.093896    -5527.093988    -5527.101431  0.000576 -8.303384  0.002347
   scf:    6    -5527.094077    -5527.094042    -5527.101461  0.000470 -8.302795  0.000023

SCF Convergence by FreeE+DM+H criterion
|FreeE_i-FreeE_(i-1)| (eV) <     0.00100000
max |DM_out - DM_in|         :     0.0004697062
max |H_out - H_in|      (eV) :     0.0000232612
SCF cycle converged after 6 iterations

Using DM_out to compute the final energy and forces
No. of atoms with KB's overlaping orbs in proc 0. Max # of overlaps:     144     280

MM-Stress (kbar):       27.28       27.28       37.38        0.00        0.00       -0.00

siesta: E_KS(eV) =            -5527.0940

siesta: E_KS - E_eggbox =     -5527.0940

siesta: Atomic forces (eV/Ang):
     1    0.000000   -0.000000   -0.000000
     2   -0.000000   -0.000000   -0.000000
     3    0.000070   -0.000053   -0.000000
     4   -0.000070    0.000054   -0.000000
     5    0.000012    0.000087   -0.000000
     6   -0.000012   -0.000087   -0.000000
     7   -0.000081   -0.000034   -0.000000
     8    0.000081    0.000033   -0.000000
     9   -0.000015   -0.000014   -0.000000
    10    0.000015    0.000014   -0.000000
    11   -0.000004    0.000020   -0.000000
    12    0.000004   -0.000020   -0.000000
    13    0.000019   -0.000006   -0.000000
    14   -0.000019    0.000006   -0.000000
    15   -0.000000   -0.000000   -0.000000
    16    0.000000    0.000001   -0.000000
    17   -0.000000    0.000000   -0.000000
    18    0.000000    0.000000   -0.000000
    19    0.000009    0.000125    0.000000
    20   -0.000009   -0.000124    0.000000
    21   -0.000113   -0.000054    0.000000
    22    0.000113    0.000055    0.000000
    23    0.000104   -0.000070    0.000000
    24   -0.000104    0.000070    0.000000
    25    0.000007    0.000112    0.000000
    26   -0.000007   -0.000113    0.000000
    27   -0.000101   -0.000051    0.000000
    28    0.000101    0.000050    0.000000
    29    0.000094   -0.000062    0.000000
    30   -0.000094    0.000062    0.000000
    31    0.000007    0.000113    0.000000
    32   -0.000007   -0.000113    0.000000
    33   -0.000101   -0.000050    0.000000
    34    0.000101    0.000051    0.000000
    35    0.000094   -0.000063    0.000000
    36   -0.000094    0.000062    0.000000
----------------------------------------
   Tot   -0.000000    0.000000    0.000000
----------------------------------------
   Max    0.000125
   Res    0.000052    sqrt( Sum f_i^2 / 3N )
----------------------------------------
   Max    0.000125    constrained

Stress tensor Voigt[x,y,z,yz,xz,xy] (kbar):     -364.60     -364.60      136.97       -0.00       -0.00        0.00
(Free)E + p*V (eV/cell)    -5495.7982
Target enthalpy (eV/cell)    -5527.1015

siesta: Eigenvalues (eV):
  ik is       eps
   1  1  -27.8828  -27.1484  -27.1484  -27.0131  -26.3577  -26.3577  -25.1220  -25.1219  -24.5023  -24.5023
         -23.9253  -23.4546  -23.4545  -23.3730  -22.9539  -22.9539  -22.7514  -22.3846  -21.1567  -21.1368
  -21.1368  -21.0971  -20.7516  -20.7516  -19.5457  -19.2413  -18.5644  -18.5644  -18.1669  -18.1669
  -17.7125  -17.4712  -17.2513  -16.8755  -16.5436  -16.4947  -16.4947  -16.1698  -16.1698  -16.0449
  -16.0449  -15.9171  -15.9171  -15.7242  -15.7242  -15.6701  -15.6701  -15.3314  -15.3314  -14.2597
  -14.2597  -14.0155  -14.0155  -13.9832  -13.9832  -13.9759  -13.8028  -13.2610  -13.1197  -12.6551
  -12.4763  -12.1950  -12.1950  -11.8282  -11.8282  -11.3851  -10.0799  -10.0798   -9.9264   -9.9264
   -9.7284   -9.1173   -6.1751   -6.0599   -5.8478   -5.8478   -5.7480   -4.7782   -4.7782   -4.4046
   -4.4046   -4.3625   -2.7511   -2.7511   -0.6869   -0.6869    0.5540    0.5540    0.9177    1.2384
    1.2384    1.6831    1.8955    1.8955    1.9626    1.9670    2.2754    2.2754    2.5228    2.6162
    2.6162    2.7411    3.2409    3.5249    3.5249    4.0303    4.0899    4.0899    4.2524    4.2524
    4.5245    4.5245    5.3511    5.5143    5.6341    5.9853    6.5553    6.5553    7.0377    7.0377
    7.1700    7.5554    7.6445    7.6445    7.9762    7.9762    9.9093    9.9711   10.7389   10.7389
   10.8226   10.8226   12.4851   12.4851   12.5957   12.5958   13.6879   13.6880   13.8075   13.8075
   14.2318   14.2713   14.6591   14.6983
   2  1  -28.2601  -27.3466  -26.7921  -26.1013  -26.1013  -26.0360  -25.4073  -25.4073  -24.8166  -24.8166
         -24.2350  -24.2132  -24.2132  -23.6652  -22.6414  -22.6414  -22.1644  -22.1644  -20.7717  -20.7717
  -20.4876  -20.4453  -20.4453  -19.9967  -19.5559  -19.5559  -19.0478  -19.0478  -18.3791  -18.3791
  -18.0848  -18.0848  -17.6414  -17.6414  -17.1629  -17.1629  -16.8546  -16.6273  -16.1491  -15.7386
  -15.7386  -15.6015  -15.4422  -15.4204  -15.4204  -15.1623  -15.1338  -15.1338  -14.9625  -14.9625
  -14.8314  -14.8314  -14.3084  -14.0468  -13.6707  -13.6707  -13.0552  -12.9636  -12.8074  -12.7751
  -12.6489  -12.4902  -11.5196  -11.1244  -11.1244  -10.9209  -10.9209   -9.9923   -9.9923   -9.9156
   -8.7940   -8.7940   -7.3063   -7.3063   -5.7012   -5.7012   -5.5401   -4.9313   -4.9313   -3.7807
   -3.0798   -3.0798   -2.7860   -2.7860   -1.4677   -1.2172   -1.2172   -0.0542    0.4990    0.9867
    1.0541    1.3420    1.3924    1.3924    1.6245    1.6330    1.6530    1.6530    1.7980    1.8201
    1.9068    2.4049    2.4049    2.5789    2.5789    2.7427    4.4966    5.0889    5.6487    5.6487
    6.0795    6.0795    6.2891    6.4968    6.6274    6.6274    7.0157    7.0157    7.9572    8.4249
    8.4698    8.4698    8.6468    8.6468    9.1361    9.1361    9.3847    9.3847   10.1327   10.1327
   10.3826   10.3826   10.7828   10.9011   12.3472   12.3472   12.5026   12.5026   12.5571   12.7634
   15.1590   15.1590   15.1686   15.1686
   3  1  -28.2601  -27.3466  -26.7921  -26.1013  -26.1013  -26.0360  -25.4073  -25.4073  -24.8166  -24.8166
         -24.2350  -24.2132  -24.2132  -23.6652  -22.6414  -22.6414  -22.1644  -22.1644  -20.7717  -20.7717
  -20.4876  -20.4453  -20.4453  -19.9967  -19.5559  -19.5559  -19.0478  -19.0478  -18.3791  -18.3791
  -18.0848  -18.0848  -17.6414  -17.6414  -17.1629  -17.1629  -16.8546  -16.6273  -16.1491  -15.7386
  -15.7386  -15.6015  -15.4422  -15.4204  -15.4204  -15.1623  -15.1338  -15.1338  -14.9625  -14.9625
  -14.8314  -14.8314  -14.3084  -14.0468  -13.6707  -13.6707  -13.0552  -12.9636  -12.8074  -12.7751
  -12.6489  -12.4902  -11.5196  -11.1244  -11.1244  -10.9209  -10.9209   -9.9923   -9.9923   -9.9156
   -8.7940   -8.7940   -7.3063   -7.3063   -5.7012   -5.7012   -5.5401   -4.9313   -4.9313   -3.7807
   -3.0798   -3.0798   -2.7860   -2.7860   -1.4677   -1.2172   -1.2172   -0.0542    0.4990    0.9867
    1.0541    1.3420    1.3924    1.3924    1.6245    1.6330    1.6530    1.6530    1.7980    1.8201
    1.9068    2.4049    2.4049    2.5789    2.5789    2.7427    4.4966    5.0889    5.6487    5.6487
    6.0795    6.0795    6.2891    6.4968    6.6274    6.6274    7.0157    7.0157    7.9572    8.4249
    8.4698    8.4698    8.6468    8.6468    9.1361    9.1361    9.3847    9.3847   10.1327   10.1327
   10.3826   10.3826   10.7828   10.9011   12.3472   12.3472   12.5026   12.5026   12.5571   12.7634
   15.1590   15.1590   15.1686   15.1686
   4  1  -27.8828  -27.1484  -27.1484  -27.0131  -26.3577  -26.3577  -25.1220  -25.1219  -24.5023  -24.5023
         -23.9253  -23.4546  -23.4545  -23.3730  -22.9539  -22.9539  -22.7514  -22.3846  -21.1567  -21.1368
  -21.1368  -21.0971  -20.7516  -20.7516  -19.5457  -19.2413  -18.5644  -18.5644  -18.1669  -18.1669
  -17.7125  -17.4712  -17.2513  -16.8755  -16.5436  -16.4947  -16.4947  -16.1698  -16.1698  -16.0449
  -16.0449  -15.9171  -15.9171  -15.7242  -15.7242  -15.6701  -15.6701  -15.3314  -15.3314  -14.2597
  -14.2597  -14.0155  -14.0155  -13.9832  -13.9832  -13.9759  -13.8028  -13.2610  -13.1197  -12.6551
  -12.4763  -12.1950  -12.1950  -11.8282  -11.8282  -11.3851  -10.0799  -10.0798   -9.9264   -9.9264
   -9.7284   -9.1173   -6.1751   -6.0599   -5.8478   -5.8478   -5.7480   -4.7782   -4.7782   -4.4046
   -4.4046   -4.3625   -2.7511   -2.7511   -0.6869   -0.6869    0.5540    0.5540    0.9177    1.2384
    1.2384    1.6831    1.8955    1.8955    1.9626    1.9670    2.2754    2.2754    2.5228    2.6162
    2.6162    2.7411    3.2409    3.5249    3.5249    4.0303    4.0899    4.0899    4.2524    4.2524
    4.5245    4.5245    5.3511    5.5143    5.6341    5.9853    6.5553    6.5553    7.0377    7.0377
    7.1700    7.5554    7.6445    7.6445    7.9762    7.9762    9.9093    9.9711   10.7389   10.7389
   10.8226   10.8226   12.4851   12.4851   12.5957   12.5958   13.6879   13.6880   13.8075   13.8075
   14.2318   14.2713   14.6591   14.6983
   5  1  -28.2601  -27.3466  -26.7921  -26.1013  -26.1013  -26.0360  -25.4073  -25.4073  -24.8166  -24.8166
         -24.2350  -24.2132  -24.2132  -23.6652  -22.6414  -22.6414  -22.1644  -22.1644  -20.7717  -20.7717
  -20.4876  -20.4453  -20.4453  -19.9967  -19.5559  -19.5559  -19.0478  -19.0478  -18.3791  -18.3791
  -18.0848  -18.0848  -17.6414  -17.6414  -17.1629  -17.1629  -16.8546  -16.6273  -16.1491  -15.7386
  -15.7386  -15.6015  -15.4422  -15.4204  -15.4204  -15.1623  -15.1338  -15.1338  -14.9625  -14.9625
  -14.8314  -14.8314  -14.3084  -14.0468  -13.6707  -13.6707  -13.0552  -12.9636  -12.8074  -12.7751
  -12.6489  -12.4902  -11.5196  -11.1244  -11.1244  -10.9209  -10.9209   -9.9923   -9.9923   -9.9156
   -8.7940   -8.7940   -7.3063   -7.3063   -5.7012   -5.7012   -5.5401   -4.9313   -4.9313   -3.7807
   -3.0798   -3.0798   -2.7860   -2.7860   -1.4677   -1.2172   -1.2172   -0.0542    0.4990    0.9867
    1.0541    1.3420    1.3924    1.3924    1.6245    1.6330    1.6530    1.6530    1.7980    1.8201
    1.9068    2.4049    2.4049    2.5789    2.5789    2.7427    4.4966    5.0889    5.6487    5.6487
    6.0795    6.0795    6.2891    6.4968    6.6274    6.6274    7.0157    7.0157    7.9572    8.4249
    8.4698    8.4698    8.6468    8.6468    9.1361    9.1361    9.3847    9.3847   10.1327   10.1327
   10.3826   10.3826   10.7828   10.9011   12.3472   12.3472   12.5026   12.5026   12.5571   12.7634
   15.1590   15.1590   15.1686   15.1686
   6  1  -28.4510  -27.5146  -25.6050  -25.6050  -25.6050  -25.6050  -25.6050  -25.6050  -24.9483  -24.9483
         -24.9483  -24.9483  -24.9483  -24.9483  -21.6802  -21.6802  -21.3148  -21.3148  -21.3148  -21.3148
  -21.0104  -21.0104  -18.8758  -18.8758  -18.8758  -18.8758  -18.6592  -18.6592  -18.6592  -18.6592
  -18.6592  -18.6592  -18.1276  -18.1276  -18.1276  -18.1276  -18.1276  -18.1276  -17.0097  -15.0037
  -15.0037  -15.0037  -15.0037  -15.0037  -15.0037  -14.7278  -14.7278  -14.7278  -14.7278  -14.7278
  -14.7278  -14.4821  -14.4821  -14.4821  -14.4821  -14.4821  -14.4821  -12.9742  -12.2910  -12.2910
  -12.1889  -12.1889  -10.5480  -10.5480  -10.5480  -10.5480  -10.5480  -10.5480  -10.1108  -10.1108
   -8.3890   -8.3890   -8.3890   -8.3890   -6.1877   -6.1877   -3.7509   -3.7509   -3.7509   -3.7508
   -3.7508   -3.7508   -1.9319   -1.9319   -1.9319   -1.9319   -1.9319   -1.9319    0.7152    0.7152
    0.7152    0.7152    0.7152    0.7152    0.8622    0.8622    1.0348    1.0348    1.7850    1.7850
    1.7850    1.7850    1.7850    1.7850    2.2621    3.1526    4.1167    4.7437    7.5161    7.5161
    7.5670    7.5670    7.5670    7.5670    7.6728    7.6728    8.8797    8.8797    8.8797    8.8797
    8.8797    8.8797    9.0589    9.0589    9.0589    9.0590    9.0590    9.0590   10.4572   10.4572
   10.4572   10.4572   10.4573   10.4573   10.7862   10.7862   10.7862   10.7863   10.7863   10.7863
   15.5231   15.5231   15.5231   15.5231
   7  1  -27.6967  -27.6967  -26.8477  -26.8477  -26.2705  -26.2705  -25.5632  -25.5632  -23.7974  -23.7974
         -23.7974  -23.7974  -23.2523  -23.2523  -23.2523  -23.2523  -23.1695  -22.7865  -21.4248  -21.3438
  -20.2531  -20.2531  -20.2531  -20.2531  -19.8093  -19.8093  -19.8093  -19.8093  -17.0706  -17.0706
  -17.0706  -17.0706  -16.9284  -16.9284  -16.7024  -16.7024  -16.7024  -16.7024  -16.6673  -16.6673
  -16.3876  -16.3876  -15.5909  -15.4693  -15.4693  -15.3105  -15.2215  -15.2215  -15.1215  -15.1215
  -14.6026  -14.6026  -14.2573  -14.2573  -13.4498  -13.4498  -13.2242  -13.2242  -12.5269  -12.5269
  -12.5269  -12.5269  -12.3127  -12.3127  -11.9515  -11.0514  -11.0514  -10.2903   -9.3583   -9.3583
   -9.3583   -9.3583   -6.1021   -6.1021   -6.1021   -6.1021   -5.5873   -5.0609   -4.4701   -4.4701
   -4.4701   -4.4701   -2.3951   -2.3951   -0.9886   -0.9886    0.4184    0.4893    0.4893    1.1650
    1.1650    1.5545    1.5974    1.5974    1.7972    1.7972    3.3143    3.3143    3.3143    3.3143
    3.6500    3.6500    3.7848    3.7848    3.8563    3.8563    3.8993    3.8993    4.0943    4.0943
    4.0943    4.0943    4.4544    4.4544    4.6358    4.6358    5.8095    5.8095    6.3376    6.3376
    8.8981    8.8981    8.8981    8.8982    9.1612    9.1612    9.1612    9.1612   10.1970   10.1970
   10.3830   10.3830   11.4927   11.5610   13.3670   13.5903   14.0806   14.0806   14.0806   14.0806
   14.1346   14.1346   14.1346   14.1347
   8  1  -27.8828  -27.1484  -27.1484  -27.0131  -26.3577  -26.3577  -25.1220  -25.1219  -24.5023  -24.5023
         -23.9253  -23.4546  -23.4545  -23.3730  -22.9539  -22.9539  -22.7514  -22.3846  -21.1567  -21.1368
  -21.1368  -21.0971  -20.7516  -20.7516  -19.5457  -19.2413  -18.5644  -18.5644  -18.1669  -18.1669
  -17.7125  -17.4712  -17.2513  -16.8755  -16.5436  -16.4947  -16.4947  -16.1698  -16.1698  -16.0449
  -16.0449  -15.9171  -15.9171  -15.7242  -15.7242  -15.6701  -15.6701  -15.3314  -15.3314  -14.2597
  -14.2597  -14.0155  -14.0155  -13.9832  -13.9832  -13.9759  -13.8028  -13.2610  -13.1197  -12.6551
  -12.4763  -12.1950  -12.1950  -11.8282  -11.8282  -11.3851  -10.0799  -10.0798   -9.9264   -9.9264
   -9.7284   -9.1173   -6.1751   -6.0599   -5.8478   -5.8478   -5.7480   -4.7782   -4.7782   -4.4046
   -4.4046   -4.3625   -2.7511   -2.7511   -0.6869   -0.6869    0.5540    0.5540    0.9177    1.2384
    1.2384    1.6831    1.8955    1.8955    1.9626    1.9670    2.2754    2.2754    2.5228    2.6162
    2.6162    2.7411    3.2409    3.5249    3.5249    4.0303    4.0899    4.0899    4.2524    4.2524
    4.5245    4.5245    5.3511    5.5143    5.6341    5.9853    6.5553    6.5553    7.0377    7.0377
    7.1700    7.5554    7.6445    7.6445    7.9762    7.9762    9.9093    9.9711   10.7389   10.7389
   10.8226   10.8226   12.4851   12.4851   12.5957   12.5958   13.6879   13.6880   13.8075   13.8075
   14.2318   14.2713   14.6591   14.6983
   9  1  -27.8828  -27.1484  -27.1484  -27.0131  -26.3577  -26.3577  -25.1220  -25.1219  -24.5023  -24.5023
         -23.9253  -23.4546  -23.4545  -23.3730  -22.9539  -22.9539  -22.7514  -22.3846  -21.1567  -21.1368
  -21.1368  -21.0971  -20.7516  -20.7516  -19.5457  -19.2413  -18.5644  -18.5644  -18.1669  -18.1669
  -17.7125  -17.4712  -17.2513  -16.8755  -16.5436  -16.4947  -16.4947  -16.1698  -16.1698  -16.0449
  -16.0449  -15.9171  -15.9171  -15.7242  -15.7242  -15.6701  -15.6701  -15.3314  -15.3314  -14.2597
  -14.2597  -14.0155  -14.0155  -13.9832  -13.9832  -13.9759  -13.8028  -13.2610  -13.1197  -12.6551
  -12.4763  -12.1950  -12.1950  -11.8282  -11.8282  -11.3851  -10.0799  -10.0798   -9.9264   -9.9264
   -9.7284   -9.1173   -6.1751   -6.0599   -5.8478   -5.8478   -5.7480   -4.7782   -4.7782   -4.4046
   -4.4046   -4.3625   -2.7511   -2.7511   -0.6869   -0.6869    0.5540    0.5540    0.9177    1.2384
    1.2384    1.6831    1.8955    1.8955    1.9626    1.9670    2.2754    2.2754    2.5228    2.6162
    2.6162    2.7411    3.2409    3.5249    3.5249    4.0303    4.0899    4.0899    4.2524    4.2524
    4.5245    4.5245    5.3511    5.5143    5.6341    5.9853    6.5553    6.5553    7.0377    7.0377
    7.1700    7.5554    7.6445    7.6445    7.9762    7.9762    9.9093    9.9711   10.7389   10.7389
   10.8226   10.8226   12.4851   12.4851   12.5957   12.5958   13.6879   13.6880   13.8075   13.8075
   14.2318   14.2713   14.6591   14.6983
  10  1  -27.6967  -27.6967  -26.8477  -26.8477  -26.2705  -26.2705  -25.5632  -25.5632  -23.7974  -23.7974
         -23.7974  -23.7974  -23.2523  -23.2523  -23.2523  -23.2523  -23.1695  -22.7865  -21.4248  -21.3438
  -20.2531  -20.2531  -20.2531  -20.2531  -19.8093  -19.8093  -19.8093  -19.8093  -17.0706  -17.0706
  -17.0706  -17.0706  -16.9284  -16.9284  -16.7024  -16.7024  -16.7024  -16.7024  -16.6673  -16.6673
  -16.3876  -16.3876  -15.5909  -15.4693  -15.4693  -15.3105  -15.2215  -15.2215  -15.1215  -15.1215
  -14.6026  -14.6026  -14.2573  -14.2573  -13.4498  -13.4498  -13.2242  -13.2242  -12.5269  -12.5269
  -12.5269  -12.5269  -12.3127  -12.3127  -11.9515  -11.0514  -11.0514  -10.2903   -9.3583   -9.3583
   -9.3583   -9.3583   -6.1021   -6.1021   -6.1021   -6.1021   -5.5873   -5.0609   -4.4701   -4.4701
   -4.4701   -4.4701   -2.3951   -2.3951   -0.9886   -0.9886    0.4184    0.4893    0.4893    1.1650
    1.1650    1.5545    1.5974    1.5974    1.7972    1.7972    3.3143    3.3143    3.3143    3.3143
    3.6500    3.6500    3.7848    3.7848    3.8563    3.8563    3.8993    3.8993    4.0943    4.0943
    4.0943    4.0943    4.4544    4.4544    4.6358    4.6358    5.8095    5.8095    6.3376    6.3376
    8.8981    8.8981    8.8981    8.8982    9.1612    9.1612    9.1612    9.1612   10.1970   10.1970
   10.3830   10.3830   11.4927   11.5610   13.3670   13.5903   14.0806   14.0806   14.0806   14.0806
   14.1346   14.1346   14.1346   14.1347
  11  1  -27.8828  -27.1484  -27.1484  -27.0131  -26.3577  -26.3577  -25.1220  -25.1219  -24.5023  -24.5023
         -23.9253  -23.4546  -23.4545  -23.3730  -22.9539  -22.9539  -22.7514  -22.3846  -21.1567  -21.1368
  -21.1368  -21.0971  -20.7516  -20.7516  -19.5457  -19.2413  -18.5644  -18.5644  -18.1669  -18.1669
  -17.7125  -17.4712  -17.2513  -16.8755  -16.5436  -16.4947  -16.4947  -16.1698  -16.1698  -16.0449
  -16.0449  -15.9171  -15.9171  -15.7242  -15.7242  -15.6701  -15.6701  -15.3314  -15.3314  -14.2597
  -14.2597  -14.0155  -14.0155  -13.9832  -13.9832  -13.9759  -13.8028  -13.2610  -13.1197  -12.6551
  -12.4763  -12.1950  -12.1950  -11.8282  -11.8282  -11.3851  -10.0799  -10.0798   -9.9264   -9.9264
   -9.7284   -9.1173   -6.1751   -6.0599   -5.8478   -5.8478   -5.7480   -4.7782   -4.7782   -4.4046
   -4.4046   -4.3625   -2.7511   -2.7511   -0.6869   -0.6869    0.5540    0.5540    0.9177    1.2384
    1.2384    1.6831    1.8955    1.8955    1.9626    1.9670    2.2754    2.2754    2.5228    2.6162
    2.6162    2.7411    3.2409    3.5249    3.5249    4.0303    4.0899    4.0899    4.2524    4.2524
    4.5245    4.5245    5.3511    5.5143    5.6341    5.9853    6.5553    6.5553    7.0377    7.0377
    7.1700    7.5554    7.6445    7.6445    7.9762    7.9762    9.9093    9.9711   10.7389   10.7389
   10.8226   10.8226   12.4851   12.4851   12.5957   12.5958   13.6879   13.6880   13.8075   13.8075
   14.2318   14.2713   14.6591   14.6983
  12  1  -27.6967  -27.6967  -26.8477  -26.8477  -26.2705  -26.2705  -25.5632  -25.5632  -23.7974  -23.7974
         -23.7974  -23.7974  -23.2523  -23.2523  -23.2523  -23.2523  -23.1695  -22.7865  -21.4248  -21.3438
  -20.2531  -20.2531  -20.2531  -20.2531  -19.8093  -19.8093  -19.8093  -19.8093  -17.0706  -17.0706
  -17.0706  -17.0706  -16.9284  -16.9284  -16.7024  -16.7024  -16.7024  -16.7024  -16.6673  -16.6673
  -16.3876  -16.3876  -15.5909  -15.4693  -15.4693  -15.3105  -15.2215  -15.2215  -15.1215  -15.1215
  -14.6026  -14.6026  -14.2573  -14.2573  -13.4498  -13.4498  -13.2242  -13.2242  -12.5269  -12.5269
  -12.5269  -12.5269  -12.3127  -12.3127  -11.9515  -11.0514  -11.0514  -10.2903   -9.3583   -9.3583
   -9.3583   -9.3583   -6.1021   -6.1021   -6.1021   -6.1021   -5.5873   -5.0609   -4.4701   -4.4701
   -4.4701   -4.4701   -2.3951   -2.3951   -0.9886   -0.9886    0.4184    0.4893    0.4893    1.1650
    1.1650    1.5545    1.5974    1.5974    1.7972    1.7972    3.3143    3.3143    3.3143    3.3143
    3.6500    3.6500    3.7848    3.7848    3.8563    3.8563    3.8993    3.8993    4.0943    4.0943
    4.0943    4.0943    4.4544    4.4544    4.6358    4.6358    5.8095    5.8095    6.3376    6.3376
    8.8981    8.8981    8.8981    8.8982    9.1612    9.1612    9.1612    9.1612   10.1970   10.1970
   10.3830   10.3830   11.4927   11.5610   13.3670   13.5903   14.0806   14.0806   14.0806   14.0806
   14.1346   14.1346   14.1346   14.1347
  13  1  -27.7952  -27.1786  -27.0666  -27.0666  -26.5079  -26.5079  -25.0502  -25.0502  -24.6149  -24.6149
         -23.8558  -23.4675  -23.3867  -23.3867  -23.0324  -23.0324  -22.6894  -22.4245  -21.1775  -21.1283
  -21.0947  -21.0947  -20.8218  -20.8218  -19.4974  -19.2807  -18.5074  -18.5074  -18.2255  -18.2255
  -17.6949  -17.5215  -17.2008  -16.9353  -16.4582  -16.4582  -16.2267  -16.2267  -16.0665  -16.0000
  -16.0000  -15.7732  -15.7732  -15.6214  -15.6214  -15.4718  -15.4718  -15.3548  -15.3548  -14.2309
  -14.2309  -14.0572  -14.0572  -13.9465  -13.8189  -13.5109  -13.5109  -13.2820  -13.2513  -13.1449
  -12.6313  -12.6313  -12.1860  -11.7620  -11.7620  -10.9668  -10.7678  -10.7678  -10.0264  -10.0264
   -9.6697   -9.6667   -6.2321   -6.1615   -6.0219   -6.0219   -5.9218   -5.1422   -5.1422   -4.6755
   -4.1844   -4.1844   -3.0274   -3.0273   -0.5540   -0.5540    0.3021    0.3021    0.9770    1.4228
    1.4228    1.5961    1.8172    2.0656    2.0656    2.1540    2.1609    2.1610    2.5458    2.5777
    2.5777    2.7094    3.3809    3.6575    3.6575    3.9406    4.1692    4.1692    4.1730    4.1730
    4.4788    4.4788    5.4146    5.5939    5.6131    5.9240    6.6510    6.6511    6.9938    6.9938
    7.2438    7.5190    7.6961    7.6961    7.9314    7.9314    9.9267    9.9712   10.7561   10.7562
   10.8148   10.8148   12.5029   12.5029   12.5812   12.5812   13.7111   13.7111   13.7959   13.7959
   14.2387   14.2665   14.6672   14.6953
  14  1  -28.1692  -27.5202  -26.7126  -26.1793  -26.0258  -26.0258  -25.5373  -25.5373  -24.7452  -24.7452
         -24.3213  -24.3213  -24.1644  -23.7638  -22.5740  -22.5740  -22.2358  -22.2358  -20.7304  -20.7304
  -20.4995  -20.4995  -20.4249  -20.0788  -19.4888  -19.4888  -19.1306  -19.1306  -18.3465  -18.3465
  -18.1378  -18.1378  -17.5769  -17.5769  -17.2393  -17.2393  -16.5639  -16.3696  -16.2281  -15.6943
  -15.6943  -15.4693  -15.4693  -15.4020  -15.2041  -15.1298  -15.0935  -15.0935  -14.8796  -14.8796
  -14.4916  -14.4916  -14.2708  -14.0859  -13.6013  -13.2025  -13.2025  -12.9358  -12.8032  -12.6264
  -12.5984  -12.5142  -12.3128  -11.6816  -11.6816  -10.6786  -10.6786  -10.5861  -10.5861  -10.2996
   -8.8875   -8.8875   -7.2504   -7.2504   -6.1470   -6.1470   -5.4981   -4.7521   -4.7521   -4.1679
   -3.4177   -3.4177   -2.5967   -2.5967   -1.4960   -1.4960   -1.3183   -0.3428    0.7038    1.0766
    1.2025    1.2860    1.5062    1.5781    1.5781    1.6584    1.7907    1.8363    1.8363    1.8497
    1.9372    2.2994    2.2994    2.4956    2.4956    2.5802    4.6188    5.0244    5.7304    5.7304
    6.0333    6.0333    6.3187    6.4656    6.6999    6.6999    6.9761    6.9761    8.0426    8.3777
    8.5104    8.5104    8.6351    8.6351    9.1827    9.1827    9.3583    9.3583   10.1748   10.1748
   10.3536   10.3536   10.7997   10.8834   12.3777   12.3777   12.4879   12.4879   12.6013   12.7462
   15.1614   15.1614   15.1682   15.1682
  15  1  -28.1692  -27.5202  -26.7126  -26.1793  -26.0258  -26.0258  -25.5373  -25.5373  -24.7452  -24.7452
         -24.3213  -24.3213  -24.1644  -23.7638  -22.5740  -22.5740  -22.2358  -22.2358  -20.7304  -20.7304
  -20.4995  -20.4995  -20.4249  -20.0788  -19.4888  -19.4888  -19.1306  -19.1306  -18.3465  -18.3465
  -18.1378  -18.1378  -17.5769  -17.5769  -17.2393  -17.2393  -16.5639  -16.3696  -16.2281  -15.6943
  -15.6943  -15.4693  -15.4693  -15.4020  -15.2041  -15.1298  -15.0935  -15.0935  -14.8796  -14.8796
  -14.4916  -14.4916  -14.2708  -14.0859  -13.6013  -13.2025  -13.2025  -12.9358  -12.8032  -12.6264
  -12.5984  -12.5142  -12.3128  -11.6816  -11.6816  -10.6786  -10.6786  -10.5861  -10.5861  -10.2996
   -8.8875   -8.8875   -7.2504   -7.2504   -6.1470   -6.1470   -5.4981   -4.7521   -4.7521   -4.1679
   -3.4177   -3.4177   -2.5967   -2.5967   -1.4960   -1.4960   -1.3183   -0.3428    0.7038    1.0766
    1.2025    1.2860    1.5062    1.5781    1.5781    1.6584    1.7907    1.8363    1.8363    1.8497
    1.9372    2.2994    2.2994    2.4956    2.4956    2.5802    4.6188    5.0244    5.7304    5.7304
    6.0333    6.0333    6.3187    6.4656    6.6999    6.6999    6.9761    6.9761    8.0426    8.3777
    8.5104    8.5104    8.6351    8.6351    9.1827    9.1827    9.3583    9.3583   10.1748   10.1748
   10.3536   10.3536   10.7997   10.8834   12.3777   12.3777   12.4879   12.4879   12.6013   12.7462
   15.1614   15.1614   15.1682   15.1682
  16  1  -27.7952  -27.1786  -27.0666  -27.0666  -26.5079  -26.5079  -25.0502  -25.0502  -24.6149  -24.6149
         -23.8558  -23.4675  -23.3867  -23.3867  -23.0324  -23.0324  -22.6894  -22.4245  -21.1775  -21.1283
  -21.0947  -21.0947  -20.8218  -20.8218  -19.4974  -19.2807  -18.5074  -18.5074  -18.2255  -18.2255
  -17.6949  -17.5215  -17.2008  -16.9353  -16.4582  -16.4582  -16.2267  -16.2267  -16.0665  -16.0000
  -16.0000  -15.7732  -15.7732  -15.6214  -15.6214  -15.4718  -15.4718  -15.3548  -15.3548  -14.2309
  -14.2309  -14.0572  -14.0572  -13.9465  -13.8189  -13.5109  -13.5109  -13.2820  -13.2513  -13.1449
  -12.6313  -12.6313  -12.1860  -11.7620  -11.7620  -10.9668  -10.7678  -10.7678  -10.0264  -10.0264
   -9.6697   -9.6667   -6.2321   -6.1615   -6.0219   -6.0219   -5.9218   -5.1422   -5.1422   -4.6755
   -4.1844   -4.1844   -3.0274   -3.0273   -0.5540   -0.5540    0.3021    0.3021    0.9770    1.4228
    1.4228    1.5961    1.8172    2.0656    2.0656    2.1540    2.1609    2.1610    2.5458    2.5777
    2.5777    2.7094    3.3809    3.6575    3.6575    3.9406    4.1692    4.1692    4.1730    4.1730
    4.4788    4.4788    5.4146    5.5939    5.6131    5.9240    6.6510    6.6511    6.9938    6.9938
    7.2438    7.5190    7.6961    7.6961    7.9314    7.9314    9.9267    9.9712   10.7561   10.7562
   10.8148   10.8148   12.5029   12.5029   12.5812   12.5812   13.7111   13.7111   13.7959   13.7959
   14.2387   14.2665   14.6672   14.6953
  17  1  -28.1692  -27.5202  -26.7126  -26.1793  -26.0258  -26.0258  -25.5373  -25.5373  -24.7452  -24.7452
         -24.3213  -24.3213  -24.1644  -23.7638  -22.5740  -22.5740  -22.2358  -22.2358  -20.7304  -20.7304
  -20.4995  -20.4995  -20.4249  -20.0788  -19.4888  -19.4888  -19.1306  -19.1306  -18.3465  -18.3465
  -18.1378  -18.1378  -17.5769  -17.5769  -17.2393  -17.2393  -16.5639  -16.3696  -16.2281  -15.6943
  -15.6943  -15.4693  -15.4693  -15.4020  -15.2041  -15.1298  -15.0935  -15.0935  -14.8796  -14.8796
  -14.4916  -14.4916  -14.2708  -14.0859  -13.6013  -13.2025  -13.2025  -12.9358  -12.8032  -12.6264
  -12.5984  -12.5142  -12.3128  -11.6816  -11.6816  -10.6786  -10.6786  -10.5861  -10.5861  -10.2996
   -8.8875   -8.8875   -7.2504   -7.2504   -6.1470   -6.1470   -5.4981   -4.7521   -4.7521   -4.1679
   -3.4177   -3.4177   -2.5967   -2.5967   -1.4960   -1.4960   -1.3183   -0.3428    0.7038    1.0766
    1.2025    1.2860    1.5062    1.5781    1.5781    1.6584    1.7907    1.8363    1.8363    1.8497
    1.9372    2.2994    2.2994    2.4956    2.4956    2.5802    4.6188    5.0244    5.7304    5.7304
    6.0333    6.0333    6.3187    6.4656    6.6999    6.6999    6.9761    6.9761    8.0426    8.3777
    8.5104    8.5104    8.6351    8.6351    9.1827    9.1827    9.3583    9.3583   10.1748   10.1748
   10.3536   10.3536   10.7997   10.8834   12.3777   12.3777   12.4879   12.4879   12.6013   12.7462
   15.1614   15.1614   15.1682   15.1682
  18  1  -28.3585  -27.6925  -25.5313  -25.5313  -25.5313  -25.5313  -25.5313  -25.5313  -25.0697  -25.0696
         -25.0696  -25.0696  -25.0696  -25.0696  -21.5928  -21.5928  -21.3061  -21.3061  -21.3061  -21.3061
  -21.1210  -21.1210  -18.8893  -18.8893  -18.8893  -18.8893  -18.5892  -18.5892  -18.5892  -18.5892
  -18.5892  -18.5892  -18.2145  -18.2145  -18.2145  -18.2145  -18.2145  -18.2145  -16.5197  -14.9641
  -14.9641  -14.9641  -14.9641  -14.9641  -14.9641  -14.7690  -14.7690  -14.7690  -14.7690  -14.7690
  -14.7690  -14.0127  -14.0127  -14.0127  -14.0127  -14.0127  -14.0127  -13.7586  -12.2769  -12.2769
  -12.2046  -12.2046  -11.2547  -11.2547  -11.2547  -11.2547  -11.2547  -11.2547   -9.6116   -9.6116
   -8.2973   -8.2973   -8.2973   -8.2973   -6.8539   -6.8539   -3.5510   -3.5510   -3.5510   -3.5510
   -3.5510   -3.5510   -2.2608   -2.2608   -2.2608   -2.2608   -2.2608   -2.2608    0.8852    0.8852
    0.9240    0.9240    0.9240    0.9240    0.9240    0.9240    1.0073    1.0073    1.6864    1.6864
    1.6864    1.6864    1.6864    1.6864    2.3544    2.9526    4.2722    4.6850    7.5622    7.5622
    7.5767    7.5767    7.5767    7.5767    7.6679    7.6679    8.9055    8.9055    8.9055    8.9055
    8.9055    8.9055    9.0322    9.0323    9.0323    9.0323    9.0323    9.0323   10.5242   10.5242
   10.5242   10.5243   10.5243   10.5243   10.7592   10.7592   10.7592   10.7592   10.7592   10.7592
   15.5235   15.5235   15.5235   15.5235
  19  1  -28.1692  -27.5202  -26.7126  -26.1793  -26.0258  -26.0258  -25.5373  -25.5373  -24.7452  -24.7452
         -24.3213  -24.3213  -24.1644  -23.7638  -22.5740  -22.5740  -22.2358  -22.2358  -20.7304  -20.7304
  -20.4995  -20.4995  -20.4249  -20.0788  -19.4888  -19.4888  -19.1306  -19.1306  -18.3465  -18.3465
  -18.1378  -18.1378  -17.5769  -17.5769  -17.2393  -17.2393  -16.5639  -16.3696  -16.2281  -15.6943
  -15.6943  -15.4693  -15.4693  -15.4020  -15.2041  -15.1298  -15.0935  -15.0935  -14.8796  -14.8796
  -14.4916  -14.4916  -14.2708  -14.0859  -13.6013  -13.2025  -13.2025  -12.9358  -12.8032  -12.6264
  -12.5984  -12.5142  -12.3128  -11.6816  -11.6816  -10.6786  -10.6786  -10.5861  -10.5861  -10.2996
   -8.8875   -8.8875   -7.2504   -7.2504   -6.1470   -6.1470   -5.4981   -4.7521   -4.7521   -4.1679
   -3.4177   -3.4177   -2.5967   -2.5967   -1.4960   -1.4960   -1.3183   -0.3428    0.7038    1.0766
    1.2025    1.2860    1.5062    1.5781    1.5781    1.6584    1.7907    1.8363    1.8363    1.8497
    1.9372    2.2994    2.2994    2.4956    2.4956    2.5802    4.6188    5.0244    5.7304    5.7304
    6.0333    6.0333    6.3187    6.4656    6.6999    6.6999    6.9761    6.9761    8.0426    8.3777
    8.5104    8.5104    8.6351    8.6351    9.1827    9.1827    9.3583    9.3583   10.1748   10.1748
   10.3536   10.3536   10.7997   10.8834   12.3777   12.3777   12.4879   12.4879   12.6013   12.7462
   15.1614   15.1614   15.1682   15.1682
  20  1  -27.6106  -27.6106  -27.0093  -27.0093  -26.1942  -26.1942  -25.6962  -25.6962  -23.7279  -23.7279
         -23.7279  -23.7279  -23.3444  -23.3444  -23.3444  -23.3444  -23.1071  -22.8312  -21.4443  -21.3808
  -20.1944  -20.1944  -20.1944  -20.1944  -19.8811  -19.8811  -19.8811  -19.8811  -17.0223  -17.0223
  -17.0223  -17.0223  -16.8850  -16.8850  -16.7619  -16.7619  -16.7619  -16.7619  -16.6979  -16.6979
  -15.9140  -15.9140  -15.5506  -15.4528  -15.4528  -15.3523  -15.2719  -15.2719  -14.6495  -14.6495
  -14.5558  -14.5558  -14.3092  -14.3092  -13.4175  -13.4175  -13.2580  -13.2580  -13.1171  -13.1171
  -12.0665  -12.0665  -12.0665  -12.0665  -11.8276  -11.8276  -11.5438  -10.2443   -9.7547   -9.7547
   -9.7547   -9.7547   -5.9926   -5.9926   -5.9926   -5.9926   -5.9264   -5.4051   -4.8040   -4.8040
   -4.8040   -4.8040   -2.2148   -2.2148   -1.2329   -1.2329    0.5474    0.5474    0.6211    1.1293
    1.1293    1.4307    1.5182    1.5182    1.8600    1.8600    3.4532    3.4532    3.4532    3.4533
    3.6788    3.6788    3.8247    3.8247    3.8937    3.8937    4.0064    4.0065    4.0065    4.0065
    4.0081    4.0081    4.4124    4.4124    4.5918    4.5918    5.9018    5.9018    6.2750    6.2750
    8.9511    8.9511    8.9511    8.9511    9.1361    9.1362    9.1362    9.1362   10.2245   10.2245
   10.3556   10.3556   11.5023   11.5506   13.4083   13.5669   14.0913   14.0913   14.0913   14.0913
   14.1294   14.1294   14.1294   14.1294
  21  1  -28.1692  -27.5202  -26.7126  -26.1793  -26.0258  -26.0258  -25.5373  -25.5373  -24.7452  -24.7452
         -24.3213  -24.3213  -24.1644  -23.7638  -22.5740  -22.5740  -22.2358  -22.2358  -20.7304  -20.7304
  -20.4995  -20.4995  -20.4249  -20.0788  -19.4888  -19.4888  -19.1306  -19.1306  -18.3465  -18.3465
  -18.1378  -18.1378  -17.5769  -17.5769  -17.2393  -17.2393  -16.5639  -16.3696  -16.2281  -15.6943
  -15.6943  -15.4693  -15.4693  -15.4020  -15.2041  -15.1298  -15.0935  -15.0935  -14.8796  -14.8796
  -14.4916  -14.4916  -14.2708  -14.0859  -13.6013  -13.2025  -13.2025  -12.9358  -12.8032  -12.6264
  -12.5984  -12.5142  -12.3128  -11.6816  -11.6816  -10.6786  -10.6786  -10.5861  -10.5861  -10.2996
   -8.8875   -8.8875   -7.2504   -7.2504   -6.1470   -6.1470   -5.4981   -4.7521   -4.7521   -4.1679
   -3.4177   -3.4177   -2.5967   -2.5967   -1.4960   -1.4960   -1.3183   -0.3428    0.7038    1.0766
    1.2025    1.2860    1.5062    1.5781    1.5781    1.6584    1.7907    1.8363    1.8363    1.8497
    1.9372    2.2994    2.2994    2.4956    2.4956    2.5802    4.6188    5.0244    5.7304    5.7304
    6.0333    6.0333    6.3187    6.4656    6.6999    6.6999    6.9761    6.9761    8.0426    8.3777
    8.5104    8.5104    8.6351    8.6351    9.1827    9.1827    9.3583    9.3583   10.1748   10.1748
   10.3536   10.3536   10.7997   10.8834   12.3777   12.3777   12.4879   12.4879   12.6013   12.7462
   15.1614   15.1614   15.1682   15.1682
  22  1  -28.1692  -27.5202  -26.7126  -26.1793  -26.0258  -26.0258  -25.5373  -25.5373  -24.7452  -24.7452
         -24.3213  -24.3213  -24.1644  -23.7638  -22.5740  -22.5740  -22.2358  -22.2358  -20.7304  -20.7304
  -20.4995  -20.4995  -20.4249  -20.0788  -19.4888  -19.4888  -19.1306  -19.1306  -18.3465  -18.3465
  -18.1378  -18.1378  -17.5769  -17.5769  -17.2393  -17.2393  -16.5639  -16.3696  -16.2281  -15.6943
  -15.6943  -15.4693  -15.4693  -15.4020  -15.2041  -15.1298  -15.0935  -15.0935  -14.8796  -14.8796
  -14.4916  -14.4916  -14.2708  -14.0859  -13.6013  -13.2025  -13.2025  -12.9358  -12.8032  -12.6264
  -12.5984  -12.5142  -12.3128  -11.6816  -11.6816  -10.6786  -10.6786  -10.5861  -10.5861  -10.2996
   -8.8875   -8.8875   -7.2504   -7.2504   -6.1470   -6.1470   -5.4981   -4.7521   -4.7521   -4.1679
   -3.4177   -3.4177   -2.5967   -2.5967   -1.4960   -1.4960   -1.3183   -0.3428    0.7038    1.0766
    1.2025    1.2860    1.5062    1.5781    1.5781    1.6584    1.7907    1.8363    1.8363    1.8497
    1.9372    2.2994    2.2994    2.4956    2.4956    2.5802    4.6188    5.0244    5.7304    5.7304
    6.0333    6.0333    6.3187    6.4656    6.6999    6.6999    6.9761    6.9761    8.0426    8.3777
    8.5104    8.5104    8.6351    8.6351    9.1827    9.1827    9.3583    9.3583   10.1748   10.1748
   10.3536   10.3536   10.7997   10.8834   12.3777   12.3777   12.4879   12.4879   12.6013   12.7462
   15.1614   15.1614   15.1682   15.1682
  23  1  -27.7952  -27.1786  -27.0666  -27.0666  -26.5079  -26.5079  -25.0502  -25.0502  -24.6149  -24.6149
         -23.8558  -23.4675  -23.3867  -23.3867  -23.0324  -23.0324  -22.6894  -22.4245  -21.1775  -21.1283
  -21.0947  -21.0947  -20.8218  -20.8218  -19.4974  -19.2807  -18.5074  -18.5074  -18.2255  -18.2255
  -17.6949  -17.5215  -17.2008  -16.9353  -16.4582  -16.4582  -16.2267  -16.2267  -16.0665  -16.0000
  -16.0000  -15.7732  -15.7732  -15.6214  -15.6214  -15.4718  -15.4718  -15.3548  -15.3548  -14.2309
  -14.2309  -14.0572  -14.0572  -13.9465  -13.8189  -13.5109  -13.5109  -13.2820  -13.2513  -13.1449
  -12.6313  -12.6313  -12.1860  -11.7620  -11.7620  -10.9668  -10.7678  -10.7678  -10.0264  -10.0264
   -9.6697   -9.6667   -6.2321   -6.1615   -6.0219   -6.0219   -5.9218   -5.1422   -5.1422   -4.6755
   -4.1844   -4.1844   -3.0274   -3.0273   -0.5540   -0.5540    0.3021    0.3021    0.9770    1.4228
    1.4228    1.5961    1.8172    2.0656    2.0656    2.1540    2.1609    2.1610    2.5458    2.5777
    2.5777    2.7094    3.3809    3.6575    3.6575    3.9406    4.1692    4.1692    4.1730    4.1730
    4.4788    4.4788    5.4146    5.5939    5.6131    5.9240    6.6510    6.6511    6.9938    6.9938
    7.2438    7.5190    7.6961    7.6961    7.9314    7.9314    9.9267    9.9712   10.7561   10.7562
   10.8148   10.8148   12.5029   12.5029   12.5812   12.5812   13.7111   13.7111   13.7959   13.7959
   14.2387   14.2665   14.6672   14.6953
  24  1  -27.7952  -27.1786  -27.0666  -27.0666  -26.5079  -26.5079  -25.0502  -25.0502  -24.6149  -24.6149
         -23.8558  -23.4675  -23.3867  -23.3867  -23.0324  -23.0324  -22.6894  -22.4245  -21.1775  -21.1283
  -21.0947  -21.0947  -20.8218  -20.8218  -19.4974  -19.2807  -18.5074  -18.5074  -18.2255  -18.2255
  -17.6949  -17.5215  -17.2008  -16.9353  -16.4582  -16.4582  -16.2267  -16.2267  -16.0665  -16.0000
  -16.0000  -15.7732  -15.7732  -15.6214  -15.6214  -15.4718  -15.4718  -15.3548  -15.3548  -14.2309
  -14.2309  -14.0572  -14.0572  -13.9465  -13.8189  -13.5109  -13.5109  -13.2820  -13.2513  -13.1449
  -12.6313  -12.6313  -12.1860  -11.7620  -11.7620  -10.9668  -10.7678  -10.7678  -10.0264  -10.0264
   -9.6697   -9.6667   -6.2321   -6.1615   -6.0219   -6.0219   -5.9218   -5.1422   -5.1422   -4.6755
   -4.1844   -4.1844   -3.0274   -3.0273   -0.5540   -0.5540    0.3021    0.3021    0.9770    1.4228
    1.4228    1.5961    1.8172    2.0656    2.0656    2.1540    2.1609    2.1610    2.5458    2.5777
    2.5777    2.7094    3.3809    3.6575    3.6575    3.9406    4.1692    4.1692    4.1730    4.1730
    4.4788    4.4788    5.4146    5.5939    5.6131    5.9240    6.6510    6.6511    6.9938    6.9938
    7.2438    7.5190    7.6961    7.6961    7.9314    7.9314    9.9267    9.9712   10.7561   10.7562
   10.8148   10.8148   12.5029   12.5029   12.5812   12.5812   13.7111   13.7111   13.7959   13.7959
   14.2387   14.2665   14.6672   14.6953
  25  1  -27.7952  -27.1786  -27.0666  -27.0666  -26.5079  -26.5079  -25.0502  -25.0502  -24.6149  -24.6149
         -23.8558  -23.4675  -23.3867  -23.3867  -23.0324  -23.0324  -22.6894  -22.4245  -21.1775  -21.1283
  -21.0947  -21.0947  -20.8218  -20.8218  -19.4974  -19.2807  -18.5074  -18.5074  -18.2255  -18.2255
  -17.6949  -17.5215  -17.2008  -16.9353  -16.4582  -16.4582  -16.2267  -16.2267  -16.0665  -16.0000
  -16.0000  -15.7732  -15.7732  -15.6214  -15.6214  -15.4718  -15.4718  -15.3548  -15.3548  -14.2309
  -14.2309  -14.0572  -14.0572  -13.9465  -13.8189  -13.5109  -13.5109  -13.2820  -13.2513  -13.1449
  -12.6313  -12.6313  -12.1860  -11.7620  -11.7620  -10.9668  -10.7678  -10.7678  -10.0264  -10.0264
   -9.6697   -9.6667   -6.2321   -6.1615   -6.0219   -6.0219   -5.9218   -5.1422   -5.1422   -4.6755
   -4.1844   -4.1844   -3.0274   -3.0273   -0.5540   -0.5540    0.3021    0.3021    0.9770    1.4228
    1.4228    1.5961    1.8172    2.0656    2.0656    2.1540    2.1609    2.1610    2.5458    2.5777
    2.5777    2.7094    3.3809    3.6575    3.6575    3.9406    4.1692    4.1692    4.1730    4.1730
    4.4788    4.4788    5.4146    5.5939    5.6131    5.9240    6.6510    6.6511    6.9938    6.9938
    7.2438    7.5190    7.6961    7.6961    7.9314    7.9314    9.9267    9.9712   10.7561   10.7562
   10.8148   10.8148   12.5029   12.5029   12.5812   12.5812   13.7111   13.7111   13.7959   13.7959
   14.2387   14.2665   14.6672   14.6953
  26  1  -27.6106  -27.6106  -27.0093  -27.0093  -26.1942  -26.1942  -25.6962  -25.6962  -23.7279  -23.7279
         -23.7279  -23.7279  -23.3444  -23.3444  -23.3444  -23.3444  -23.1071  -22.8312  -21.4443  -21.3808
  -20.1944  -20.1944  -20.1944  -20.1944  -19.8811  -19.8811  -19.8811  -19.8811  -17.0223  -17.0223
  -17.0223  -17.0223  -16.8850  -16.8850  -16.7619  -16.7619  -16.7619  -16.7619  -16.6979  -16.6979
  -15.9140  -15.9140  -15.5506  -15.4528  -15.4528  -15.3523  -15.2719  -15.2719  -14.6495  -14.6495
  -14.5558  -14.5558  -14.3092  -14.3092  -13.4175  -13.4175  -13.2580  -13.2580  -13.1171  -13.1171
  -12.0665  -12.0665  -12.0665  -12.0665  -11.8276  -11.8276  -11.5438  -10.2443   -9.7547   -9.7547
   -9.7547   -9.7547   -5.9926   -5.9926   -5.9926   -5.9926   -5.9264   -5.4051   -4.8040   -4.8040
   -4.8040   -4.8040   -2.2148   -2.2148   -1.2329   -1.2329    0.5474    0.5474    0.6211    1.1293
    1.1293    1.4307    1.5182    1.5182    1.8600    1.8600    3.4532    3.4532    3.4532    3.4533
    3.6788    3.6788    3.8247    3.8247    3.8937    3.8937    4.0064    4.0065    4.0065    4.0065
    4.0081    4.0081    4.4124    4.4124    4.5918    4.5918    5.9018    5.9018    6.2750    6.2750
    8.9511    8.9511    8.9511    8.9511    9.1361    9.1362    9.1362    9.1362   10.2245   10.2245
   10.3556   10.3556   11.5023   11.5506   13.4083   13.5669   14.0913   14.0913   14.0913   14.0913
   14.1294   14.1294   14.1294   14.1294
  27  1  -27.7952  -27.1786  -27.0666  -27.0666  -26.5079  -26.5079  -25.0502  -25.0502  -24.6149  -24.6149
         -23.8558  -23.4675  -23.3867  -23.3867  -23.0324  -23.0324  -22.6894  -22.4245  -21.1775  -21.1283
  -21.0947  -21.0947  -20.8218  -20.8218  -19.4974  -19.2807  -18.5074  -18.5074  -18.2255  -18.2255
  -17.6949  -17.5215  -17.2008  -16.9353  -16.4582  -16.4582  -16.2267  -16.2267  -16.0665  -16.0000
  -16.0000  -15.7732  -15.7732  -15.6214  -15.6214  -15.4718  -15.4718  -15.3548  -15.3548  -14.2309
  -14.2309  -14.0572  -14.0572  -13.9465  -13.8189  -13.5109  -13.5109  -13.2820  -13.2513  -13.1449
  -12.6313  -12.6313  -12.1860  -11.7620  -11.7620  -10.9668  -10.7678  -10.7678  -10.0264  -10.0264
   -9.6697   -9.6667   -6.2321   -6.1615   -6.0219   -6.0219   -5.9218   -5.1422   -5.1422   -4.6755
   -4.1844   -4.1844   -3.0274   -3.0273   -0.5540   -0.5540    0.3021    0.3021    0.9770    1.4228
    1.4228    1.5961    1.8172    2.0656    2.0656    2.1540    2.1609    2.1610    2.5458    2.5777
    2.5777    2.7094    3.3809    3.6575    3.6575    3.9406    4.1692    4.1692    4.1730    4.1730
    4.4788    4.4788    5.4146    5.5939    5.6131    5.9240    6.6510    6.6511    6.9938    6.9938
    7.2438    7.5190    7.6961    7.6961    7.9314    7.9314    9.9267    9.9712   10.7561   10.7562
   10.8148   10.8148   12.5029   12.5029   12.5812   12.5812   13.7111   13.7111   13.7959   13.7959
   14.2387   14.2665   14.6672   14.6953
  28  1  -27.6106  -27.6106  -27.0093  -27.0093  -26.1942  -26.1942  -25.6962  -25.6962  -23.7279  -23.7279
         -23.7279  -23.7279  -23.3444  -23.3444  -23.3444  -23.3444  -23.1071  -22.8312  -21.4443  -21.3808
  -20.1944  -20.1944  -20.1944  -20.1944  -19.8811  -19.8811  -19.8811  -19.8811  -17.0223  -17.0223
  -17.0223  -17.0223  -16.8850  -16.8850  -16.7619  -16.7619  -16.7619  -16.7619  -16.6979  -16.6979
  -15.9140  -15.9140  -15.5506  -15.4528  -15.4528  -15.3523  -15.2719  -15.2719  -14.6495  -14.6495
  -14.5558  -14.5558  -14.3092  -14.3092  -13.4175  -13.4175  -13.2580  -13.2580  -13.1171  -13.1171
  -12.0665  -12.0665  -12.0665  -12.0665  -11.8276  -11.8276  -11.5438  -10.2443   -9.7547   -9.7547
   -9.7547   -9.7547   -5.9926   -5.9926   -5.9926   -5.9926   -5.9264   -5.4051   -4.8040   -4.8040
   -4.8040   -4.8040   -2.2148   -2.2148   -1.2329   -1.2329    0.5474    0.5474    0.6211    1.1293
    1.1293    1.4307    1.5182    1.5182    1.8600    1.8600    3.4532    3.4532    3.4532    3.4533
    3.6788    3.6788    3.8247    3.8247    3.8937    3.8937    4.0064    4.0065    4.0065    4.0065
    4.0081    4.0081    4.4124    4.4124    4.5918    4.5918    5.9018    5.9018    6.2750    6.2750
    8.9511    8.9511    8.9511    8.9511    9.1361    9.1362    9.1362    9.1362   10.2245   10.2245
   10.3556   10.3556   11.5023   11.5506   13.4083   13.5669   14.0913   14.0913   14.0913   14.0913
   14.1294   14.1294   14.1294   14.1294
  29  1  -27.5243  -27.5243  -26.8207  -26.8207  -26.8207  -26.8207  -24.8529  -24.8529  -24.8529  -24.8529
         -23.6741  -23.6741  -23.2151  -23.2151  -23.2151  -23.2151  -22.5464  -22.5464  -21.1782  -21.1782
  -20.9718  -20.9718  -20.9718  -20.9718  -19.3847  -19.3847  -18.3674  -18.3674  -18.3674  -18.3674
  -17.6243  -17.6243  -17.0726  -17.0726  -16.3524  -16.3524  -16.3524  -16.3524  -15.8886  -15.8886
  -15.8886  -15.8886  -15.5024  -15.5024  -15.5023  -15.5023  -14.8200  -14.8200  -14.2164  -14.2164
  -14.2164  -14.2164  -14.1248  -14.1248  -14.1248  -14.1248  -13.8726  -13.8726  -13.2090  -13.2090
  -12.2497  -12.2497  -12.2497  -12.2497  -10.9740  -10.9740  -10.7478  -10.7478  -10.7478  -10.7478
  -10.0669  -10.0669   -6.5009   -6.5009   -5.8290   -5.8290   -5.8289   -5.8289   -5.3201   -5.3201
   -3.6290   -3.6290   -3.6290   -3.6290   -0.1788   -0.1788   -0.1787   -0.1787    1.2091    1.2091
    1.8254    1.8254    1.8254    1.8254    2.0631    2.0631    2.3789    2.3789    2.3789    2.3789
    2.6280    2.6280    3.6852    3.6852    3.9411    3.9411    3.9411    3.9411    4.3406    4.3406
    4.3406    4.3406    5.5342    5.5342    5.7674    5.7674    6.8481    6.8481    6.8481    6.8481
    7.4006    7.4006    7.8167    7.8167    7.8167    7.8167    9.9576    9.9576   10.7902   10.7902
   10.7902   10.7902   12.5435   12.5435   12.5435   12.5435   13.7593   13.7593   13.7593   13.7593
   14.2536   14.2536   14.6838   14.6838
  30  1  -27.8839  -27.8839  -26.4773  -26.4773  -25.8085  -25.8085  -25.8085  -25.8085  -24.5515  -24.5515
         -24.5515  -24.5515  -23.9780  -23.9780  -22.4071  -22.4071  -22.4071  -22.4071  -20.6210  -20.6210
  -20.6210  -20.6210  -20.2613  -20.2613  -19.3175  -19.3175  -19.3175  -19.3175  -18.2522  -18.2522
  -18.2522  -18.2522  -17.4139  -17.4139  -17.4139  -17.4139  -16.4025  -16.4025  -15.5841  -15.5841
  -15.5841  -15.5841  -15.3038  -15.3038  -15.1179  -15.1179  -14.9897  -14.9897  -14.9897  -14.9897
  -14.1791  -14.1791  -13.8739  -13.8739  -13.2289  -13.2289  -13.2289  -13.2289  -12.8702  -12.8702
  -12.5711  -12.5711  -11.9689  -11.9689  -11.9689  -11.9689  -11.4391  -11.4391   -9.6325   -9.6325
   -9.6325   -9.6325   -6.8665   -6.8665   -6.8665   -6.8665   -4.9761   -4.9761   -4.1496   -4.1496
   -4.1495   -4.1495   -2.0864   -2.0864   -2.0864   -2.0864   -0.8890   -0.8890    1.1460    1.1460
    1.1654    1.1654    1.5937    1.5937    1.7226    1.7226    1.9772    1.9772    1.9772    1.9772
    2.2127    2.2127    2.2128    2.2128    2.2487    2.2487    4.8469    4.8469    5.8991    5.8991
    5.8991    5.8991    6.3914    6.3914    6.8541    6.8541    6.8541    6.8541    8.2283    8.2283
    8.5870    8.5870    8.5871    8.5871    9.2805    9.2805    9.2806    9.2806   10.2705   10.2705
   10.2705   10.2705   10.8412   10.8412   12.4408   12.4408   12.4408   12.4408   12.6873   12.6873
   15.1659   15.1659   15.1659   15.1659
  31  1  -27.8839  -27.8839  -26.4773  -26.4773  -25.8085  -25.8085  -25.8085  -25.8085  -24.5515  -24.5515
         -24.5515  -24.5515  -23.9780  -23.9780  -22.4071  -22.4071  -22.4071  -22.4071  -20.6210  -20.6210
  -20.6210  -20.6210  -20.2613  -20.2613  -19.3175  -19.3175  -19.3175  -19.3175  -18.2522  -18.2522
  -18.2522  -18.2522  -17.4139  -17.4139  -17.4139  -17.4139  -16.4025  -16.4025  -15.5841  -15.5841
  -15.5841  -15.5841  -15.3038  -15.3038  -15.1179  -15.1179  -14.9897  -14.9897  -14.9897  -14.9897
  -14.1791  -14.1791  -13.8739  -13.8739  -13.2289  -13.2289  -13.2289  -13.2289  -12.8702  -12.8702
  -12.5711  -12.5711  -11.9689  -11.9689  -11.9689  -11.9689  -11.4391  -11.4391   -9.6325   -9.6325
   -9.6325   -9.6325   -6.8665   -6.8665   -6.8665   -6.8665   -4.9761   -4.9761   -4.1496   -4.1496
   -4.1495   -4.1495   -2.0864   -2.0864   -2.0864   -2.0864   -0.8890   -0.8890    1.1460    1.1460
    1.1654    1.1654    1.5937    1.5937    1.7226    1.7226    1.9772    1.9772    1.9772    1.9772
    2.2127    2.2127    2.2128    2.2128    2.2487    2.2487    4.8469    4.8469    5.8991    5.8991
    5.8991    5.8991    6.3914    6.3914    6.8541    6.8541    6.8541    6.8541    8.2283    8.2283
    8.5870    8.5870    8.5871    8.5871    9.2805    9.2805    9.2806    9.2806   10.2705   10.2705
   10.2705   10.2705   10.8412   10.8412   12.4408   12.4408   12.4408   12.4408   12.6873   12.6873
   15.1659   15.1659   15.1659   15.1659
  32  1  -27.5243  -27.5243  -26.8207  -26.8207  -26.8207  -26.8207  -24.8529  -24.8529  -24.8529  -24.8529
         -23.6741  -23.6741  -23.2151  -23.2151  -23.2151  -23.2151  -22.5464  -22.5464  -21.1782  -21.1782
  -20.9718  -20.9718  -20.9718  -20.9718  -19.3847  -19.3847  -18.3674  -18.3674  -18.3674  -18.3674
  -17.6243  -17.6243  -17.0726  -17.0726  -16.3524  -16.3524  -16.3524  -16.3524  -15.8886  -15.8886
  -15.8886  -15.8886  -15.5024  -15.5024  -15.5023  -15.5023  -14.8200  -14.8200  -14.2164  -14.2164
  -14.2164  -14.2164  -14.1248  -14.1248  -14.1248  -14.1248  -13.8726  -13.8726  -13.2090  -13.2090
  -12.2497  -12.2497  -12.2497  -12.2497  -10.9740  -10.9740  -10.7478  -10.7478  -10.7478  -10.7478
  -10.0669  -10.0669   -6.5009   -6.5009   -5.8290   -5.8290   -5.8289   -5.8289   -5.3201   -5.3201
   -3.6290   -3.6290   -3.6290   -3.6290   -0.1788   -0.1788   -0.1787   -0.1787    1.2091    1.2091
    1.8254    1.8254    1.8254    1.8254    2.0631    2.0631    2.3789    2.3789    2.3789    2.3789
    2.6280    2.6280    3.6852    3.6852    3.9411    3.9411    3.9411    3.9411    4.3406    4.3406
    4.3406    4.3406    5.5342    5.5342    5.7674    5.7674    6.8481    6.8481    6.8481    6.8481
    7.4006    7.4006    7.8167    7.8167    7.8167    7.8167    9.9576    9.9576   10.7902   10.7902
   10.7902   10.7902   12.5435   12.5435   12.5435   12.5435   13.7593   13.7593   13.7593   13.7593
   14.2536   14.2536   14.6838   14.6838
  33  1  -27.8839  -27.8839  -26.4773  -26.4773  -25.8085  -25.8085  -25.8085  -25.8085  -24.5515  -24.5515
         -24.5515  -24.5515  -23.9780  -23.9780  -22.4071  -22.4071  -22.4071  -22.4071  -20.6210  -20.6210
  -20.6210  -20.6210  -20.2613  -20.2613  -19.3175  -19.3175  -19.3175  -19.3175  -18.2522  -18.2522
  -18.2522  -18.2522  -17.4139  -17.4139  -17.4139  -17.4139  -16.4025  -16.4025  -15.5841  -15.5841
  -15.5841  -15.5841  -15.3038  -15.3038  -15.1179  -15.1179  -14.9897  -14.9897  -14.9897  -14.9897
  -14.1791  -14.1791  -13.8739  -13.8739  -13.2289  -13.2289  -13.2289  -13.2289  -12.8702  -12.8702
  -12.5711  -12.5711  -11.9689  -11.9689  -11.9689  -11.9689  -11.4391  -11.4391   -9.6325   -9.6325
   -9.6325   -9.6325   -6.8665   -6.8665   -6.8665   -6.8665   -4.9761   -4.9761   -4.1496   -4.1496
   -4.1495   -4.1495   -2.0864   -2.0864   -2.0864   -2.0864   -0.8890   -0.8890    1.1460    1.1460
    1.1654    1.1654    1.5937    1.5937    1.7226    1.7226    1.9772    1.9772    1.9772    1.9772
    2.2127    2.2127    2.2128    2.2128    2.2487    2.2487    4.8469    4.8469    5.8991    5.8991
    5.8991    5.8991    6.3914    6.3914    6.8541    6.8541    6.8541    6.8541    8.2283    8.2283
    8.5870    8.5870    8.5871    8.5871    9.2805    9.2805    9.2806    9.2806   10.2705   10.2705
   10.2705   10.2705   10.8412   10.8412   12.4408   12.4408   12.4408   12.4408   12.6873   12.6873
   15.1659   15.1659   15.1659   15.1659
  34  1  -28.0655  -28.0655  -25.3242  -25.3242  -25.3242  -25.3242  -25.3242  -25.3242  -25.3241  -25.3241
         -25.3241  -25.3241  -25.3241  -25.3241  -21.3683  -21.3683  -21.3683  -21.3683  -21.2972  -21.2972
  -21.2972  -21.2972  -18.9029  -18.9029  -18.9029  -18.9029  -18.4102  -18.4102  -18.4102  -18.4102
  -18.4102  -18.4102  -18.4102  -18.4102  -18.4102  -18.4102  -18.4102  -18.4102  -15.2640  -15.2640
  -14.8673  -14.8673  -14.8673  -14.8673  -14.8673  -14.8673  -14.8673  -14.8673  -14.8673  -14.8673
  -14.8673  -14.8673  -12.7548  -12.7548  -12.7548  -12.7548  -12.7548  -12.7548  -12.7548  -12.7548
  -12.7548  -12.7548  -12.7548  -12.7548  -12.2415  -12.2415  -12.2415  -12.2415   -8.3153   -8.3153
   -8.3152   -8.3152   -8.2048   -8.2048   -8.2048   -8.2048   -2.9610   -2.9610   -2.9610   -2.9610
   -2.9610   -2.9610   -2.9610   -2.9610   -2.9610   -2.9610   -2.9610   -2.9610    0.9440    0.9440
    0.9440    0.9440    1.3565    1.3565    1.3565    1.3565    1.3565    1.3565    1.3566    1.3566
    1.3566    1.3566    1.3566    1.3566    2.6111    2.6111    4.5158    4.5158    7.5863    7.5863
    7.5863    7.5863    7.6348    7.6348    7.6349    7.6349    8.9684    8.9684    8.9684    8.9684
    8.9684    8.9684    8.9685    8.9685    8.9685    8.9685    8.9685    8.9685   10.6614   10.6614
   10.6614   10.6614   10.6614   10.6614   10.6614   10.6614   10.6614   10.6614   10.6614   10.6614
   15.5240   15.5240   15.5240   15.5240
  35  1  -27.8839  -27.8839  -26.4773  -26.4773  -25.8085  -25.8085  -25.8085  -25.8085  -24.5515  -24.5515
         -24.5515  -24.5515  -23.9780  -23.9780  -22.4071  -22.4071  -22.4071  -22.4071  -20.6210  -20.6210
  -20.6210  -20.6210  -20.2613  -20.2613  -19.3175  -19.3175  -19.3175  -19.3175  -18.2522  -18.2522
  -18.2522  -18.2522  -17.4139  -17.4139  -17.4139  -17.4139  -16.4025  -16.4025  -15.5841  -15.5841
  -15.5841  -15.5841  -15.3038  -15.3038  -15.1179  -15.1179  -14.9897  -14.9897  -14.9897  -14.9897
  -14.1791  -14.1791  -13.8739  -13.8739  -13.2289  -13.2289  -13.2289  -13.2289  -12.8702  -12.8702
  -12.5711  -12.5711  -11.9689  -11.9689  -11.9689  -11.9689  -11.4391  -11.4391   -9.6325   -9.6325
   -9.6325   -9.6325   -6.8665   -6.8665   -6.8665   -6.8665   -4.9761   -4.9761   -4.1496   -4.1496
   -4.1495   -4.1495   -2.0864   -2.0864   -2.0864   -2.0864   -0.8890   -0.8890    1.1460    1.1460
    1.1654    1.1654    1.5937    1.5937    1.7226    1.7226    1.9772    1.9772    1.9772    1.9772
    2.2127    2.2127    2.2128    2.2128    2.2487    2.2487    4.8469    4.8469    5.8991    5.8991
    5.8991    5.8991    6.3914    6.3914    6.8541    6.8541    6.8541    6.8541    8.2283    8.2283
    8.5870    8.5870    8.5871    8.5871    9.2805    9.2805    9.2806    9.2806   10.2705   10.2705
   10.2705   10.2705   10.8412   10.8412   12.4408   12.4408   12.4408   12.4408   12.6873   12.6873
   15.1659   15.1659   15.1659   15.1659
  36  1  -27.3464  -27.3464  -27.3464  -27.3464  -25.9733  -25.9733  -25.9733  -25.9733  -23.5475  -23.5475
         -23.5475  -23.5475  -23.5475  -23.5475  -23.5475  -23.5475  -22.9609  -22.9609  -21.4400  -21.4400
  -20.0442  -20.0442  -20.0442  -20.0442  -20.0442  -20.0442  -20.0442  -20.0442  -16.8976  -16.8976
  -16.8976  -16.8976  -16.8976  -16.8976  -16.8976  -16.8976  -16.7852  -16.7852  -16.7852  -16.7852
  -15.4523  -15.4523  -15.3778  -15.3778  -15.3778  -15.3778  -14.6819  -14.6819  -14.6819  -14.6819
  -14.4165  -14.4165  -14.4165  -14.4165  -13.3864  -13.3864  -13.3864  -13.3864  -13.3385  -13.3385
  -13.3385  -13.3385  -10.9028  -10.9028  -10.9028  -10.9028  -10.9028  -10.9028  -10.9028  -10.9028
  -10.6626  -10.6626   -6.0095   -6.0095   -5.4852   -5.4852   -5.4852   -5.4852   -5.4852   -5.4852
   -5.4852   -5.4852   -1.7536   -1.7536   -1.7536   -1.7536    0.7894    0.7894    0.7894    0.7894
    1.0633    1.0633    1.7391    1.7391    1.7391    1.7391    3.7504    3.7504    3.7504    3.7504
    3.7547    3.7547    3.7547    3.7547    3.7547    3.7547    3.7547    3.7547    4.0771    4.0771
    4.0771    4.0771    4.4391    4.4391    4.4391    4.4391    6.1023    6.1023    6.1023    6.1023
    9.0575    9.0575    9.0575    9.0575    9.0576    9.0576    9.0576    9.0576   10.2899   10.2899
   10.2899   10.2899   11.5260   11.5260   13.4964   13.4964   14.1130   14.1130   14.1130   14.1130
   14.1130   14.1130   14.1130   14.1130
  37  1  -27.8839  -27.8839  -26.4773  -26.4773  -25.8085  -25.8085  -25.8085  -25.8085  -24.5515  -24.5515
         -24.5515  -24.5515  -23.9780  -23.9780  -22.4071  -22.4071  -22.4071  -22.4071  -20.6210  -20.6210
  -20.6210  -20.6210  -20.2613  -20.2613  -19.3175  -19.3175  -19.3175  -19.3175  -18.2522  -18.2522
  -18.2522  -18.2522  -17.4139  -17.4139  -17.4139  -17.4139  -16.4025  -16.4025  -15.5841  -15.5841
  -15.5841  -15.5841  -15.3038  -15.3038  -15.1179  -15.1179  -14.9897  -14.9897  -14.9897  -14.9897
  -14.1791  -14.1791  -13.8739  -13.8739  -13.2289  -13.2289  -13.2289  -13.2289  -12.8702  -12.8702
  -12.5711  -12.5711  -11.9689  -11.9689  -11.9689  -11.9689  -11.4391  -11.4391   -9.6325   -9.6325
   -9.6325   -9.6325   -6.8665   -6.8665   -6.8665   -6.8665   -4.9761   -4.9761   -4.1496   -4.1496
   -4.1495   -4.1495   -2.0864   -2.0864   -2.0864   -2.0864   -0.8890   -0.8890    1.1460    1.1460
    1.1654    1.1654    1.5937    1.5937    1.7226    1.7226    1.9772    1.9772    1.9772    1.9772
    2.2127    2.2127    2.2128    2.2128    2.2487    2.2487    4.8469    4.8469    5.8991    5.8991
    5.8991    5.8991    6.3914    6.3914    6.8541    6.8541    6.8541    6.8541    8.2283    8.2283
    8.5870    8.5870    8.5871    8.5871    9.2805    9.2805    9.2806    9.2806   10.2705   10.2705
   10.2705   10.2705   10.8412   10.8412   12.4408   12.4408   12.4408   12.4408   12.6873   12.6873
   15.1659   15.1659   15.1659   15.1659
  38  1  -27.8839  -27.8839  -26.4773  -26.4773  -25.8085  -25.8085  -25.8085  -25.8085  -24.5515  -24.5515
         -24.5515  -24.5515  -23.9780  -23.9780  -22.4071  -22.4071  -22.4071  -22.4071  -20.6210  -20.6210
  -20.6210  -20.6210  -20.2613  -20.2613  -19.3175  -19.3175  -19.3175  -19.3175  -18.2522  -18.2522
  -18.2522  -18.2522  -17.4139  -17.4139  -17.4139  -17.4139  -16.4025  -16.4025  -15.5841  -15.5841
  -15.5841  -15.5841  -15.3038  -15.3038  -15.1179  -15.1179  -14.9897  -14.9897  -14.9897  -14.9897
  -14.1791  -14.1791  -13.8739  -13.8739  -13.2289  -13.2289  -13.2289  -13.2289  -12.8702  -12.8702
  -12.5711  -12.5711  -11.9689  -11.9689  -11.9689  -11.9689  -11.4391  -11.4391   -9.6325   -9.6325
   -9.6325   -9.6325   -6.8665   -6.8665   -6.8665   -6.8665   -4.9761   -4.9761   -4.1496   -4.1496
   -4.1495   -4.1495   -2.0864   -2.0864   -2.0864   -2.0864   -0.8890   -0.8890    1.1460    1.1460
    1.1654    1.1654    1.5937    1.5937    1.7226    1.7226    1.9772    1.9772    1.9772    1.9772
    2.2127    2.2127    2.2128    2.2128    2.2487    2.2487    4.8469    4.8469    5.8991    5.8991
    5.8991    5.8991    6.3914    6.3914    6.8541    6.8541    6.8541    6.8541    8.2283    8.2283
    8.5870    8.5870    8.5871    8.5871    9.2805    9.2805    9.2806    9.2806   10.2705   10.2705
   10.2705   10.2705   10.8412   10.8412   12.4408   12.4408   12.4408   12.4408   12.6873   12.6873
   15.1659   15.1659   15.1659   15.1659
  39  1  -27.5243  -27.5243  -26.8207  -26.8207  -26.8207  -26.8207  -24.8529  -24.8529  -24.8529  -24.8529
         -23.6741  -23.6741  -23.2151  -23.2151  -23.2151  -23.2151  -22.5464  -22.5464  -21.1782  -21.1782
  -20.9718  -20.9718  -20.9718  -20.9718  -19.3847  -19.3847  -18.3674  -18.3674  -18.3674  -18.3674
  -17.6243  -17.6243  -17.0726  -17.0726  -16.3524  -16.3524  -16.3524  -16.3524  -15.8886  -15.8886
  -15.8886  -15.8886  -15.5024  -15.5024  -15.5023  -15.5023  -14.8200  -14.8200  -14.2164  -14.2164
  -14.2164  -14.2164  -14.1248  -14.1248  -14.1248  -14.1248  -13.8726  -13.8726  -13.2090  -13.2090
  -12.2497  -12.2497  -12.2497  -12.2497  -10.9740  -10.9740  -10.7478  -10.7478  -10.7478  -10.7478
  -10.0669  -10.0669   -6.5009   -6.5009   -5.8290   -5.8290   -5.8289   -5.8289   -5.3201   -5.3201
   -3.6290   -3.6290   -3.6290   -3.6290   -0.1788   -0.1788   -0.1787   -0.1787    1.2091    1.2091
    1.8254    1.8254    1.8254    1.8254    2.0631    2.0631    2.3789    2.3789    2.3789    2.3789
    2.6280    2.6280    3.6852    3.6852    3.9411    3.9411    3.9411    3.9411    4.3406    4.3406
    4.3406    4.3406    5.5342    5.5342    5.7674    5.7674    6.8481    6.8481    6.8481    6.8481
    7.4006    7.4006    7.8167    7.8167    7.8167    7.8167    9.9576    9.9576   10.7902   10.7902
   10.7902   10.7902   12.5435   12.5435   12.5435   12.5435   13.7593   13.7593   13.7593   13.7593
   14.2536   14.2536   14.6838   14.6838
  40  1  -27.5243  -27.5243  -26.8207  -26.8207  -26.8207  -26.8207  -24.8529  -24.8529  -24.8529  -24.8529
         -23.6741  -23.6741  -23.2151  -23.2151  -23.2151  -23.2151  -22.5464  -22.5464  -21.1782  -21.1782
  -20.9718  -20.9718  -20.9718  -20.9718  -19.3847  -19.3847  -18.3674  -18.3674  -18.3674  -18.3674
  -17.6243  -17.6243  -17.0726  -17.0726  -16.3524  -16.3524  -16.3524  -16.3524  -15.8886  -15.8886
  -15.8886  -15.8886  -15.5024  -15.5024  -15.5023  -15.5023  -14.8200  -14.8200  -14.2164  -14.2164
  -14.2164  -14.2164  -14.1248  -14.1248  -14.1248  -14.1248  -13.8726  -13.8726  -13.2090  -13.2090
  -12.2497  -12.2497  -12.2497  -12.2497  -10.9740  -10.9740  -10.7478  -10.7478  -10.7478  -10.7478
  -10.0669  -10.0669   -6.5009   -6.5009   -5.8290   -5.8290   -5.8289   -5.8289   -5.3201   -5.3201
   -3.6290   -3.6290   -3.6290   -3.6290   -0.1788   -0.1788   -0.1787   -0.1787    1.2091    1.2091
    1.8254    1.8254    1.8254    1.8254    2.0631    2.0631    2.3789    2.3789    2.3789    2.3789
    2.6280    2.6280    3.6852    3.6852    3.9411    3.9411    3.9411    3.9411    4.3406    4.3406
    4.3406    4.3406    5.5342    5.5342    5.7674    5.7674    6.8481    6.8481    6.8481    6.8481
    7.4006    7.4006    7.8167    7.8167    7.8167    7.8167    9.9576    9.9576   10.7902   10.7902
   10.7902   10.7902   12.5435   12.5435   12.5435   12.5435   13.7593   13.7593   13.7593   13.7593
   14.2536   14.2536   14.6838   14.6838
  41  1  -27.5243  -27.5243  -26.8207  -26.8207  -26.8207  -26.8207  -24.8529  -24.8529  -24.8529  -24.8529
         -23.6741  -23.6741  -23.2151  -23.2151  -23.2151  -23.2151  -22.5464  -22.5464  -21.1782  -21.1782
  -20.9718  -20.9718  -20.9718  -20.9718  -19.3847  -19.3847  -18.3674  -18.3674  -18.3674  -18.3674
  -17.6243  -17.6243  -17.0726  -17.0726  -16.3524  -16.3524  -16.3524  -16.3524  -15.8886  -15.8886
  -15.8886  -15.8886  -15.5024  -15.5024  -15.5023  -15.5023  -14.8200  -14.8200  -14.2164  -14.2164
  -14.2164  -14.2164  -14.1248  -14.1248  -14.1248  -14.1248  -13.8726  -13.8726  -13.2090  -13.2090
  -12.2497  -12.2497  -12.2497  -12.2497  -10.9740  -10.9740  -10.7478  -10.7478  -10.7478  -10.7478
  -10.0669  -10.0669   -6.5009   -6.5009   -5.8290   -5.8290   -5.8289   -5.8289   -5.3201   -5.3201
   -3.6290   -3.6290   -3.6290   -3.6290   -0.1788   -0.1788   -0.1787   -0.1787    1.2091    1.2091
    1.8254    1.8254    1.8254    1.8254    2.0631    2.0631    2.3789    2.3789    2.3789    2.3789
    2.6280    2.6280    3.6852    3.6852    3.9411    3.9411    3.9411    3.9411    4.3406    4.3406
    4.3406    4.3406    5.5342    5.5342    5.7674    5.7674    6.8481    6.8481    6.8481    6.8481
    7.4006    7.4006    7.8167    7.8167    7.8167    7.8167    9.9576    9.9576   10.7902   10.7902
   10.7902   10.7902   12.5435   12.5435   12.5435   12.5435   13.7593   13.7593   13.7593   13.7593
   14.2536   14.2536   14.6838   14.6838
  42  1  -27.3464  -27.3464  -27.3464  -27.3464  -25.9733  -25.9733  -25.9733  -25.9733  -23.5475  -23.5475
         -23.5475  -23.5475  -23.5475  -23.5475  -23.5475  -23.5475  -22.9609  -22.9609  -21.4400  -21.4400
  -20.0442  -20.0442  -20.0442  -20.0442  -20.0442  -20.0442  -20.0442  -20.0442  -16.8976  -16.8976
  -16.8976  -16.8976  -16.8976  -16.8976  -16.8976  -16.8976  -16.7852  -16.7852  -16.7852  -16.7852
  -15.4523  -15.4523  -15.3778  -15.3778  -15.3778  -15.3778  -14.6819  -14.6819  -14.6819  -14.6819
  -14.4165  -14.4165  -14.4165  -14.4165  -13.3864  -13.3864  -13.3864  -13.3864  -13.3385  -13.3385
  -13.3385  -13.3385  -10.9028  -10.9028  -10.9028  -10.9028  -10.9028  -10.9028  -10.9028  -10.9028
  -10.6626  -10.6626   -6.0095   -6.0095   -5.4852   -5.4852   -5.4852   -5.4852   -5.4852   -5.4852
   -5.4852   -5.4852   -1.7536   -1.7536   -1.7536   -1.7536    0.7894    0.7894    0.7894    0.7894
    1.0633    1.0633    1.7391    1.7391    1.7391    1.7391    3.7504    3.7504    3.7504    3.7504
    3.7547    3.7547    3.7547    3.7547    3.7547    3.7547    3.7547    3.7547    4.0771    4.0771
    4.0771    4.0771    4.4391    4.4391    4.4391    4.4391    6.1023    6.1023    6.1023    6.1023
    9.0575    9.0575    9.0575    9.0575    9.0576    9.0576    9.0576    9.0576   10.2899   10.2899
   10.2899   10.2899   11.5260   11.5260   13.4964   13.4964   14.1130   14.1130   14.1130   14.1130
   14.1130   14.1130   14.1130   14.1130
  43  1  -27.5243  -27.5243  -26.8207  -26.8207  -26.8207  -26.8207  -24.8529  -24.8529  -24.8529  -24.8529
         -23.6741  -23.6741  -23.2151  -23.2151  -23.2151  -23.2151  -22.5464  -22.5464  -21.1782  -21.1782
  -20.9718  -20.9718  -20.9718  -20.9718  -19.3847  -19.3847  -18.3674  -18.3674  -18.3674  -18.3674
  -17.6243  -17.6243  -17.0726  -17.0726  -16.3524  -16.3524  -16.3524  -16.3524  -15.8886  -15.8886
  -15.8886  -15.8886  -15.5024  -15.5024  -15.5023  -15.5023  -14.8200  -14.8200  -14.2164  -14.2164
  -14.2164  -14.2164  -14.1248  -14.1248  -14.1248  -14.1248  -13.8726  -13.8726  -13.2090  -13.2090
  -12.2497  -12.2497  -12.2497  -12.2497  -10.9740  -10.9740  -10.7478  -10.7478  -10.7478  -10.7478
  -10.0669  -10.0669   -6.5009   -6.5009   -5.8290   -5.8290   -5.8289   -5.8289   -5.3201   -5.3201
   -3.6290   -3.6290   -3.6290   -3.6290   -0.1788   -0.1788   -0.1787   -0.1787    1.2091    1.2091
    1.8254    1.8254    1.8254    1.8254    2.0631    2.0631    2.3789    2.3789    2.3789    2.3789
    2.6280    2.6280    3.6852    3.6852    3.9411    3.9411    3.9411    3.9411    4.3406    4.3406
    4.3406    4.3406    5.5342    5.5342    5.7674    5.7674    6.8481    6.8481    6.8481    6.8481
    7.4006    7.4006    7.8167    7.8167    7.8167    7.8167    9.9576    9.9576   10.7902   10.7902
   10.7902   10.7902   12.5435   12.5435   12.5435   12.5435   13.7593   13.7593   13.7593   13.7593
   14.2536   14.2536   14.6838   14.6838
  44  1  -27.3464  -27.3464  -27.3464  -27.3464  -25.9733  -25.9733  -25.9733  -25.9733  -23.5475  -23.5475
         -23.5475  -23.5475  -23.5475  -23.5475  -23.5475  -23.5475  -22.9609  -22.9609  -21.4400  -21.4400
  -20.0442  -20.0442  -20.0442  -20.0442  -20.0442  -20.0442  -20.0442  -20.0442  -16.8976  -16.8976
  -16.8976  -16.8976  -16.8976  -16.8976  -16.8976  -16.8976  -16.7852  -16.7852  -16.7852  -16.7852
  -15.4523  -15.4523  -15.3778  -15.3778  -15.3778  -15.3778  -14.6819  -14.6819  -14.6819  -14.6819
  -14.4165  -14.4165  -14.4165  -14.4165  -13.3864  -13.3864  -13.3864  -13.3864  -13.3385  -13.3385
  -13.3385  -13.3385  -10.9028  -10.9028  -10.9028  -10.9028  -10.9028  -10.9028  -10.9028  -10.9028
  -10.6626  -10.6626   -6.0095   -6.0095   -5.4852   -5.4852   -5.4852   -5.4852   -5.4852   -5.4852
   -5.4852   -5.4852   -1.7536   -1.7536   -1.7536   -1.7536    0.7894    0.7894    0.7894    0.7894
    1.0633    1.0633    1.7391    1.7391    1.7391    1.7391    3.7504    3.7504    3.7504    3.7504
    3.7547    3.7547    3.7547    3.7547    3.7547    3.7547    3.7547    3.7547    4.0771    4.0771
    4.0771    4.0771    4.4391    4.4391    4.4391    4.4391    6.1023    6.1023    6.1023    6.1023
    9.0575    9.0575    9.0575    9.0575    9.0576    9.0576    9.0576    9.0576   10.2899   10.2899
   10.2899   10.2899   11.5260   11.5260   13.4964   13.4964   14.1130   14.1130   14.1130   14.1130
   14.1130   14.1130   14.1130   14.1130
siesta: Fermi energy =      -8.302795 eV

siesta: Program's energy decomposition (eV):
siesta: Ebs     =     -2550.566815
siesta: Eions   =      9434.507561
siesta: Ena     =      2254.433623
siesta: Ekin    =      3722.575029
siesta: Enl     =      -354.987628
siesta: Eso     =         0.000000
siesta: Edftu   =         0.000000
siesta: DEna    =       -50.559864
siesta: DUscf   =         3.294569
siesta: DUext   =         0.000000
siesta: Exc     =     -1660.693455
siesta: eta*DQ  =         0.000000
siesta: Emadel  =         0.000000
siesta: Emeta   =         0.000000
siesta: Emolmec =        -6.648755
siesta: Ekinion =         0.000000
siesta: Eharris =     -5527.094077
siesta: Etot    =     -5527.094042
siesta: FreeEng =     -5527.101461

siesta: Final energy (eV):
siesta:  Band Struct. =   -2550.566815
siesta:       Kinetic =    3722.575029
siesta:       Hartree =     738.741335
siesta:       Edftu   =       0.000000
siesta:       Eso     =       0.000000
siesta:    Ext. field =       0.000000
siesta:   Exch.-corr. =   -1660.693455
siesta:  Ion-electron =   -5579.934209
siesta:       Ion-ion =   -2741.133987
siesta:       Ekinion =       0.000000
siesta:         Total =   -5527.094042
siesta:         Fermi =      -8.302795

siesta: Stress tensor (static) (eV/Ang**3):
siesta:    -0.227563    0.000000    0.000000
siesta:     0.000000   -0.227563   -0.000000
siesta:    -0.000000   -0.000000    0.085486

siesta: Cell volume =        254.057356 Ang**3

siesta: Pressure (static):
siesta:                Solid            Molecule  Units
siesta:           0.00134195          0.00134198  Ry/Bohr**3
siesta:           0.12321322          0.12321647  eV/Ang**3
siesta:         197.41148278        197.41668742  kBar
(Free)E+ p_basis*V_orbitals  =       -5508.798415
(Free)Eharris+ p_basis*V_orbitals  =       -5508.798449

cite: Please see "graphite_scf.bib" for an exhaustive BiBTeX file.
cite: Please clearly indicate Siesta version in published work: 4.1.5
cite: This calculation has made use of the following articles
cite: which are encouraged to be cited in a published work.
        Primary SIESTA paper
          DOI: www.doi.org/10.1088/0953-8984/14/11/302

>> End of run:   1-NOV-2022  14:23:30
Job completed
