Siesta Version  : 4.1.5
Architecture    : x86_64-unknown-linux-gnu--unknown
Compiler version: GNU Fortran (GCC) 11.3.0
Compiler flags  : mpif90 -g -O2 -fallow-argument-mismatch
PP flags        : -DMPI -DFC_HAVE_FLUSH -DFC_HAVE_ABORT
Libraries       :  -I/global/software/sl-7.x86_64/modules/intel/2020.4.304/mkl/include  /globall/software/sl-7.x86_64/modules/intel/2020.4.304/mkl/lib/intel64/libmkl_scalapack_lp64.a -Wl,--start-group /global/software/sl-7.x86_64/modules/intel/2020.4.304/mkl/lib/intel64/libmkl_intel_lp64.a /global/software/sl-7.x86_64/modules/intel/2020.4.304/mkl/lib/intel64/libmkl_sequential.a /global/software/sl-7.x86_64/modules/intel/2020.4.304/mkl/lib/intel64/libmkl_core.a /global/software/sl-7.x86_64/modules/intel/2020.4.304/mkl/lib/intel64/libmkl_blacs_openmpi_lp64.a -Wl,--end-group -lpthread -lm -ldl
PARALLEL version

* Running on 20 nodes in parallel
>> Start of run:   1-NOV-2022  14:29:43

                           ***********************       
                           *  WELCOME TO SIESTA  *       
                           ***********************       

reinit: Reading from standard input
reinit: Dumped input in INPUT_TMP.68832
************************** Dump of input data file ****************************
SystemName graphite_scf
SystemLabel graphite_scf
NumberOfAtoms   36
NumberOfSpecies 1
%block ChemicalSpeciesLabel
1  6   C-gga
%endblock ChemicalSpeciesLabel
PAO.BasisSize  SZ
PAO.EnergyShift  10 meV
%block PS.Lmax
C-gga   2
%endblock PS.Lmax
LatticeConstant 1.000000 Ang
%block LatticeVectors
	7.3920000000	0.0000000000	0.0000000000
	-3.6960000000	6.4016597848	0.0000000000
	0.0000000000	0.0000000000	6.8452200000
%endblock LatticeVectors
AtomicCoordinatesFormat Ang
%block AtomicCoordinatesAndAtomicSpecies
	0.00000000	0.00000000	1.71130500	1
	0.00000000	0.00000000	5.13391500	1
	-1.23200000	2.13388659	1.71130500	1
	-2.46400000	4.26777319	5.13391500	1
	2.46400000	4.26777319	1.71130500	1
	1.23200000	2.13388659	5.13391500	1
	2.46400000	0.00000000	1.71130500	1
	4.92800000	0.00000000	5.13391500	1
	2.46400000	0.00000000	5.13391500	1
	4.92800000	0.00000000	1.71130500	1
	2.46400000	4.26777319	5.13391500	1
	1.23200000	2.13388659	1.71130500	1
	-1.23200000	2.13388659	5.13391500	1
	-2.46400000	4.26777319	1.71130500	1
	0.00000000	4.26777319	1.71130500	1
	3.69600000	2.13388659	5.13391500	1
	3.69600000	2.13388659	1.71130500	1
	0.00000000	4.26777319	5.13391500	1
	0.00000000	1.42258964	1.71130500	1
	3.69600000	4.97907014	5.13391500	1
	2.46400123	5.69036496	1.71130500	1
	1.23199877	0.71129482	5.13391500	1
	-2.46400123	5.69036496	1.71130500	1
	6.16000123	0.71129482	5.13391500	1
	-1.23200000	3.55647624	1.71130500	1
	4.92800000	2.84518355	5.13391500	1
	1.23200123	3.55647837	1.71130500	1
	2.46399877	2.84518142	5.13391500	1
	-0.00000123	5.69036496	1.71130500	1
	3.69600123	0.71129482	5.13391500	1
	2.46400000	1.42258964	1.71130500	1
	1.23200000	4.97907014	5.13391500	1
	4.92800123	1.42259177	1.71130500	1
	-1.23200123	4.97906801	5.13391500	1
	3.69599877	3.55647837	1.71130500	1
	0.00000123	2.84518142	5.13391500	1
%endblock AtomicCoordinatesAndAtomicSpecies
Kgrid_NoTRS  T
%block kgrid_MonkhorstPack
4       0       0       0.0
0       4       0       0.0
0       0       4       0.0
%endblock kgrid_MonkhorstPack
AtomCoorFormatOut Ang
BlockSize 1
#ProcessorY 12
Diag.ParallelOverK   T
Diag.DivideAndConquer F
MeshCutoff   300 Ry
SCF.FreeE.Tolerance 1E-3 eV
SCF.EDM.Tolerance   5E-3 eV
DM.Tolerance  1E-3
DM.Require.Energy.Convergence T
DM.NumberPulay 4
#XC.Functional GGA
#CX.Authors    PBE
UseSaveData        F
SolutionMethod     diagon
MD.TypeOfRun       CG
MD.VariableCell    F
MD.NumCGsteps      00
MD.MaxCGDispl      0.200000 Bohr
#MD.MaxStressTol    1.000000 GPa
#MD.MaxForceTol     0.010000 eV/Ang
WriteMDHistory T
WriteCoorStep T
WriteForces T
WriteCoorStep    T
WriteEigenValues T
WriteDM    F
MM.UnitsDistance Ang  # what this program prints out DO NOT CHANGE
MM.UnitsEnergy    eV  # what this program prints out DO NOT CHANGE
MM.Grimme.S6     0.75 # Grimme-paper for PBE (correct for your functional)
MM.Grimme.D     20.   # Grimme-paper (correct for your functional)
%block MM.Potentials
  1   1 Grimme     18.14      2.904 # C, 10.1002/jcc.20495
%endblock MM.Potentials
#%block ProjectedDensityOfStates
# -200.0  120.0  0.4  12800  eV
#%endblock ProjectedDensityOfStates
************************** End of input data file *****************************

reinit: -----------------------------------------------------------------------
reinit: System Name: graphite_scf
reinit: -----------------------------------------------------------------------
reinit: System Label: graphite_scf
reinit: -----------------------------------------------------------------------
Reading two-body potentials
Grimme - two-body potential between 1 and 1

initatom: Reading input for the pseudopotentials and atomic orbitals ----------
Species number:   1 Atomic number:    6 Label: C-gga

Ground state valence configuration:   2s02  2p02
Reading pseudopotential information in formatted form from C-gga.psf

Valence configuration for pseudopotential generation:
2s( 2.00) rc: 1.56
2p( 2.00) rc: 1.56
3d( 0.00) rc: 1.56
4f( 0.00) rc: 1.56
relmxkb: Read Max KB Ang. Momentum=    2 for species C-gga

<basis_specs>
===============================================================================
C-gga                Z=   6    Mass=  12.010        Charge= 0.17977+309
Lmxo=1 Lmxkb= 2    BasisType=split      Semic=F
L=0  Nsemic=0  Cnfigmx=2
          i=1  nzeta=1  polorb=0  (2s)
            splnorm:   0.15000    
               vcte:    0.0000    
               rinn:    0.0000    
               qcoe:    0.0000    
               qyuk:    0.0000    
               qwid:   0.10000E-01
                rcs:    0.0000    
            lambdas:    1.0000    
L=1  Nsemic=0  Cnfigmx=2
          i=1  nzeta=1  polorb=0  (2p)
            splnorm:   0.15000    
               vcte:    0.0000    
               rinn:    0.0000    
               qcoe:    0.0000    
               qyuk:    0.0000    
               qwid:   0.10000E-01
                rcs:    0.0000    
            lambdas:    1.0000    
-------------------------------------------------------------------------------
L=0  Nkbl=1  erefs: 0.17977+309
L=1  Nkbl=1  erefs: 0.17977+309
L=2  Nkbl=1  erefs: 0.17977+309
===============================================================================
</basis_specs>

atom: Called for C-gga                 (Z =   6)

read_vps: Pseudopotential generation method:
read_vps: ATM 3.2.2 Troullier-Martins                       
Valence charge for ps generation:    4.00000

xc_check: Exchange-correlation functional:
xc_check: Ceperley-Alder
xc_check: WARNING: Pseudopotential generated with GGA PBE functional
V l=0 = -2*Zval/r beyond r=  1.5227
V l=1 = -2*Zval/r beyond r=  1.5227
V l=2 = -2*Zval/r beyond r=  1.5227
All V_l potentials equal beyond r=  1.4851
This should be close to max(r_c) in ps generation
All pots = -2*Zval/r beyond r=  1.5227

VLOCAL1: 99.0% of the norm of Vloc inside     19.682 Ry
VLOCAL1: 99.9% of the norm of Vloc inside     44.856 Ry
atom: Maximum radius for 4*pi*r*r*local-pseudopot. charge    1.79142
atom: Maximum radius for r*vlocal+2*Zval:    1.54183
GHOST: No ghost state for L =  0
GHOST: No ghost state for L =  1
GHOST: No ghost state for L =  2

KBgen: Kleinman-Bylander projectors: 
   l= 0   rc=  1.661951   el= -0.994756   Ekb=  5.296364   kbcos=  0.313951
   l= 1   rc=  1.661951   el= -0.376633   Ekb= -4.104879   kbcos= -0.344765
   l= 2   rc=  1.747182   el=  0.002326   Ekb= -1.006421   kbcos= -0.008606

KBgen: Total number of Kleinman-Bylander projectors:    9
atom: -------------------------------------------------------------------------

atom: SANKEY-TYPE ORBITALS:

SPLIT: Orbitals with angular momentum L= 0

SPLIT: Basis orbitals for state 2s

SPLIT: PAO cut-off radius determined from an
SPLIT: energy shift=  0.000735 Ry

   izeta = 1
                 lambda =    1.000000
                     rc =    5.948690
                 energy =   -0.994108
                kinetic =    0.809152
    potential(screened) =   -1.803260
       potential(ionic) =   -5.360717

SPLIT: Orbitals with angular momentum L= 1

SPLIT: Basis orbitals for state 2p

SPLIT: PAO cut-off radius determined from an
SPLIT: energy shift=  0.000735 Ry

   izeta = 1
                 lambda =    1.000000
                     rc =    7.638387
                 energy =   -0.375915
                kinetic =    2.245823
    potential(screened) =   -2.621738
       potential(ionic) =   -5.993382
atom: Total number of Sankey-type orbitals:  4

atm_pop: Valence configuration (for local Pseudopot. screening):
 2s( 2.00)                                                            
 2p( 2.00)                                                            
Vna: chval, zval:    4.00000   4.00000

Vna:  Cut-off radius for the neutral-atom potential:   7.638387

atom: _________________________________________________________________________

prinput: Basis input ----------------------------------------------------------

PAO.BasisType split     

%block ChemicalSpeciesLabel
    1    6 C-gga                   # Species index, atomic number, species label
%endblock ChemicalSpeciesLabel

%block PAO.Basis                 # Define Basis set
C-gga                 2                    # Species label, number of l-shells
 n=2   0   1                         # n, l, Nzeta 
   5.949   
   1.000   
 n=2   1   1                         # n, l, Nzeta 
   7.638   
   1.000   
%endblock PAO.Basis

prinput: ----------------------------------------------------------------------

coor:   Atomic-coordinates input format  =     Cartesian coordinates
coor:                                          (in Angstroms)

siesta: Atomic coordinates (Bohr) and species
siesta:      0.00000   0.00000   3.23390  1        1
siesta:      0.00000   0.00000   9.70170  1        2
siesta:     -2.32814   4.03246   3.23390  1        3
siesta:     -4.65629   8.06493   9.70170  1        4
siesta:      4.65629   8.06493   3.23390  1        5
siesta:      2.32814   4.03246   9.70170  1        6
siesta:      4.65629   0.00000   3.23390  1        7
siesta:      9.31257   0.00000   9.70170  1        8
siesta:      4.65629   0.00000   9.70170  1        9
siesta:      9.31257   0.00000   3.23390  1       10
siesta:      4.65629   8.06493   9.70170  1       11
siesta:      2.32814   4.03246   3.23390  1       12
siesta:     -2.32814   4.03246   9.70170  1       13
siesta:     -4.65629   8.06493   3.23390  1       14
siesta:      0.00000   8.06493   3.23390  1       15
siesta:      6.98443   4.03246   9.70170  1       16
siesta:      6.98443   4.03246   3.23390  1       17
siesta:      0.00000   8.06493   9.70170  1       18
siesta:      0.00000   2.68831   3.23390  1       19
siesta:      6.98443   9.40908   9.70170  1       20
siesta:      4.65629  10.75324   3.23390  1       21
siesta:      2.32814   1.34415   9.70170  1       22
siesta:     -4.65629  10.75324   3.23390  1       23
siesta:     11.64072   1.34415   9.70170  1       24
siesta:     -2.32814   6.72077   3.23390  1       25
siesta:      9.31257   5.37662   9.70170  1       26
siesta:      2.32815   6.72077   3.23390  1       27
siesta:      4.65628   5.37662   9.70170  1       28
siesta:     -0.00000  10.75324   3.23390  1       29
siesta:      6.98443   1.34415   9.70170  1       30
siesta:      4.65629   2.68831   3.23390  1       31
siesta:      2.32814   9.40908   9.70170  1       32
siesta:      9.31258   2.68831   3.23390  1       33
siesta:     -2.32815   9.40908   9.70170  1       34
siesta:      6.98443   6.72077   3.23390  1       35
siesta:      0.00000   5.37662   9.70170  1       36

siesta: System type = bulk      

initatomlists: Number of atoms, orbitals, and projectors:     36   144   324

siesta: ******************** Simulation parameters ****************************
siesta:
siesta: The following are some of the parameters of the simulation.
siesta: A complete list of the parameters used, including default values,
siesta: can be found in file out.fdf
siesta:
redata: Spin configuration                          = none
redata: Number of spin components                   = 1
redata: Time-Reversal Symmetry                      = T
redata: Spin spiral                                 = F
redata: Long output                                 =   F
redata: Number of Atomic Species                    =        1
redata: Charge density info will appear in .RHO file
redata: Write Mulliken Pop.                         = NO
redata: Matel table size (NRTAB)                    =     1024
redata: Mesh Cutoff                                 =   300.0000 Ry
redata: Net charge of the system                    =     0.0000 |e|
redata: Min. number of SCF Iter                     =        0
redata: Max. number of SCF Iter                     =     1000
redata: SCF convergence failure will abort job
redata: SCF mix quantity                            = Hamiltonian
redata: Mix DM or H after convergence               =   F
redata: Recompute H after scf cycle                 =   F
redata: Mix DM in first SCF step                    =   T
redata: Write Pulay info on disk                    =   F
redata: New DM Occupancy tolerance                  = 0.000000000001
redata: No kicks to SCF
redata: DM Mixing Weight for Kicks                  =     0.5000
redata: Require Harris convergence for SCF          =   F
redata: Harris energy tolerance for SCF             =     0.000100 eV
redata: Require DM convergence for SCF              =   T
redata: DM tolerance for SCF                        =     0.001000
redata: Require EDM convergence for SCF             =   F
redata: EDM tolerance for SCF                       =     0.005000 eV
redata: Require H convergence for SCF               =   T
redata: Hamiltonian tolerance for SCF               =     0.001000 eV
redata: Require (free) Energy convergence for SCF   =   T
redata: (free) Energy tolerance for SCF             =     0.001000 eV
redata: Using Saved Data (generic)                  =   F
redata: Use continuation files for DM               =   F
redata: Neglect nonoverlap interactions             =   F
redata: Method of Calculation                       = Diagonalization
redata: Electronic Temperature                      =   299.9869 K
redata: Fix the spin of the system                  =   F
redata: Dynamics option                             = Single-point calculation
mix.SCF: Pulay mixing                            = Pulay
mix.SCF:    Variant                              = stable
mix.SCF:    History steps                        = 4
mix.SCF:    Linear mixing weight                 =     0.250000
mix.SCF:    Mixing weight                        =     0.250000
mix.SCF:    SVD condition                        = 0.1000E-07
redata: ***********************************************************************

%block SCF.Mixers
  Pulay
%endblock SCF.Mixers

%block SCF.Mixer.Pulay
  # Mixing method
  method pulay
  variant stable

  # Mixing options
  weight 0.2500
  weight.linear 0.2500
  history 4
%endblock SCF.Mixer.Pulay

DM_history_depth set to one: no extrapolation allowed by default for geometry relaxation
Size of DM history Fstack: 1
Total number of electrons:   144.000000
Total ionic charge:   144.000000

* ProcessorY, Blocksize:    4   1


* Orbital distribution balance (max,min):     8     7

k-point displ. along   1 input, could be:     0.00    0.50
k-point displ. along   2 input, could be:     0.00    0.50
k-point displ. along   3 input, could be:     0.00    0.50
 Kpoints in:           48 . Kpoints trimmed:           44

siesta: k-grid: Number of k-points =    44
siesta: k-grid: Cutoff (effective) =    13.690 Ang
siesta: k-grid: Supercell and displacements
siesta: k-grid:    4   0   0      0.000
siesta: k-grid:    0   4   0      0.000
siesta: k-grid:    0   0   4      0.000

diag: Algorithm                                     = Expert
diag: Parallel over k                               =   T
diag: Use parallel 2D distribution                  =   T
diag: Parallel block-size                           = 1
diag: Parallel distribution                         =     4 x     5
diag: Used triangular part                          = Lower
diag: Absolute tolerance                            =  0.100E-15
diag: Orthogonalization factor                      =  0.100E-05
diag: Memory factor                                 =  1.0000

superc: Internal auxiliary supercell:     5 x     5 x     3  =      75
superc: Number of atoms, orbitals, and projectors:   2700  10800  24300


ts: **************************************************************
ts: Save H and S matrices                           =    F
ts: Save DM and EDM matrices                        =    F
ts: Only save the overlap matrix S                  =    F
ts: **************************************************************

************************ Begin: TS CHECKS AND WARNINGS ************************
************************ End: TS CHECKS AND WARNINGS **************************


                     ====================================
                        Single-point calculation
                     ====================================

outcoor: Atomic coordinates (Ang):                          
    0.00000000    0.00000000    1.71130500   1       1  C-gga
    0.00000000    0.00000000    5.13391500   1       2  C-gga
   -1.23200000    2.13388659    1.71130500   1       3  C-gga
   -2.46400000    4.26777319    5.13391500   1       4  C-gga
    2.46400000    4.26777319    1.71130500   1       5  C-gga
    1.23200000    2.13388659    5.13391500   1       6  C-gga
    2.46400000    0.00000000    1.71130500   1       7  C-gga
    4.92800000    0.00000000    5.13391500   1       8  C-gga
    2.46400000    0.00000000    5.13391500   1       9  C-gga
    4.92800000    0.00000000    1.71130500   1      10  C-gga
    2.46400000    4.26777319    5.13391500   1      11  C-gga
    1.23200000    2.13388659    1.71130500   1      12  C-gga
   -1.23200000    2.13388659    5.13391500   1      13  C-gga
   -2.46400000    4.26777319    1.71130500   1      14  C-gga
    0.00000000    4.26777319    1.71130500   1      15  C-gga
    3.69600000    2.13388659    5.13391500   1      16  C-gga
    3.69600000    2.13388659    1.71130500   1      17  C-gga
    0.00000000    4.26777319    5.13391500   1      18  C-gga
    0.00000000    1.42258964    1.71130500   1      19  C-gga
    3.69600000    4.97907014    5.13391500   1      20  C-gga
    2.46400123    5.69036496    1.71130500   1      21  C-gga
    1.23199877    0.71129482    5.13391500   1      22  C-gga
   -2.46400123    5.69036496    1.71130500   1      23  C-gga
    6.16000123    0.71129482    5.13391500   1      24  C-gga
   -1.23200000    3.55647624    1.71130500   1      25  C-gga
    4.92800000    2.84518355    5.13391500   1      26  C-gga
    1.23200123    3.55647837    1.71130500   1      27  C-gga
    2.46399877    2.84518142    5.13391500   1      28  C-gga
   -0.00000123    5.69036496    1.71130500   1      29  C-gga
    3.69600123    0.71129482    5.13391500   1      30  C-gga
    2.46400000    1.42258964    1.71130500   1      31  C-gga
    1.23200000    4.97907014    5.13391500   1      32  C-gga
    4.92800123    1.42259177    1.71130500   1      33  C-gga
   -1.23200123    4.97906801    5.13391500   1      34  C-gga
    3.69599877    3.55647837    1.71130500   1      35  C-gga
    0.00000123    2.84518142    5.13391500   1      36  C-gga

superc: Internal auxiliary supercell:     5 x     5 x     3  =      75
superc: Number of atoms, orbitals, and projectors:   2700  10800  24300

outcell: Unit cell vectors (Ang):
        7.392000    0.000000    0.000000
       -3.696000    6.401660    0.000000
        0.000000    0.000000    6.845220

outcell: Cell vector modules (Ang)   :    7.392000    7.392000    6.845220
outcell: Cell angles (23,13,12) (deg):     90.0000     90.0000    120.0000
outcell: Cell volume (Ang**3)        :    323.9231
<dSpData1D:S at geom step 0
  <sparsity:sparsity for geom step 0
    nrows_g=144 nrows=8 sparsity=.3383 nnzs=7016, refcount: 7>
  <dData1D:(new from dSpData1D) n=7016, refcount: 1>
refcount: 1>
new_DM -- step:     1
Initializing Density Matrix...
DM filled with atomic data:
<dSpData2D:DM initialized from atoms
  <sparsity:sparsity for geom step 0
    nrows_g=144 nrows=8 sparsity=.3383 nnzs=7016, refcount: 8>
  <dData2D:DM n=7016 m=1, refcount: 1>
refcount: 1>
No. of atoms with KB's overlaping orbs in proc 0. Max # of overlaps:     110     198
New grid distribution:   1
           1       1:   36    1:    9    1:    8
           2       1:   36    1:    9    9:   15
           3       1:   36    1:    9   16:   22
           4       1:   36    1:    9   23:   29
           5       1:   36    1:    9   30:   36
           6       1:   36   10:   18    1:    8
           7       1:   36   10:   18    9:   15
           8       1:   36   10:   18   16:   22
           9       1:   36   10:   18   23:   29
          10       1:   36   10:   18   30:   36
          11       1:   36   19:   27    1:    8
          12       1:   36   19:   27    9:   15
          13       1:   36   19:   27   16:   22
          14       1:   36   19:   27   23:   29
          15       1:   36   19:   27   30:   36
          16       1:   36   28:   36    1:    8
          17       1:   36   28:   36    9:   15
          18       1:   36   28:   36   16:   22
          19       1:   36   28:   36   23:   29
          20       1:   36   28:   36   30:   36

InitMesh: MESH =    72 x    72 x    72 =      373248
InitMesh: (bp) =    36 x    36 x    36 =       46656
InitMesh: Mesh cutoff (required, used) =   300.000   305.768 Ry
ExtMesh (bp) on 0 =   128 x   101 x    96 =     1241088
New grid distribution:   2
           1      16:   36   19:   36   19:   24
           2       1:   15    1:   18   10:   18
           3      16:   36   19:   36    1:    6
           4       1:   15    1:   18   19:   27
           5       1:   15   19:   36   28:   36
           6       1:   15    1:   18    1:    9
           7      16:   36   28:   36    7:   18
           8      16:   36   10:   18    7:   18
           9      16:   36    1:   18    1:    6
          10       1:   15    1:   18   28:   36
          11      16:   36   19:   27    7:   18
          12       1:   15   19:   36   10:   18
          13      16:   36    1:    9   25:   36
          14      16:   36    1:   18   19:   24
          15      16:   36   19:   27   25:   36
          16       1:   15   19:   36    1:    9
          17      16:   36   10:   18   25:   36
          18      16:   36    1:    9    7:   18
          19       1:   15   19:   36   19:   27
          20      16:   36   28:   36   25:   36
New grid distribution:   3
           1      16:   36   19:   36   19:   24
           2       1:   15    1:   18   10:   18
           3      16:   36   19:   36    1:    6
           4       1:   15    1:   18   19:   27
           5       1:   15   19:   36   28:   36
           6       1:   15    1:   18    1:    9
           7      16:   36   28:   36    7:   18
           8      16:   36   10:   18    7:   18
           9      16:   36    1:   18    1:    6
          10       1:   15    1:   18   28:   36
          11      16:   36   19:   27    7:   18
          12       1:   15   19:   36   10:   18
          13      16:   36    1:    9   25:   36
          14      16:   36    1:   18   19:   24
          15      16:   36   19:   27   25:   36
          16       1:   15   19:   36    1:    9
          17      16:   36   10:   18   25:   36
          18      16:   36    1:    9    7:   18
          19       1:   15   19:   36   19:   27
          20      16:   36   28:   36   25:   36
Setting up quadratic distribution...
ExtMesh (bp) on 0 =   113 x   110 x    94 =     1168420
PhiOnMesh: Number of (b)points on node 0 =                 2268
PhiOnMesh: nlist on node 0 =               261350

stepf: Fermi-Dirac step function

siesta: Program's energy decomposition (eV):
siesta: Ebs     =     -2565.298957
siesta: Eions   =      9434.507561
siesta: Ena     =      2269.133577
siesta: Ekin    =      3614.928308
siesta: Enl     =      -338.440271
siesta: Eso     =         0.000000
siesta: Edftu   =         0.000000
siesta: DEna    =         4.900604
siesta: DUscf   =         2.546512
siesta: DUext   =         0.000000
siesta: Exc     =     -1630.257251
siesta: eta*DQ  =         0.000000
siesta: Emadel  =         0.000000
siesta: Emeta   =         0.000000
siesta: Emolmec =        -4.219669
siesta: Ekinion =         0.000000
siesta: Eharris =     -5365.121089
siesta: Etot    =     -5515.915751
siesta: FreeEng =     -5515.926869

        iscf     Eharris(eV)        E_KS(eV)     FreeEng(eV)     dDmax    Ef(eV) dHmax(eV)
   scf:    1    -5365.121089    -5515.915751    -5515.926869  1.338478 -8.324585  0.066873
timer: Routine,Calls,Time,% = IterSCF        1       1.158  47.98
   scf:    2    -5515.920522    -5515.918194    -5515.929306  0.001077 -8.310791  0.046563
   scf:    3    -5515.923443    -5515.920881    -5515.931976  0.002035 -8.275877  0.003748
   scf:    4    -5515.920943    -5515.920930    -5515.932037  0.000642 -8.275664  0.000631

SCF Convergence by FreeE+DM+H criterion
|FreeE_i-FreeE_(i-1)| (eV) <     0.00100000
max |DM_out - DM_in|         :     0.0006422112
max |H_out - H_in|      (eV) :     0.0006307622
SCF cycle converged after 4 iterations

Using DM_out to compute the final energy and forces
No. of atoms with KB's overlaping orbs in proc 0. Max # of overlaps:     110     198

MM-Stress (kbar):       11.65       11.65       44.24        0.00        0.00        0.00

siesta: E_KS(eV) =            -5515.9209

siesta: E_KS - E_eggbox =     -5515.9209

siesta: Atomic forces (eV/Ang):
     1   -0.000000   -0.000000   -0.000000
     2    0.000000   -0.000000   -0.000000
     3    0.000075   -0.000055   -0.000000
     4   -0.000075    0.000056   -0.000000
     5    0.000011    0.000092   -0.000000
     6   -0.000011   -0.000092   -0.000000
     7   -0.000086   -0.000037   -0.000000
     8    0.000086    0.000037   -0.000000
     9   -0.000015   -0.000013   -0.000000
    10    0.000015    0.000012   -0.000000
    11   -0.000003    0.000019   -0.000000
    12    0.000003   -0.000019   -0.000000
    13    0.000019   -0.000006   -0.000000
    14   -0.000019    0.000007   -0.000000
    15    0.000000   -0.000000   -0.000000
    16   -0.000000    0.000000   -0.000000
    17    0.000000    0.000000   -0.000000
    18   -0.000000    0.000000   -0.000000
    19    0.000008    0.000129    0.000000
    20   -0.000008   -0.000129    0.000000
    21   -0.000116   -0.000058    0.000000
    22    0.000116    0.000058    0.000000
    23    0.000108   -0.000071    0.000000
    24   -0.000108    0.000071    0.000000
    25    0.000008    0.000114    0.000000
    26   -0.000008   -0.000115    0.000000
    27   -0.000104   -0.000050    0.000000
    28    0.000104    0.000050    0.000000
    29    0.000095   -0.000064    0.000000
    30   -0.000095    0.000064    0.000000
    31    0.000008    0.000115    0.000000
    32   -0.000008   -0.000115    0.000000
    33   -0.000104   -0.000050    0.000000
    34    0.000104    0.000050    0.000000
    35    0.000095   -0.000065    0.000000
    36   -0.000095    0.000064    0.000000
----------------------------------------
   Tot   -0.000000    0.000000   -0.000000
----------------------------------------
   Max    0.000129
   Res    0.000054    sqrt( Sum f_i^2 / 3N )
----------------------------------------
   Max    0.000129    constrained

Stress tensor Voigt[x,y,z,yz,xz,xy] (kbar):     -380.75     -380.75      239.61       -0.00       -0.00        0.00
(Free)E + p*V (eV/cell)    -5480.7617
Target enthalpy (eV/cell)    -5515.9320

siesta: Eigenvalues (eV):
  ik is       eps
   1  1  -27.5269  -27.5072  -26.8307  -26.8307  -26.7904  -26.7904  -24.9533  -24.9533  -24.7810  -24.7810
         -23.8293  -23.6256  -23.3883  -23.3883  -23.2329  -23.2329  -22.7215  -22.6579  -21.3256  -21.1742
  -21.1376  -21.1376  -20.9669  -20.9669  -19.6373  -19.6137  -18.6383  -18.6383  -18.6082  -18.6082
  -17.8417  -17.8077  -17.3476  -17.3294  -16.6578  -16.6578  -16.5972  -16.5971  -16.2447  -16.2447
  -16.1964  -16.1964  -15.8558  -15.8558  -15.8154  -15.8154  -14.7151  -14.5417  -14.5417  -14.4791
  -14.4791  -14.2685  -14.2434  -14.1610  -14.1610  -14.0270  -13.6155  -13.5753  -13.4101  -13.4101
  -12.4589  -12.4589  -11.5564  -11.5563  -11.2922  -10.9782  -10.9782  -10.3838  -10.3424  -10.3423
  -10.2702   -9.8081   -6.5850   -6.4255   -6.0884   -6.0883   -5.6143   -5.6143   -5.5890   -5.1773
   -3.8853   -3.8853   -3.5165   -3.5165   -0.3356   -0.3356   -0.1255   -0.1255    1.1691    1.3171
    1.3171    1.3313    1.3706    1.4387    1.5340    1.5340    1.8046    1.8046    1.8725    1.8725
    2.1661    2.1968    3.1836    3.3528    3.4388    3.4388    3.5702    3.5703    3.8458    3.8458
    3.8819    3.8820    5.0998    5.1279    5.3432    5.3977    6.2991    6.2991    6.3530    6.3530
    6.8103    6.9782    7.3441    7.3441    7.3828    7.3828    9.4234    9.5385   10.2583   10.2583
   10.3099   10.3099   12.0186   12.0186   12.0258   12.0258   13.1890   13.1890   13.2878   13.2878
   13.7167   13.7178   14.1257   14.1720
   2  1  -27.9057  -27.8547  -26.5018  -26.4343  -25.8633  -25.8633  -25.7465  -25.7465  -24.6662  -24.6662
         -24.4872  -24.4872  -24.1197  -23.9368  -22.6087  -22.6087  -22.4483  -22.4483  -20.8417  -20.8417
  -20.7481  -20.7481  -20.4561  -20.3169  -19.5445  -19.5445  -19.4570  -19.4570  -18.4306  -18.4306
  -18.4159  -18.4159  -17.6999  -17.6999  -17.6608  -17.6608  -16.7225  -16.6650  -15.9476  -15.9476
  -15.8934  -15.8934  -15.6915  -15.6341  -15.3657  -15.3657  -15.3032  -15.3032  -14.9909  -14.5875
  -14.5273  -14.3316  -13.8830  -13.3204  -13.3204  -13.2889  -13.2519  -13.1012  -12.9974  -12.9601
  -12.4808  -12.4808  -12.1967  -12.1967  -11.6857  -11.3133  -11.3133  -10.8739   -9.9504   -9.9504
   -9.2577   -9.2577   -7.0816   -7.0816   -6.6985   -6.6985   -5.3141   -4.7203   -4.4670   -4.4670
   -3.9501   -3.9501   -2.3165   -2.3165   -1.9788   -1.9788   -1.0574   -0.7830    0.6303    0.7561
    0.7740    0.8584    1.0199    1.1222    1.2773    1.3009    1.4544    1.4544    1.6581    1.6581
    1.6749    1.6749    1.8138    1.8138    1.9904    2.1387    4.4344    4.4858    5.4366    5.4366
    5.4932    5.4932    5.9026    5.9148    6.3253    6.3253    6.3592    6.3592    7.6956    7.7666
    8.0542    8.0542    8.1941    8.1941    8.7588    8.7588    8.7706    8.7706    9.7528    9.7528
    9.7700    9.7700   10.3169   10.3252   11.8900   11.8900   11.9275   11.9275   12.1063   12.2195
   14.6170   14.6170   14.6269   14.6269
   3  1  -27.9057  -27.8547  -26.5018  -26.4343  -25.8633  -25.8633  -25.7465  -25.7465  -24.6662  -24.6662
         -24.4872  -24.4872  -24.1197  -23.9368  -22.6087  -22.6087  -22.4483  -22.4483  -20.8417  -20.8417
  -20.7481  -20.7481  -20.4561  -20.3169  -19.5445  -19.5445  -19.4570  -19.4570  -18.4306  -18.4306
  -18.4159  -18.4159  -17.6999  -17.6999  -17.6608  -17.6608  -16.7225  -16.6650  -15.9476  -15.9476
  -15.8934  -15.8934  -15.6915  -15.6341  -15.3657  -15.3657  -15.3032  -15.3032  -14.9909  -14.5875
  -14.5273  -14.3316  -13.8830  -13.3204  -13.3204  -13.2889  -13.2519  -13.1012  -12.9974  -12.9601
  -12.4808  -12.4808  -12.1967  -12.1967  -11.6857  -11.3133  -11.3133  -10.8739   -9.9504   -9.9504
   -9.2577   -9.2577   -7.0816   -7.0816   -6.6985   -6.6985   -5.3141   -4.7203   -4.4670   -4.4670
   -3.9501   -3.9501   -2.3165   -2.3165   -1.9788   -1.9788   -1.0574   -0.7830    0.6303    0.7561
    0.7740    0.8584    1.0199    1.1222    1.2773    1.3009    1.4544    1.4544    1.6581    1.6581
    1.6749    1.6749    1.8138    1.8138    1.9904    2.1387    4.4344    4.4858    5.4366    5.4366
    5.4932    5.4932    5.9026    5.9148    6.3253    6.3253    6.3592    6.3592    7.6956    7.7666
    8.0542    8.0542    8.1941    8.1941    8.7588    8.7588    8.7706    8.7706    9.7528    9.7528
    9.7700    9.7700   10.3169   10.3252   11.8900   11.8900   11.9275   11.9275   12.1063   12.2195
   14.6170   14.6170   14.6269   14.6269
   4  1  -27.5269  -27.5072  -26.8307  -26.8307  -26.7904  -26.7904  -24.9533  -24.9533  -24.7810  -24.7810
         -23.8293  -23.6256  -23.3883  -23.3883  -23.2329  -23.2329  -22.7215  -22.6579  -21.3256  -21.1742
  -21.1376  -21.1376  -20.9669  -20.9669  -19.6373  -19.6137  -18.6383  -18.6383  -18.6082  -18.6082
  -17.8417  -17.8077  -17.3476  -17.3294  -16.6578  -16.6578  -16.5972  -16.5971  -16.2447  -16.2447
  -16.1964  -16.1964  -15.8558  -15.8558  -15.8154  -15.8154  -14.7151  -14.5417  -14.5417  -14.4791
  -14.4791  -14.2685  -14.2434  -14.1610  -14.1610  -14.0270  -13.6155  -13.5753  -13.4101  -13.4101
  -12.4589  -12.4589  -11.5564  -11.5563  -11.2922  -10.9782  -10.9782  -10.3838  -10.3424  -10.3423
  -10.2702   -9.8081   -6.5850   -6.4255   -6.0884   -6.0883   -5.6143   -5.6143   -5.5890   -5.1773
   -3.8853   -3.8853   -3.5165   -3.5165   -0.3356   -0.3356   -0.1255   -0.1255    1.1691    1.3171
    1.3171    1.3313    1.3706    1.4387    1.5340    1.5340    1.8046    1.8046    1.8725    1.8725
    2.1661    2.1968    3.1836    3.3528    3.4388    3.4388    3.5702    3.5703    3.8458    3.8458
    3.8819    3.8820    5.0998    5.1279    5.3432    5.3977    6.2991    6.2991    6.3530    6.3530
    6.8103    6.9782    7.3441    7.3441    7.3828    7.3828    9.4234    9.5385   10.2583   10.2583
   10.3099   10.3099   12.0186   12.0186   12.0258   12.0258   13.1890   13.1890   13.2878   13.2878
   13.7167   13.7178   14.1257   14.1720
   5  1  -27.9057  -27.8547  -26.5018  -26.4343  -25.8633  -25.8633  -25.7465  -25.7465  -24.6662  -24.6662
         -24.4872  -24.4872  -24.1197  -23.9368  -22.6087  -22.6087  -22.4483  -22.4483  -20.8417  -20.8417
  -20.7481  -20.7481  -20.4561  -20.3169  -19.5445  -19.5445  -19.4570  -19.4570  -18.4306  -18.4306
  -18.4159  -18.4159  -17.6999  -17.6999  -17.6608  -17.6608  -16.7225  -16.6650  -15.9476  -15.9476
  -15.8934  -15.8934  -15.6915  -15.6341  -15.3657  -15.3657  -15.3032  -15.3032  -14.9909  -14.5875
  -14.5273  -14.3316  -13.8830  -13.3204  -13.3204  -13.2889  -13.2519  -13.1012  -12.9974  -12.9601
  -12.4808  -12.4808  -12.1967  -12.1967  -11.6857  -11.3133  -11.3133  -10.8739   -9.9504   -9.9504
   -9.2577   -9.2577   -7.0816   -7.0816   -6.6985   -6.6985   -5.3141   -4.7203   -4.4670   -4.4670
   -3.9501   -3.9501   -2.3165   -2.3165   -1.9788   -1.9788   -1.0574   -0.7830    0.6303    0.7561
    0.7740    0.8584    1.0199    1.1222    1.2773    1.3009    1.4544    1.4544    1.6581    1.6581
    1.6749    1.6749    1.8138    1.8138    1.9904    2.1387    4.4344    4.4858    5.4366    5.4366
    5.4932    5.4932    5.9026    5.9148    6.3253    6.3253    6.3592    6.3592    7.6956    7.7666
    8.0542    8.0542    8.1941    8.1941    8.7588    8.7588    8.7706    8.7706    9.7528    9.7528
    9.7700    9.7700   10.3169   10.3252   11.8900   11.8900   11.9275   11.9275   12.1063   12.2195
   14.6170   14.6170   14.6269   14.6269
   6  1  -28.0974  -28.0307  -25.4018  -25.4017  -25.4017  -25.4017  -25.4017  -25.4017  -25.2569  -25.2569
         -25.2569  -25.2569  -25.2569  -25.2568  -21.5683  -21.5683  -21.5094  -21.5094  -21.5094  -21.5094
  -21.4523  -21.4523  -19.0041  -19.0041  -19.0041  -19.0041  -18.6556  -18.6556  -18.6556  -18.6556
  -18.6556  -18.6556  -18.5974  -18.5974  -18.5974  -18.5974  -18.5974  -18.5974  -15.2637  -15.2637
  -15.2637  -15.2637  -15.2637  -15.2637  -15.2039  -15.2039  -15.2038  -15.2038  -15.2038  -15.2038
  -15.1288  -14.4826  -12.9021  -12.9021  -12.9021  -12.9021  -12.9021  -12.9020  -12.6668  -12.6668
  -12.6450  -12.6450  -12.0360  -12.0360  -12.0360  -12.0360  -12.0360  -12.0360   -8.7404   -8.7404
   -8.2832   -8.2832   -8.2832   -8.2832   -7.7715   -7.7715   -3.2425   -3.2425   -3.2425   -3.2425
   -3.2425   -3.2425   -2.7814   -2.7814   -2.7814   -2.7814   -2.7814   -2.7814    0.5069    0.5069
    0.5339    0.5339    0.8175    0.8175    0.8175    0.8175    0.8175    0.8175    1.0092    1.0092
    1.0092    1.0092    1.0092    1.0092    2.4211    2.5645    4.0934    4.1373    7.0805    7.0805
    7.1632    7.1632    7.1632    7.1632    7.2545    7.2545    8.4585    8.4585    8.4585    8.4585
    8.4585    8.4585    8.4679    8.4679    8.4679    8.4679    8.4679    8.4679   10.0917   10.0917
   10.0917   10.0917   10.0917   10.0917   10.1470   10.1470   10.1470   10.1470   10.1470   10.1470
   14.9764   14.9764   14.9764   14.9764
   7  1  -27.3401  -27.3401  -27.3357  -27.3357  -26.0205  -26.0205  -25.9141  -25.9141  -23.7082  -23.7082
         -23.7082  -23.7082  -23.5129  -23.5129  -23.5129  -23.5129  -23.1240  -23.0642  -21.5558  -21.3734
  -20.2681  -20.2681  -20.2681  -20.2681  -20.1549  -20.1549  -20.1549  -20.1549  -17.1810  -17.1810
  -17.1810  -17.1810  -17.1499  -17.1499  -17.1499  -17.1499  -17.1072  -17.1072  -17.0928  -17.0928
  -15.8367  -15.7806  -15.7200  -15.7200  -15.6392  -15.6392  -14.8191  -14.8191  -14.7641  -14.7641
  -14.5770  -14.5770  -13.8738  -13.8738  -13.7586  -13.7586  -13.7048  -13.7048  -13.4590  -13.4590
  -12.6303  -12.6303  -11.2018  -11.2018  -11.2018  -11.2018  -10.8217  -10.3738  -10.3592  -10.3592
  -10.3592  -10.3592   -6.2178   -5.8000   -5.7705   -5.7705   -5.7705   -5.7705   -5.3061   -5.3061
   -5.3061   -5.3061   -1.9590   -1.9590   -1.6977   -1.6977    0.5598    0.7717    0.7717    0.7872
    0.9484    0.9484    1.0343    1.0344    1.0922    1.0922    3.2502    3.2502    3.2502    3.2503
    3.2853    3.2853    3.3024    3.3024    3.4147    3.4147    3.4147    3.4147    3.6343    3.6343
    3.6978    3.6978    3.8462    3.8462    3.8748    3.8748    5.6558    5.6558    5.7129    5.7130
    8.5217    8.5217    8.5217    8.5217    8.6067    8.6067    8.6067    8.6067    9.7876    9.7876
    9.8128    9.8128   10.9971   11.0045   12.9083   13.0831   13.5631   13.5631   13.5631   13.5631
   13.5929   13.5929   13.5929   13.5929
   8  1  -27.5269  -27.5072  -26.8307  -26.8307  -26.7904  -26.7904  -24.9533  -24.9533  -24.7810  -24.7810
         -23.8293  -23.6256  -23.3883  -23.3883  -23.2329  -23.2329  -22.7215  -22.6579  -21.3256  -21.1742
  -21.1376  -21.1376  -20.9669  -20.9669  -19.6373  -19.6137  -18.6383  -18.6383  -18.6082  -18.6082
  -17.8417  -17.8077  -17.3476  -17.3294  -16.6578  -16.6578  -16.5972  -16.5971  -16.2447  -16.2447
  -16.1964  -16.1964  -15.8558  -15.8558  -15.8154  -15.8154  -14.7151  -14.5417  -14.5417  -14.4791
  -14.4791  -14.2685  -14.2434  -14.1610  -14.1610  -14.0270  -13.6155  -13.5753  -13.4101  -13.4101
  -12.4589  -12.4589  -11.5564  -11.5563  -11.2922  -10.9782  -10.9782  -10.3838  -10.3424  -10.3423
  -10.2702   -9.8081   -6.5850   -6.4255   -6.0884   -6.0883   -5.6143   -5.6143   -5.5890   -5.1773
   -3.8853   -3.8853   -3.5165   -3.5165   -0.3356   -0.3356   -0.1255   -0.1255    1.1691    1.3171
    1.3171    1.3313    1.3706    1.4387    1.5340    1.5340    1.8046    1.8046    1.8725    1.8725
    2.1661    2.1968    3.1836    3.3528    3.4388    3.4388    3.5702    3.5703    3.8458    3.8458
    3.8819    3.8820    5.0998    5.1279    5.3432    5.3977    6.2991    6.2991    6.3530    6.3530
    6.8103    6.9782    7.3441    7.3441    7.3828    7.3828    9.4234    9.5385   10.2583   10.2583
   10.3099   10.3099   12.0186   12.0186   12.0258   12.0258   13.1890   13.1890   13.2878   13.2878
   13.7167   13.7178   14.1257   14.1720
   9  1  -27.5269  -27.5072  -26.8307  -26.8307  -26.7904  -26.7904  -24.9533  -24.9533  -24.7810  -24.7810
         -23.8293  -23.6256  -23.3883  -23.3883  -23.2329  -23.2329  -22.7215  -22.6579  -21.3256  -21.1742
  -21.1376  -21.1376  -20.9669  -20.9669  -19.6373  -19.6137  -18.6383  -18.6383  -18.6082  -18.6082
  -17.8417  -17.8077  -17.3476  -17.3294  -16.6578  -16.6578  -16.5972  -16.5971  -16.2447  -16.2447
  -16.1964  -16.1964  -15.8558  -15.8558  -15.8154  -15.8154  -14.7151  -14.5417  -14.5417  -14.4791
  -14.4791  -14.2685  -14.2434  -14.1610  -14.1610  -14.0270  -13.6155  -13.5753  -13.4101  -13.4101
  -12.4589  -12.4589  -11.5564  -11.5563  -11.2922  -10.9782  -10.9782  -10.3838  -10.3424  -10.3423
  -10.2702   -9.8081   -6.5850   -6.4255   -6.0884   -6.0883   -5.6143   -5.6143   -5.5890   -5.1773
   -3.8853   -3.8853   -3.5165   -3.5165   -0.3356   -0.3356   -0.1255   -0.1255    1.1691    1.3171
    1.3171    1.3313    1.3706    1.4387    1.5340    1.5340    1.8046    1.8046    1.8725    1.8725
    2.1661    2.1968    3.1836    3.3528    3.4388    3.4388    3.5702    3.5703    3.8458    3.8458
    3.8819    3.8820    5.0998    5.1279    5.3432    5.3977    6.2991    6.2991    6.3530    6.3530
    6.8103    6.9782    7.3441    7.3441    7.3828    7.3828    9.4234    9.5385   10.2583   10.2583
   10.3099   10.3099   12.0186   12.0186   12.0258   12.0258   13.1890   13.1890   13.2878   13.2878
   13.7167   13.7178   14.1257   14.1720
  10  1  -27.3401  -27.3401  -27.3357  -27.3357  -26.0205  -26.0205  -25.9141  -25.9141  -23.7082  -23.7082
         -23.7082  -23.7082  -23.5129  -23.5129  -23.5129  -23.5129  -23.1240  -23.0642  -21.5558  -21.3734
  -20.2681  -20.2681  -20.2681  -20.2681  -20.1549  -20.1549  -20.1549  -20.1549  -17.1810  -17.1810
  -17.1810  -17.1810  -17.1499  -17.1499  -17.1499  -17.1499  -17.1072  -17.1072  -17.0928  -17.0928
  -15.8367  -15.7806  -15.7200  -15.7200  -15.6392  -15.6392  -14.8191  -14.8191  -14.7641  -14.7641
  -14.5770  -14.5770  -13.8738  -13.8738  -13.7586  -13.7586  -13.7048  -13.7048  -13.4590  -13.4590
  -12.6303  -12.6303  -11.2018  -11.2018  -11.2018  -11.2018  -10.8217  -10.3738  -10.3592  -10.3592
  -10.3592  -10.3592   -6.2178   -5.8000   -5.7705   -5.7705   -5.7705   -5.7705   -5.3061   -5.3061
   -5.3061   -5.3061   -1.9590   -1.9590   -1.6977   -1.6977    0.5598    0.7717    0.7717    0.7872
    0.9484    0.9484    1.0343    1.0344    1.0922    1.0922    3.2502    3.2502    3.2502    3.2503
    3.2853    3.2853    3.3024    3.3024    3.4147    3.4147    3.4147    3.4147    3.6343    3.6343
    3.6978    3.6978    3.8462    3.8462    3.8748    3.8748    5.6558    5.6558    5.7129    5.7130
    8.5217    8.5217    8.5217    8.5217    8.6067    8.6067    8.6067    8.6067    9.7876    9.7876
    9.8128    9.8128   10.9971   11.0045   12.9083   13.0831   13.5631   13.5631   13.5631   13.5631
   13.5929   13.5929   13.5929   13.5929
  11  1  -27.5269  -27.5072  -26.8307  -26.8307  -26.7904  -26.7904  -24.9533  -24.9533  -24.7810  -24.7810
         -23.8293  -23.6256  -23.3883  -23.3883  -23.2329  -23.2329  -22.7215  -22.6579  -21.3256  -21.1742
  -21.1376  -21.1376  -20.9669  -20.9669  -19.6373  -19.6137  -18.6383  -18.6383  -18.6082  -18.6082
  -17.8417  -17.8077  -17.3476  -17.3294  -16.6578  -16.6578  -16.5972  -16.5971  -16.2447  -16.2447
  -16.1964  -16.1964  -15.8558  -15.8558  -15.8154  -15.8154  -14.7151  -14.5417  -14.5417  -14.4791
  -14.4791  -14.2685  -14.2434  -14.1610  -14.1610  -14.0270  -13.6155  -13.5753  -13.4101  -13.4101
  -12.4589  -12.4589  -11.5564  -11.5563  -11.2922  -10.9782  -10.9782  -10.3838  -10.3424  -10.3423
  -10.2702   -9.8081   -6.5850   -6.4255   -6.0884   -6.0883   -5.6143   -5.6143   -5.5890   -5.1773
   -3.8853   -3.8853   -3.5165   -3.5165   -0.3356   -0.3356   -0.1255   -0.1255    1.1691    1.3171
    1.3171    1.3313    1.3706    1.4387    1.5340    1.5340    1.8046    1.8046    1.8725    1.8725
    2.1661    2.1968    3.1836    3.3528    3.4388    3.4388    3.5702    3.5703    3.8458    3.8458
    3.8819    3.8820    5.0998    5.1279    5.3432    5.3977    6.2991    6.2991    6.3530    6.3530
    6.8103    6.9782    7.3441    7.3441    7.3828    7.3828    9.4234    9.5385   10.2583   10.2583
   10.3099   10.3099   12.0186   12.0186   12.0258   12.0258   13.1890   13.1890   13.2878   13.2878
   13.7167   13.7178   14.1257   14.1720
  12  1  -27.3401  -27.3401  -27.3357  -27.3357  -26.0205  -26.0205  -25.9141  -25.9141  -23.7082  -23.7082
         -23.7082  -23.7082  -23.5129  -23.5129  -23.5129  -23.5129  -23.1240  -23.0642  -21.5558  -21.3734
  -20.2681  -20.2681  -20.2681  -20.2681  -20.1549  -20.1549  -20.1549  -20.1549  -17.1810  -17.1810
  -17.1810  -17.1810  -17.1499  -17.1499  -17.1499  -17.1499  -17.1072  -17.1072  -17.0928  -17.0928
  -15.8367  -15.7806  -15.7200  -15.7200  -15.6392  -15.6392  -14.8191  -14.8191  -14.7641  -14.7641
  -14.5770  -14.5770  -13.8738  -13.8738  -13.7586  -13.7586  -13.7048  -13.7048  -13.4590  -13.4590
  -12.6303  -12.6303  -11.2018  -11.2018  -11.2018  -11.2018  -10.8217  -10.3738  -10.3592  -10.3592
  -10.3592  -10.3592   -6.2178   -5.8000   -5.7705   -5.7705   -5.7705   -5.7705   -5.3061   -5.3061
   -5.3061   -5.3061   -1.9590   -1.9590   -1.6977   -1.6977    0.5598    0.7717    0.7717    0.7872
    0.9484    0.9484    1.0343    1.0344    1.0922    1.0922    3.2502    3.2502    3.2502    3.2503
    3.2853    3.2853    3.3024    3.3024    3.4147    3.4147    3.4147    3.4147    3.6343    3.6343
    3.6978    3.6978    3.8462    3.8462    3.8748    3.8748    5.6558    5.6558    5.7129    5.7130
    8.5217    8.5217    8.5217    8.5217    8.6067    8.6067    8.6067    8.6067    9.7876    9.7876
    9.8128    9.8128   10.9971   11.0045   12.9083   13.0831   13.5631   13.5631   13.5631   13.5631
   13.5929   13.5929   13.5929   13.5929
  13  1  -27.5383  -27.5196  -26.8340  -26.8340  -26.8091  -26.8091  -24.9343  -24.9343  -24.8135  -24.8135
         -23.8028  -23.6588  -23.3659  -23.3659  -23.2557  -23.2557  -22.7095  -22.6637  -21.3090  -21.2009
  -21.1170  -21.1170  -20.9955  -20.9955  -19.6330  -19.6164  -18.6343  -18.6343  -18.6129  -18.6129
  -17.8391  -17.8153  -17.3457  -17.3329  -16.6512  -16.6511  -16.6086  -16.6086  -16.2380  -16.2380
  -16.2039  -16.2038  -15.8510  -15.8510  -15.8226  -15.8226  -14.6125  -14.5368  -14.5368  -14.4924
  -14.4924  -14.2652  -14.2468  -14.1242  -14.0544  -14.0544  -13.6097  -13.5795  -13.5258  -13.5258
  -12.3449  -12.3449  -11.7108  -11.7108  -11.1744  -10.8841  -10.8841  -10.5339  -10.4314  -10.4313
  -10.1905   -9.8591   -6.5968   -6.4773   -6.0511   -6.0511   -5.7100   -5.7100   -5.5276   -5.2371
   -3.8311   -3.8311   -3.5702   -3.5702   -0.3061   -0.3061   -0.1575   -0.1575    1.1875    1.2968
    1.3531    1.3531    1.4143    1.4492    1.5072    1.5072    1.8353    1.8353    1.8829    1.8829
    2.1708    2.1925    3.2117    3.3316    3.4636    3.4636    3.5576    3.5576    3.8574    3.8574
    3.8833    3.8833    5.1048    5.1246    5.3515    5.3900    6.3176    6.3176    6.3578    6.3579
    6.8422    6.9620    7.3513    7.3513    7.3792    7.3792    9.4395    9.5210   10.2664   10.2664
   10.3030   10.3030   12.0203   12.0203   12.0254   12.0254   13.2036   13.2036   13.2736   13.2736
   13.7170   13.7177   14.1320   14.1648
  14  1  -27.9133  -27.8718  -26.5008  -26.4562  -25.8542  -25.8542  -25.7738  -25.7738  -24.6453  -24.6453
         -24.5194  -24.5194  -24.0963  -23.9671  -22.5850  -22.5850  -22.4712  -22.4712  -20.8282  -20.8282
  -20.7616  -20.7616  -20.4389  -20.3398  -19.5339  -19.5339  -19.4717  -19.4717  -18.4307  -18.4307
  -18.4202  -18.4202  -17.6960  -17.6960  -17.6687  -17.6687  -16.7167  -16.6769  -15.9403  -15.9403
  -15.9020  -15.9020  -15.6833  -15.6427  -15.3579  -15.3579  -15.3139  -15.3139  -14.8853  -14.5789
  -14.5363  -14.4116  -13.7783  -13.2835  -13.2573  -13.2285  -13.2124  -13.2124  -12.9920  -12.9656
  -12.6230  -12.6230  -12.0839  -12.0839  -11.5777  -11.4622  -11.4622  -11.0039   -9.8475   -9.8475
   -9.3541   -9.3541   -7.0373   -7.0373   -6.7665   -6.7665   -5.2471   -4.8234   -4.3991   -4.3991
   -4.0316   -4.0316   -2.2687   -2.2687   -2.0295   -2.0295   -1.0196   -0.8253    0.6691    0.7688
    0.7782    0.8316    1.0512    1.1274    1.2808    1.2975    1.4907    1.4907    1.6361    1.6361
    1.7067    1.7067    1.8080    1.8080    2.0113    2.1160    4.4428    4.4791    5.4469    5.4469
    5.4869    5.4869    5.9045    5.9131    6.3393    6.3393    6.3626    6.3626    7.7180    7.7673
    8.0745    8.0745    8.1734    8.1734    8.7648    8.7648    8.7739    8.7739    9.7599    9.7599
    9.7720    9.7720   10.3181   10.3239   11.8997   11.8997   11.9259   11.9259   12.1278   12.2080
   14.6184   14.6184   14.6254   14.6254
  15  1  -27.9133  -27.8718  -26.5008  -26.4562  -25.8542  -25.8542  -25.7738  -25.7738  -24.6453  -24.6453
         -24.5194  -24.5194  -24.0963  -23.9671  -22.5850  -22.5850  -22.4712  -22.4712  -20.8282  -20.8282
  -20.7616  -20.7616  -20.4389  -20.3398  -19.5339  -19.5339  -19.4717  -19.4717  -18.4307  -18.4307
  -18.4202  -18.4202  -17.6960  -17.6960  -17.6687  -17.6687  -16.7167  -16.6769  -15.9403  -15.9403
  -15.9020  -15.9020  -15.6833  -15.6427  -15.3579  -15.3579  -15.3139  -15.3139  -14.8853  -14.5789
  -14.5363  -14.4116  -13.7783  -13.2835  -13.2573  -13.2285  -13.2124  -13.2124  -12.9920  -12.9656
  -12.6230  -12.6230  -12.0839  -12.0839  -11.5777  -11.4622  -11.4622  -11.0039   -9.8475   -9.8475
   -9.3541   -9.3541   -7.0373   -7.0373   -6.7665   -6.7665   -5.2471   -4.8234   -4.3991   -4.3991
   -4.0316   -4.0316   -2.2687   -2.2687   -2.0295   -2.0295   -1.0196   -0.8253    0.6691    0.7688
    0.7782    0.8316    1.0512    1.1274    1.2808    1.2975    1.4907    1.4907    1.6361    1.6361
    1.7067    1.7067    1.8080    1.8080    2.0113    2.1160    4.4428    4.4791    5.4469    5.4469
    5.4869    5.4869    5.9045    5.9131    6.3393    6.3393    6.3626    6.3626    7.7180    7.7673
    8.0745    8.0745    8.1734    8.1734    8.7648    8.7648    8.7739    8.7739    9.7599    9.7599
    9.7720    9.7720   10.3181   10.3239   11.8997   11.8997   11.9259   11.9259   12.1278   12.2080
   14.6184   14.6184   14.6254   14.6254
  16  1  -27.5383  -27.5196  -26.8340  -26.8340  -26.8091  -26.8091  -24.9343  -24.9343  -24.8135  -24.8135
         -23.8028  -23.6588  -23.3659  -23.3659  -23.2557  -23.2557  -22.7095  -22.6637  -21.3090  -21.2009
  -21.1170  -21.1170  -20.9955  -20.9955  -19.6330  -19.6164  -18.6343  -18.6343  -18.6129  -18.6129
  -17.8391  -17.8153  -17.3457  -17.3329  -16.6512  -16.6511  -16.6086  -16.6086  -16.2380  -16.2380
  -16.2039  -16.2038  -15.8510  -15.8510  -15.8226  -15.8226  -14.6125  -14.5368  -14.5368  -14.4924
  -14.4924  -14.2652  -14.2468  -14.1242  -14.0544  -14.0544  -13.6097  -13.5795  -13.5258  -13.5258
  -12.3449  -12.3449  -11.7108  -11.7108  -11.1744  -10.8841  -10.8841  -10.5339  -10.4314  -10.4313
  -10.1905   -9.8591   -6.5968   -6.4773   -6.0511   -6.0511   -5.7100   -5.7100   -5.5276   -5.2371
   -3.8311   -3.8311   -3.5702   -3.5702   -0.3061   -0.3061   -0.1575   -0.1575    1.1875    1.2968
    1.3531    1.3531    1.4143    1.4492    1.5072    1.5072    1.8353    1.8353    1.8829    1.8829
    2.1708    2.1925    3.2117    3.3316    3.4636    3.4636    3.5576    3.5576    3.8574    3.8574
    3.8833    3.8833    5.1048    5.1246    5.3515    5.3900    6.3176    6.3176    6.3578    6.3579
    6.8422    6.9620    7.3513    7.3513    7.3792    7.3792    9.4395    9.5210   10.2664   10.2664
   10.3030   10.3030   12.0203   12.0203   12.0254   12.0254   13.2036   13.2036   13.2736   13.2736
   13.7170   13.7177   14.1320   14.1648
  17  1  -27.9133  -27.8718  -26.5008  -26.4562  -25.8542  -25.8542  -25.7738  -25.7738  -24.6453  -24.6453
         -24.5194  -24.5194  -24.0963  -23.9671  -22.5850  -22.5850  -22.4712  -22.4712  -20.8282  -20.8282
  -20.7616  -20.7616  -20.4389  -20.3398  -19.5339  -19.5339  -19.4717  -19.4717  -18.4307  -18.4307
  -18.4202  -18.4202  -17.6960  -17.6960  -17.6687  -17.6687  -16.7167  -16.6769  -15.9403  -15.9403
  -15.9020  -15.9020  -15.6833  -15.6427  -15.3579  -15.3579  -15.3139  -15.3139  -14.8853  -14.5789
  -14.5363  -14.4116  -13.7783  -13.2835  -13.2573  -13.2285  -13.2124  -13.2124  -12.9920  -12.9656
  -12.6230  -12.6230  -12.0839  -12.0839  -11.5777  -11.4622  -11.4622  -11.0039   -9.8475   -9.8475
   -9.3541   -9.3541   -7.0373   -7.0373   -6.7665   -6.7665   -5.2471   -4.8234   -4.3991   -4.3991
   -4.0316   -4.0316   -2.2687   -2.2687   -2.0295   -2.0295   -1.0196   -0.8253    0.6691    0.7688
    0.7782    0.8316    1.0512    1.1274    1.2808    1.2975    1.4907    1.4907    1.6361    1.6361
    1.7067    1.7067    1.8080    1.8080    2.0113    2.1160    4.4428    4.4791    5.4469    5.4469
    5.4869    5.4869    5.9045    5.9131    6.3393    6.3393    6.3626    6.3626    7.7180    7.7673
    8.0745    8.0745    8.1734    8.1734    8.7648    8.7648    8.7739    8.7739    9.7599    9.7599
    9.7720    9.7720   10.3181   10.3239   11.8997   11.8997   11.9259   11.9259   12.1278   12.2080
   14.6184   14.6184   14.6254   14.6254
  18  1  -28.1032  -28.0501  -25.3876  -25.3876  -25.3876  -25.3876  -25.3876  -25.3876  -25.2867  -25.2867
         -25.2867  -25.2867  -25.2867  -25.2867  -21.5524  -21.5524  -21.5051  -21.5051  -21.5051  -21.5051
  -21.4703  -21.4703  -19.0078  -19.0078  -19.0078  -19.0078  -18.6496  -18.6496  -18.6496  -18.6496
  -18.6496  -18.6496  -18.6086  -18.6086  -18.6086  -18.6086  -18.6086  -18.6086  -15.2552  -15.2552
  -15.2552  -15.2551  -15.2551  -15.2551  -15.2128  -15.2128  -15.2128  -15.2128  -15.2128  -15.2128
  -15.0213  -14.5539  -12.7922  -12.7922  -12.7922  -12.7922  -12.7922  -12.7922  -12.6636  -12.6636
  -12.6482  -12.6482  -12.1840  -12.1840  -12.1840  -12.1840  -12.1840  -12.1840   -8.6096   -8.6096
   -8.2749   -8.2749   -8.2749   -8.2749   -7.9252   -7.9252   -3.1802   -3.1802   -3.1802   -3.1802
   -3.1802   -3.1802   -2.8529   -2.8529   -2.8529   -2.8529   -2.8529   -2.8529    0.5108    0.5108
    0.5299    0.5299    0.8549    0.8549    0.8549    0.8549    0.8549    0.8549    0.9931    0.9931
    0.9931    0.9931    0.9931    0.9931    2.4406    2.5419    4.1009    4.1318    7.1054    7.1054
    7.1636    7.1636    7.1636    7.1636    7.2284    7.2284    8.4599    8.4599    8.4599    8.4599
    8.4599    8.4599    8.4665    8.4665    8.4665    8.4665    8.4665    8.4666   10.1136   10.1136
   10.1136   10.1136   10.1136   10.1136   10.1498   10.1498   10.1498   10.1498   10.1498   10.1498
   14.9764   14.9764   14.9764   14.9764
  19  1  -27.9133  -27.8718  -26.5008  -26.4562  -25.8542  -25.8542  -25.7738  -25.7738  -24.6453  -24.6453
         -24.5194  -24.5194  -24.0963  -23.9671  -22.5850  -22.5850  -22.4712  -22.4712  -20.8282  -20.8282
  -20.7616  -20.7616  -20.4389  -20.3398  -19.5339  -19.5339  -19.4717  -19.4717  -18.4307  -18.4307
  -18.4202  -18.4202  -17.6960  -17.6960  -17.6687  -17.6687  -16.7167  -16.6769  -15.9403  -15.9403
  -15.9020  -15.9020  -15.6833  -15.6427  -15.3579  -15.3579  -15.3139  -15.3139  -14.8853  -14.5789
  -14.5363  -14.4116  -13.7783  -13.2835  -13.2573  -13.2285  -13.2124  -13.2124  -12.9920  -12.9656
  -12.6230  -12.6230  -12.0839  -12.0839  -11.5777  -11.4622  -11.4622  -11.0039   -9.8475   -9.8475
   -9.3541   -9.3541   -7.0373   -7.0373   -6.7665   -6.7665   -5.2471   -4.8234   -4.3991   -4.3991
   -4.0316   -4.0316   -2.2687   -2.2687   -2.0295   -2.0295   -1.0196   -0.8253    0.6691    0.7688
    0.7782    0.8316    1.0512    1.1274    1.2808    1.2975    1.4907    1.4907    1.6361    1.6361
    1.7067    1.7067    1.8080    1.8080    2.0113    2.1160    4.4428    4.4791    5.4469    5.4469
    5.4869    5.4869    5.9045    5.9131    6.3393    6.3393    6.3626    6.3626    7.7180    7.7673
    8.0745    8.0745    8.1734    8.1734    8.7648    8.7648    8.7739    8.7739    9.7599    9.7599
    9.7720    9.7720   10.3181   10.3239   11.8997   11.8997   11.9259   11.9259   12.1278   12.2080
   14.6184   14.6184   14.6254   14.6254
  20  1  -27.3534  -27.3534  -27.3458  -27.3458  -26.0132  -26.0132  -25.9404  -25.9404  -23.6822  -23.6822
         -23.6822  -23.6822  -23.5441  -23.5441  -23.5441  -23.5441  -23.1127  -23.0697  -21.5369  -21.4067
  -20.2529  -20.2529  -20.2529  -20.2529  -20.1725  -20.1725  -20.1725  -20.1725  -17.1775  -17.1775
  -17.1775  -17.1775  -17.1556  -17.1556  -17.1556  -17.1556  -17.1050  -17.1050  -17.0948  -17.0948
  -15.8287  -15.7890  -15.7119  -15.7119  -15.6555  -15.6555  -14.8154  -14.8154  -14.7766  -14.7766
  -14.4702  -14.4702  -13.9724  -13.9724  -13.7508  -13.7508  -13.7128  -13.7127  -13.3512  -13.3512
  -12.7694  -12.7694  -11.0894  -11.0894  -11.0894  -11.0894  -10.7463  -10.4938  -10.4938  -10.4938
  -10.4938  -10.4255   -6.2020   -5.9006   -5.7116   -5.7116   -5.7116   -5.7116   -5.3810   -5.3810
   -5.3810   -5.3810   -1.9205   -1.9205   -1.7358   -1.7358    0.5973    0.7590    0.7913    0.7913
    0.9117    0.9117    1.0740    1.0740    1.1068    1.1068    3.2782    3.2782    3.2782    3.2782
    3.2879    3.2879    3.2999    3.3000    3.3949    3.3949    3.3950    3.3950    3.6476    3.6476
    3.6935    3.6935    3.8768    3.8768    3.8884    3.8884    5.6679    5.6680    5.7094    5.7094
    8.5370    8.5370    8.5370    8.5370    8.5976    8.5976    8.5976    8.5976    9.7914    9.7914
    9.8091    9.8091   10.9981   11.0033   12.9336   13.0575   13.5678   13.5678   13.5678   13.5678
   13.5889   13.5889   13.5889   13.5889
  21  1  -27.9133  -27.8718  -26.5008  -26.4562  -25.8542  -25.8542  -25.7738  -25.7738  -24.6453  -24.6453
         -24.5194  -24.5194  -24.0963  -23.9671  -22.5850  -22.5850  -22.4712  -22.4712  -20.8282  -20.8282
  -20.7616  -20.7616  -20.4389  -20.3398  -19.5339  -19.5339  -19.4717  -19.4717  -18.4307  -18.4307
  -18.4202  -18.4202  -17.6960  -17.6960  -17.6687  -17.6687  -16.7167  -16.6769  -15.9403  -15.9403
  -15.9020  -15.9020  -15.6833  -15.6427  -15.3579  -15.3579  -15.3139  -15.3139  -14.8853  -14.5789
  -14.5363  -14.4116  -13.7783  -13.2835  -13.2573  -13.2285  -13.2124  -13.2124  -12.9920  -12.9656
  -12.6230  -12.6230  -12.0839  -12.0839  -11.5777  -11.4622  -11.4622  -11.0039   -9.8475   -9.8475
   -9.3541   -9.3541   -7.0373   -7.0373   -6.7665   -6.7665   -5.2471   -4.8234   -4.3991   -4.3991
   -4.0316   -4.0316   -2.2687   -2.2687   -2.0295   -2.0295   -1.0196   -0.8253    0.6691    0.7688
    0.7782    0.8316    1.0512    1.1274    1.2808    1.2975    1.4907    1.4907    1.6361    1.6361
    1.7067    1.7067    1.8080    1.8080    2.0113    2.1160    4.4428    4.4791    5.4469    5.4469
    5.4869    5.4869    5.9045    5.9131    6.3393    6.3393    6.3626    6.3626    7.7180    7.7673
    8.0745    8.0745    8.1734    8.1734    8.7648    8.7648    8.7739    8.7739    9.7599    9.7599
    9.7720    9.7720   10.3181   10.3239   11.8997   11.8997   11.9259   11.9259   12.1278   12.2080
   14.6184   14.6184   14.6254   14.6254
  22  1  -27.9133  -27.8718  -26.5008  -26.4562  -25.8542  -25.8542  -25.7738  -25.7738  -24.6453  -24.6453
         -24.5194  -24.5194  -24.0963  -23.9671  -22.5850  -22.5850  -22.4712  -22.4712  -20.8282  -20.8282
  -20.7616  -20.7616  -20.4389  -20.3398  -19.5339  -19.5339  -19.4717  -19.4717  -18.4307  -18.4307
  -18.4202  -18.4202  -17.6960  -17.6960  -17.6687  -17.6687  -16.7167  -16.6769  -15.9403  -15.9403
  -15.9020  -15.9020  -15.6833  -15.6427  -15.3579  -15.3579  -15.3139  -15.3139  -14.8853  -14.5789
  -14.5363  -14.4116  -13.7783  -13.2835  -13.2573  -13.2285  -13.2124  -13.2124  -12.9920  -12.9656
  -12.6230  -12.6230  -12.0839  -12.0839  -11.5777  -11.4622  -11.4622  -11.0039   -9.8475   -9.8475
   -9.3541   -9.3541   -7.0373   -7.0373   -6.7665   -6.7665   -5.2471   -4.8234   -4.3991   -4.3991
   -4.0316   -4.0316   -2.2687   -2.2687   -2.0295   -2.0295   -1.0196   -0.8253    0.6691    0.7688
    0.7782    0.8316    1.0512    1.1274    1.2808    1.2975    1.4907    1.4907    1.6361    1.6361
    1.7067    1.7067    1.8080    1.8080    2.0113    2.1160    4.4428    4.4791    5.4469    5.4469
    5.4869    5.4869    5.9045    5.9131    6.3393    6.3393    6.3626    6.3626    7.7180    7.7673
    8.0745    8.0745    8.1734    8.1734    8.7648    8.7648    8.7739    8.7739    9.7599    9.7599
    9.7720    9.7720   10.3181   10.3239   11.8997   11.8997   11.9259   11.9259   12.1278   12.2080
   14.6184   14.6184   14.6254   14.6254
  23  1  -27.5383  -27.5196  -26.8340  -26.8340  -26.8091  -26.8091  -24.9343  -24.9343  -24.8135  -24.8135
         -23.8028  -23.6588  -23.3659  -23.3659  -23.2557  -23.2557  -22.7095  -22.6637  -21.3090  -21.2009
  -21.1170  -21.1170  -20.9955  -20.9955  -19.6330  -19.6164  -18.6343  -18.6343  -18.6129  -18.6129
  -17.8391  -17.8153  -17.3457  -17.3329  -16.6512  -16.6511  -16.6086  -16.6086  -16.2380  -16.2380
  -16.2039  -16.2038  -15.8510  -15.8510  -15.8226  -15.8226  -14.6125  -14.5368  -14.5368  -14.4924
  -14.4924  -14.2652  -14.2468  -14.1242  -14.0544  -14.0544  -13.6097  -13.5795  -13.5258  -13.5258
  -12.3449  -12.3449  -11.7108  -11.7108  -11.1744  -10.8841  -10.8841  -10.5339  -10.4314  -10.4313
  -10.1905   -9.8591   -6.5968   -6.4773   -6.0511   -6.0511   -5.7100   -5.7100   -5.5276   -5.2371
   -3.8311   -3.8311   -3.5702   -3.5702   -0.3061   -0.3061   -0.1575   -0.1575    1.1875    1.2968
    1.3531    1.3531    1.4143    1.4492    1.5072    1.5072    1.8353    1.8353    1.8829    1.8829
    2.1708    2.1925    3.2117    3.3316    3.4636    3.4636    3.5576    3.5576    3.8574    3.8574
    3.8833    3.8833    5.1048    5.1246    5.3515    5.3900    6.3176    6.3176    6.3578    6.3579
    6.8422    6.9620    7.3513    7.3513    7.3792    7.3792    9.4395    9.5210   10.2664   10.2664
   10.3030   10.3030   12.0203   12.0203   12.0254   12.0254   13.2036   13.2036   13.2736   13.2736
   13.7170   13.7177   14.1320   14.1648
  24  1  -27.5383  -27.5196  -26.8340  -26.8340  -26.8091  -26.8091  -24.9343  -24.9343  -24.8135  -24.8135
         -23.8028  -23.6588  -23.3659  -23.3659  -23.2557  -23.2557  -22.7095  -22.6637  -21.3090  -21.2009
  -21.1170  -21.1170  -20.9955  -20.9955  -19.6330  -19.6164  -18.6343  -18.6343  -18.6129  -18.6129
  -17.8391  -17.8153  -17.3457  -17.3329  -16.6512  -16.6511  -16.6086  -16.6086  -16.2380  -16.2380
  -16.2039  -16.2038  -15.8510  -15.8510  -15.8226  -15.8226  -14.6125  -14.5368  -14.5368  -14.4924
  -14.4924  -14.2652  -14.2468  -14.1242  -14.0544  -14.0544  -13.6097  -13.5795  -13.5258  -13.5258
  -12.3449  -12.3449  -11.7108  -11.7108  -11.1744  -10.8841  -10.8841  -10.5339  -10.4314  -10.4313
  -10.1905   -9.8591   -6.5968   -6.4773   -6.0511   -6.0511   -5.7100   -5.7100   -5.5276   -5.2371
   -3.8311   -3.8311   -3.5702   -3.5702   -0.3061   -0.3061   -0.1575   -0.1575    1.1875    1.2968
    1.3531    1.3531    1.4143    1.4492    1.5072    1.5072    1.8353    1.8353    1.8829    1.8829
    2.1708    2.1925    3.2117    3.3316    3.4636    3.4636    3.5576    3.5576    3.8574    3.8574
    3.8833    3.8833    5.1048    5.1246    5.3515    5.3900    6.3176    6.3176    6.3578    6.3579
    6.8422    6.9620    7.3513    7.3513    7.3792    7.3792    9.4395    9.5210   10.2664   10.2664
   10.3030   10.3030   12.0203   12.0203   12.0254   12.0254   13.2036   13.2036   13.2736   13.2736
   13.7170   13.7177   14.1320   14.1648
  25  1  -27.5383  -27.5196  -26.8340  -26.8340  -26.8091  -26.8091  -24.9343  -24.9343  -24.8135  -24.8135
         -23.8028  -23.6588  -23.3659  -23.3659  -23.2557  -23.2557  -22.7095  -22.6637  -21.3090  -21.2009
  -21.1170  -21.1170  -20.9955  -20.9955  -19.6330  -19.6164  -18.6343  -18.6343  -18.6129  -18.6129
  -17.8391  -17.8153  -17.3457  -17.3329  -16.6512  -16.6511  -16.6086  -16.6086  -16.2380  -16.2380
  -16.2039  -16.2038  -15.8510  -15.8510  -15.8226  -15.8226  -14.6125  -14.5368  -14.5368  -14.4924
  -14.4924  -14.2652  -14.2468  -14.1242  -14.0544  -14.0544  -13.6097  -13.5795  -13.5258  -13.5258
  -12.3449  -12.3449  -11.7108  -11.7108  -11.1744  -10.8841  -10.8841  -10.5339  -10.4314  -10.4313
  -10.1905   -9.8591   -6.5968   -6.4773   -6.0511   -6.0511   -5.7100   -5.7100   -5.5276   -5.2371
   -3.8311   -3.8311   -3.5702   -3.5702   -0.3061   -0.3061   -0.1575   -0.1575    1.1875    1.2968
    1.3531    1.3531    1.4143    1.4492    1.5072    1.5072    1.8353    1.8353    1.8829    1.8829
    2.1708    2.1925    3.2117    3.3316    3.4636    3.4636    3.5576    3.5576    3.8574    3.8574
    3.8833    3.8833    5.1048    5.1246    5.3515    5.3900    6.3176    6.3176    6.3578    6.3579
    6.8422    6.9620    7.3513    7.3513    7.3792    7.3792    9.4395    9.5210   10.2664   10.2664
   10.3030   10.3030   12.0203   12.0203   12.0254   12.0254   13.2036   13.2036   13.2736   13.2736
   13.7170   13.7177   14.1320   14.1648
  26  1  -27.3534  -27.3534  -27.3458  -27.3458  -26.0132  -26.0132  -25.9404  -25.9404  -23.6822  -23.6822
         -23.6822  -23.6822  -23.5441  -23.5441  -23.5441  -23.5441  -23.1127  -23.0697  -21.5369  -21.4067
  -20.2529  -20.2529  -20.2529  -20.2529  -20.1725  -20.1725  -20.1725  -20.1725  -17.1775  -17.1775
  -17.1775  -17.1775  -17.1556  -17.1556  -17.1556  -17.1556  -17.1050  -17.1050  -17.0948  -17.0948
  -15.8287  -15.7890  -15.7119  -15.7119  -15.6555  -15.6555  -14.8154  -14.8154  -14.7766  -14.7766
  -14.4702  -14.4702  -13.9724  -13.9724  -13.7508  -13.7508  -13.7128  -13.7127  -13.3512  -13.3512
  -12.7694  -12.7694  -11.0894  -11.0894  -11.0894  -11.0894  -10.7463  -10.4938  -10.4938  -10.4938
  -10.4938  -10.4255   -6.2020   -5.9006   -5.7116   -5.7116   -5.7116   -5.7116   -5.3810   -5.3810
   -5.3810   -5.3810   -1.9205   -1.9205   -1.7358   -1.7358    0.5973    0.7590    0.7913    0.7913
    0.9117    0.9117    1.0740    1.0740    1.1068    1.1068    3.2782    3.2782    3.2782    3.2782
    3.2879    3.2879    3.2999    3.3000    3.3949    3.3949    3.3950    3.3950    3.6476    3.6476
    3.6935    3.6935    3.8768    3.8768    3.8884    3.8884    5.6679    5.6680    5.7094    5.7094
    8.5370    8.5370    8.5370    8.5370    8.5976    8.5976    8.5976    8.5976    9.7914    9.7914
    9.8091    9.8091   10.9981   11.0033   12.9336   13.0575   13.5678   13.5678   13.5678   13.5678
   13.5889   13.5889   13.5889   13.5889
  27  1  -27.5383  -27.5196  -26.8340  -26.8340  -26.8091  -26.8091  -24.9343  -24.9343  -24.8135  -24.8135
         -23.8028  -23.6588  -23.3659  -23.3659  -23.2557  -23.2557  -22.7095  -22.6637  -21.3090  -21.2009
  -21.1170  -21.1170  -20.9955  -20.9955  -19.6330  -19.6164  -18.6343  -18.6343  -18.6129  -18.6129
  -17.8391  -17.8153  -17.3457  -17.3329  -16.6512  -16.6511  -16.6086  -16.6086  -16.2380  -16.2380
  -16.2039  -16.2038  -15.8510  -15.8510  -15.8226  -15.8226  -14.6125  -14.5368  -14.5368  -14.4924
  -14.4924  -14.2652  -14.2468  -14.1242  -14.0544  -14.0544  -13.6097  -13.5795  -13.5258  -13.5258
  -12.3449  -12.3449  -11.7108  -11.7108  -11.1744  -10.8841  -10.8841  -10.5339  -10.4314  -10.4313
  -10.1905   -9.8591   -6.5968   -6.4773   -6.0511   -6.0511   -5.7100   -5.7100   -5.5276   -5.2371
   -3.8311   -3.8311   -3.5702   -3.5702   -0.3061   -0.3061   -0.1575   -0.1575    1.1875    1.2968
    1.3531    1.3531    1.4143    1.4492    1.5072    1.5072    1.8353    1.8353    1.8829    1.8829
    2.1708    2.1925    3.2117    3.3316    3.4636    3.4636    3.5576    3.5576    3.8574    3.8574
    3.8833    3.8833    5.1048    5.1246    5.3515    5.3900    6.3176    6.3176    6.3578    6.3579
    6.8422    6.9620    7.3513    7.3513    7.3792    7.3792    9.4395    9.5210   10.2664   10.2664
   10.3030   10.3030   12.0203   12.0203   12.0254   12.0254   13.2036   13.2036   13.2736   13.2736
   13.7170   13.7177   14.1320   14.1648
  28  1  -27.3534  -27.3534  -27.3458  -27.3458  -26.0132  -26.0132  -25.9404  -25.9404  -23.6822  -23.6822
         -23.6822  -23.6822  -23.5441  -23.5441  -23.5441  -23.5441  -23.1127  -23.0697  -21.5369  -21.4067
  -20.2529  -20.2529  -20.2529  -20.2529  -20.1725  -20.1725  -20.1725  -20.1725  -17.1775  -17.1775
  -17.1775  -17.1775  -17.1556  -17.1556  -17.1556  -17.1556  -17.1050  -17.1050  -17.0948  -17.0948
  -15.8287  -15.7890  -15.7119  -15.7119  -15.6555  -15.6555  -14.8154  -14.8154  -14.7766  -14.7766
  -14.4702  -14.4702  -13.9724  -13.9724  -13.7508  -13.7508  -13.7128  -13.7127  -13.3512  -13.3512
  -12.7694  -12.7694  -11.0894  -11.0894  -11.0894  -11.0894  -10.7463  -10.4938  -10.4938  -10.4938
  -10.4938  -10.4255   -6.2020   -5.9006   -5.7116   -5.7116   -5.7116   -5.7116   -5.3810   -5.3810
   -5.3810   -5.3810   -1.9205   -1.9205   -1.7358   -1.7358    0.5973    0.7590    0.7913    0.7913
    0.9117    0.9117    1.0740    1.0740    1.1068    1.1068    3.2782    3.2782    3.2782    3.2782
    3.2879    3.2879    3.2999    3.3000    3.3949    3.3949    3.3950    3.3950    3.6476    3.6476
    3.6935    3.6935    3.8768    3.8768    3.8884    3.8884    5.6679    5.6680    5.7094    5.7094
    8.5370    8.5370    8.5370    8.5370    8.5976    8.5976    8.5976    8.5976    9.7914    9.7914
    9.8091    9.8091   10.9981   11.0033   12.9336   13.0575   13.5678   13.5678   13.5678   13.5678
   13.5889   13.5889   13.5889   13.5889
  29  1  -27.5399  -27.5399  -26.8320  -26.8320  -26.8319  -26.8319  -24.8805  -24.8805  -24.8805  -24.8805
         -23.7342  -23.7342  -23.3110  -23.3110  -23.3110  -23.3110  -22.6835  -22.6835  -21.2600  -21.2600
  -21.0603  -21.0603  -21.0603  -21.0603  -19.6240  -19.6240  -18.6240  -18.6240  -18.6240  -18.6240
  -17.8297  -17.8297  -17.3401  -17.3401  -16.6323  -16.6323  -16.6323  -16.6323  -16.2213  -16.2213
  -16.2213  -16.2213  -15.8380  -15.8380  -15.8379  -15.8379  -14.5184  -14.5184  -14.5184  -14.5184
  -14.3668  -14.3668  -14.2548  -14.2548  -13.7949  -13.7949  -13.7949  -13.7949  -13.5945  -13.5945
  -12.0477  -12.0477  -12.0477  -12.0477  -10.8702  -10.8702  -10.6556  -10.6556  -10.6556  -10.6556
  -10.0106  -10.0106   -6.5687   -6.5687   -5.9093   -5.9093   -5.9093   -5.9093   -5.3814   -5.3814
   -3.7004   -3.7004   -3.7004   -3.7004   -0.2331   -0.2331   -0.2331   -0.2331    1.2376    1.2376
    1.4347    1.4347    1.4347    1.4347    1.4540    1.4540    1.8784    1.8784    1.8784    1.8784
    2.1818    2.1818    3.2751    3.2751    3.5165    3.5165    3.5165    3.5165    3.8767    3.8767
    3.8767    3.8767    5.1156    5.1156    5.3710    5.3710    6.3492    6.3492    6.3492    6.3492
    6.9098    6.9098    7.3670    7.3670    7.3671    7.3671    9.4795    9.4795   10.2852   10.2852
   10.2853   10.2853   12.0235   12.0235   12.0235   12.0235   13.2388   13.2388   13.2388   13.2388
   13.7174   13.7174   14.1479   14.1479
  30  1  -27.9037  -27.9037  -26.4885  -26.4885  -25.8229  -25.8229  -25.8229  -25.8229  -24.5879  -24.5879
         -24.5879  -24.5879  -24.0352  -24.0352  -22.5277  -22.5277  -22.5277  -22.5277  -20.7948  -20.7948
  -20.7948  -20.7948  -20.3922  -20.3922  -19.5047  -19.5047  -19.5047  -19.5047  -18.4276  -18.4276
  -18.4276  -18.4276  -17.6842  -17.6842  -17.6842  -17.6842  -16.6997  -16.6997  -15.9218  -15.9218
  -15.9218  -15.9218  -15.6632  -15.6632  -15.3373  -15.3373  -15.3373  -15.3373  -14.6373  -14.6373
  -14.5577  -14.5577  -13.5142  -13.5142  -13.2704  -13.2704  -12.9788  -12.9788  -12.9342  -12.9342
  -12.9342  -12.9342  -11.7909  -11.7909  -11.7909  -11.7909  -11.3020  -11.3020   -9.5980   -9.5980
   -9.5980   -9.5980   -6.9133   -6.9133   -6.9133   -6.9133   -5.0528   -5.0528   -4.2219   -4.2219
   -4.2219   -4.2219   -2.1504   -2.1504   -2.1504   -2.1504   -0.9246   -0.9246    0.7562    0.7562
    0.7812    0.7812    1.1065    1.1065    1.2891    1.2891    1.5704    1.5704    1.5704    1.5704
    1.7699    1.7699    1.7699    1.7699    2.0628    2.0628    4.4617    4.4617    5.4689    5.4689
    5.4689    5.4689    5.9088    5.9088    6.3593    6.3593    6.3593    6.3593    7.7536    7.7536
    8.1237    8.1237    8.1238    8.1238    8.7739    8.7739    8.7739    8.7739    9.7704    9.7704
    9.7704    9.7704   10.3209   10.3209   11.9168   11.9168   11.9168   11.9168   12.1729   12.1729
   14.6218   14.6218   14.6218   14.6218
  31  1  -27.9037  -27.9037  -26.4885  -26.4885  -25.8229  -25.8229  -25.8229  -25.8229  -24.5879  -24.5879
         -24.5879  -24.5879  -24.0352  -24.0352  -22.5277  -22.5277  -22.5277  -22.5277  -20.7948  -20.7948
  -20.7948  -20.7948  -20.3922  -20.3922  -19.5047  -19.5047  -19.5047  -19.5047  -18.4276  -18.4276
  -18.4276  -18.4276  -17.6842  -17.6842  -17.6842  -17.6842  -16.6997  -16.6997  -15.9218  -15.9218
  -15.9218  -15.9218  -15.6632  -15.6632  -15.3373  -15.3373  -15.3373  -15.3373  -14.6373  -14.6373
  -14.5577  -14.5577  -13.5142  -13.5142  -13.2704  -13.2704  -12.9788  -12.9788  -12.9342  -12.9342
  -12.9342  -12.9342  -11.7909  -11.7909  -11.7909  -11.7909  -11.3020  -11.3020   -9.5980   -9.5980
   -9.5980   -9.5980   -6.9133   -6.9133   -6.9133   -6.9133   -5.0528   -5.0528   -4.2219   -4.2219
   -4.2219   -4.2219   -2.1504   -2.1504   -2.1504   -2.1504   -0.9246   -0.9246    0.7562    0.7562
    0.7812    0.7812    1.1065    1.1065    1.2891    1.2891    1.5704    1.5704    1.5704    1.5704
    1.7699    1.7699    1.7699    1.7699    2.0628    2.0628    4.4617    4.4617    5.4689    5.4689
    5.4689    5.4689    5.9088    5.9088    6.3593    6.3593    6.3593    6.3593    7.7536    7.7536
    8.1237    8.1237    8.1238    8.1238    8.7739    8.7739    8.7739    8.7739    9.7704    9.7704
    9.7704    9.7704   10.3209   10.3209   11.9168   11.9168   11.9168   11.9168   12.1729   12.1729
   14.6218   14.6218   14.6218   14.6218
  32  1  -27.5399  -27.5399  -26.8320  -26.8320  -26.8319  -26.8319  -24.8805  -24.8805  -24.8805  -24.8805
         -23.7342  -23.7342  -23.3110  -23.3110  -23.3110  -23.3110  -22.6835  -22.6835  -21.2600  -21.2600
  -21.0603  -21.0603  -21.0603  -21.0603  -19.6240  -19.6240  -18.6240  -18.6240  -18.6240  -18.6240
  -17.8297  -17.8297  -17.3401  -17.3401  -16.6323  -16.6323  -16.6323  -16.6323  -16.2213  -16.2213
  -16.2213  -16.2213  -15.8380  -15.8380  -15.8379  -15.8379  -14.5184  -14.5184  -14.5184  -14.5184
  -14.3668  -14.3668  -14.2548  -14.2548  -13.7949  -13.7949  -13.7949  -13.7949  -13.5945  -13.5945
  -12.0477  -12.0477  -12.0477  -12.0477  -10.8702  -10.8702  -10.6556  -10.6556  -10.6556  -10.6556
  -10.0106  -10.0106   -6.5687   -6.5687   -5.9093   -5.9093   -5.9093   -5.9093   -5.3814   -5.3814
   -3.7004   -3.7004   -3.7004   -3.7004   -0.2331   -0.2331   -0.2331   -0.2331    1.2376    1.2376
    1.4347    1.4347    1.4347    1.4347    1.4540    1.4540    1.8784    1.8784    1.8784    1.8784
    2.1818    2.1818    3.2751    3.2751    3.5165    3.5165    3.5165    3.5165    3.8767    3.8767
    3.8767    3.8767    5.1156    5.1156    5.3710    5.3710    6.3492    6.3492    6.3492    6.3492
    6.9098    6.9098    7.3670    7.3670    7.3671    7.3671    9.4795    9.4795   10.2852   10.2852
   10.2853   10.2853   12.0235   12.0235   12.0235   12.0235   13.2388   13.2388   13.2388   13.2388
   13.7174   13.7174   14.1479   14.1479
  33  1  -27.9037  -27.9037  -26.4885  -26.4885  -25.8229  -25.8229  -25.8229  -25.8229  -24.5879  -24.5879
         -24.5879  -24.5879  -24.0352  -24.0352  -22.5277  -22.5277  -22.5277  -22.5277  -20.7948  -20.7948
  -20.7948  -20.7948  -20.3922  -20.3922  -19.5047  -19.5047  -19.5047  -19.5047  -18.4276  -18.4276
  -18.4276  -18.4276  -17.6842  -17.6842  -17.6842  -17.6842  -16.6997  -16.6997  -15.9218  -15.9218
  -15.9218  -15.9218  -15.6632  -15.6632  -15.3373  -15.3373  -15.3373  -15.3373  -14.6373  -14.6373
  -14.5577  -14.5577  -13.5142  -13.5142  -13.2704  -13.2704  -12.9788  -12.9788  -12.9342  -12.9342
  -12.9342  -12.9342  -11.7909  -11.7909  -11.7909  -11.7909  -11.3020  -11.3020   -9.5980   -9.5980
   -9.5980   -9.5980   -6.9133   -6.9133   -6.9133   -6.9133   -5.0528   -5.0528   -4.2219   -4.2219
   -4.2219   -4.2219   -2.1504   -2.1504   -2.1504   -2.1504   -0.9246   -0.9246    0.7562    0.7562
    0.7812    0.7812    1.1065    1.1065    1.2891    1.2891    1.5704    1.5704    1.5704    1.5704
    1.7699    1.7699    1.7699    1.7699    2.0628    2.0628    4.4617    4.4617    5.4689    5.4689
    5.4689    5.4689    5.9088    5.9088    6.3593    6.3593    6.3593    6.3593    7.7536    7.7536
    8.1237    8.1237    8.1238    8.1238    8.7739    8.7739    8.7739    8.7739    9.7704    9.7704
    9.7704    9.7704   10.3209   10.3209   11.9168   11.9168   11.9168   11.9168   12.1729   12.1729
   14.6218   14.6218   14.6218   14.6218
  34  1  -28.0879  -28.0879  -25.3449  -25.3449  -25.3449  -25.3449  -25.3449  -25.3449  -25.3449  -25.3449
         -25.3449  -25.3449  -25.3449  -25.3449  -21.5123  -21.5123  -21.5123  -21.5123  -21.5009  -21.5009
  -21.5009  -21.5009  -19.0114  -19.0114  -19.0114  -19.0114  -18.6317  -18.6317  -18.6317  -18.6317
  -18.6317  -18.6317  -18.6317  -18.6317  -18.6317  -18.6317  -18.6317  -18.6317  -15.2342  -15.2342
  -15.2342  -15.2342  -15.2342  -15.2342  -15.2342  -15.2342  -15.2341  -15.2341  -15.2341  -15.2341
  -14.7720  -14.7720  -12.6559  -12.6559  -12.6559  -12.6559  -12.5067  -12.5067  -12.5067  -12.5067
  -12.5067  -12.5067  -12.5067  -12.5067  -12.5067  -12.5067  -12.5067  -12.5067   -8.2789   -8.2789
   -8.2789   -8.2789   -8.2665   -8.2665   -8.2665   -8.2665   -3.0209   -3.0209   -3.0209   -3.0209
   -3.0209   -3.0209   -3.0209   -3.0209   -3.0209   -3.0209   -3.0209   -3.0209    0.5204    0.5204
    0.5204    0.5204    0.9343    0.9343    0.9343    0.9343    0.9343    0.9343    0.9343    0.9343
    0.9343    0.9343    0.9343    0.9343    2.4897    2.4897    4.1174    4.1174    7.1640    7.1640
    7.1640    7.1640    7.1663    7.1663    7.1663    7.1663    8.4632    8.4632    8.4632    8.4632
    8.4632    8.4632    8.4632    8.4632    8.4632    8.4632    8.4632    8.4632   10.1437   10.1437
   10.1437   10.1437   10.1438   10.1438   10.1438   10.1438   10.1438   10.1438   10.1438   10.1438
   14.9765   14.9765   14.9765   14.9765
  35  1  -27.9037  -27.9037  -26.4885  -26.4885  -25.8229  -25.8229  -25.8229  -25.8229  -24.5879  -24.5879
         -24.5879  -24.5879  -24.0352  -24.0352  -22.5277  -22.5277  -22.5277  -22.5277  -20.7948  -20.7948
  -20.7948  -20.7948  -20.3922  -20.3922  -19.5047  -19.5047  -19.5047  -19.5047  -18.4276  -18.4276
  -18.4276  -18.4276  -17.6842  -17.6842  -17.6842  -17.6842  -16.6997  -16.6997  -15.9218  -15.9218
  -15.9218  -15.9218  -15.6632  -15.6632  -15.3373  -15.3373  -15.3373  -15.3373  -14.6373  -14.6373
  -14.5577  -14.5577  -13.5142  -13.5142  -13.2704  -13.2704  -12.9788  -12.9788  -12.9342  -12.9342
  -12.9342  -12.9342  -11.7909  -11.7909  -11.7909  -11.7909  -11.3020  -11.3020   -9.5980   -9.5980
   -9.5980   -9.5980   -6.9133   -6.9133   -6.9133   -6.9133   -5.0528   -5.0528   -4.2219   -4.2219
   -4.2219   -4.2219   -2.1504   -2.1504   -2.1504   -2.1504   -0.9246   -0.9246    0.7562    0.7562
    0.7812    0.7812    1.1065    1.1065    1.2891    1.2891    1.5704    1.5704    1.5704    1.5704
    1.7699    1.7699    1.7699    1.7699    2.0628    2.0628    4.4617    4.4617    5.4689    5.4689
    5.4689    5.4689    5.9088    5.9088    6.3593    6.3593    6.3593    6.3593    7.7536    7.7536
    8.1237    8.1237    8.1238    8.1238    8.7739    8.7739    8.7739    8.7739    9.7704    9.7704
    9.7704    9.7704   10.3209   10.3209   11.9168   11.9168   11.9168   11.9168   12.1729   12.1729
   14.6218   14.6218   14.6218   14.6218
  36  1  -27.3604  -27.3604  -27.3604  -27.3604  -25.9860  -25.9860  -25.9860  -25.9860  -23.6158  -23.6158
         -23.6158  -23.6158  -23.6158  -23.6158  -23.6158  -23.6158  -23.0883  -23.0883  -21.4789  -21.4789
  -20.2138  -20.2138  -20.2138  -20.2138  -20.2138  -20.2138  -20.2138  -20.2138  -17.1677  -17.1677
  -17.1677  -17.1677  -17.1677  -17.1677  -17.1677  -17.1677  -17.0998  -17.0998  -17.0998  -17.0998
  -15.8090  -15.8090  -15.6877  -15.6877  -15.6877  -15.6877  -14.7994  -14.7994  -14.7994  -14.7994
  -14.2185  -14.2185  -14.2185  -14.2185  -13.7319  -13.7319  -13.7319  -13.7319  -13.0754  -13.0754
  -13.0754  -13.0754  -10.8029  -10.8029  -10.8029  -10.8029  -10.8029  -10.8029  -10.8029  -10.8029
  -10.5742  -10.5742   -6.0935   -6.0935   -5.5539   -5.5539   -5.5539   -5.5539   -5.5539   -5.5539
   -5.5539   -5.5539   -1.8280   -1.8280   -1.8280   -1.8280    0.6828    0.6828    0.8457    0.8457
    0.8457    0.8457    1.1133    1.1133    1.1133    1.1133    3.2940    3.2940    3.2940    3.2940
    3.3407    3.3407    3.3407    3.3407    3.3407    3.3407    3.3407    3.3407    3.6744    3.6744
    3.6744    3.6744    3.9045    3.9045    3.9045    3.9045    5.6927    5.6927    5.6927    5.6927
    8.5704    8.5704    8.5704    8.5704    8.5704    8.5704    8.5704    8.5704    9.8004    9.8004
    9.8004    9.8004   11.0006   11.0006   12.9954   12.9954   13.5787   13.5787   13.5787   13.5787
   13.5787   13.5787   13.5787   13.5787
  37  1  -27.9037  -27.9037  -26.4885  -26.4885  -25.8229  -25.8229  -25.8229  -25.8229  -24.5879  -24.5879
         -24.5879  -24.5879  -24.0352  -24.0352  -22.5277  -22.5277  -22.5277  -22.5277  -20.7948  -20.7948
  -20.7948  -20.7948  -20.3922  -20.3922  -19.5047  -19.5047  -19.5047  -19.5047  -18.4276  -18.4276
  -18.4276  -18.4276  -17.6842  -17.6842  -17.6842  -17.6842  -16.6997  -16.6997  -15.9218  -15.9218
  -15.9218  -15.9218  -15.6632  -15.6632  -15.3373  -15.3373  -15.3373  -15.3373  -14.6373  -14.6373
  -14.5577  -14.5577  -13.5142  -13.5142  -13.2704  -13.2704  -12.9788  -12.9788  -12.9342  -12.9342
  -12.9342  -12.9342  -11.7909  -11.7909  -11.7909  -11.7909  -11.3020  -11.3020   -9.5980   -9.5980
   -9.5980   -9.5980   -6.9133   -6.9133   -6.9133   -6.9133   -5.0528   -5.0528   -4.2219   -4.2219
   -4.2219   -4.2219   -2.1504   -2.1504   -2.1504   -2.1504   -0.9246   -0.9246    0.7562    0.7562
    0.7812    0.7812    1.1065    1.1065    1.2891    1.2891    1.5704    1.5704    1.5704    1.5704
    1.7699    1.7699    1.7699    1.7699    2.0628    2.0628    4.4617    4.4617    5.4689    5.4689
    5.4689    5.4689    5.9088    5.9088    6.3593    6.3593    6.3593    6.3593    7.7536    7.7536
    8.1237    8.1237    8.1238    8.1238    8.7739    8.7739    8.7739    8.7739    9.7704    9.7704
    9.7704    9.7704   10.3209   10.3209   11.9168   11.9168   11.9168   11.9168   12.1729   12.1729
   14.6218   14.6218   14.6218   14.6218
  38  1  -27.9037  -27.9037  -26.4885  -26.4885  -25.8229  -25.8229  -25.8229  -25.8229  -24.5879  -24.5879
         -24.5879  -24.5879  -24.0352  -24.0352  -22.5277  -22.5277  -22.5277  -22.5277  -20.7948  -20.7948
  -20.7948  -20.7948  -20.3922  -20.3922  -19.5047  -19.5047  -19.5047  -19.5047  -18.4276  -18.4276
  -18.4276  -18.4276  -17.6842  -17.6842  -17.6842  -17.6842  -16.6997  -16.6997  -15.9218  -15.9218
  -15.9218  -15.9218  -15.6632  -15.6632  -15.3373  -15.3373  -15.3373  -15.3373  -14.6373  -14.6373
  -14.5577  -14.5577  -13.5142  -13.5142  -13.2704  -13.2704  -12.9788  -12.9788  -12.9342  -12.9342
  -12.9342  -12.9342  -11.7909  -11.7909  -11.7909  -11.7909  -11.3020  -11.3020   -9.5980   -9.5980
   -9.5980   -9.5980   -6.9133   -6.9133   -6.9133   -6.9133   -5.0528   -5.0528   -4.2219   -4.2219
   -4.2219   -4.2219   -2.1504   -2.1504   -2.1504   -2.1504   -0.9246   -0.9246    0.7562    0.7562
    0.7812    0.7812    1.1065    1.1065    1.2891    1.2891    1.5704    1.5704    1.5704    1.5704
    1.7699    1.7699    1.7699    1.7699    2.0628    2.0628    4.4617    4.4617    5.4689    5.4689
    5.4689    5.4689    5.9088    5.9088    6.3593    6.3593    6.3593    6.3593    7.7536    7.7536
    8.1237    8.1237    8.1238    8.1238    8.7739    8.7739    8.7739    8.7739    9.7704    9.7704
    9.7704    9.7704   10.3209   10.3209   11.9168   11.9168   11.9168   11.9168   12.1729   12.1729
   14.6218   14.6218   14.6218   14.6218
  39  1  -27.5399  -27.5399  -26.8320  -26.8320  -26.8319  -26.8319  -24.8805  -24.8805  -24.8805  -24.8805
         -23.7342  -23.7342  -23.3110  -23.3110  -23.3110  -23.3110  -22.6835  -22.6835  -21.2600  -21.2600
  -21.0603  -21.0603  -21.0603  -21.0603  -19.6240  -19.6240  -18.6240  -18.6240  -18.6240  -18.6240
  -17.8297  -17.8297  -17.3401  -17.3401  -16.6323  -16.6323  -16.6323  -16.6323  -16.2213  -16.2213
  -16.2213  -16.2213  -15.8380  -15.8380  -15.8379  -15.8379  -14.5184  -14.5184  -14.5184  -14.5184
  -14.3668  -14.3668  -14.2548  -14.2548  -13.7949  -13.7949  -13.7949  -13.7949  -13.5945  -13.5945
  -12.0477  -12.0477  -12.0477  -12.0477  -10.8702  -10.8702  -10.6556  -10.6556  -10.6556  -10.6556
  -10.0106  -10.0106   -6.5687   -6.5687   -5.9093   -5.9093   -5.9093   -5.9093   -5.3814   -5.3814
   -3.7004   -3.7004   -3.7004   -3.7004   -0.2331   -0.2331   -0.2331   -0.2331    1.2376    1.2376
    1.4347    1.4347    1.4347    1.4347    1.4540    1.4540    1.8784    1.8784    1.8784    1.8784
    2.1818    2.1818    3.2751    3.2751    3.5165    3.5165    3.5165    3.5165    3.8767    3.8767
    3.8767    3.8767    5.1156    5.1156    5.3710    5.3710    6.3492    6.3492    6.3492    6.3492
    6.9098    6.9098    7.3670    7.3670    7.3671    7.3671    9.4795    9.4795   10.2852   10.2852
   10.2853   10.2853   12.0235   12.0235   12.0235   12.0235   13.2388   13.2388   13.2388   13.2388
   13.7174   13.7174   14.1479   14.1479
  40  1  -27.5399  -27.5399  -26.8320  -26.8320  -26.8319  -26.8319  -24.8805  -24.8805  -24.8805  -24.8805
         -23.7342  -23.7342  -23.3110  -23.3110  -23.3110  -23.3110  -22.6835  -22.6835  -21.2600  -21.2600
  -21.0603  -21.0603  -21.0603  -21.0603  -19.6240  -19.6240  -18.6240  -18.6240  -18.6240  -18.6240
  -17.8297  -17.8297  -17.3401  -17.3401  -16.6323  -16.6323  -16.6323  -16.6323  -16.2213  -16.2213
  -16.2213  -16.2213  -15.8380  -15.8380  -15.8379  -15.8379  -14.5184  -14.5184  -14.5184  -14.5184
  -14.3668  -14.3668  -14.2548  -14.2548  -13.7949  -13.7949  -13.7949  -13.7949  -13.5945  -13.5945
  -12.0477  -12.0477  -12.0477  -12.0477  -10.8702  -10.8702  -10.6556  -10.6556  -10.6556  -10.6556
  -10.0106  -10.0106   -6.5687   -6.5687   -5.9093   -5.9093   -5.9093   -5.9093   -5.3814   -5.3814
   -3.7004   -3.7004   -3.7004   -3.7004   -0.2331   -0.2331   -0.2331   -0.2331    1.2376    1.2376
    1.4347    1.4347    1.4347    1.4347    1.4540    1.4540    1.8784    1.8784    1.8784    1.8784
    2.1818    2.1818    3.2751    3.2751    3.5165    3.5165    3.5165    3.5165    3.8767    3.8767
    3.8767    3.8767    5.1156    5.1156    5.3710    5.3710    6.3492    6.3492    6.3492    6.3492
    6.9098    6.9098    7.3670    7.3670    7.3671    7.3671    9.4795    9.4795   10.2852   10.2852
   10.2853   10.2853   12.0235   12.0235   12.0235   12.0235   13.2388   13.2388   13.2388   13.2388
   13.7174   13.7174   14.1479   14.1479
  41  1  -27.5399  -27.5399  -26.8320  -26.8320  -26.8319  -26.8319  -24.8805  -24.8805  -24.8805  -24.8805
         -23.7342  -23.7342  -23.3110  -23.3110  -23.3110  -23.3110  -22.6835  -22.6835  -21.2600  -21.2600
  -21.0603  -21.0603  -21.0603  -21.0603  -19.6240  -19.6240  -18.6240  -18.6240  -18.6240  -18.6240
  -17.8297  -17.8297  -17.3401  -17.3401  -16.6323  -16.6323  -16.6323  -16.6323  -16.2213  -16.2213
  -16.2213  -16.2213  -15.8380  -15.8380  -15.8379  -15.8379  -14.5184  -14.5184  -14.5184  -14.5184
  -14.3668  -14.3668  -14.2548  -14.2548  -13.7949  -13.7949  -13.7949  -13.7949  -13.5945  -13.5945
  -12.0477  -12.0477  -12.0477  -12.0477  -10.8702  -10.8702  -10.6556  -10.6556  -10.6556  -10.6556
  -10.0106  -10.0106   -6.5687   -6.5687   -5.9093   -5.9093   -5.9093   -5.9093   -5.3814   -5.3814
   -3.7004   -3.7004   -3.7004   -3.7004   -0.2331   -0.2331   -0.2331   -0.2331    1.2376    1.2376
    1.4347    1.4347    1.4347    1.4347    1.4540    1.4540    1.8784    1.8784    1.8784    1.8784
    2.1818    2.1818    3.2751    3.2751    3.5165    3.5165    3.5165    3.5165    3.8767    3.8767
    3.8767    3.8767    5.1156    5.1156    5.3710    5.3710    6.3492    6.3492    6.3492    6.3492
    6.9098    6.9098    7.3670    7.3670    7.3671    7.3671    9.4795    9.4795   10.2852   10.2852
   10.2853   10.2853   12.0235   12.0235   12.0235   12.0235   13.2388   13.2388   13.2388   13.2388
   13.7174   13.7174   14.1479   14.1479
  42  1  -27.3604  -27.3604  -27.3604  -27.3604  -25.9860  -25.9860  -25.9860  -25.9860  -23.6158  -23.6158
         -23.6158  -23.6158  -23.6158  -23.6158  -23.6158  -23.6158  -23.0883  -23.0883  -21.4789  -21.4789
  -20.2138  -20.2138  -20.2138  -20.2138  -20.2138  -20.2138  -20.2138  -20.2138  -17.1677  -17.1677
  -17.1677  -17.1677  -17.1677  -17.1677  -17.1677  -17.1677  -17.0998  -17.0998  -17.0998  -17.0998
  -15.8090  -15.8090  -15.6877  -15.6877  -15.6877  -15.6877  -14.7994  -14.7994  -14.7994  -14.7994
  -14.2185  -14.2185  -14.2185  -14.2185  -13.7319  -13.7319  -13.7319  -13.7319  -13.0754  -13.0754
  -13.0754  -13.0754  -10.8029  -10.8029  -10.8029  -10.8029  -10.8029  -10.8029  -10.8029  -10.8029
  -10.5742  -10.5742   -6.0935   -6.0935   -5.5539   -5.5539   -5.5539   -5.5539   -5.5539   -5.5539
   -5.5539   -5.5539   -1.8280   -1.8280   -1.8280   -1.8280    0.6828    0.6828    0.8457    0.8457
    0.8457    0.8457    1.1133    1.1133    1.1133    1.1133    3.2940    3.2940    3.2940    3.2940
    3.3407    3.3407    3.3407    3.3407    3.3407    3.3407    3.3407    3.3407    3.6744    3.6744
    3.6744    3.6744    3.9045    3.9045    3.9045    3.9045    5.6927    5.6927    5.6927    5.6927
    8.5704    8.5704    8.5704    8.5704    8.5704    8.5704    8.5704    8.5704    9.8004    9.8004
    9.8004    9.8004   11.0006   11.0006   12.9954   12.9954   13.5787   13.5787   13.5787   13.5787
   13.5787   13.5787   13.5787   13.5787
  43  1  -27.5399  -27.5399  -26.8320  -26.8320  -26.8319  -26.8319  -24.8805  -24.8805  -24.8805  -24.8805
         -23.7342  -23.7342  -23.3110  -23.3110  -23.3110  -23.3110  -22.6835  -22.6835  -21.2600  -21.2600
  -21.0603  -21.0603  -21.0603  -21.0603  -19.6240  -19.6240  -18.6240  -18.6240  -18.6240  -18.6240
  -17.8297  -17.8297  -17.3401  -17.3401  -16.6323  -16.6323  -16.6323  -16.6323  -16.2213  -16.2213
  -16.2213  -16.2213  -15.8380  -15.8380  -15.8379  -15.8379  -14.5184  -14.5184  -14.5184  -14.5184
  -14.3668  -14.3668  -14.2548  -14.2548  -13.7949  -13.7949  -13.7949  -13.7949  -13.5945  -13.5945
  -12.0477  -12.0477  -12.0477  -12.0477  -10.8702  -10.8702  -10.6556  -10.6556  -10.6556  -10.6556
  -10.0106  -10.0106   -6.5687   -6.5687   -5.9093   -5.9093   -5.9093   -5.9093   -5.3814   -5.3814
   -3.7004   -3.7004   -3.7004   -3.7004   -0.2331   -0.2331   -0.2331   -0.2331    1.2376    1.2376
    1.4347    1.4347    1.4347    1.4347    1.4540    1.4540    1.8784    1.8784    1.8784    1.8784
    2.1818    2.1818    3.2751    3.2751    3.5165    3.5165    3.5165    3.5165    3.8767    3.8767
    3.8767    3.8767    5.1156    5.1156    5.3710    5.3710    6.3492    6.3492    6.3492    6.3492
    6.9098    6.9098    7.3670    7.3670    7.3671    7.3671    9.4795    9.4795   10.2852   10.2852
   10.2853   10.2853   12.0235   12.0235   12.0235   12.0235   13.2388   13.2388   13.2388   13.2388
   13.7174   13.7174   14.1479   14.1479
  44  1  -27.3604  -27.3604  -27.3604  -27.3604  -25.9860  -25.9860  -25.9860  -25.9860  -23.6158  -23.6158
         -23.6158  -23.6158  -23.6158  -23.6158  -23.6158  -23.6158  -23.0883  -23.0883  -21.4789  -21.4789
  -20.2138  -20.2138  -20.2138  -20.2138  -20.2138  -20.2138  -20.2138  -20.2138  -17.1677  -17.1677
  -17.1677  -17.1677  -17.1677  -17.1677  -17.1677  -17.1677  -17.0998  -17.0998  -17.0998  -17.0998
  -15.8090  -15.8090  -15.6877  -15.6877  -15.6877  -15.6877  -14.7994  -14.7994  -14.7994  -14.7994
  -14.2185  -14.2185  -14.2185  -14.2185  -13.7319  -13.7319  -13.7319  -13.7319  -13.0754  -13.0754
  -13.0754  -13.0754  -10.8029  -10.8029  -10.8029  -10.8029  -10.8029  -10.8029  -10.8029  -10.8029
  -10.5742  -10.5742   -6.0935   -6.0935   -5.5539   -5.5539   -5.5539   -5.5539   -5.5539   -5.5539
   -5.5539   -5.5539   -1.8280   -1.8280   -1.8280   -1.8280    0.6828    0.6828    0.8457    0.8457
    0.8457    0.8457    1.1133    1.1133    1.1133    1.1133    3.2940    3.2940    3.2940    3.2940
    3.3407    3.3407    3.3407    3.3407    3.3407    3.3407    3.3407    3.3407    3.6744    3.6744
    3.6744    3.6744    3.9045    3.9045    3.9045    3.9045    5.6927    5.6927    5.6927    5.6927
    8.5704    8.5704    8.5704    8.5704    8.5704    8.5704    8.5704    8.5704    9.8004    9.8004
    9.8004    9.8004   11.0006   11.0006   12.9954   12.9954   13.5787   13.5787   13.5787   13.5787
   13.5787   13.5787   13.5787   13.5787
siesta: Fermi energy =      -8.275664 eV

siesta: Program's energy decomposition (eV):
siesta: Ebs     =     -2565.727285
siesta: Eions   =      9434.507561
siesta: Ena     =      2269.133577
siesta: Ekin    =      3614.513085
siesta: Enl     =      -338.831588
siesta: Eso     =         0.000000
siesta: Edftu   =         0.000000
siesta: DEna    =         5.585036
siesta: DUscf   =         2.525607
siesta: DUext   =         0.000000
siesta: Exc     =     -1630.119415
siesta: eta*DQ  =         0.000000
siesta: Emadel  =         0.000000
siesta: Emeta   =         0.000000
siesta: Emolmec =        -4.219669
siesta: Ekinion =         0.000000
siesta: Eharris =     -5515.920943
siesta: Etot    =     -5515.920930
siesta: FreeEng =     -5515.932037

siesta: Final energy (eV):
siesta:  Band Struct. =   -2565.727285
siesta:       Kinetic =    3614.513085
siesta:       Hartree =    1384.240244
siesta:       Edftu   =       0.000000
siesta:       Eso     =       0.000000
siesta:    Ext. field =       0.000000
siesta:   Exch.-corr. =   -1630.119415
siesta:  Ion-electron =   -6818.178724
siesta:       Ion-ion =   -2062.156450
siesta:       Ekinion =       0.000000
siesta:         Total =   -5515.920930
siesta:         Fermi =      -8.275664

siesta: Stress tensor (static) (eV/Ang**3):
siesta:    -0.237641    0.000000    0.000000
siesta:     0.000000   -0.237641    0.000000
siesta:    -0.000000   -0.000000    0.149553

siesta: Cell volume =        323.923129 Ang**3

siesta: Pressure (static):
siesta:                Solid            Molecule  Units
siesta:           0.00118253          0.00118256  Ry/Bohr**3
siesta:           0.10857625          0.10857889  eV/Ang**3
siesta:         173.96021718        173.96443658  kBar
(Free)E+ p_basis*V_orbitals  =       -5497.628991
(Free)Eharris+ p_basis*V_orbitals  =       -5497.629004

cite: Please see "graphite_scf.bib" for an exhaustive BiBTeX file.
cite: Please clearly indicate Siesta version in published work: 4.1.5
cite: This calculation has made use of the following articles
cite: which are encouraged to be cited in a published work.
        Primary SIESTA paper
          DOI: www.doi.org/10.1088/0953-8984/14/11/302

>> End of run:   1-NOV-2022  14:29:50
Job completed
