Siesta Version  : 4.1.5
Architecture    : x86_64-unknown-linux-gnu--unknown
Compiler version: GNU Fortran (GCC) 11.3.0
Compiler flags  : mpif90 -g -O2 -fallow-argument-mismatch
PP flags        : -DMPI -DFC_HAVE_FLUSH -DFC_HAVE_ABORT
Libraries       :  -I/global/software/sl-7.x86_64/modules/intel/2020.4.304/mkl/include  /globall/software/sl-7.x86_64/modules/intel/2020.4.304/mkl/lib/intel64/libmkl_scalapack_lp64.a -Wl,--start-group /global/software/sl-7.x86_64/modules/intel/2020.4.304/mkl/lib/intel64/libmkl_intel_lp64.a /global/software/sl-7.x86_64/modules/intel/2020.4.304/mkl/lib/intel64/libmkl_sequential.a /global/software/sl-7.x86_64/modules/intel/2020.4.304/mkl/lib/intel64/libmkl_core.a /global/software/sl-7.x86_64/modules/intel/2020.4.304/mkl/lib/intel64/libmkl_blacs_openmpi_lp64.a -Wl,--end-group -lpthread -lm -ldl
PARALLEL version

* Running on 20 nodes in parallel
>> Start of run:   1-NOV-2022  14:26:01

                           ***********************       
                           *  WELCOME TO SIESTA  *       
                           ***********************       

reinit: Reading from standard input
reinit: Dumped input in INPUT_TMP.46408
************************** Dump of input data file ****************************
SystemName graphite_scf
SystemLabel graphite_scf
NumberOfAtoms   36
NumberOfSpecies 1
%block ChemicalSpeciesLabel
1  6   C-gga
%endblock ChemicalSpeciesLabel
PAO.BasisSize  SZ
PAO.EnergyShift  10 meV
%block PS.Lmax
C-gga   2
%endblock PS.Lmax
LatticeConstant 1.000000 Ang
%block LatticeVectors
	7.3920000000	0.0000000000	0.0000000000
	-3.6960000000	6.4016597848	0.0000000000
	0.0000000000	0.0000000000	3.9594900000
%endblock LatticeVectors
AtomicCoordinatesFormat Ang
%block AtomicCoordinatesAndAtomicSpecies
	0.00000000	0.00000000	0.98987250	1
	0.00000000	0.00000000	2.96961750	1
	-1.23200000	2.13388659	0.98987250	1
	-2.46400000	4.26777319	2.96961750	1
	2.46400000	4.26777319	0.98987250	1
	1.23200000	2.13388659	2.96961750	1
	2.46400000	0.00000000	0.98987250	1
	4.92800000	0.00000000	2.96961750	1
	2.46400000	0.00000000	2.96961750	1
	4.92800000	0.00000000	0.98987250	1
	2.46400000	4.26777319	2.96961750	1
	1.23200000	2.13388659	0.98987250	1
	-1.23200000	2.13388659	2.96961750	1
	-2.46400000	4.26777319	0.98987250	1
	0.00000000	4.26777319	0.98987250	1
	3.69600000	2.13388659	2.96961750	1
	3.69600000	2.13388659	0.98987250	1
	0.00000000	4.26777319	2.96961750	1
	0.00000000	1.42258964	0.98987250	1
	3.69600000	4.97907014	2.96961750	1
	2.46400123	5.69036496	0.98987250	1
	1.23199877	0.71129482	2.96961750	1
	-2.46400123	5.69036496	0.98987250	1
	6.16000123	0.71129482	2.96961750	1
	-1.23200000	3.55647624	0.98987250	1
	4.92800000	2.84518355	2.96961750	1
	1.23200123	3.55647837	0.98987250	1
	2.46399877	2.84518142	2.96961750	1
	-0.00000123	5.69036496	0.98987250	1
	3.69600123	0.71129482	2.96961750	1
	2.46400000	1.42258964	0.98987250	1
	1.23200000	4.97907014	2.96961750	1
	4.92800123	1.42259177	0.98987250	1
	-1.23200123	4.97906801	2.96961750	1
	3.69599877	3.55647837	0.98987250	1
	0.00000123	2.84518142	2.96961750	1
%endblock AtomicCoordinatesAndAtomicSpecies
Kgrid_NoTRS  T
%block kgrid_MonkhorstPack
4       0       0       0.0
0       4       0       0.0
0       0       4       0.0
%endblock kgrid_MonkhorstPack
AtomCoorFormatOut Ang
BlockSize 1
#ProcessorY 12
Diag.ParallelOverK   T
Diag.DivideAndConquer F
MeshCutoff   300 Ry
SCF.FreeE.Tolerance 1E-3 eV
SCF.EDM.Tolerance   5E-3 eV
DM.Tolerance  1E-3
DM.Require.Energy.Convergence T
DM.NumberPulay 4
#XC.Functional GGA
#CX.Authors    PBE
UseSaveData        F
SolutionMethod     diagon
MD.TypeOfRun       CG
MD.VariableCell    F
MD.NumCGsteps      00
MD.MaxCGDispl      0.200000 Bohr
#MD.MaxStressTol    1.000000 GPa
#MD.MaxForceTol     0.010000 eV/Ang
WriteMDHistory T
WriteCoorStep T
WriteForces T
WriteCoorStep    T
WriteEigenValues T
WriteDM    F
MM.UnitsDistance Ang  # what this program prints out DO NOT CHANGE
MM.UnitsEnergy    eV  # what this program prints out DO NOT CHANGE
MM.Grimme.S6     0.75 # Grimme-paper for PBE (correct for your functional)
MM.Grimme.D     20.   # Grimme-paper (correct for your functional)
%block MM.Potentials
  1   1 Grimme     18.14      2.904 # C, 10.1002/jcc.20495
%endblock MM.Potentials
#%block ProjectedDensityOfStates
# -200.0  120.0  0.4  12800  eV
#%endblock ProjectedDensityOfStates
************************** End of input data file *****************************

reinit: -----------------------------------------------------------------------
reinit: System Name: graphite_scf
reinit: -----------------------------------------------------------------------
reinit: System Label: graphite_scf
reinit: -----------------------------------------------------------------------
Reading two-body potentials
Grimme - two-body potential between 1 and 1

initatom: Reading input for the pseudopotentials and atomic orbitals ----------
Species number:   1 Atomic number:    6 Label: C-gga

Ground state valence configuration:   2s02  2p02
Reading pseudopotential information in formatted form from C-gga.psf

Valence configuration for pseudopotential generation:
2s( 2.00) rc: 1.56
2p( 2.00) rc: 1.56
3d( 0.00) rc: 1.56
4f( 0.00) rc: 1.56
relmxkb: Read Max KB Ang. Momentum=    2 for species C-gga

<basis_specs>
===============================================================================
C-gga                Z=   6    Mass=  12.010        Charge= 0.17977+309
Lmxo=1 Lmxkb= 2    BasisType=split      Semic=F
L=0  Nsemic=0  Cnfigmx=2
          i=1  nzeta=1  polorb=0  (2s)
            splnorm:   0.15000    
               vcte:    0.0000    
               rinn:    0.0000    
               qcoe:    0.0000    
               qyuk:    0.0000    
               qwid:   0.10000E-01
                rcs:    0.0000    
            lambdas:    1.0000    
L=1  Nsemic=0  Cnfigmx=2
          i=1  nzeta=1  polorb=0  (2p)
            splnorm:   0.15000    
               vcte:    0.0000    
               rinn:    0.0000    
               qcoe:    0.0000    
               qyuk:    0.0000    
               qwid:   0.10000E-01
                rcs:    0.0000    
            lambdas:    1.0000    
-------------------------------------------------------------------------------
L=0  Nkbl=1  erefs: 0.17977+309
L=1  Nkbl=1  erefs: 0.17977+309
L=2  Nkbl=1  erefs: 0.17977+309
===============================================================================
</basis_specs>

atom: Called for C-gga                 (Z =   6)

read_vps: Pseudopotential generation method:
read_vps: ATM 3.2.2 Troullier-Martins                       
Valence charge for ps generation:    4.00000

xc_check: Exchange-correlation functional:
xc_check: Ceperley-Alder
xc_check: WARNING: Pseudopotential generated with GGA PBE functional
V l=0 = -2*Zval/r beyond r=  1.5227
V l=1 = -2*Zval/r beyond r=  1.5227
V l=2 = -2*Zval/r beyond r=  1.5227
All V_l potentials equal beyond r=  1.4851
This should be close to max(r_c) in ps generation
All pots = -2*Zval/r beyond r=  1.5227

VLOCAL1: 99.0% of the norm of Vloc inside     19.682 Ry
VLOCAL1: 99.9% of the norm of Vloc inside     44.856 Ry
atom: Maximum radius for 4*pi*r*r*local-pseudopot. charge    1.79142
atom: Maximum radius for r*vlocal+2*Zval:    1.54183
GHOST: No ghost state for L =  0
GHOST: No ghost state for L =  1
GHOST: No ghost state for L =  2

KBgen: Kleinman-Bylander projectors: 
   l= 0   rc=  1.661951   el= -0.994756   Ekb=  5.296364   kbcos=  0.313951
   l= 1   rc=  1.661951   el= -0.376633   Ekb= -4.104879   kbcos= -0.344765
   l= 2   rc=  1.747182   el=  0.002326   Ekb= -1.006421   kbcos= -0.008606

KBgen: Total number of Kleinman-Bylander projectors:    9
atom: -------------------------------------------------------------------------

atom: SANKEY-TYPE ORBITALS:

SPLIT: Orbitals with angular momentum L= 0

SPLIT: Basis orbitals for state 2s

SPLIT: PAO cut-off radius determined from an
SPLIT: energy shift=  0.000735 Ry

   izeta = 1
                 lambda =    1.000000
                     rc =    5.948690
                 energy =   -0.994108
                kinetic =    0.809152
    potential(screened) =   -1.803260
       potential(ionic) =   -5.360717

SPLIT: Orbitals with angular momentum L= 1

SPLIT: Basis orbitals for state 2p

SPLIT: PAO cut-off radius determined from an
SPLIT: energy shift=  0.000735 Ry

   izeta = 1
                 lambda =    1.000000
                     rc =    7.638387
                 energy =   -0.375915
                kinetic =    2.245823
    potential(screened) =   -2.621738
       potential(ionic) =   -5.993382
atom: Total number of Sankey-type orbitals:  4

atm_pop: Valence configuration (for local Pseudopot. screening):
 2s( 2.00)                                                            
 2p( 2.00)                                                            
Vna: chval, zval:    4.00000   4.00000

Vna:  Cut-off radius for the neutral-atom potential:   7.638387

atom: _________________________________________________________________________

prinput: Basis input ----------------------------------------------------------

PAO.BasisType split     

%block ChemicalSpeciesLabel
    1    6 C-gga                   # Species index, atomic number, species label
%endblock ChemicalSpeciesLabel

%block PAO.Basis                 # Define Basis set
C-gga                 2                    # Species label, number of l-shells
 n=2   0   1                         # n, l, Nzeta 
   5.949   
   1.000   
 n=2   1   1                         # n, l, Nzeta 
   7.638   
   1.000   
%endblock PAO.Basis

prinput: ----------------------------------------------------------------------

coor:   Atomic-coordinates input format  =     Cartesian coordinates
coor:                                          (in Angstroms)

siesta: Atomic coordinates (Bohr) and species
siesta:      0.00000   0.00000   1.87059  1        1
siesta:      0.00000   0.00000   5.61177  1        2
siesta:     -2.32814   4.03246   1.87059  1        3
siesta:     -4.65629   8.06493   5.61177  1        4
siesta:      4.65629   8.06493   1.87059  1        5
siesta:      2.32814   4.03246   5.61177  1        6
siesta:      4.65629   0.00000   1.87059  1        7
siesta:      9.31257   0.00000   5.61177  1        8
siesta:      4.65629   0.00000   5.61177  1        9
siesta:      9.31257   0.00000   1.87059  1       10
siesta:      4.65629   8.06493   5.61177  1       11
siesta:      2.32814   4.03246   1.87059  1       12
siesta:     -2.32814   4.03246   5.61177  1       13
siesta:     -4.65629   8.06493   1.87059  1       14
siesta:      0.00000   8.06493   1.87059  1       15
siesta:      6.98443   4.03246   5.61177  1       16
siesta:      6.98443   4.03246   1.87059  1       17
siesta:      0.00000   8.06493   5.61177  1       18
siesta:      0.00000   2.68831   1.87059  1       19
siesta:      6.98443   9.40908   5.61177  1       20
siesta:      4.65629  10.75324   1.87059  1       21
siesta:      2.32814   1.34415   5.61177  1       22
siesta:     -4.65629  10.75324   1.87059  1       23
siesta:     11.64072   1.34415   5.61177  1       24
siesta:     -2.32814   6.72077   1.87059  1       25
siesta:      9.31257   5.37662   5.61177  1       26
siesta:      2.32815   6.72077   1.87059  1       27
siesta:      4.65628   5.37662   5.61177  1       28
siesta:     -0.00000  10.75324   1.87059  1       29
siesta:      6.98443   1.34415   5.61177  1       30
siesta:      4.65629   2.68831   1.87059  1       31
siesta:      2.32814   9.40908   5.61177  1       32
siesta:      9.31258   2.68831   1.87059  1       33
siesta:     -2.32815   9.40908   5.61177  1       34
siesta:      6.98443   6.72077   1.87059  1       35
siesta:      0.00000   5.37662   5.61177  1       36

siesta: System type = bulk      

initatomlists: Number of atoms, orbitals, and projectors:     36   144   324

siesta: ******************** Simulation parameters ****************************
siesta:
siesta: The following are some of the parameters of the simulation.
siesta: A complete list of the parameters used, including default values,
siesta: can be found in file out.fdf
siesta:
redata: Spin configuration                          = none
redata: Number of spin components                   = 1
redata: Time-Reversal Symmetry                      = T
redata: Spin spiral                                 = F
redata: Long output                                 =   F
redata: Number of Atomic Species                    =        1
redata: Charge density info will appear in .RHO file
redata: Write Mulliken Pop.                         = NO
redata: Matel table size (NRTAB)                    =     1024
redata: Mesh Cutoff                                 =   300.0000 Ry
redata: Net charge of the system                    =     0.0000 |e|
redata: Min. number of SCF Iter                     =        0
redata: Max. number of SCF Iter                     =     1000
redata: SCF convergence failure will abort job
redata: SCF mix quantity                            = Hamiltonian
redata: Mix DM or H after convergence               =   F
redata: Recompute H after scf cycle                 =   F
redata: Mix DM in first SCF step                    =   T
redata: Write Pulay info on disk                    =   F
redata: New DM Occupancy tolerance                  = 0.000000000001
redata: No kicks to SCF
redata: DM Mixing Weight for Kicks                  =     0.5000
redata: Require Harris convergence for SCF          =   F
redata: Harris energy tolerance for SCF             =     0.000100 eV
redata: Require DM convergence for SCF              =   T
redata: DM tolerance for SCF                        =     0.001000
redata: Require EDM convergence for SCF             =   F
redata: EDM tolerance for SCF                       =     0.005000 eV
redata: Require H convergence for SCF               =   T
redata: Hamiltonian tolerance for SCF               =     0.001000 eV
redata: Require (free) Energy convergence for SCF   =   T
redata: (free) Energy tolerance for SCF             =     0.001000 eV
redata: Using Saved Data (generic)                  =   F
redata: Use continuation files for DM               =   F
redata: Neglect nonoverlap interactions             =   F
redata: Method of Calculation                       = Diagonalization
redata: Electronic Temperature                      =   299.9869 K
redata: Fix the spin of the system                  =   F
redata: Dynamics option                             = Single-point calculation
mix.SCF: Pulay mixing                            = Pulay
mix.SCF:    Variant                              = stable
mix.SCF:    History steps                        = 4
mix.SCF:    Linear mixing weight                 =     0.250000
mix.SCF:    Mixing weight                        =     0.250000
mix.SCF:    SVD condition                        = 0.1000E-07
redata: ***********************************************************************

%block SCF.Mixers
  Pulay
%endblock SCF.Mixers

%block SCF.Mixer.Pulay
  # Mixing method
  method pulay
  variant stable

  # Mixing options
  weight 0.2500
  weight.linear 0.2500
  history 4
%endblock SCF.Mixer.Pulay

DM_history_depth set to one: no extrapolation allowed by default for geometry relaxation
Size of DM history Fstack: 1
Total number of electrons:   144.000000
Total ionic charge:   144.000000

* ProcessorY, Blocksize:    4   1


* Orbital distribution balance (max,min):     8     7

k-point displ. along   1 input, could be:     0.00    0.50
k-point displ. along   2 input, could be:     0.00    0.50
k-point displ. along   3 input, could be:     0.00    0.50
 Kpoints in:           48 . Kpoints trimmed:           44

siesta: k-grid: Number of k-points =    44
siesta: k-grid: Cutoff (effective) =     7.919 Ang
siesta: k-grid: Supercell and displacements
siesta: k-grid:    4   0   0      0.000
siesta: k-grid:    0   4   0      0.000
siesta: k-grid:    0   0   4      0.000

diag: Algorithm                                     = Expert
diag: Parallel over k                               =   T
diag: Use parallel 2D distribution                  =   T
diag: Parallel block-size                           = 1
diag: Parallel distribution                         =     4 x     5
diag: Used triangular part                          = Lower
diag: Absolute tolerance                            =  0.100E-15
diag: Orthogonalization factor                      =  0.100E-05
diag: Memory factor                                 =  1.0000

superc: Internal auxiliary supercell:     5 x     5 x     5  =     125
superc: Number of atoms, orbitals, and projectors:   4500  18000  40500


ts: **************************************************************
ts: Save H and S matrices                           =    F
ts: Save DM and EDM matrices                        =    F
ts: Only save the overlap matrix S                  =    F
ts: **************************************************************

************************ Begin: TS CHECKS AND WARNINGS ************************
************************ End: TS CHECKS AND WARNINGS **************************


                     ====================================
                        Single-point calculation
                     ====================================

outcoor: Atomic coordinates (Ang):                          
    0.00000000    0.00000000    0.98987250   1       1  C-gga
    0.00000000    0.00000000    2.96961750   1       2  C-gga
   -1.23200000    2.13388659    0.98987250   1       3  C-gga
   -2.46400000    4.26777319    2.96961750   1       4  C-gga
    2.46400000    4.26777319    0.98987250   1       5  C-gga
    1.23200000    2.13388659    2.96961750   1       6  C-gga
    2.46400000    0.00000000    0.98987250   1       7  C-gga
    4.92800000    0.00000000    2.96961750   1       8  C-gga
    2.46400000    0.00000000    2.96961750   1       9  C-gga
    4.92800000    0.00000000    0.98987250   1      10  C-gga
    2.46400000    4.26777319    2.96961750   1      11  C-gga
    1.23200000    2.13388659    0.98987250   1      12  C-gga
   -1.23200000    2.13388659    2.96961750   1      13  C-gga
   -2.46400000    4.26777319    0.98987250   1      14  C-gga
    0.00000000    4.26777319    0.98987250   1      15  C-gga
    3.69600000    2.13388659    2.96961750   1      16  C-gga
    3.69600000    2.13388659    0.98987250   1      17  C-gga
    0.00000000    4.26777319    2.96961750   1      18  C-gga
    0.00000000    1.42258964    0.98987250   1      19  C-gga
    3.69600000    4.97907014    2.96961750   1      20  C-gga
    2.46400123    5.69036496    0.98987250   1      21  C-gga
    1.23199877    0.71129482    2.96961750   1      22  C-gga
   -2.46400123    5.69036496    0.98987250   1      23  C-gga
    6.16000123    0.71129482    2.96961750   1      24  C-gga
   -1.23200000    3.55647624    0.98987250   1      25  C-gga
    4.92800000    2.84518355    2.96961750   1      26  C-gga
    1.23200123    3.55647837    0.98987250   1      27  C-gga
    2.46399877    2.84518142    2.96961750   1      28  C-gga
   -0.00000123    5.69036496    0.98987250   1      29  C-gga
    3.69600123    0.71129482    2.96961750   1      30  C-gga
    2.46400000    1.42258964    0.98987250   1      31  C-gga
    1.23200000    4.97907014    2.96961750   1      32  C-gga
    4.92800123    1.42259177    0.98987250   1      33  C-gga
   -1.23200123    4.97906801    2.96961750   1      34  C-gga
    3.69599877    3.55647837    0.98987250   1      35  C-gga
    0.00000123    2.84518142    2.96961750   1      36  C-gga

superc: Internal auxiliary supercell:     5 x     5 x     5  =     125
superc: Number of atoms, orbitals, and projectors:   4500  18000  40500

outcell: Unit cell vectors (Ang):
        7.392000    0.000000    0.000000
       -3.696000    6.401660    0.000000
        0.000000    0.000000    3.959490

outcell: Cell vector modules (Ang)   :    7.392000    7.392000    3.959490
outcell: Cell angles (23,13,12) (deg):     90.0000     90.0000    120.0000
outcell: Cell volume (Ang**3)        :    187.3673
<dSpData1D:S at geom step 0
  <sparsity:sparsity for geom step 0
    nrows_g=144 nrows=8 sparsity=.6393 nnzs=13256, refcount: 7>
  <dData1D:(new from dSpData1D) n=13256, refcount: 1>
refcount: 1>
new_DM -- step:     1
Initializing Density Matrix...
DM filled with atomic data:
<dSpData2D:DM initialized from atoms
  <sparsity:sparsity for geom step 0
    nrows_g=144 nrows=8 sparsity=.6393 nnzs=13256, refcount: 8>
  <dData2D:DM n=13256 m=1, refcount: 1>
refcount: 1>
No. of atoms with KB's overlaping orbs in proc 0. Max # of overlaps:     152     368
New grid distribution:   1
           1       1:   36    1:    9    1:    5
           2       1:   36    1:    9    6:   10
           3       1:   36    1:    9   11:   15
           4       1:   36    1:    9   16:   20
           5       1:   36    1:    9   21:   24
           6       1:   36   10:   18    1:    5
           7       1:   36   10:   18    6:   10
           8       1:   36   10:   18   11:   15
           9       1:   36   10:   18   16:   20
          10       1:   36   10:   18   21:   24
          11       1:   36   19:   27    1:    5
          12       1:   36   19:   27    6:   10
          13       1:   36   19:   27   11:   15
          14       1:   36   19:   27   16:   20
          15       1:   36   19:   27   21:   24
          16       1:   36   28:   36    1:    5
          17       1:   36   28:   36    6:   10
          18       1:   36   28:   36   11:   15
          19       1:   36   28:   36   16:   20
          20       1:   36   28:   36   21:   24

InitMesh: MESH =    72 x    72 x    48 =      248832
InitMesh: (bp) =    36 x    36 x    24 =       31104
InitMesh: Mesh cutoff (required, used) =   300.000   349.608 Ry
ExtMesh (bp) on 0 =   128 x   101 x   105 =     1357440
New grid distribution:   2
           1      19:   36    1:    9    1:   10
           2       1:   18    1:    9    1:   10
           3      19:   36   19:   24   11:   24
           4      10:   18    7:   18   11:   24
           5      19:   36    1:    6   11:   24
           6      19:   36   10:   18    1:   10
           7       1:   18   10:   18    1:   10
           8      19:   27    7:   18   11:   24
           9      10:   18   25:   36   11:   24
          10      28:   36    7:   18   11:   24
          11       1:   18   19:   27    1:   10
          12       1:   18    1:    6   11:   24
          13      19:   36   19:   27    1:   10
          14      28:   36   25:   36   11:   24
          15       1:   18   19:   24   11:   24
          16       1:   18   28:   36    1:   10
          17      19:   36   28:   36    1:   10
          18       1:    9   25:   36   11:   24
          19      19:   27   25:   36   11:   24
          20       1:    9    7:   18   11:   24
New grid distribution:   3
           1      19:   36    1:    9    1:   10
           2       1:   18    1:    9    1:   10
           3      19:   36   19:   24   11:   24
           4      10:   18    7:   18   11:   24
           5      19:   36    1:    6   11:   24
           6      19:   36   10:   18    1:   10
           7       1:   18   10:   18    1:   10
           8      19:   27    7:   18   11:   24
           9      10:   18   25:   36   11:   24
          10      28:   36    7:   18   11:   24
          11       1:   18   19:   27    1:   10
          12       1:   18    1:    6   11:   24
          13      19:   36   19:   27    1:   10
          14      28:   36   25:   36   11:   24
          15       1:   18   19:   24   11:   24
          16       1:   18   28:   36    1:   10
          17      19:   36   28:   36    1:   10
          18       1:    9   25:   36   11:   24
          19      19:   27   25:   36   11:   24
          20       1:    9    7:   18   11:   24
Setting up quadratic distribution...
ExtMesh (bp) on 0 =   110 x   101 x   110 =     1222100
PhiOnMesh: Number of (b)points on node 0 =                 1620
PhiOnMesh: nlist on node 0 =               315825

stepf: Fermi-Dirac step function

siesta: Program's energy decomposition (eV):
siesta: Ebs     =     -2648.609379
siesta: Eions   =      9434.507561
siesta: Ena     =      2178.360882
siesta: Ekin    =      4056.779355
siesta: Enl     =      -399.748421
siesta: Eso     =         0.000000
siesta: Edftu   =         0.000000
siesta: DEna    =      -166.841877
siesta: DUscf   =         9.675577
siesta: DUext   =         0.000000
siesta: Exc     =     -1737.767381
siesta: eta*DQ  =         0.000000
siesta: Emadel  =         0.000000
siesta: Emeta   =         0.000000
siesta: Emolmec =        -7.736587
siesta: Ekinion =         0.000000
siesta: Eharris =     -5171.672127
siesta: Etot    =     -5501.786014
siesta: FreeEng =     -5501.806543

        iscf     Eharris(eV)        E_KS(eV)     FreeEng(eV)     dDmax    Ef(eV) dHmax(eV)
   scf:    1    -5171.672127    -5501.786014    -5501.806543  1.222593 -8.189832  0.809323
timer: Routine,Calls,Time,% = IterSCF        1       2.482  52.09
   scf:    2    -5502.345224    -5502.108113    -5502.131391  0.025072 -8.007902  0.552931
   scf:    3    -5502.133809    -5502.165471    -5502.186475  0.023525 -7.641765  0.167534
   scf:    4    -5502.221940    -5502.204590    -5502.226376  0.014496 -7.582709  0.002939
   scf:    5    -5502.204608    -5502.204611    -5502.226417  0.000416 -7.584158  0.000618

SCF Convergence by FreeE+DM+H criterion
|FreeE_i-FreeE_(i-1)| (eV) <     0.00100000
max |DM_out - DM_in|         :     0.0004164718
max |H_out - H_in|      (eV) :     0.0006178645
SCF cycle converged after 5 iterations

Using DM_out to compute the final energy and forces
No. of atoms with KB's overlaping orbs in proc 0. Max # of overlaps:     152     368

MM-Stress (kbar):       65.12       65.12       72.16        0.00        0.00        0.00

siesta: E_KS(eV) =            -5502.2046

siesta: E_KS - E_eggbox =     -5502.2046

siesta: Atomic forces (eV/Ang):
     1    0.000000   -0.000000   -0.000000
     2    0.000000   -0.000000   -0.000000
     3    0.000063   -0.000070   -0.000000
     4   -0.000063    0.000071   -0.000000
     5    0.000030    0.000090   -0.000000
     6   -0.000030   -0.000090   -0.000000
     7   -0.000093   -0.000019   -0.000000
     8    0.000093    0.000019   -0.000000
     9   -0.000038   -0.000028   -0.000000
    10    0.000037    0.000027   -0.000000
    11   -0.000005    0.000046   -0.000000
    12    0.000005   -0.000046   -0.000000
    13    0.000042   -0.000018   -0.000000
    14   -0.000042    0.000019   -0.000000
    15   -0.000000   -0.000000   -0.000000
    16    0.000000    0.000000   -0.000000
    17   -0.000000    0.000000   -0.000000
    18    0.000000   -0.000000   -0.000000
    19    0.000008    0.000076    0.000000
    20   -0.000008   -0.000075    0.000000
    21   -0.000069   -0.000031    0.000000
    22    0.000069    0.000031    0.000000
    23    0.000061   -0.000044    0.000000
    24   -0.000061    0.000044    0.000000
    25    0.000010    0.000102    0.000000
    26   -0.000010   -0.000103    0.000000
    27   -0.000094   -0.000043    0.000000
    28    0.000094    0.000042    0.000000
    29    0.000084   -0.000060    0.000000
    30   -0.000084    0.000060    0.000000
    31   -0.000031    0.000085    0.000000
    32    0.000031   -0.000084    0.000000
    33   -0.000058   -0.000069    0.000000
    34    0.000057    0.000069    0.000000
    35    0.000089   -0.000016    0.000000
    36   -0.000088    0.000015    0.000000
----------------------------------------
   Tot   -0.000000    0.000000    0.000000
----------------------------------------
   Max    0.000103
   Res    0.000044    sqrt( Sum f_i^2 / 3N )
----------------------------------------
   Max    0.000103    constrained

Stress tensor Voigt[x,y,z,yz,xz,xy] (kbar):     -408.46     -408.46    -1808.69       -0.00       -0.00        0.00
(Free)E + p*V (eV/cell)    -5399.8765
Target enthalpy (eV/cell)    -5502.2264

siesta: Eigenvalues (eV):
  ik is       eps
   1  1  -30.9951  -30.2449  -30.2449  -28.1108  -28.1108  -26.7971  -26.2373  -26.2372  -25.4388  -25.3905
         -24.8107  -24.8106  -24.1501  -23.9702  -23.9702  -23.1489  -23.1489  -22.2145  -21.5720  -21.3336
  -21.3336  -20.6302  -20.5949  -20.5663  -20.5663  -20.4134  -20.3248  -19.9520  -19.9520  -19.8088
  -19.8088  -18.8613  -18.8062  -18.8062  -17.8756  -17.8756  -17.6385  -17.6385  -17.4934  -17.3019
  -17.3019  -16.8929  -16.7170  -16.7170  -16.5236  -16.1398  -16.1211  -16.1210  -15.9616  -15.9616
  -15.5238  -15.5237  -15.4569  -15.2937  -15.0621  -15.0620  -14.7367  -14.3599  -14.3599  -13.4981
  -13.4981  -13.0886  -12.7394  -11.3975  -11.3975  -11.3328   -8.7910   -7.8528   -7.8528   -7.6726
   -7.4167   -7.1877   -7.1877   -6.4354   -6.4354   -6.3700   -5.0982   -5.0982   -3.4475   -3.4475
   -1.7920   -1.2735   -1.2735   -0.9488   -0.8662   -0.8662   -0.6450    0.0085    0.0085    0.0631
    0.0631    0.5669    0.7427    1.1406    1.5599    1.5599    2.2895    2.2895    2.6980    2.6980
    3.0608    3.4526    3.5538    3.7194    3.8759    3.8760    3.9949    4.1197    4.1197    4.8240
    4.8240    5.1850    5.4696    5.4696    5.5565    6.1904    6.1904    6.6231    6.6231    6.9268
    7.9388    8.0002    8.0002    8.1157    8.7345    8.7345    9.3381   10.2836   10.2836   10.3226
   11.1336   11.1336   12.1683   12.1683   12.9229   12.9229   13.5586   13.5586   13.8889   13.8889
   14.1172   14.4452   14.6935   14.6954
   2  1  -31.3767  -29.8766  -29.1548  -29.1548  -27.7751  -27.7751  -27.1272  -25.6822  -25.3494  -25.3494
         -24.5237  -23.9596  -23.9596  -23.2496  -23.1629  -23.1629  -22.9651  -22.9651  -22.0156  -21.7287
  -21.7287  -21.6208  -21.6208  -20.9658  -20.2897  -20.2897  -19.6141  -19.6141  -19.6099  -18.9912
  -18.9192  -18.9192  -18.7630  -18.7630  -18.4822  -18.2032  -18.2032  -17.5485  -17.5485  -17.4229
  -17.4229  -17.1978  -17.1978  -16.9874  -16.9874  -16.9364  -16.9243  -15.9733  -15.9733  -15.6852
  -15.3605  -15.2023  -15.2023  -14.7723  -14.7723  -14.5484  -14.2231  -14.2231  -14.0943  -13.7091
  -13.4874  -12.4862  -12.2216  -10.6055  -10.2940  -10.2940   -9.3301   -9.3301   -8.0842   -8.0842
   -7.5798   -7.4511   -7.4511   -7.2542   -5.3286   -5.3286   -5.0853   -5.0853   -4.7794   -4.0546
   -2.1542   -1.1902   -1.0202   -1.0202   -0.9184   -0.9184   -0.8507   -0.5487   -0.5487   -0.5392
   -0.1766   -0.1766   -0.0151    0.7381    0.9669    0.9669    1.8330    1.8338    2.4355    2.6185
    3.3841    3.5346    4.0484    4.0484    4.0957    4.0957    4.1214    4.1297    4.1297    5.4572
    5.5408    5.5408    6.0979    6.7382    6.7382    6.7403    7.1396    7.8578    7.8578    8.0009
    8.0009    8.3877    8.3877    9.2708    9.2708    9.3273    9.4629    9.4629    9.9691    9.9691
   10.3816   10.9810   10.9810   11.2318   11.9446   11.9446   12.1279   12.8969   12.8969   13.0880
   15.1556   15.1556   15.2489   15.2489
   3  1  -31.3767  -29.8766  -29.1548  -29.1548  -27.7751  -27.7751  -27.1272  -25.6822  -25.3494  -25.3494
         -24.5237  -23.9596  -23.9596  -23.2496  -23.1629  -23.1629  -22.9651  -22.9651  -22.0156  -21.7287
  -21.7287  -21.6208  -21.6208  -20.9658  -20.2897  -20.2897  -19.6141  -19.6141  -19.6099  -18.9912
  -18.9192  -18.9192  -18.7630  -18.7630  -18.4822  -18.2032  -18.2032  -17.5485  -17.5485  -17.4229
  -17.4229  -17.1978  -17.1978  -16.9874  -16.9874  -16.9364  -16.9243  -15.9733  -15.9733  -15.6852
  -15.3605  -15.2023  -15.2023  -14.7723  -14.7723  -14.5484  -14.2231  -14.2231  -14.0943  -13.7091
  -13.4874  -12.4862  -12.2216  -10.6055  -10.2940  -10.2940   -9.3301   -9.3301   -8.0842   -8.0842
   -7.5798   -7.4511   -7.4511   -7.2542   -5.3286   -5.3286   -5.0853   -5.0853   -4.7794   -4.0546
   -2.1542   -1.1902   -1.0202   -1.0202   -0.9184   -0.9184   -0.8507   -0.5487   -0.5487   -0.5392
   -0.1766   -0.1766   -0.0151    0.7381    0.9669    0.9669    1.8330    1.8338    2.4355    2.6185
    3.3841    3.5346    4.0484    4.0484    4.0957    4.0957    4.1214    4.1297    4.1297    5.4572
    5.5408    5.5408    6.0979    6.7382    6.7382    6.7403    7.1396    7.8578    7.8578    8.0009
    8.0009    8.3877    8.3877    9.2708    9.2708    9.3273    9.4629    9.4629    9.9691    9.9691
   10.3816   10.9810   10.9810   11.2318   11.9446   11.9446   12.1279   12.8969   12.8969   13.0880
   15.1556   15.1556   15.2489   15.2489
   4  1  -30.9951  -30.2449  -30.2449  -28.1108  -28.1108  -26.7971  -26.2373  -26.2372  -25.4388  -25.3905
         -24.8107  -24.8106  -24.1501  -23.9702  -23.9702  -23.1489  -23.1489  -22.2145  -21.5720  -21.3336
  -21.3336  -20.6302  -20.5949  -20.5663  -20.5663  -20.4134  -20.3248  -19.9520  -19.9520  -19.8088
  -19.8088  -18.8613  -18.8063  -18.8062  -17.8756  -17.8756  -17.6385  -17.6385  -17.4934  -17.3019
  -17.3019  -16.8929  -16.7170  -16.7170  -16.5236  -16.1398  -16.1211  -16.1210  -15.9616  -15.9616
  -15.5238  -15.5237  -15.4569  -15.2937  -15.0621  -15.0620  -14.7367  -14.3599  -14.3599  -13.4981
  -13.4981  -13.0886  -12.7394  -11.3975  -11.3975  -11.3328   -8.7910   -7.8528   -7.8528   -7.6726
   -7.4167   -7.1877   -7.1877   -6.4354   -6.4354   -6.3700   -5.0982   -5.0982   -3.4475   -3.4475
   -1.7920   -1.2735   -1.2735   -0.9488   -0.8662   -0.8662   -0.6450    0.0085    0.0085    0.0631
    0.0631    0.5669    0.7427    1.1406    1.5599    1.5599    2.2895    2.2895    2.6980    2.6980
    3.0608    3.4526    3.5538    3.7194    3.8759    3.8760    3.9949    4.1197    4.1197    4.8240
    4.8240    5.1850    5.4696    5.4696    5.5565    6.1904    6.1904    6.6231    6.6231    6.9268
    7.9388    8.0002    8.0002    8.1157    8.7345    8.7345    9.3381   10.2836   10.2836   10.3226
   11.1336   11.1336   12.1683   12.1683   12.9229   12.9229   13.5586   13.5586   13.8889   13.8889
   14.1172   14.4452   14.6935   14.6954
   5  1  -31.3767  -29.8766  -29.1548  -29.1548  -27.7751  -27.7751  -27.1272  -25.6822  -25.3494  -25.3494
         -24.5237  -23.9596  -23.9596  -23.2496  -23.1629  -23.1629  -22.9651  -22.9651  -22.0156  -21.7287
  -21.7287  -21.6208  -21.6208  -20.9658  -20.2897  -20.2897  -19.6141  -19.6141  -19.6099  -18.9912
  -18.9192  -18.9192  -18.7630  -18.7630  -18.4822  -18.2032  -18.2032  -17.5485  -17.5485  -17.4229
  -17.4229  -17.1978  -17.1978  -16.9874  -16.9874  -16.9364  -16.9243  -15.9733  -15.9733  -15.6852
  -15.3605  -15.2023  -15.2023  -14.7723  -14.7723  -14.5484  -14.2231  -14.2231  -14.0943  -13.7091
  -13.4874  -12.4862  -12.2216  -10.6055  -10.2940  -10.2940   -9.3301   -9.3301   -8.0842   -8.0842
   -7.5798   -7.4511   -7.4511   -7.2542   -5.3286   -5.3286   -5.0853   -5.0853   -4.7794   -4.0546
   -2.1542   -1.1902   -1.0202   -1.0202   -0.9184   -0.9184   -0.8507   -0.5487   -0.5487   -0.5392
   -0.1766   -0.1766   -0.0151    0.7381    0.9669    0.9669    1.8330    1.8338    2.4355    2.6185
    3.3841    3.5346    4.0484    4.0484    4.0957    4.0957    4.1214    4.1297    4.1297    5.4572
    5.5408    5.5408    6.0979    6.7382    6.7382    6.7403    7.1396    7.8578    7.8578    8.0009
    8.0009    8.3877    8.3877    9.2708    9.2708    9.3273    9.4629    9.4629    9.9691    9.9691
   10.3816   10.9810   10.9810   11.2318   11.9446   11.9446   12.1279   12.8969   12.8969   13.0880
   15.1556   15.1556   15.2489   15.2489
   6  1  -31.5690  -28.6269  -28.6268  -28.6268  -28.6268  -28.6268  -28.6268  -25.8283  -24.4880  -24.4880
         -23.5544  -23.5544  -23.5544  -23.5543  -23.5543  -23.5543  -22.8989  -22.8989  -22.8989  -22.8989
  -21.1326  -20.8096  -20.8096  -20.8096  -20.8096  -20.8096  -20.8096  -19.6318  -19.6318  -18.6548
  -18.6548  -18.6548  -18.6548  -18.4033  -18.4033  -18.4033  -18.4033  -18.4033  -18.4033  -17.1872
  -17.1872  -17.1872  -17.1872  -17.1872  -17.1872  -16.4567  -16.4567  -16.4567  -16.4567  -16.4567
  -16.4567  -14.6121  -14.6121  -14.1281  -14.1281  -14.1281  -14.1281  -14.1281  -14.1281  -13.2163
  -13.2163  -12.0700  -12.0700   -9.6359   -9.6359   -9.6359   -9.6359   -8.3665   -8.3665   -8.3665
   -8.3665   -8.3665   -8.3665   -7.6702   -4.9933   -4.9933   -4.9933   -4.9933   -4.9933   -4.9933
   -1.7680   -1.7680   -1.7679   -1.7679   -1.7679   -1.7679   -0.9579   -0.9579   -0.3493    0.0430
    0.0431    0.5057    0.5057    0.5057    0.5057    0.5057    0.5057    1.5781    1.5781    1.8738
    3.5204    3.5204    3.5204    3.5204    3.5204    3.5204    4.4761    5.7378    5.8565    5.8565
    7.2700    7.2700    7.2700    7.2700    8.2580    8.2580    8.2580    8.2580    8.2580    8.2581
    9.1181    9.1181    9.5602    9.5602    9.5602    9.5602    9.5602    9.5602    9.6323    9.6323
    9.6324    9.6324    9.6324    9.6324   11.5009   11.5009   11.5009   11.5009   11.5009   11.5009
   15.5684   15.5684   15.5684   15.5684
   7  1  -30.8059  -30.8059  -29.3335  -29.3335  -26.6474  -26.6474  -26.6474  -26.6474  -25.8821  -25.2450
         -25.2449  -24.5836  -24.0987  -24.0987  -22.8487  -22.8487  -22.8487  -22.8487  -21.7102  -21.7102
  -21.7102  -21.7102  -20.7498  -20.5727  -20.4616  -20.4616  -19.4999  -19.4999  -19.4999  -19.4999
  -19.0910  -19.0910  -18.6506  -18.6506  -18.2118  -18.2118  -18.2118  -18.2118  -17.7179  -17.7179
  -17.0983  -16.4044  -16.4044  -16.4044  -16.4044  -16.1032  -16.1032  -15.9855  -15.9855  -15.9855
  -15.9855  -15.9453  -15.2642  -15.2642  -14.6998  -14.6998  -14.6932  -14.6850  -14.6850  -13.6931
  -13.6931  -12.7638  -12.7638  -11.9480  -10.0618  -10.0618  -10.0618  -10.0618   -7.3533   -7.3533
   -7.0223   -7.0223   -6.4078   -6.4078   -6.4078   -6.4078   -5.2161   -5.2161   -4.5719   -2.2895
   -2.2319   -2.2319   -0.9679   -0.7085   -0.7085   -0.7085   -0.7084   -0.5295   -0.5295    1.1084
    1.1084    1.2500    1.2500    1.2500    1.2500    1.7860    1.7860    2.5363    2.5363    2.7114
    2.7114    2.8698    2.8698    3.1500    3.1500    3.5297    4.2040    4.2040    4.5421    4.5421
    5.5136    5.5136    5.5136    5.5136    5.6279    5.6279    5.9239    5.9239    7.3164    7.3164
    8.1796    8.1796    8.1796    8.1796    9.6049    9.6049    9.7444    9.7444    9.7444    9.7444
   10.8840   10.8840   11.1973   11.8040   13.3753   13.4346   13.9474   13.9474   13.9474   13.9474
   14.3063   14.3063   14.3063   14.3063
   8  1  -30.9951  -30.2449  -30.2449  -28.1108  -28.1108  -26.7971  -26.2373  -26.2372  -25.4388  -25.3905
         -24.8107  -24.8106  -24.1501  -23.9702  -23.9702  -23.1489  -23.1489  -22.2145  -21.5720  -21.3336
  -21.3336  -20.6302  -20.5949  -20.5663  -20.5663  -20.4134  -20.3248  -19.9520  -19.9520  -19.8088
  -19.8088  -18.8613  -18.8063  -18.8062  -17.8756  -17.8756  -17.6385  -17.6385  -17.4934  -17.3019
  -17.3019  -16.8929  -16.7170  -16.7170  -16.5236  -16.1398  -16.1211  -16.1210  -15.9616  -15.9616
  -15.5238  -15.5237  -15.4569  -15.2937  -15.0621  -15.0620  -14.7367  -14.3599  -14.3599  -13.4981
  -13.4981  -13.0886  -12.7394  -11.3975  -11.3975  -11.3328   -8.7910   -7.8528   -7.8528   -7.6726
   -7.4167   -7.1877   -7.1877   -6.4354   -6.4354   -6.3700   -5.0982   -5.0982   -3.4475   -3.4475
   -1.7920   -1.2735   -1.2735   -0.9488   -0.8662   -0.8662   -0.6450    0.0085    0.0085    0.0631
    0.0631    0.5669    0.7427    1.1406    1.5599    1.5599    2.2895    2.2895    2.6980    2.6980
    3.0608    3.4526    3.5538    3.7194    3.8759    3.8760    3.9949    4.1197    4.1197    4.8240
    4.8240    5.1850    5.4696    5.4696    5.5565    6.1904    6.1904    6.6231    6.6231    6.9268
    7.9388    8.0002    8.0002    8.1157    8.7345    8.7345    9.3381   10.2836   10.2836   10.3226
   11.1336   11.1336   12.1683   12.1683   12.9229   12.9229   13.5586   13.5586   13.8889   13.8889
   14.1172   14.4452   14.6935   14.6954
   9  1  -30.9951  -30.2449  -30.2449  -28.1108  -28.1108  -26.7971  -26.2373  -26.2372  -25.4388  -25.3905
         -24.8107  -24.8106  -24.1501  -23.9702  -23.9702  -23.1489  -23.1489  -22.2145  -21.5720  -21.3336
  -21.3336  -20.6302  -20.5949  -20.5663  -20.5663  -20.4134  -20.3248  -19.9520  -19.9520  -19.8088
  -19.8088  -18.8613  -18.8062  -18.8062  -17.8756  -17.8756  -17.6385  -17.6385  -17.4934  -17.3019
  -17.3019  -16.8929  -16.7170  -16.7170  -16.5236  -16.1398  -16.1211  -16.1210  -15.9616  -15.9616
  -15.5238  -15.5237  -15.4569  -15.2937  -15.0621  -15.0620  -14.7367  -14.3599  -14.3599  -13.4981
  -13.4981  -13.0886  -12.7394  -11.3975  -11.3975  -11.3328   -8.7910   -7.8528   -7.8528   -7.6726
   -7.4167   -7.1877   -7.1877   -6.4354   -6.4354   -6.3700   -5.0982   -5.0982   -3.4475   -3.4475
   -1.7920   -1.2735   -1.2735   -0.9488   -0.8662   -0.8662   -0.6450    0.0085    0.0085    0.0631
    0.0631    0.5669    0.7427    1.1406    1.5599    1.5599    2.2895    2.2895    2.6980    2.6980
    3.0608    3.4526    3.5538    3.7194    3.8759    3.8760    3.9949    4.1197    4.1197    4.8240
    4.8240    5.1850    5.4696    5.4696    5.5565    6.1904    6.1904    6.6231    6.6231    6.9268
    7.9388    8.0002    8.0002    8.1157    8.7345    8.7345    9.3381   10.2836   10.2836   10.3226
   11.1336   11.1336   12.1683   12.1683   12.9229   12.9229   13.5586   13.5586   13.8889   13.8889
   14.1172   14.4452   14.6935   14.6954
  10  1  -30.8059  -30.8059  -29.3335  -29.3335  -26.6474  -26.6474  -26.6474  -26.6474  -25.8821  -25.2450
         -25.2449  -24.5836  -24.0987  -24.0987  -22.8487  -22.8487  -22.8487  -22.8487  -21.7102  -21.7102
  -21.7102  -21.7102  -20.7498  -20.5727  -20.4616  -20.4616  -19.4999  -19.4999  -19.4999  -19.4999
  -19.0910  -19.0910  -18.6506  -18.6506  -18.2118  -18.2118  -18.2118  -18.2118  -17.7179  -17.7179
  -17.0983  -16.4044  -16.4044  -16.4044  -16.4044  -16.1032  -16.1032  -15.9855  -15.9855  -15.9855
  -15.9855  -15.9453  -15.2642  -15.2642  -14.6998  -14.6998  -14.6932  -14.6850  -14.6850  -13.6931
  -13.6931  -12.7638  -12.7638  -11.9480  -10.0618  -10.0618  -10.0618  -10.0618   -7.3533   -7.3533
   -7.0223   -7.0223   -6.4078   -6.4078   -6.4078   -6.4078   -5.2161   -5.2161   -4.5719   -2.2895
   -2.2319   -2.2319   -0.9679   -0.7085   -0.7085   -0.7085   -0.7084   -0.5295   -0.5295    1.1084
    1.1084    1.2500    1.2500    1.2500    1.2500    1.7860    1.7860    2.5363    2.5363    2.7114
    2.7114    2.8698    2.8698    3.1500    3.1500    3.5297    4.2040    4.2040    4.5421    4.5421
    5.5136    5.5136    5.5136    5.5136    5.6279    5.6279    5.9239    5.9239    7.3164    7.3164
    8.1796    8.1796    8.1796    8.1796    9.6049    9.6049    9.7444    9.7444    9.7444    9.7444
   10.8840   10.8840   11.1973   11.8040   13.3753   13.4346   13.9474   13.9474   13.9474   13.9474
   14.3063   14.3063   14.3063   14.3063
  11  1  -30.9951  -30.2449  -30.2449  -28.1108  -28.1108  -26.7971  -26.2373  -26.2372  -25.4388  -25.3905
         -24.8107  -24.8106  -24.1501  -23.9702  -23.9702  -23.1489  -23.1489  -22.2145  -21.5720  -21.3336
  -21.3336  -20.6302  -20.5949  -20.5663  -20.5663  -20.4134  -20.3248  -19.9520  -19.9520  -19.8088
  -19.8088  -18.8613  -18.8062  -18.8062  -17.8756  -17.8756  -17.6385  -17.6385  -17.4934  -17.3019
  -17.3019  -16.8929  -16.7170  -16.7170  -16.5236  -16.1398  -16.1211  -16.1210  -15.9616  -15.9616
  -15.5238  -15.5237  -15.4569  -15.2937  -15.0621  -15.0620  -14.7367  -14.3599  -14.3599  -13.4981
  -13.4981  -13.0886  -12.7394  -11.3975  -11.3975  -11.3328   -8.7910   -7.8528   -7.8528   -7.6726
   -7.4167   -7.1877   -7.1877   -6.4354   -6.4354   -6.3700   -5.0982   -5.0982   -3.4475   -3.4475
   -1.7920   -1.2735   -1.2735   -0.9488   -0.8662   -0.8662   -0.6450    0.0085    0.0085    0.0631
    0.0631    0.5669    0.7427    1.1406    1.5599    1.5599    2.2895    2.2895    2.6980    2.6980
    3.0608    3.4526    3.5538    3.7194    3.8759    3.8760    3.9949    4.1197    4.1197    4.8240
    4.8240    5.1850    5.4696    5.4696    5.5565    6.1904    6.1904    6.6231    6.6231    6.9268
    7.9388    8.0002    8.0002    8.1157    8.7345    8.7345    9.3381   10.2836   10.2836   10.3226
   11.1336   11.1336   12.1683   12.1683   12.9229   12.9229   13.5586   13.5586   13.8889   13.8889
   14.1172   14.4452   14.6935   14.6954
  12  1  -30.8059  -30.8059  -29.3335  -29.3335  -26.6474  -26.6474  -26.6474  -26.6474  -25.8821  -25.2450
         -25.2449  -24.5836  -24.0987  -24.0987  -22.8487  -22.8487  -22.8487  -22.8487  -21.7102  -21.7102
  -21.7102  -21.7102  -20.7498  -20.5727  -20.4616  -20.4616  -19.4999  -19.4999  -19.4999  -19.4999
  -19.0910  -19.0910  -18.6506  -18.6506  -18.2118  -18.2118  -18.2118  -18.2118  -17.7179  -17.7179
  -17.0983  -16.4044  -16.4044  -16.4044  -16.4044  -16.1032  -16.1032  -15.9855  -15.9855  -15.9855
  -15.9855  -15.9453  -15.2642  -15.2642  -14.6998  -14.6998  -14.6932  -14.6850  -14.6850  -13.6931
  -13.6931  -12.7638  -12.7638  -11.9480  -10.0618  -10.0618  -10.0618  -10.0618   -7.3533   -7.3533
   -7.0223   -7.0223   -6.4078   -6.4078   -6.4078   -6.4078   -5.2161   -5.2161   -4.5719   -2.2895
   -2.2319   -2.2319   -0.9679   -0.7085   -0.7085   -0.7085   -0.7084   -0.5295   -0.5295    1.1084
    1.1084    1.2500    1.2500    1.2500    1.2500    1.7860    1.7860    2.5363    2.5363    2.7114
    2.7114    2.8698    2.8698    3.1500    3.1500    3.5297    4.2040    4.2040    4.5421    4.5421
    5.5136    5.5136    5.5136    5.5136    5.6279    5.6279    5.9239    5.9239    7.3164    7.3164
    8.1796    8.1796    8.1796    8.1796    9.6049    9.6049    9.7444    9.7444    9.7444    9.7444
   10.8840   10.8840   11.1973   11.8040   13.3753   13.4346   13.9474   13.9474   13.9474   13.9474
   14.3063   14.3063   14.3063   14.3063
  13  1  -30.5075  -29.7679  -29.7679  -27.6642  -27.6641  -26.9847  -26.3684  -26.3380  -26.3379  -25.8138
         -25.8138  -25.0202  -24.4879  -24.4879  -23.8168  -23.6993  -23.6993  -23.3570  -22.5033  -22.5032
  -21.7683  -21.2457  -21.2338  -20.8166  -20.8166  -20.2562  -20.2463  -20.2463  -18.7861  -18.7201
  -18.7201  -18.3319  -18.2414  -17.6690  -17.6690  -17.5864  -17.3842  -17.3842  -17.3810  -17.3810
  -16.9800  -16.9800  -16.7912  -16.1438  -16.1438  -15.7284  -15.7284  -15.5664  -15.5664  -15.4812
  -15.4812  -15.0412  -14.7863  -14.7863  -14.4995  -14.2383  -13.8952  -13.8952  -13.8619  -13.8619
  -13.4211  -13.2113  -13.0470  -10.1275  -10.1275  -10.0298   -9.4579   -9.0217   -9.0217   -8.1475
   -8.1475   -7.8246   -7.6318   -6.3431   -6.1141   -6.1141   -5.6930   -5.6930   -3.7237   -3.7237
   -3.5889   -3.1064   -3.1064   -2.9009   -2.0871   -2.0871   -1.6756   -0.5417   -0.5416    0.1705
    0.3426    0.3426    1.1251    1.8735    1.8736    2.2107    2.3750    2.6646    2.6646    3.2366
    3.2983    3.3324    3.3324    3.7088    3.7088    3.9747    3.9748    4.5488    4.8044    4.8044
    5.0445    5.0933    5.1892    5.1892    5.3245    6.3495    6.3495    6.7283    7.0440    7.0440
    7.7147    7.7147    7.7544    7.8594    8.5120    8.5120    9.5113   10.1746   10.4263   10.4263
   11.0107   11.0107   12.2816   12.2816   12.8129   12.8129   13.6160   13.6160   13.8420   13.8420
   14.1638   14.3933   14.6908   14.6978
  14  1  -30.8837  -29.4049  -28.6934  -28.6934  -27.3330  -27.3330  -27.3127  -26.6936  -26.0195  -25.3941
         -25.3941  -24.9362  -24.9362  -24.2050  -24.2050  -23.7204  -22.8760  -22.8760  -22.4892  -21.9652
  -21.9652  -21.4759  -21.4759  -21.0335  -21.0335  -19.9973  -19.5025  -19.5025  -19.2892  -19.2892
  -19.0321  -19.0321  -18.5359  -18.1914  -18.1914  -18.1810  -17.3684  -17.3684  -17.3392  -17.0256
  -17.0256  -16.6540  -16.4191  -16.4191  -16.2010  -16.2010  -15.8829  -15.4143  -15.3453  -15.3453
  -15.1380  -15.1380  -14.9764  -14.6733  -14.6733  -14.6442  -13.8767  -13.8672  -13.5006  -12.9695
  -12.9695  -12.7290  -12.4458   -9.6914   -9.5693   -9.1186   -9.1186   -8.8499   -8.7574   -8.7574
   -8.5327   -8.5327   -7.5887   -7.5887   -5.9801   -5.9801   -5.7774   -4.8662   -4.8662   -3.8941
   -3.4767   -3.4175   -3.4175   -2.7443   -2.7443   -1.5975   -1.5975   -1.3868   -0.8679   -0.1150
    0.2770    0.7095    0.7095    0.8885    1.2423    1.3592    1.3592    1.4214    2.0957    2.2622
    3.2151    3.3763    3.7784    3.7784    3.8247    3.8247    4.7302    4.7600    4.7600    5.6658
    5.9534    6.0555    6.0555    6.5171    6.5171    6.8581    7.3580    7.5827    7.5827    8.1097
    8.1097    8.6811    8.6811    9.0217    9.0217    9.0858    9.7227    9.7227    9.7603    9.7603
   10.5012   10.7901   10.7901   11.1024   12.1034   12.1034   12.3107   12.7663   12.7663   12.9630
   15.1670   15.1670   15.2320   15.2320
  15  1  -30.8837  -29.4049  -28.6934  -28.6934  -27.3330  -27.3330  -27.3127  -26.6936  -26.0195  -25.3941
         -25.3941  -24.9362  -24.9362  -24.2050  -24.2050  -23.7204  -22.8760  -22.8760  -22.4892  -21.9652
  -21.9652  -21.4759  -21.4759  -21.0335  -21.0335  -19.9973  -19.5025  -19.5025  -19.2892  -19.2892
  -19.0321  -19.0321  -18.5359  -18.1914  -18.1914  -18.1810  -17.3684  -17.3684  -17.3392  -17.0256
  -17.0256  -16.6540  -16.4191  -16.4191  -16.2010  -16.2010  -15.8829  -15.4143  -15.3453  -15.3453
  -15.1380  -15.1380  -14.9764  -14.6733  -14.6733  -14.6442  -13.8767  -13.8672  -13.5006  -12.9695
  -12.9695  -12.7290  -12.4458   -9.6914   -9.5693   -9.1186   -9.1186   -8.8499   -8.7574   -8.7574
   -8.5327   -8.5327   -7.5887   -7.5887   -5.9801   -5.9801   -5.7774   -4.8662   -4.8662   -3.8941
   -3.4767   -3.4175   -3.4175   -2.7443   -2.7443   -1.5975   -1.5975   -1.3868   -0.8679   -0.1150
    0.2770    0.7095    0.7095    0.8885    1.2423    1.3592    1.3592    1.4214    2.0957    2.2622
    3.2151    3.3763    3.7784    3.7784    3.8247    3.8247    4.7302    4.7600    4.7600    5.6658
    5.9534    6.0555    6.0555    6.5171    6.5171    6.8581    7.3580    7.5827    7.5827    8.1097
    8.1097    8.6811    8.6811    9.0217    9.0217    9.0858    9.7227    9.7227    9.7603    9.7603
   10.5012   10.7901   10.7901   11.1024   12.1034   12.1034   12.3107   12.7663   12.7663   12.9630
   15.1670   15.1670   15.2320   15.2320
  16  1  -30.5075  -29.7679  -29.7679  -27.6642  -27.6641  -26.9847  -26.3684  -26.3380  -26.3379  -25.8138
         -25.8138  -25.0202  -24.4879  -24.4879  -23.8168  -23.6993  -23.6993  -23.3570  -22.5033  -22.5032
  -21.7683  -21.2457  -21.2338  -20.8166  -20.8166  -20.2562  -20.2463  -20.2463  -18.7861  -18.7201
  -18.7201  -18.3319  -18.2414  -17.6690  -17.6690  -17.5864  -17.3842  -17.3842  -17.3810  -17.3810
  -16.9800  -16.9800  -16.7912  -16.1438  -16.1438  -15.7284  -15.7284  -15.5664  -15.5664  -15.4812
  -15.4812  -15.0412  -14.7863  -14.7863  -14.4995  -14.2383  -13.8952  -13.8952  -13.8619  -13.8619
  -13.4211  -13.2113  -13.0470  -10.1275  -10.1275  -10.0298   -9.4579   -9.0217   -9.0217   -8.1475
   -8.1475   -7.8246   -7.6318   -6.3431   -6.1141   -6.1141   -5.6930   -5.6930   -3.7237   -3.7237
   -3.5889   -3.1064   -3.1064   -2.9009   -2.0871   -2.0871   -1.6756   -0.5417   -0.5416    0.1705
    0.3426    0.3426    1.1251    1.8735    1.8736    2.2107    2.3750    2.6646    2.6646    3.2366
    3.2983    3.3324    3.3324    3.7088    3.7088    3.9747    3.9748    4.5488    4.8044    4.8044
    5.0445    5.0933    5.1892    5.1892    5.3245    6.3495    6.3495    6.7283    7.0440    7.0440
    7.7147    7.7147    7.7544    7.8594    8.5120    8.5120    9.5113   10.1746   10.4263   10.4263
   11.0107   11.0107   12.2816   12.2816   12.8129   12.8129   13.6160   13.6160   13.8420   13.8420
   14.1638   14.3933   14.6908   14.6978
  17  1  -30.8837  -29.4049  -28.6934  -28.6934  -27.3330  -27.3330  -27.3127  -26.6936  -26.0195  -25.3941
         -25.3941  -24.9362  -24.9362  -24.2050  -24.2050  -23.7204  -22.8760  -22.8760  -22.4892  -21.9652
  -21.9652  -21.4759  -21.4759  -21.0335  -21.0335  -19.9973  -19.5025  -19.5025  -19.2892  -19.2892
  -19.0321  -19.0321  -18.5359  -18.1914  -18.1914  -18.1810  -17.3684  -17.3684  -17.3392  -17.0256
  -17.0256  -16.6540  -16.4191  -16.4191  -16.2010  -16.2010  -15.8829  -15.4143  -15.3453  -15.3453
  -15.1380  -15.1380  -14.9764  -14.6733  -14.6733  -14.6442  -13.8767  -13.8672  -13.5006  -12.9695
  -12.9695  -12.7290  -12.4458   -9.6914   -9.5693   -9.1186   -9.1186   -8.8499   -8.7574   -8.7574
   -8.5327   -8.5327   -7.5887   -7.5887   -5.9801   -5.9801   -5.7774   -4.8662   -4.8662   -3.8941
   -3.4767   -3.4175   -3.4175   -2.7443   -2.7443   -1.5975   -1.5975   -1.3868   -0.8679   -0.1150
    0.2770    0.7095    0.7095    0.8885    1.2423    1.3592    1.3592    1.4214    2.0957    2.2622
    3.2151    3.3763    3.7784    3.7784    3.8247    3.8247    4.7302    4.7600    4.7600    5.6658
    5.9534    6.0555    6.0555    6.5171    6.5171    6.8581    7.3580    7.5827    7.5827    8.1097
    8.1097    8.6811    8.6811    9.0217    9.0217    9.0858    9.7227    9.7227    9.7603    9.7603
   10.5012   10.7901   10.7901   11.1024   12.1034   12.1034   12.3107   12.7663   12.7663   12.9630
   15.1670   15.1670   15.2320   15.2320
  18  1  -31.0733  -28.1729  -28.1729  -28.1729  -28.1729  -28.1729  -28.1729  -27.4778  -24.9369  -24.9369
         -24.9369  -24.9369  -24.9369  -24.9368  -24.0698  -24.0698  -22.6065  -22.6065  -22.6065  -22.6065
  -21.0095  -21.0095  -20.4806  -20.4806  -20.4806  -20.4806  -20.4806  -20.4806  -19.4328  -19.4328
  -19.4328  -19.4328  -18.6815  -18.0934  -18.0934  -18.0934  -18.0934  -18.0934  -18.0934  -16.1773
  -16.1773  -16.1773  -16.1773  -16.1773  -16.1773  -16.0112  -16.0112  -16.0112  -16.0112  -16.0112
  -16.0112  -14.5404  -14.5404  -14.5403  -14.5403  -14.5403  -14.5403  -13.0430  -13.0430  -12.3772
  -12.3772  -12.2273  -12.2272   -9.8115   -8.6756   -8.6756   -8.6756   -8.6756   -8.5764   -8.5764
   -8.5764   -8.5764   -8.5764   -8.5764   -5.5234   -5.5234   -5.5233   -5.5233   -5.5233   -5.5233
   -3.4946   -3.4946   -2.4184   -2.4184   -2.4184   -2.4184   -2.4184   -2.4184   -0.1295    0.1519
    0.1519    0.5519    0.5519    0.5519    0.5520    0.5520    0.5520    1.2448    1.2448    1.3688
    3.3251    3.3251    3.3251    3.3251    3.3251    3.3251    4.7874    5.6285    6.6502    6.6502
    7.1880    7.1880    7.1880    7.1880    8.4312    8.4312    8.4312    8.4312    8.4312    8.4312
    8.7330    8.7330    9.3531    9.3532    9.3532    9.3532    9.3532    9.3532   10.0175   10.0175
   10.0175   10.0175   10.0175   10.0175   11.2897   11.2897   11.2897   11.2897   11.2897   11.2897
   15.5649   15.5649   15.5649   15.5649
  19  1  -30.8837  -29.4049  -28.6934  -28.6934  -27.3330  -27.3330  -27.3127  -26.6936  -26.0195  -25.3941
         -25.3941  -24.9362  -24.9362  -24.2050  -24.2050  -23.7204  -22.8760  -22.8760  -22.4892  -21.9652
  -21.9652  -21.4759  -21.4759  -21.0335  -21.0335  -19.9973  -19.5025  -19.5025  -19.2892  -19.2892
  -19.0321  -19.0321  -18.5359  -18.1914  -18.1914  -18.1810  -17.3684  -17.3684  -17.3392  -17.0256
  -17.0256  -16.6540  -16.4191  -16.4191  -16.2010  -16.2010  -15.8829  -15.4143  -15.3453  -15.3453
  -15.1380  -15.1380  -14.9764  -14.6733  -14.6733  -14.6442  -13.8767  -13.8672  -13.5006  -12.9695
  -12.9695  -12.7290  -12.4458   -9.6914   -9.5693   -9.1186   -9.1186   -8.8499   -8.7574   -8.7574
   -8.5327   -8.5327   -7.5887   -7.5887   -5.9801   -5.9801   -5.7774   -4.8662   -4.8662   -3.8941
   -3.4767   -3.4175   -3.4175   -2.7443   -2.7443   -1.5975   -1.5975   -1.3868   -0.8679   -0.1150
    0.2770    0.7095    0.7095    0.8885    1.2423    1.3592    1.3592    1.4214    2.0957    2.2622
    3.2151    3.3763    3.7784    3.7784    3.8247    3.8247    4.7302    4.7600    4.7600    5.6658
    5.9534    6.0555    6.0555    6.5171    6.5171    6.8581    7.3580    7.5827    7.5827    8.1097
    8.1097    8.6811    8.6811    9.0217    9.0217    9.0858    9.7227    9.7227    9.7603    9.7603
   10.5012   10.7901   10.7901   11.1024   12.1034   12.1034   12.3107   12.7663   12.7663   12.9630
   15.1670   15.1670   15.2320   15.2320
  20  1  -30.3209  -30.3209  -28.8695  -28.8695  -26.8218  -26.8218  -26.2203  -26.2203  -26.2203  -26.2203
         -25.5490  -25.5490  -25.4581  -24.2458  -23.2951  -23.2951  -23.2951  -23.2951  -22.1466  -22.1465
  -22.1465  -22.1465  -22.1387  -21.4776  -19.9317  -19.9317  -19.9317  -19.9317  -18.4883  -18.4882
  -18.4882  -18.4882  -18.3417  -18.3417  -18.0942  -18.0942  -17.6325  -17.6325  -16.8152  -16.7036
  -16.7036  -16.6283  -16.6283  -16.6283  -16.6283  -15.8131  -15.8130  -15.7538  -15.7538  -15.1954
  -15.1954  -15.1259  -14.4498  -14.4498  -14.1274  -14.1274  -14.1274  -14.1274  -14.1000  -14.1000
  -13.6927  -13.0833  -13.0833  -10.6184   -9.3474   -9.3473   -9.0167   -9.0167   -9.0167   -9.0167
   -8.5346   -8.5346   -6.5513   -6.5513   -6.5513   -6.5513   -5.3250   -4.5156   -4.5156   -4.1655
   -3.1210   -3.1210   -3.1210   -3.1210   -2.1750   -2.1750   -0.9945   -0.9945   -0.4503   -0.4503
   -0.3537    1.8629    1.8629    2.3294    2.3294    2.3295    2.3295    2.9139    2.9140    3.0099
    3.0099    3.1515    3.1515    3.1649    3.1806    3.1806    4.2132    4.2133    5.0841    5.0841
    5.0841    5.0841    5.2643    5.2643    5.4201    5.4201    5.6585    5.6585    7.1022    7.1022
    8.4634    8.4634    8.4634    8.4634    9.5259    9.5259    9.5259    9.5260    9.8080    9.8080
   10.7129   10.7129   11.2856   11.7141   13.4050   13.4223   14.0015   14.0016   14.0016   14.0016
   14.2519   14.2519   14.2519   14.2519
  21  1  -30.8837  -29.4049  -28.6934  -28.6934  -27.3330  -27.3330  -27.3127  -26.6936  -26.0195  -25.3941
         -25.3941  -24.9362  -24.9362  -24.2050  -24.2050  -23.7204  -22.8760  -22.8760  -22.4892  -21.9652
  -21.9652  -21.4759  -21.4759  -21.0335  -21.0335  -19.9973  -19.5025  -19.5025  -19.2892  -19.2892
  -19.0321  -19.0321  -18.5359  -18.1914  -18.1914  -18.1810  -17.3684  -17.3684  -17.3392  -17.0256
  -17.0256  -16.6540  -16.4191  -16.4191  -16.2010  -16.2010  -15.8829  -15.4143  -15.3453  -15.3453
  -15.1380  -15.1380  -14.9764  -14.6733  -14.6733  -14.6442  -13.8767  -13.8672  -13.5006  -12.9695
  -12.9695  -12.7290  -12.4458   -9.6914   -9.5693   -9.1186   -9.1186   -8.8499   -8.7574   -8.7574
   -8.5327   -8.5327   -7.5887   -7.5887   -5.9801   -5.9801   -5.7774   -4.8662   -4.8662   -3.8941
   -3.4767   -3.4175   -3.4175   -2.7443   -2.7443   -1.5975   -1.5975   -1.3868   -0.8679   -0.1150
    0.2770    0.7095    0.7095    0.8885    1.2423    1.3592    1.3592    1.4214    2.0957    2.2622
    3.2151    3.3763    3.7784    3.7784    3.8247    3.8247    4.7302    4.7600    4.7600    5.6658
    5.9534    6.0555    6.0555    6.5171    6.5171    6.8581    7.3580    7.5827    7.5827    8.1097
    8.1097    8.6811    8.6811    9.0217    9.0217    9.0858    9.7227    9.7227    9.7603    9.7603
   10.5012   10.7901   10.7901   11.1024   12.1034   12.1034   12.3107   12.7663   12.7663   12.9630
   15.1670   15.1670   15.2320   15.2320
  22  1  -30.8837  -29.4049  -28.6934  -28.6934  -27.3330  -27.3330  -27.3127  -26.6936  -26.0195  -25.3941
         -25.3941  -24.9362  -24.9362  -24.2050  -24.2050  -23.7204  -22.8760  -22.8760  -22.4892  -21.9652
  -21.9652  -21.4759  -21.4759  -21.0335  -21.0335  -19.9973  -19.5025  -19.5025  -19.2892  -19.2892
  -19.0321  -19.0321  -18.5359  -18.1914  -18.1914  -18.1810  -17.3684  -17.3684  -17.3392  -17.0256
  -17.0256  -16.6540  -16.4191  -16.4191  -16.2010  -16.2010  -15.8829  -15.4143  -15.3453  -15.3453
  -15.1380  -15.1380  -14.9764  -14.6733  -14.6733  -14.6442  -13.8767  -13.8672  -13.5006  -12.9695
  -12.9695  -12.7290  -12.4458   -9.6914   -9.5693   -9.1186   -9.1186   -8.8499   -8.7574   -8.7574
   -8.5327   -8.5327   -7.5887   -7.5887   -5.9801   -5.9801   -5.7774   -4.8662   -4.8662   -3.8941
   -3.4767   -3.4175   -3.4175   -2.7443   -2.7443   -1.5975   -1.5975   -1.3868   -0.8679   -0.1150
    0.2770    0.7095    0.7095    0.8885    1.2423    1.3592    1.3592    1.4214    2.0957    2.2622
    3.2151    3.3763    3.7784    3.7784    3.8247    3.8247    4.7302    4.7600    4.7600    5.6658
    5.9534    6.0555    6.0555    6.5171    6.5171    6.8581    7.3580    7.5827    7.5827    8.1097
    8.1097    8.6811    8.6811    9.0217    9.0217    9.0858    9.7227    9.7227    9.7603    9.7603
   10.5012   10.7901   10.7901   11.1024   12.1034   12.1034   12.3107   12.7663   12.7663   12.9630
   15.1670   15.1670   15.2320   15.2320
  23  1  -30.5075  -29.7679  -29.7679  -27.6642  -27.6641  -26.9847  -26.3684  -26.3380  -26.3379  -25.8138
         -25.8138  -25.0202  -24.4879  -24.4879  -23.8168  -23.6993  -23.6993  -23.3570  -22.5033  -22.5032
  -21.7683  -21.2457  -21.2338  -20.8166  -20.8166  -20.2562  -20.2463  -20.2463  -18.7861  -18.7201
  -18.7201  -18.3319  -18.2414  -17.6690  -17.6690  -17.5864  -17.3842  -17.3842  -17.3810  -17.3810
  -16.9800  -16.9800  -16.7912  -16.1438  -16.1438  -15.7284  -15.7284  -15.5664  -15.5664  -15.4812
  -15.4812  -15.0412  -14.7863  -14.7863  -14.4995  -14.2383  -13.8952  -13.8952  -13.8619  -13.8619
  -13.4211  -13.2113  -13.0470  -10.1275  -10.1275  -10.0298   -9.4579   -9.0217   -9.0217   -8.1475
   -8.1475   -7.8246   -7.6318   -6.3431   -6.1141   -6.1141   -5.6930   -5.6930   -3.7237   -3.7237
   -3.5889   -3.1064   -3.1064   -2.9009   -2.0871   -2.0871   -1.6756   -0.5417   -0.5416    0.1705
    0.3426    0.3426    1.1251    1.8735    1.8736    2.2107    2.3750    2.6646    2.6646    3.2366
    3.2983    3.3324    3.3324    3.7088    3.7088    3.9747    3.9748    4.5488    4.8044    4.8044
    5.0445    5.0933    5.1892    5.1892    5.3245    6.3495    6.3495    6.7283    7.0440    7.0440
    7.7147    7.7147    7.7544    7.8594    8.5120    8.5120    9.5113   10.1746   10.4263   10.4263
   11.0107   11.0107   12.2816   12.2816   12.8129   12.8129   13.6160   13.6160   13.8420   13.8420
   14.1638   14.3933   14.6908   14.6978
  24  1  -30.5075  -29.7679  -29.7679  -27.6642  -27.6641  -26.9847  -26.3684  -26.3380  -26.3379  -25.8138
         -25.8138  -25.0202  -24.4879  -24.4879  -23.8168  -23.6993  -23.6993  -23.3570  -22.5033  -22.5032
  -21.7683  -21.2457  -21.2338  -20.8166  -20.8166  -20.2562  -20.2463  -20.2463  -18.7861  -18.7201
  -18.7201  -18.3319  -18.2414  -17.6690  -17.6690  -17.5864  -17.3842  -17.3842  -17.3810  -17.3810
  -16.9800  -16.9800  -16.7912  -16.1438  -16.1438  -15.7284  -15.7284  -15.5664  -15.5664  -15.4812
  -15.4812  -15.0412  -14.7863  -14.7863  -14.4995  -14.2383  -13.8952  -13.8952  -13.8619  -13.8619
  -13.4211  -13.2113  -13.0470  -10.1275  -10.1275  -10.0298   -9.4579   -9.0217   -9.0217   -8.1475
   -8.1475   -7.8246   -7.6318   -6.3431   -6.1141   -6.1141   -5.6930   -5.6930   -3.7237   -3.7237
   -3.5889   -3.1064   -3.1064   -2.9009   -2.0871   -2.0871   -1.6756   -0.5417   -0.5416    0.1705
    0.3426    0.3426    1.1251    1.8735    1.8736    2.2107    2.3750    2.6646    2.6646    3.2366
    3.2983    3.3324    3.3324    3.7088    3.7088    3.9747    3.9748    4.5488    4.8044    4.8044
    5.0445    5.0933    5.1892    5.1892    5.3245    6.3495    6.3495    6.7283    7.0440    7.0440
    7.7147    7.7147    7.7544    7.8594    8.5120    8.5120    9.5113   10.1746   10.4263   10.4263
   11.0107   11.0107   12.2816   12.2816   12.8129   12.8129   13.6160   13.6160   13.8420   13.8420
   14.1638   14.3933   14.6908   14.6978
  25  1  -30.5075  -29.7679  -29.7679  -27.6642  -27.6641  -26.9847  -26.3684  -26.3380  -26.3379  -25.8138
         -25.8138  -25.0202  -24.4879  -24.4879  -23.8168  -23.6993  -23.6993  -23.3570  -22.5033  -22.5032
  -21.7683  -21.2457  -21.2338  -20.8166  -20.8166  -20.2562  -20.2463  -20.2463  -18.7861  -18.7201
  -18.7201  -18.3319  -18.2414  -17.6690  -17.6690  -17.5864  -17.3842  -17.3842  -17.3810  -17.3810
  -16.9800  -16.9800  -16.7912  -16.1438  -16.1438  -15.7284  -15.7284  -15.5664  -15.5664  -15.4812
  -15.4812  -15.0412  -14.7863  -14.7863  -14.4995  -14.2383  -13.8952  -13.8952  -13.8619  -13.8619
  -13.4211  -13.2113  -13.0470  -10.1275  -10.1275  -10.0298   -9.4579   -9.0217   -9.0217   -8.1475
   -8.1475   -7.8246   -7.6318   -6.3431   -6.1141   -6.1141   -5.6930   -5.6930   -3.7237   -3.7237
   -3.5889   -3.1064   -3.1064   -2.9009   -2.0871   -2.0871   -1.6756   -0.5417   -0.5416    0.1705
    0.3426    0.3426    1.1251    1.8735    1.8736    2.2107    2.3750    2.6646    2.6646    3.2366
    3.2983    3.3324    3.3324    3.7088    3.7088    3.9747    3.9748    4.5488    4.8044    4.8044
    5.0445    5.0933    5.1892    5.1892    5.3245    6.3495    6.3495    6.7283    7.0440    7.0440
    7.7147    7.7147    7.7544    7.8594    8.5120    8.5120    9.5113   10.1746   10.4263   10.4263
   11.0107   11.0107   12.2816   12.2816   12.8129   12.8129   13.6160   13.6160   13.8420   13.8420
   14.1638   14.3933   14.6908   14.6978
  26  1  -30.3209  -30.3209  -28.8695  -28.8695  -26.8218  -26.8218  -26.2203  -26.2203  -26.2203  -26.2203
         -25.5490  -25.5490  -25.4581  -24.2458  -23.2951  -23.2951  -23.2951  -23.2951  -22.1466  -22.1465
  -22.1465  -22.1465  -22.1387  -21.4776  -19.9317  -19.9317  -19.9317  -19.9317  -18.4883  -18.4882
  -18.4882  -18.4882  -18.3417  -18.3417  -18.0942  -18.0942  -17.6325  -17.6325  -16.8152  -16.7036
  -16.7036  -16.6283  -16.6283  -16.6283  -16.6283  -15.8131  -15.8130  -15.7538  -15.7538  -15.1954
  -15.1954  -15.1259  -14.4498  -14.4498  -14.1274  -14.1274  -14.1274  -14.1274  -14.1000  -14.1000
  -13.6927  -13.0833  -13.0833  -10.6184   -9.3474   -9.3473   -9.0167   -9.0167   -9.0167   -9.0167
   -8.5346   -8.5346   -6.5513   -6.5513   -6.5513   -6.5513   -5.3250   -4.5156   -4.5156   -4.1655
   -3.1210   -3.1210   -3.1210   -3.1210   -2.1750   -2.1750   -0.9945   -0.9945   -0.4503   -0.4503
   -0.3537    1.8629    1.8629    2.3294    2.3294    2.3295    2.3295    2.9139    2.9140    3.0099
    3.0099    3.1515    3.1515    3.1649    3.1806    3.1806    4.2132    4.2133    5.0841    5.0841
    5.0841    5.0841    5.2643    5.2643    5.4201    5.4201    5.6585    5.6585    7.1022    7.1022
    8.4634    8.4634    8.4634    8.4634    9.5259    9.5259    9.5259    9.5260    9.8080    9.8080
   10.7129   10.7129   11.2856   11.7141   13.4050   13.4223   14.0015   14.0016   14.0016   14.0016
   14.2519   14.2519   14.2519   14.2519
  27  1  -30.5075  -29.7679  -29.7679  -27.6642  -27.6641  -26.9847  -26.3684  -26.3380  -26.3379  -25.8138
         -25.8138  -25.0202  -24.4879  -24.4879  -23.8168  -23.6993  -23.6993  -23.3570  -22.5033  -22.5032
  -21.7683  -21.2457  -21.2338  -20.8166  -20.8166  -20.2562  -20.2463  -20.2463  -18.7861  -18.7201
  -18.7201  -18.3319  -18.2414  -17.6690  -17.6690  -17.5864  -17.3842  -17.3842  -17.3810  -17.3810
  -16.9800  -16.9800  -16.7912  -16.1438  -16.1438  -15.7284  -15.7284  -15.5664  -15.5664  -15.4812
  -15.4812  -15.0412  -14.7863  -14.7863  -14.4995  -14.2383  -13.8952  -13.8952  -13.8619  -13.8619
  -13.4211  -13.2113  -13.0470  -10.1275  -10.1275  -10.0298   -9.4579   -9.0217   -9.0217   -8.1475
   -8.1475   -7.8246   -7.6318   -6.3431   -6.1141   -6.1141   -5.6930   -5.6930   -3.7237   -3.7237
   -3.5889   -3.1064   -3.1064   -2.9009   -2.0871   -2.0871   -1.6756   -0.5417   -0.5416    0.1705
    0.3426    0.3426    1.1251    1.8735    1.8736    2.2107    2.3750    2.6646    2.6646    3.2366
    3.2983    3.3324    3.3324    3.7088    3.7088    3.9747    3.9748    4.5488    4.8044    4.8044
    5.0445    5.0933    5.1892    5.1892    5.3245    6.3495    6.3495    6.7283    7.0440    7.0440
    7.7147    7.7147    7.7544    7.8594    8.5120    8.5120    9.5113   10.1746   10.4263   10.4263
   11.0107   11.0107   12.2816   12.2816   12.8129   12.8129   13.6160   13.6160   13.8420   13.8420
   14.1638   14.3933   14.6908   14.6978
  28  1  -30.3209  -30.3209  -28.8695  -28.8695  -26.8218  -26.8218  -26.2203  -26.2203  -26.2203  -26.2203
         -25.5490  -25.5490  -25.4581  -24.2458  -23.2951  -23.2951  -23.2951  -23.2951  -22.1466  -22.1465
  -22.1465  -22.1465  -22.1387  -21.4776  -19.9317  -19.9317  -19.9317  -19.9317  -18.4883  -18.4882
  -18.4882  -18.4882  -18.3417  -18.3417  -18.0942  -18.0942  -17.6325  -17.6325  -16.8152  -16.7036
  -16.7036  -16.6283  -16.6283  -16.6283  -16.6283  -15.8131  -15.8130  -15.7538  -15.7538  -15.1954
  -15.1954  -15.1259  -14.4498  -14.4498  -14.1274  -14.1274  -14.1274  -14.1274  -14.1000  -14.1000
  -13.6927  -13.0833  -13.0833  -10.6184   -9.3474   -9.3473   -9.0167   -9.0167   -9.0167   -9.0167
   -8.5346   -8.5346   -6.5513   -6.5513   -6.5513   -6.5513   -5.3250   -4.5156   -4.5156   -4.1655
   -3.1210   -3.1210   -3.1210   -3.1210   -2.1750   -2.1750   -0.9945   -0.9945   -0.4503   -0.4503
   -0.3537    1.8629    1.8629    2.3294    2.3294    2.3295    2.3295    2.9139    2.9140    3.0099
    3.0099    3.1515    3.1515    3.1649    3.1806    3.1806    4.2132    4.2133    5.0841    5.0841
    5.0841    5.0841    5.2643    5.2643    5.4201    5.4201    5.6585    5.6585    7.1022    7.1022
    8.4634    8.4634    8.4634    8.4634    9.5259    9.5259    9.5259    9.5260    9.8080    9.8080
   10.7129   10.7129   11.2856   11.7141   13.4050   13.4223   14.0015   14.0016   14.0016   14.0016
   14.2519   14.2519   14.2519   14.2519
  29  1  -29.0969  -29.0969  -28.3908  -28.3908  -28.3908  -28.3908  -26.3795  -26.3795  -26.3795  -26.3795
         -25.1381  -25.1381  -24.6175  -24.6175  -24.6175  -24.6175  -23.8729  -23.8729  -22.5345  -22.5345
  -22.3248  -22.3248  -22.3248  -22.3248  -20.3806  -20.3806  -19.3282  -19.3282  -19.3282  -19.3282
  -18.7224  -18.7224  -17.9812  -17.9812  -17.2153  -17.2153  -17.2153  -17.2153  -16.5761  -16.5761
  -16.5761  -16.5761  -16.2364  -16.2364  -16.2364  -16.2364  -14.7219  -14.7219  -14.7219  -14.7219
  -14.5553  -14.5553  -13.7010  -13.7010  -13.6587  -13.6587  -13.1714  -13.1714  -13.1714  -13.1714
  -11.3949  -11.3949  -11.3949  -11.3949  -10.2649  -10.2649  -10.0911  -10.0911  -10.0911  -10.0911
   -9.4962   -9.4962   -6.6322   -6.6322   -6.3511   -6.3511   -6.3511   -6.3511   -5.5873   -5.5873
   -4.3701   -4.3701   -4.3701   -4.3701   -2.0567   -2.0567   -2.0567   -2.0567   -0.9933   -0.9933
    2.0245    2.0245    2.2187    2.2187    2.2187    2.2187    2.8008    2.8008    2.8008    2.8008
    2.9353    2.9353    3.7786    3.7786    3.9975    3.9975    3.9975    3.9975    4.5594    4.5594
    4.5594    4.5594    5.3405    5.3405    6.1095    6.1095    7.0246    7.0246    7.0246    7.0246
    7.5388    7.5388    7.8764    7.8764    7.8764    7.8764    9.8411    9.8411   10.7217   10.7217
   10.7217   10.7217   12.5461   12.5461   12.5461   12.5461   13.7283   13.7283   13.7283   13.7283
   14.2743   14.2743   14.6918   14.6918
  30  1  -29.4561  -29.4561  -28.0441  -28.0441  -27.3641  -27.3641  -27.3641  -27.3641  -26.0627  -26.0627
         -26.0627  -26.0627  -25.4519  -25.4519  -23.7647  -23.7647  -23.7647  -23.7647  -21.7612  -21.7612
  -21.7612  -21.7612  -21.5262  -21.5262  -20.4525  -20.4525  -20.4525  -20.4525  -19.4323  -19.4323
  -19.4323  -19.4323  -18.3331  -18.3331  -18.3331  -18.3331  -17.2419  -17.2419  -16.2534  -16.2534
  -16.2533  -16.2533  -15.8874  -15.8874  -15.6214  -15.6214  -15.6213  -15.6213  -14.6949  -14.6949
  -14.1613  -14.1613  -13.2638  -13.2638  -12.9816  -12.9816  -12.8969  -12.8969  -12.2953  -12.2953
  -12.2953  -12.2953  -11.1634  -11.1634  -11.1634  -11.1634  -10.7061  -10.7061   -9.1189   -9.1189
   -9.1189   -9.1189   -6.8099   -6.8099   -6.8099   -6.8099   -5.8584   -5.8584   -5.0478   -5.0478
   -5.0478   -5.0478   -3.4848   -3.4848   -3.4848   -3.4848   -2.8123   -2.8123   -0.3652   -0.3652
    1.3985    1.3985    1.5790    1.5790    1.7500    1.7500    2.4486    2.4486    2.4486    2.4486
    2.4888    2.4888    2.7669    2.7669    2.7669    2.7669    5.4977    5.4977    5.7603    5.7603
    5.7603    5.7603    6.2260    6.2260    6.9016    6.9016    6.9016    6.9016    8.3822    8.3822
    8.5014    8.5014    8.5014    8.5014    9.2515    9.2515    9.2515    9.2515   10.2897   10.2897
   10.2898   10.2898   10.7969   10.7969   12.4454   12.4454   12.4454   12.4454   12.6550   12.6550
   15.1962   15.1962   15.1962   15.1962
  31  1  -29.4561  -29.4561  -28.0441  -28.0441  -27.3641  -27.3641  -27.3641  -27.3641  -26.0627  -26.0627
         -26.0627  -26.0627  -25.4519  -25.4519  -23.7647  -23.7647  -23.7647  -23.7647  -21.7612  -21.7612
  -21.7612  -21.7612  -21.5262  -21.5262  -20.4525  -20.4525  -20.4525  -20.4525  -19.4323  -19.4323
  -19.4323  -19.4323  -18.3331  -18.3331  -18.3331  -18.3331  -17.2419  -17.2419  -16.2534  -16.2534
  -16.2533  -16.2533  -15.8874  -15.8874  -15.6214  -15.6214  -15.6213  -15.6213  -14.6949  -14.6949
  -14.1613  -14.1613  -13.2638  -13.2638  -12.9816  -12.9816  -12.8969  -12.8969  -12.2953  -12.2953
  -12.2953  -12.2953  -11.1634  -11.1634  -11.1634  -11.1634  -10.7061  -10.7061   -9.1189   -9.1189
   -9.1189   -9.1189   -6.8099   -6.8099   -6.8099   -6.8099   -5.8584   -5.8584   -5.0478   -5.0478
   -5.0478   -5.0478   -3.4848   -3.4848   -3.4848   -3.4848   -2.8123   -2.8123   -0.3652   -0.3652
    1.3985    1.3985    1.5790    1.5790    1.7500    1.7500    2.4486    2.4486    2.4486    2.4486
    2.4888    2.4888    2.7669    2.7669    2.7669    2.7669    5.4977    5.4977    5.7603    5.7603
    5.7603    5.7603    6.2260    6.2260    6.9016    6.9016    6.9016    6.9016    8.3822    8.3822
    8.5014    8.5014    8.5014    8.5014    9.2515    9.2515    9.2515    9.2515   10.2897   10.2897
   10.2898   10.2898   10.7969   10.7969   12.4454   12.4454   12.4454   12.4454   12.6550   12.6550
   15.1962   15.1962   15.1962   15.1962
  32  1  -29.0969  -29.0969  -28.3908  -28.3908  -28.3908  -28.3908  -26.3795  -26.3795  -26.3795  -26.3795
         -25.1381  -25.1381  -24.6175  -24.6175  -24.6175  -24.6175  -23.8729  -23.8729  -22.5345  -22.5345
  -22.3248  -22.3248  -22.3248  -22.3248  -20.3806  -20.3806  -19.3282  -19.3282  -19.3282  -19.3282
  -18.7224  -18.7224  -17.9812  -17.9812  -17.2153  -17.2153  -17.2153  -17.2153  -16.5761  -16.5761
  -16.5761  -16.5761  -16.2364  -16.2364  -16.2364  -16.2364  -14.7219  -14.7219  -14.7219  -14.7219
  -14.5553  -14.5553  -13.7010  -13.7010  -13.6587  -13.6587  -13.1714  -13.1714  -13.1714  -13.1714
  -11.3949  -11.3949  -11.3949  -11.3949  -10.2649  -10.2649  -10.0911  -10.0911  -10.0911  -10.0911
   -9.4962   -9.4962   -6.6322   -6.6322   -6.3511   -6.3511   -6.3511   -6.3511   -5.5873   -5.5873
   -4.3701   -4.3701   -4.3701   -4.3701   -2.0567   -2.0567   -2.0567   -2.0567   -0.9933   -0.9933
    2.0245    2.0245    2.2187    2.2187    2.2187    2.2187    2.8008    2.8008    2.8008    2.8008
    2.9353    2.9353    3.7786    3.7786    3.9975    3.9975    3.9975    3.9975    4.5594    4.5594
    4.5594    4.5594    5.3405    5.3405    6.1095    6.1095    7.0246    7.0246    7.0246    7.0246
    7.5388    7.5388    7.8764    7.8764    7.8764    7.8764    9.8411    9.8411   10.7217   10.7217
   10.7217   10.7217   12.5461   12.5461   12.5461   12.5461   13.7283   13.7283   13.7283   13.7283
   14.2743   14.2743   14.6918   14.6918
  33  1  -29.4561  -29.4561  -28.0441  -28.0441  -27.3641  -27.3641  -27.3641  -27.3641  -26.0627  -26.0627
         -26.0627  -26.0627  -25.4519  -25.4519  -23.7647  -23.7647  -23.7647  -23.7647  -21.7612  -21.7612
  -21.7612  -21.7612  -21.5262  -21.5262  -20.4525  -20.4525  -20.4525  -20.4525  -19.4323  -19.4323
  -19.4323  -19.4323  -18.3331  -18.3331  -18.3331  -18.3331  -17.2419  -17.2419  -16.2534  -16.2534
  -16.2533  -16.2533  -15.8874  -15.8874  -15.6214  -15.6214  -15.6213  -15.6213  -14.6949  -14.6949
  -14.1613  -14.1613  -13.2638  -13.2638  -12.9816  -12.9816  -12.8969  -12.8969  -12.2953  -12.2953
  -12.2953  -12.2953  -11.1634  -11.1634  -11.1634  -11.1634  -10.7061  -10.7061   -9.1189   -9.1189
   -9.1189   -9.1189   -6.8099   -6.8099   -6.8099   -6.8099   -5.8584   -5.8584   -5.0478   -5.0478
   -5.0478   -5.0478   -3.4848   -3.4848   -3.4848   -3.4848   -2.8123   -2.8123   -0.3652   -0.3652
    1.3985    1.3985    1.5790    1.5790    1.7500    1.7500    2.4486    2.4486    2.4486    2.4486
    2.4888    2.4888    2.7669    2.7669    2.7669    2.7669    5.4977    5.4977    5.7603    5.7603
    5.7603    5.7603    6.2260    6.2260    6.9016    6.9016    6.9016    6.9016    8.3822    8.3822
    8.5014    8.5014    8.5014    8.5014    9.2515    9.2515    9.2515    9.2515   10.2897   10.2897
   10.2898   10.2898   10.7969   10.7969   12.4454   12.4454   12.4454   12.4454   12.6550   12.6550
   15.1962   15.1962   15.1962   15.1962
  34  1  -29.6371  -29.6371  -26.8664  -26.8664  -26.8664  -26.8664  -26.8664  -26.8664  -26.8664  -26.8664
         -26.8664  -26.8664  -26.8664  -26.8664  -22.8539  -22.8539  -22.8539  -22.8539  -22.1560  -22.1560
  -22.1560  -22.1560  -20.2912  -20.2912  -20.2912  -20.2912  -19.4574  -19.4574  -19.4574  -19.4574
  -19.4574  -19.4574  -19.4574  -19.4574  -19.4574  -19.4574  -19.4574  -19.4574  -15.4248  -15.4248
  -15.4248  -15.4248  -15.4247  -15.4247  -15.4247  -15.4247  -15.4247  -15.4247  -15.4247  -15.4247
  -14.2450  -14.2450  -12.6276  -12.6276  -12.6276  -12.6276  -11.8790  -11.8790  -11.8790  -11.8790
  -11.8790  -11.8790  -11.8790  -11.8790  -11.8790  -11.8790  -11.8790  -11.8790   -8.1132   -8.1132
   -8.1132   -8.1132   -7.7862   -7.7862   -7.7862   -7.7862   -4.3502   -4.3502   -4.3502   -4.3502
   -4.3501   -4.3501   -4.3501   -4.3501   -4.3501   -4.3501   -4.3501   -4.3501    0.5069    0.5069
    0.5872    0.5872    0.5872    0.5872    2.1196    2.1196    2.1196    2.1196    2.1196    2.1196
    2.1196    2.1196    2.1196    2.1196    2.1196    2.1196    5.2917    5.2917    7.1050    7.1050
    7.1050    7.1050    7.7916    7.7916    7.7917    7.7917    8.8754    8.8754    8.8754    8.8754
    8.8754    8.8754    8.8754    8.8754    8.8754    8.8754    8.8754    8.8754   10.7283   10.7283
   10.7283   10.7283   10.7284   10.7284   10.7284   10.7284   10.7284   10.7284   10.7284   10.7284
   15.5613   15.5613   15.5613   15.5613
  35  1  -29.4561  -29.4561  -28.0441  -28.0441  -27.3641  -27.3641  -27.3641  -27.3641  -26.0627  -26.0627
         -26.0627  -26.0627  -25.4519  -25.4519  -23.7647  -23.7647  -23.7647  -23.7647  -21.7612  -21.7612
  -21.7612  -21.7612  -21.5262  -21.5262  -20.4525  -20.4525  -20.4525  -20.4525  -19.4323  -19.4323
  -19.4323  -19.4323  -18.3331  -18.3331  -18.3331  -18.3331  -17.2419  -17.2419  -16.2534  -16.2534
  -16.2533  -16.2533  -15.8874  -15.8874  -15.6214  -15.6214  -15.6213  -15.6213  -14.6949  -14.6949
  -14.1613  -14.1613  -13.2638  -13.2638  -12.9816  -12.9816  -12.8969  -12.8969  -12.2953  -12.2953
  -12.2953  -12.2953  -11.1634  -11.1634  -11.1634  -11.1634  -10.7061  -10.7061   -9.1189   -9.1189
   -9.1189   -9.1189   -6.8099   -6.8099   -6.8099   -6.8099   -5.8584   -5.8584   -5.0478   -5.0478
   -5.0478   -5.0478   -3.4848   -3.4848   -3.4848   -3.4848   -2.8123   -2.8123   -0.3652   -0.3652
    1.3985    1.3985    1.5790    1.5790    1.7500    1.7500    2.4486    2.4486    2.4486    2.4486
    2.4888    2.4888    2.7669    2.7669    2.7669    2.7669    5.4977    5.4977    5.7603    5.7603
    5.7603    5.7603    6.2260    6.2260    6.9016    6.9016    6.9016    6.9016    8.3822    8.3822
    8.5014    8.5014    8.5014    8.5014    9.2515    9.2515    9.2515    9.2515   10.2897   10.2897
   10.2898   10.2898   10.7969   10.7969   12.4454   12.4454   12.4454   12.4454   12.6550   12.6550
   15.1962   15.1962   15.1962   15.1962
  36  1  -28.9189  -28.9189  -28.9188  -28.9188  -27.5325  -27.5325  -27.5325  -27.5325  -24.9976  -24.9976
         -24.9976  -24.9976  -24.9976  -24.9976  -24.9976  -24.9976  -24.3029  -24.3029  -22.8954  -22.8954
  -21.2206  -21.2206  -21.2206  -21.2206  -21.2206  -21.2206  -21.2206  -21.2206  -17.7965  -17.7965
  -17.7965  -17.7965  -17.7965  -17.7965  -17.7965  -17.7965  -17.5858  -17.5858  -17.5858  -17.5858
  -16.1326  -16.1326  -16.1326  -16.1326  -16.0447  -16.0447  -15.1240  -15.1240  -15.1240  -15.1240
  -13.8015  -13.8015  -13.8014  -13.8014  -13.5901  -13.5901  -13.5901  -13.5901  -12.4276  -12.4276
  -12.4276  -12.4276  -10.2127  -10.2127  -10.2127  -10.2127  -10.2126  -10.2126  -10.2126  -10.2126
  -10.0164  -10.0164   -6.6637   -6.6637   -5.8189   -5.8189   -5.8189   -5.8189   -5.8189   -5.8189
   -5.8189   -5.8189   -3.0035   -3.0035   -3.0035   -3.0035   -1.4557   -1.4557   -1.4557   -1.4557
    1.6036    1.6036    2.4250    2.4250    2.4250    2.4250    3.5013    3.5013    3.5013    3.5013
    3.7732    3.7732    3.7732    3.7732    3.8522    3.8522    3.8522    3.8522    3.8522    3.8522
    3.8522    3.8522    5.1942    5.1942    5.1942    5.1942    6.4307    6.4307    6.4307    6.4307
    9.0122    9.0122    9.0122    9.0122    9.0122    9.0122    9.0123    9.0123   10.2736   10.2736
   10.2736   10.2736   11.4990   11.4990   13.4115   13.4115   14.1244   14.1244   14.1244   14.1244
   14.1244   14.1244   14.1244   14.1244
  37  1  -29.4561  -29.4561  -28.0441  -28.0441  -27.3641  -27.3641  -27.3641  -27.3641  -26.0627  -26.0627
         -26.0627  -26.0627  -25.4519  -25.4519  -23.7647  -23.7647  -23.7647  -23.7647  -21.7612  -21.7612
  -21.7612  -21.7612  -21.5262  -21.5262  -20.4525  -20.4525  -20.4525  -20.4525  -19.4323  -19.4323
  -19.4323  -19.4323  -18.3331  -18.3331  -18.3331  -18.3331  -17.2419  -17.2419  -16.2534  -16.2534
  -16.2533  -16.2533  -15.8874  -15.8874  -15.6214  -15.6214  -15.6213  -15.6213  -14.6949  -14.6949
  -14.1613  -14.1613  -13.2638  -13.2638  -12.9816  -12.9816  -12.8969  -12.8969  -12.2953  -12.2953
  -12.2953  -12.2953  -11.1634  -11.1634  -11.1634  -11.1634  -10.7061  -10.7061   -9.1189   -9.1189
   -9.1189   -9.1189   -6.8099   -6.8099   -6.8099   -6.8099   -5.8584   -5.8584   -5.0478   -5.0478
   -5.0478   -5.0478   -3.4848   -3.4848   -3.4848   -3.4848   -2.8123   -2.8123   -0.3652   -0.3652
    1.3985    1.3985    1.5790    1.5790    1.7500    1.7500    2.4486    2.4486    2.4486    2.4486
    2.4888    2.4888    2.7669    2.7669    2.7669    2.7669    5.4977    5.4977    5.7603    5.7603
    5.7603    5.7603    6.2260    6.2260    6.9016    6.9016    6.9016    6.9016    8.3822    8.3822
    8.5014    8.5014    8.5014    8.5014    9.2515    9.2515    9.2515    9.2515   10.2897   10.2897
   10.2898   10.2898   10.7969   10.7969   12.4454   12.4454   12.4454   12.4454   12.6550   12.6550
   15.1962   15.1962   15.1962   15.1962
  38  1  -29.4561  -29.4561  -28.0441  -28.0441  -27.3641  -27.3641  -27.3641  -27.3641  -26.0627  -26.0627
         -26.0627  -26.0627  -25.4519  -25.4519  -23.7647  -23.7647  -23.7647  -23.7647  -21.7612  -21.7612
  -21.7612  -21.7612  -21.5262  -21.5262  -20.4525  -20.4525  -20.4525  -20.4525  -19.4323  -19.4323
  -19.4323  -19.4323  -18.3331  -18.3331  -18.3331  -18.3331  -17.2419  -17.2419  -16.2534  -16.2534
  -16.2533  -16.2533  -15.8874  -15.8874  -15.6214  -15.6214  -15.6213  -15.6213  -14.6949  -14.6949
  -14.1613  -14.1613  -13.2638  -13.2638  -12.9816  -12.9816  -12.8969  -12.8969  -12.2953  -12.2953
  -12.2953  -12.2953  -11.1634  -11.1634  -11.1634  -11.1634  -10.7061  -10.7061   -9.1189   -9.1189
   -9.1189   -9.1189   -6.8099   -6.8099   -6.8099   -6.8099   -5.8584   -5.8584   -5.0478   -5.0478
   -5.0478   -5.0478   -3.4848   -3.4848   -3.4848   -3.4848   -2.8123   -2.8123   -0.3652   -0.3652
    1.3985    1.3985    1.5790    1.5790    1.7500    1.7500    2.4486    2.4486    2.4486    2.4486
    2.4888    2.4888    2.7669    2.7669    2.7669    2.7669    5.4977    5.4977    5.7603    5.7603
    5.7603    5.7603    6.2260    6.2260    6.9016    6.9016    6.9016    6.9016    8.3822    8.3822
    8.5014    8.5014    8.5014    8.5014    9.2515    9.2515    9.2515    9.2515   10.2897   10.2897
   10.2898   10.2898   10.7969   10.7969   12.4454   12.4454   12.4454   12.4454   12.6550   12.6550
   15.1962   15.1962   15.1962   15.1962
  39  1  -29.0969  -29.0969  -28.3908  -28.3908  -28.3908  -28.3908  -26.3795  -26.3795  -26.3795  -26.3795
         -25.1381  -25.1381  -24.6175  -24.6175  -24.6175  -24.6175  -23.8729  -23.8729  -22.5345  -22.5345
  -22.3248  -22.3248  -22.3248  -22.3248  -20.3806  -20.3806  -19.3282  -19.3282  -19.3282  -19.3282
  -18.7224  -18.7224  -17.9812  -17.9812  -17.2153  -17.2153  -17.2153  -17.2153  -16.5761  -16.5761
  -16.5761  -16.5761  -16.2364  -16.2364  -16.2364  -16.2364  -14.7219  -14.7219  -14.7219  -14.7219
  -14.5553  -14.5553  -13.7010  -13.7010  -13.6587  -13.6587  -13.1714  -13.1714  -13.1714  -13.1714
  -11.3949  -11.3949  -11.3949  -11.3949  -10.2649  -10.2649  -10.0911  -10.0911  -10.0911  -10.0911
   -9.4962   -9.4962   -6.6322   -6.6322   -6.3511   -6.3511   -6.3511   -6.3511   -5.5873   -5.5873
   -4.3701   -4.3701   -4.3701   -4.3701   -2.0567   -2.0567   -2.0567   -2.0567   -0.9933   -0.9933
    2.0245    2.0245    2.2187    2.2187    2.2187    2.2187    2.8008    2.8008    2.8008    2.8008
    2.9353    2.9353    3.7786    3.7786    3.9975    3.9975    3.9975    3.9975    4.5594    4.5594
    4.5594    4.5594    5.3405    5.3405    6.1095    6.1095    7.0246    7.0246    7.0246    7.0246
    7.5388    7.5388    7.8764    7.8764    7.8764    7.8764    9.8411    9.8411   10.7217   10.7217
   10.7217   10.7217   12.5461   12.5461   12.5461   12.5461   13.7283   13.7283   13.7283   13.7283
   14.2743   14.2743   14.6918   14.6918
  40  1  -29.0969  -29.0969  -28.3908  -28.3908  -28.3908  -28.3908  -26.3795  -26.3795  -26.3795  -26.3795
         -25.1381  -25.1381  -24.6175  -24.6175  -24.6175  -24.6175  -23.8729  -23.8729  -22.5345  -22.5345
  -22.3248  -22.3248  -22.3248  -22.3248  -20.3806  -20.3806  -19.3282  -19.3282  -19.3282  -19.3282
  -18.7224  -18.7224  -17.9812  -17.9812  -17.2153  -17.2153  -17.2153  -17.2153  -16.5761  -16.5761
  -16.5761  -16.5761  -16.2364  -16.2364  -16.2364  -16.2364  -14.7219  -14.7219  -14.7219  -14.7219
  -14.5553  -14.5553  -13.7010  -13.7010  -13.6587  -13.6587  -13.1714  -13.1714  -13.1714  -13.1714
  -11.3949  -11.3949  -11.3949  -11.3949  -10.2649  -10.2649  -10.0911  -10.0911  -10.0911  -10.0911
   -9.4962   -9.4962   -6.6322   -6.6322   -6.3511   -6.3511   -6.3511   -6.3511   -5.5873   -5.5873
   -4.3701   -4.3701   -4.3701   -4.3701   -2.0567   -2.0567   -2.0567   -2.0567   -0.9933   -0.9933
    2.0245    2.0245    2.2187    2.2187    2.2187    2.2187    2.8008    2.8008    2.8008    2.8008
    2.9353    2.9353    3.7786    3.7786    3.9975    3.9975    3.9975    3.9975    4.5594    4.5594
    4.5594    4.5594    5.3405    5.3405    6.1095    6.1095    7.0246    7.0246    7.0246    7.0246
    7.5388    7.5388    7.8764    7.8764    7.8764    7.8764    9.8411    9.8411   10.7217   10.7217
   10.7217   10.7217   12.5461   12.5461   12.5461   12.5461   13.7283   13.7283   13.7283   13.7283
   14.2743   14.2743   14.6918   14.6918
  41  1  -29.0969  -29.0969  -28.3908  -28.3908  -28.3908  -28.3908  -26.3795  -26.3795  -26.3795  -26.3795
         -25.1381  -25.1381  -24.6175  -24.6175  -24.6175  -24.6175  -23.8729  -23.8729  -22.5345  -22.5345
  -22.3248  -22.3248  -22.3248  -22.3248  -20.3806  -20.3806  -19.3282  -19.3282  -19.3282  -19.3282
  -18.7224  -18.7224  -17.9812  -17.9812  -17.2153  -17.2153  -17.2153  -17.2153  -16.5761  -16.5761
  -16.5761  -16.5761  -16.2364  -16.2364  -16.2364  -16.2364  -14.7219  -14.7219  -14.7219  -14.7219
  -14.5553  -14.5553  -13.7010  -13.7010  -13.6587  -13.6587  -13.1714  -13.1714  -13.1714  -13.1714
  -11.3949  -11.3949  -11.3949  -11.3949  -10.2649  -10.2649  -10.0911  -10.0911  -10.0911  -10.0911
   -9.4962   -9.4962   -6.6322   -6.6322   -6.3511   -6.3511   -6.3511   -6.3511   -5.5873   -5.5873
   -4.3701   -4.3701   -4.3701   -4.3701   -2.0567   -2.0567   -2.0567   -2.0567   -0.9933   -0.9933
    2.0245    2.0245    2.2187    2.2187    2.2187    2.2187    2.8008    2.8008    2.8008    2.8008
    2.9353    2.9353    3.7786    3.7786    3.9975    3.9975    3.9975    3.9975    4.5594    4.5594
    4.5594    4.5594    5.3405    5.3405    6.1095    6.1095    7.0246    7.0246    7.0246    7.0246
    7.5388    7.5388    7.8764    7.8764    7.8764    7.8764    9.8411    9.8411   10.7217   10.7217
   10.7217   10.7217   12.5461   12.5461   12.5461   12.5461   13.7283   13.7283   13.7283   13.7283
   14.2743   14.2743   14.6918   14.6918
  42  1  -28.9189  -28.9189  -28.9188  -28.9188  -27.5325  -27.5325  -27.5325  -27.5325  -24.9976  -24.9976
         -24.9976  -24.9976  -24.9976  -24.9976  -24.9976  -24.9976  -24.3029  -24.3029  -22.8954  -22.8954
  -21.2206  -21.2206  -21.2206  -21.2206  -21.2206  -21.2206  -21.2206  -21.2206  -17.7965  -17.7965
  -17.7965  -17.7965  -17.7965  -17.7965  -17.7965  -17.7965  -17.5858  -17.5858  -17.5858  -17.5858
  -16.1326  -16.1326  -16.1326  -16.1326  -16.0447  -16.0447  -15.1240  -15.1240  -15.1240  -15.1240
  -13.8015  -13.8015  -13.8014  -13.8014  -13.5901  -13.5901  -13.5901  -13.5901  -12.4276  -12.4276
  -12.4276  -12.4276  -10.2127  -10.2127  -10.2127  -10.2127  -10.2126  -10.2126  -10.2126  -10.2126
  -10.0164  -10.0164   -6.6637   -6.6637   -5.8189   -5.8189   -5.8189   -5.8189   -5.8189   -5.8189
   -5.8189   -5.8189   -3.0035   -3.0035   -3.0035   -3.0035   -1.4557   -1.4557   -1.4557   -1.4557
    1.6036    1.6036    2.4250    2.4250    2.4250    2.4250    3.5013    3.5013    3.5013    3.5013
    3.7732    3.7732    3.7732    3.7732    3.8522    3.8522    3.8522    3.8522    3.8522    3.8522
    3.8522    3.8522    5.1942    5.1942    5.1942    5.1942    6.4307    6.4307    6.4307    6.4307
    9.0122    9.0122    9.0122    9.0122    9.0122    9.0122    9.0123    9.0123   10.2736   10.2736
   10.2736   10.2736   11.4990   11.4990   13.4115   13.4115   14.1244   14.1244   14.1244   14.1244
   14.1244   14.1244   14.1244   14.1244
  43  1  -29.0969  -29.0969  -28.3908  -28.3908  -28.3908  -28.3908  -26.3795  -26.3795  -26.3795  -26.3795
         -25.1381  -25.1381  -24.6175  -24.6175  -24.6175  -24.6175  -23.8729  -23.8729  -22.5345  -22.5345
  -22.3248  -22.3248  -22.3248  -22.3248  -20.3806  -20.3806  -19.3282  -19.3282  -19.3282  -19.3282
  -18.7224  -18.7224  -17.9812  -17.9812  -17.2153  -17.2153  -17.2153  -17.2153  -16.5761  -16.5761
  -16.5761  -16.5761  -16.2364  -16.2364  -16.2364  -16.2364  -14.7219  -14.7219  -14.7219  -14.7219
  -14.5553  -14.5553  -13.7010  -13.7010  -13.6587  -13.6587  -13.1714  -13.1714  -13.1714  -13.1714
  -11.3949  -11.3949  -11.3949  -11.3949  -10.2649  -10.2649  -10.0911  -10.0911  -10.0911  -10.0911
   -9.4962   -9.4962   -6.6322   -6.6322   -6.3511   -6.3511   -6.3511   -6.3511   -5.5873   -5.5873
   -4.3701   -4.3701   -4.3701   -4.3701   -2.0567   -2.0567   -2.0567   -2.0567   -0.9933   -0.9933
    2.0245    2.0245    2.2187    2.2187    2.2187    2.2187    2.8008    2.8008    2.8008    2.8008
    2.9353    2.9353    3.7786    3.7786    3.9975    3.9975    3.9975    3.9975    4.5594    4.5594
    4.5594    4.5594    5.3405    5.3405    6.1095    6.1095    7.0246    7.0246    7.0246    7.0246
    7.5388    7.5388    7.8764    7.8764    7.8764    7.8764    9.8411    9.8411   10.7217   10.7217
   10.7217   10.7217   12.5461   12.5461   12.5461   12.5461   13.7283   13.7283   13.7283   13.7283
   14.2743   14.2743   14.6918   14.6918
  44  1  -28.9189  -28.9189  -28.9188  -28.9188  -27.5325  -27.5325  -27.5325  -27.5325  -24.9976  -24.9976
         -24.9976  -24.9976  -24.9976  -24.9976  -24.9976  -24.9976  -24.3029  -24.3029  -22.8954  -22.8954
  -21.2206  -21.2206  -21.2206  -21.2206  -21.2206  -21.2206  -21.2206  -21.2206  -17.7965  -17.7965
  -17.7965  -17.7965  -17.7965  -17.7965  -17.7965  -17.7965  -17.5858  -17.5858  -17.5858  -17.5858
  -16.1326  -16.1326  -16.1326  -16.1326  -16.0447  -16.0447  -15.1240  -15.1240  -15.1240  -15.1240
  -13.8015  -13.8015  -13.8014  -13.8014  -13.5901  -13.5901  -13.5901  -13.5901  -12.4276  -12.4276
  -12.4276  -12.4276  -10.2127  -10.2127  -10.2127  -10.2127  -10.2126  -10.2126  -10.2126  -10.2126
  -10.0164  -10.0164   -6.6637   -6.6637   -5.8189   -5.8189   -5.8189   -5.8189   -5.8189   -5.8189
   -5.8189   -5.8189   -3.0035   -3.0035   -3.0035   -3.0035   -1.4557   -1.4557   -1.4557   -1.4557
    1.6036    1.6036    2.4250    2.4250    2.4250    2.4250    3.5013    3.5013    3.5013    3.5013
    3.7732    3.7732    3.7732    3.7732    3.8522    3.8522    3.8522    3.8522    3.8522    3.8522
    3.8522    3.8522    5.1942    5.1942    5.1942    5.1942    6.4307    6.4307    6.4307    6.4307
    9.0122    9.0122    9.0122    9.0122    9.0122    9.0122    9.0123    9.0123   10.2736   10.2736
   10.2736   10.2736   11.4990   11.4990   13.4115   13.4115   14.1244   14.1244   14.1244   14.1244
   14.1244   14.1244   14.1244   14.1244
siesta: Fermi energy =      -7.584158 eV

siesta: Program's energy decomposition (eV):
siesta: Ebs     =     -2650.129727
siesta: Eions   =      9434.507561
siesta: Ena     =      2178.360882
siesta: Ekin    =      4051.954601
siesta: Enl     =      -397.607455
siesta: Eso     =         0.000000
siesta: Edftu   =         0.000000
siesta: DEna    =      -164.307175
siesta: DUscf   =         8.754361
siesta: DUext   =         0.000000
siesta: Exc     =     -1737.115676
siesta: eta*DQ  =         0.000000
siesta: Emadel  =         0.000000
siesta: Emeta   =         0.000000
siesta: Emolmec =        -7.736587
siesta: Ekinion =         0.000000
siesta: Eharris =     -5502.204608
siesta: Etot    =     -5502.204611
siesta: FreeEng =     -5502.226417

siesta: Final energy (eV):
siesta:  Band Struct. =   -2650.129727
siesta:       Kinetic =    4051.954601
siesta:       Hartree =     355.901888
siesta:       Edftu   =       0.000000
siesta:       Eso     =       0.000000
siesta:    Ext. field =       0.000000
siesta:   Exch.-corr. =   -1737.115676
siesta:  Ion-electron =   -5142.678001
siesta:       Ion-ion =   -3022.530835
siesta:       Ekinion =       0.000000
siesta:         Total =   -5502.204611
siesta:         Fermi =      -7.584158

siesta: Stress tensor (static) (eV/Ang**3):
siesta:    -0.254937    0.000000    0.000000
siesta:     0.000000   -0.254937    0.000000
siesta:    -0.000000   -0.000000   -1.128885

siesta: Cell volume =        187.367300 Ang**3

siesta: Pressure (static):
siesta:                Solid            Molecule  Units
siesta:           0.00594939          0.00594941  Ry/Bohr**3
siesta:           0.54625281          0.54625452  eV/Ang**3
siesta:         875.20294994        875.20569139  kBar
(Free)E+ p_basis*V_orbitals  =       -5483.923371
(Free)Eharris+ p_basis*V_orbitals  =       -5483.923368

cite: Please see "graphite_scf.bib" for an exhaustive BiBTeX file.
cite: Please clearly indicate Siesta version in published work: 4.1.5
cite: This calculation has made use of the following articles
cite: which are encouraged to be cited in a published work.
        Primary SIESTA paper
          DOI: www.doi.org/10.1088/0953-8984/14/11/302

>> End of run:   1-NOV-2022  14:26:18
Job completed
