Siesta Version  : 4.1.5
Architecture    : x86_64-unknown-linux-gnu--unknown
Compiler version: GNU Fortran (GCC) 11.3.0
Compiler flags  : mpif90 -g -O2 -fallow-argument-mismatch
PP flags        : -DMPI -DFC_HAVE_FLUSH -DFC_HAVE_ABORT
Libraries       :  -I/global/software/sl-7.x86_64/modules/intel/2020.4.304/mkl/include  /globall/software/sl-7.x86_64/modules/intel/2020.4.304/mkl/lib/intel64/libmkl_scalapack_lp64.a -Wl,--start-group /global/software/sl-7.x86_64/modules/intel/2020.4.304/mkl/lib/intel64/libmkl_intel_lp64.a /global/software/sl-7.x86_64/modules/intel/2020.4.304/mkl/lib/intel64/libmkl_sequential.a /global/software/sl-7.x86_64/modules/intel/2020.4.304/mkl/lib/intel64/libmkl_core.a /global/software/sl-7.x86_64/modules/intel/2020.4.304/mkl/lib/intel64/libmkl_blacs_openmpi_lp64.a -Wl,--end-group -lpthread -lm -ldl
PARALLEL version

* Running on 20 nodes in parallel
>> Start of run:   1-NOV-2022  14:24:43

                           ***********************       
                           *  WELCOME TO SIESTA  *       
                           ***********************       

reinit: Reading from standard input
reinit: Dumped input in INPUT_TMP.68816
************************** Dump of input data file ****************************
SystemName graphite_scf
SystemLabel graphite_scf
NumberOfAtoms   36
NumberOfSpecies 1
%block ChemicalSpeciesLabel
1  6   C-gga
%endblock ChemicalSpeciesLabel
PAO.BasisSize  SZ
PAO.EnergyShift  10 meV
%block PS.Lmax
C-gga   2
%endblock PS.Lmax
LatticeConstant 1.000000 Ang
%block LatticeVectors
	7.3920000000	0.0000000000	0.0000000000
	-3.6960000000	6.4016597848	0.0000000000
	0.0000000000	0.0000000000	4.2950400000
%endblock LatticeVectors
AtomicCoordinatesFormat Ang
%block AtomicCoordinatesAndAtomicSpecies
	0.00000000	0.00000000	1.07376000	1
	0.00000000	0.00000000	3.22128000	1
	-1.23200000	2.13388659	1.07376000	1
	-2.46400000	4.26777319	3.22128000	1
	2.46400000	4.26777319	1.07376000	1
	1.23200000	2.13388659	3.22128000	1
	2.46400000	0.00000000	1.07376000	1
	4.92800000	0.00000000	3.22128000	1
	2.46400000	0.00000000	3.22128000	1
	4.92800000	0.00000000	1.07376000	1
	2.46400000	4.26777319	3.22128000	1
	1.23200000	2.13388659	1.07376000	1
	-1.23200000	2.13388659	3.22128000	1
	-2.46400000	4.26777319	1.07376000	1
	0.00000000	4.26777319	1.07376000	1
	3.69600000	2.13388659	3.22128000	1
	3.69600000	2.13388659	1.07376000	1
	0.00000000	4.26777319	3.22128000	1
	0.00000000	1.42258964	1.07376000	1
	3.69600000	4.97907014	3.22128000	1
	2.46400123	5.69036496	1.07376000	1
	1.23199877	0.71129482	3.22128000	1
	-2.46400123	5.69036496	1.07376000	1
	6.16000123	0.71129482	3.22128000	1
	-1.23200000	3.55647624	1.07376000	1
	4.92800000	2.84518355	3.22128000	1
	1.23200123	3.55647837	1.07376000	1
	2.46399877	2.84518142	3.22128000	1
	-0.00000123	5.69036496	1.07376000	1
	3.69600123	0.71129482	3.22128000	1
	2.46400000	1.42258964	1.07376000	1
	1.23200000	4.97907014	3.22128000	1
	4.92800123	1.42259177	1.07376000	1
	-1.23200123	4.97906801	3.22128000	1
	3.69599877	3.55647837	1.07376000	1
	0.00000123	2.84518142	3.22128000	1
%endblock AtomicCoordinatesAndAtomicSpecies
Kgrid_NoTRS  T
%block kgrid_MonkhorstPack
4       0       0       0.0
0       4       0       0.0
0       0       4       0.0
%endblock kgrid_MonkhorstPack
AtomCoorFormatOut Ang
BlockSize 1
#ProcessorY 12
Diag.ParallelOverK   T
Diag.DivideAndConquer F
MeshCutoff   300 Ry
SCF.FreeE.Tolerance 1E-3 eV
SCF.EDM.Tolerance   5E-3 eV
DM.Tolerance  1E-3
DM.Require.Energy.Convergence T
DM.NumberPulay 4
#XC.Functional GGA
#CX.Authors    PBE
UseSaveData        F
SolutionMethod     diagon
MD.TypeOfRun       CG
MD.VariableCell    F
MD.NumCGsteps      00
MD.MaxCGDispl      0.200000 Bohr
#MD.MaxStressTol    1.000000 GPa
#MD.MaxForceTol     0.010000 eV/Ang
WriteMDHistory T
WriteCoorStep T
WriteForces T
WriteCoorStep    T
WriteEigenValues T
WriteDM    F
MM.UnitsDistance Ang  # what this program prints out DO NOT CHANGE
MM.UnitsEnergy    eV  # what this program prints out DO NOT CHANGE
MM.Grimme.S6     0.75 # Grimme-paper for PBE (correct for your functional)
MM.Grimme.D     20.   # Grimme-paper (correct for your functional)
%block MM.Potentials
  1   1 Grimme     18.14      2.904 # C, 10.1002/jcc.20495
%endblock MM.Potentials
#%block ProjectedDensityOfStates
# -200.0  120.0  0.4  12800  eV
#%endblock ProjectedDensityOfStates
************************** End of input data file *****************************

reinit: -----------------------------------------------------------------------
reinit: System Name: graphite_scf
reinit: -----------------------------------------------------------------------
reinit: System Label: graphite_scf
reinit: -----------------------------------------------------------------------
Reading two-body potentials
Grimme - two-body potential between 1 and 1

initatom: Reading input for the pseudopotentials and atomic orbitals ----------
Species number:   1 Atomic number:    6 Label: C-gga

Ground state valence configuration:   2s02  2p02
Reading pseudopotential information in formatted form from C-gga.psf

Valence configuration for pseudopotential generation:
2s( 2.00) rc: 1.56
2p( 2.00) rc: 1.56
3d( 0.00) rc: 1.56
4f( 0.00) rc: 1.56
relmxkb: Read Max KB Ang. Momentum=    2 for species C-gga

<basis_specs>
===============================================================================
C-gga                Z=   6    Mass=  12.010        Charge= 0.17977+309
Lmxo=1 Lmxkb= 2    BasisType=split      Semic=F
L=0  Nsemic=0  Cnfigmx=2
          i=1  nzeta=1  polorb=0  (2s)
            splnorm:   0.15000    
               vcte:    0.0000    
               rinn:    0.0000    
               qcoe:    0.0000    
               qyuk:    0.0000    
               qwid:   0.10000E-01
                rcs:    0.0000    
            lambdas:    1.0000    
L=1  Nsemic=0  Cnfigmx=2
          i=1  nzeta=1  polorb=0  (2p)
            splnorm:   0.15000    
               vcte:    0.0000    
               rinn:    0.0000    
               qcoe:    0.0000    
               qyuk:    0.0000    
               qwid:   0.10000E-01
                rcs:    0.0000    
            lambdas:    1.0000    
-------------------------------------------------------------------------------
L=0  Nkbl=1  erefs: 0.17977+309
L=1  Nkbl=1  erefs: 0.17977+309
L=2  Nkbl=1  erefs: 0.17977+309
===============================================================================
</basis_specs>

atom: Called for C-gga                 (Z =   6)

read_vps: Pseudopotential generation method:
read_vps: ATM 3.2.2 Troullier-Martins                       
Valence charge for ps generation:    4.00000

xc_check: Exchange-correlation functional:
xc_check: Ceperley-Alder
xc_check: WARNING: Pseudopotential generated with GGA PBE functional
V l=0 = -2*Zval/r beyond r=  1.5227
V l=1 = -2*Zval/r beyond r=  1.5227
V l=2 = -2*Zval/r beyond r=  1.5227
All V_l potentials equal beyond r=  1.4851
This should be close to max(r_c) in ps generation
All pots = -2*Zval/r beyond r=  1.5227

VLOCAL1: 99.0% of the norm of Vloc inside     19.682 Ry
VLOCAL1: 99.9% of the norm of Vloc inside     44.856 Ry
atom: Maximum radius for 4*pi*r*r*local-pseudopot. charge    1.79142
atom: Maximum radius for r*vlocal+2*Zval:    1.54183
GHOST: No ghost state for L =  0
GHOST: No ghost state for L =  1
GHOST: No ghost state for L =  2

KBgen: Kleinman-Bylander projectors: 
   l= 0   rc=  1.661951   el= -0.994756   Ekb=  5.296364   kbcos=  0.313951
   l= 1   rc=  1.661951   el= -0.376633   Ekb= -4.104879   kbcos= -0.344765
   l= 2   rc=  1.747182   el=  0.002326   Ekb= -1.006421   kbcos= -0.008606

KBgen: Total number of Kleinman-Bylander projectors:    9
atom: -------------------------------------------------------------------------

atom: SANKEY-TYPE ORBITALS:

SPLIT: Orbitals with angular momentum L= 0

SPLIT: Basis orbitals for state 2s

SPLIT: PAO cut-off radius determined from an
SPLIT: energy shift=  0.000735 Ry

   izeta = 1
                 lambda =    1.000000
                     rc =    5.948690
                 energy =   -0.994108
                kinetic =    0.809152
    potential(screened) =   -1.803260
       potential(ionic) =   -5.360717

SPLIT: Orbitals with angular momentum L= 1

SPLIT: Basis orbitals for state 2p

SPLIT: PAO cut-off radius determined from an
SPLIT: energy shift=  0.000735 Ry

   izeta = 1
                 lambda =    1.000000
                     rc =    7.638387
                 energy =   -0.375915
                kinetic =    2.245823
    potential(screened) =   -2.621738
       potential(ionic) =   -5.993382
atom: Total number of Sankey-type orbitals:  4

atm_pop: Valence configuration (for local Pseudopot. screening):
 2s( 2.00)                                                            
 2p( 2.00)                                                            
Vna: chval, zval:    4.00000   4.00000

Vna:  Cut-off radius for the neutral-atom potential:   7.638387

atom: _________________________________________________________________________

prinput: Basis input ----------------------------------------------------------

PAO.BasisType split     

%block ChemicalSpeciesLabel
    1    6 C-gga                   # Species index, atomic number, species label
%endblock ChemicalSpeciesLabel

%block PAO.Basis                 # Define Basis set
C-gga                 2                    # Species label, number of l-shells
 n=2   0   1                         # n, l, Nzeta 
   5.949   
   1.000   
 n=2   1   1                         # n, l, Nzeta 
   7.638   
   1.000   
%endblock PAO.Basis

prinput: ----------------------------------------------------------------------

coor:   Atomic-coordinates input format  =     Cartesian coordinates
coor:                                          (in Angstroms)

siesta: Atomic coordinates (Bohr) and species
siesta:      0.00000   0.00000   2.02911  1        1
siesta:      0.00000   0.00000   6.08734  1        2
siesta:     -2.32814   4.03246   2.02911  1        3
siesta:     -4.65629   8.06493   6.08734  1        4
siesta:      4.65629   8.06493   2.02911  1        5
siesta:      2.32814   4.03246   6.08734  1        6
siesta:      4.65629   0.00000   2.02911  1        7
siesta:      9.31257   0.00000   6.08734  1        8
siesta:      4.65629   0.00000   6.08734  1        9
siesta:      9.31257   0.00000   2.02911  1       10
siesta:      4.65629   8.06493   6.08734  1       11
siesta:      2.32814   4.03246   2.02911  1       12
siesta:     -2.32814   4.03246   6.08734  1       13
siesta:     -4.65629   8.06493   2.02911  1       14
siesta:      0.00000   8.06493   2.02911  1       15
siesta:      6.98443   4.03246   6.08734  1       16
siesta:      6.98443   4.03246   2.02911  1       17
siesta:      0.00000   8.06493   6.08734  1       18
siesta:      0.00000   2.68831   2.02911  1       19
siesta:      6.98443   9.40908   6.08734  1       20
siesta:      4.65629  10.75324   2.02911  1       21
siesta:      2.32814   1.34415   6.08734  1       22
siesta:     -4.65629  10.75324   2.02911  1       23
siesta:     11.64072   1.34415   6.08734  1       24
siesta:     -2.32814   6.72077   2.02911  1       25
siesta:      9.31257   5.37662   6.08734  1       26
siesta:      2.32815   6.72077   2.02911  1       27
siesta:      4.65628   5.37662   6.08734  1       28
siesta:     -0.00000  10.75324   2.02911  1       29
siesta:      6.98443   1.34415   6.08734  1       30
siesta:      4.65629   2.68831   2.02911  1       31
siesta:      2.32814   9.40908   6.08734  1       32
siesta:      9.31258   2.68831   2.02911  1       33
siesta:     -2.32815   9.40908   6.08734  1       34
siesta:      6.98443   6.72077   2.02911  1       35
siesta:      0.00000   5.37662   6.08734  1       36

siesta: System type = bulk      

initatomlists: Number of atoms, orbitals, and projectors:     36   144   324

siesta: ******************** Simulation parameters ****************************
siesta:
siesta: The following are some of the parameters of the simulation.
siesta: A complete list of the parameters used, including default values,
siesta: can be found in file out.fdf
siesta:
redata: Spin configuration                          = none
redata: Number of spin components                   = 1
redata: Time-Reversal Symmetry                      = T
redata: Spin spiral                                 = F
redata: Long output                                 =   F
redata: Number of Atomic Species                    =        1
redata: Charge density info will appear in .RHO file
redata: Write Mulliken Pop.                         = NO
redata: Matel table size (NRTAB)                    =     1024
redata: Mesh Cutoff                                 =   300.0000 Ry
redata: Net charge of the system                    =     0.0000 |e|
redata: Min. number of SCF Iter                     =        0
redata: Max. number of SCF Iter                     =     1000
redata: SCF convergence failure will abort job
redata: SCF mix quantity                            = Hamiltonian
redata: Mix DM or H after convergence               =   F
redata: Recompute H after scf cycle                 =   F
redata: Mix DM in first SCF step                    =   T
redata: Write Pulay info on disk                    =   F
redata: New DM Occupancy tolerance                  = 0.000000000001
redata: No kicks to SCF
redata: DM Mixing Weight for Kicks                  =     0.5000
redata: Require Harris convergence for SCF          =   F
redata: Harris energy tolerance for SCF             =     0.000100 eV
redata: Require DM convergence for SCF              =   T
redata: DM tolerance for SCF                        =     0.001000
redata: Require EDM convergence for SCF             =   F
redata: EDM tolerance for SCF                       =     0.005000 eV
redata: Require H convergence for SCF               =   T
redata: Hamiltonian tolerance for SCF               =     0.001000 eV
redata: Require (free) Energy convergence for SCF   =   T
redata: (free) Energy tolerance for SCF             =     0.001000 eV
redata: Using Saved Data (generic)                  =   F
redata: Use continuation files for DM               =   F
redata: Neglect nonoverlap interactions             =   F
redata: Method of Calculation                       = Diagonalization
redata: Electronic Temperature                      =   299.9869 K
redata: Fix the spin of the system                  =   F
redata: Dynamics option                             = Single-point calculation
mix.SCF: Pulay mixing                            = Pulay
mix.SCF:    Variant                              = stable
mix.SCF:    History steps                        = 4
mix.SCF:    Linear mixing weight                 =     0.250000
mix.SCF:    Mixing weight                        =     0.250000
mix.SCF:    SVD condition                        = 0.1000E-07
redata: ***********************************************************************

%block SCF.Mixers
  Pulay
%endblock SCF.Mixers

%block SCF.Mixer.Pulay
  # Mixing method
  method pulay
  variant stable

  # Mixing options
  weight 0.2500
  weight.linear 0.2500
  history 4
%endblock SCF.Mixer.Pulay

DM_history_depth set to one: no extrapolation allowed by default for geometry relaxation
Size of DM history Fstack: 1
Total number of electrons:   144.000000
Total ionic charge:   144.000000

* ProcessorY, Blocksize:    4   1


* Orbital distribution balance (max,min):     8     7

k-point displ. along   1 input, could be:     0.00    0.50
k-point displ. along   2 input, could be:     0.00    0.50
k-point displ. along   3 input, could be:     0.00    0.50
 Kpoints in:           48 . Kpoints trimmed:           44

siesta: k-grid: Number of k-points =    44
siesta: k-grid: Cutoff (effective) =     8.590 Ang
siesta: k-grid: Supercell and displacements
siesta: k-grid:    4   0   0      0.000
siesta: k-grid:    0   4   0      0.000
siesta: k-grid:    0   0   4      0.000

diag: Algorithm                                     = Expert
diag: Parallel over k                               =   T
diag: Use parallel 2D distribution                  =   T
diag: Parallel block-size                           = 1
diag: Parallel distribution                         =     4 x     5
diag: Used triangular part                          = Lower
diag: Absolute tolerance                            =  0.100E-15
diag: Orthogonalization factor                      =  0.100E-05
diag: Memory factor                                 =  1.0000

superc: Internal auxiliary supercell:     5 x     5 x     5  =     125
superc: Number of atoms, orbitals, and projectors:   4500  18000  40500


ts: **************************************************************
ts: Save H and S matrices                           =    F
ts: Save DM and EDM matrices                        =    F
ts: Only save the overlap matrix S                  =    F
ts: **************************************************************

************************ Begin: TS CHECKS AND WARNINGS ************************
************************ End: TS CHECKS AND WARNINGS **************************


                     ====================================
                        Single-point calculation
                     ====================================

outcoor: Atomic coordinates (Ang):                          
    0.00000000    0.00000000    1.07376000   1       1  C-gga
    0.00000000    0.00000000    3.22128000   1       2  C-gga
   -1.23200000    2.13388659    1.07376000   1       3  C-gga
   -2.46400000    4.26777319    3.22128000   1       4  C-gga
    2.46400000    4.26777319    1.07376000   1       5  C-gga
    1.23200000    2.13388659    3.22128000   1       6  C-gga
    2.46400000    0.00000000    1.07376000   1       7  C-gga
    4.92800000    0.00000000    3.22128000   1       8  C-gga
    2.46400000    0.00000000    3.22128000   1       9  C-gga
    4.92800000    0.00000000    1.07376000   1      10  C-gga
    2.46400000    4.26777319    3.22128000   1      11  C-gga
    1.23200000    2.13388659    1.07376000   1      12  C-gga
   -1.23200000    2.13388659    3.22128000   1      13  C-gga
   -2.46400000    4.26777319    1.07376000   1      14  C-gga
    0.00000000    4.26777319    1.07376000   1      15  C-gga
    3.69600000    2.13388659    3.22128000   1      16  C-gga
    3.69600000    2.13388659    1.07376000   1      17  C-gga
    0.00000000    4.26777319    3.22128000   1      18  C-gga
    0.00000000    1.42258964    1.07376000   1      19  C-gga
    3.69600000    4.97907014    3.22128000   1      20  C-gga
    2.46400123    5.69036496    1.07376000   1      21  C-gga
    1.23199877    0.71129482    3.22128000   1      22  C-gga
   -2.46400123    5.69036496    1.07376000   1      23  C-gga
    6.16000123    0.71129482    3.22128000   1      24  C-gga
   -1.23200000    3.55647624    1.07376000   1      25  C-gga
    4.92800000    2.84518355    3.22128000   1      26  C-gga
    1.23200123    3.55647837    1.07376000   1      27  C-gga
    2.46399877    2.84518142    3.22128000   1      28  C-gga
   -0.00000123    5.69036496    1.07376000   1      29  C-gga
    3.69600123    0.71129482    3.22128000   1      30  C-gga
    2.46400000    1.42258964    1.07376000   1      31  C-gga
    1.23200000    4.97907014    3.22128000   1      32  C-gga
    4.92800123    1.42259177    1.07376000   1      33  C-gga
   -1.23200123    4.97906801    3.22128000   1      34  C-gga
    3.69599877    3.55647837    1.07376000   1      35  C-gga
    0.00000123    2.84518142    3.22128000   1      36  C-gga

superc: Internal auxiliary supercell:     5 x     5 x     5  =     125
superc: Number of atoms, orbitals, and projectors:   4500  18000  40500

outcell: Unit cell vectors (Ang):
        7.392000    0.000000    0.000000
       -3.696000    6.401660    0.000000
        0.000000    0.000000    4.295040

outcell: Cell vector modules (Ang)   :    7.392000    7.392000    4.295040
outcell: Cell angles (23,13,12) (deg):     90.0000     90.0000    120.0000
outcell: Cell volume (Ang**3)        :    203.2459
<dSpData1D:S at geom step 0
  <sparsity:sparsity for geom step 0
    nrows_g=144 nrows=8 sparsity=.5918 nnzs=12272, refcount: 7>
  <dData1D:(new from dSpData1D) n=12272, refcount: 1>
refcount: 1>
new_DM -- step:     1
Initializing Density Matrix...
DM filled with atomic data:
<dSpData2D:DM initialized from atoms
  <sparsity:sparsity for geom step 0
    nrows_g=144 nrows=8 sparsity=.5918 nnzs=12272, refcount: 8>
  <dData2D:DM n=12272 m=1, refcount: 1>
refcount: 1>
No. of atoms with KB's overlaping orbs in proc 0. Max # of overlaps:     144     348
New grid distribution:   1
           1       1:   36    1:    9    1:    5
           2       1:   36    1:    9    6:   10
           3       1:   36    1:    9   11:   15
           4       1:   36    1:    9   16:   20
           5       1:   36    1:    9   21:   24
           6       1:   36   10:   18    1:    5
           7       1:   36   10:   18    6:   10
           8       1:   36   10:   18   11:   15
           9       1:   36   10:   18   16:   20
          10       1:   36   10:   18   21:   24
          11       1:   36   19:   27    1:    5
          12       1:   36   19:   27    6:   10
          13       1:   36   19:   27   11:   15
          14       1:   36   19:   27   16:   20
          15       1:   36   19:   27   21:   24
          16       1:   36   28:   36    1:    5
          17       1:   36   28:   36    6:   10
          18       1:   36   28:   36   11:   15
          19       1:   36   28:   36   16:   20
          20       1:   36   28:   36   21:   24

InitMesh: MESH =    72 x    72 x    48 =      248832
InitMesh: (bp) =    36 x    36 x    24 =       31104
InitMesh: Mesh cutoff (required, used) =   300.000   345.183 Ry
ExtMesh (bp) on 0 =   128 x   101 x    97 =     1254016
New grid distribution:   2
           1      19:   36    1:    9    1:   10
           2       1:   18    1:    9    1:   10
           3      19:   36   19:   24   11:   24
           4      10:   18    7:   18   11:   24
           5      19:   36    1:    6   11:   24
           6      19:   36   10:   18    1:   10
           7       1:   18   10:   18    1:   10
           8      19:   27    7:   18   11:   24
           9      10:   18   25:   36   11:   24
          10      28:   36    7:   18   11:   24
          11       1:   18   19:   27    1:   10
          12       1:   18    1:    6   11:   24
          13      19:   36   19:   27    1:   10
          14      28:   36   25:   36   11:   24
          15       1:   18   19:   24   11:   24
          16       1:   18   28:   36    1:   10
          17      19:   36   28:   36    1:   10
          18       1:    9   25:   36   11:   24
          19      19:   27   25:   36   11:   24
          20       1:    9    7:   18   11:   24
New grid distribution:   3
           1      19:   36    1:    9    1:   10
           2       1:   18    1:    9    1:   10
           3      19:   36   19:   24   11:   24
           4      10:   18    7:   18   11:   24
           5      19:   36    1:    6   11:   24
           6      19:   36   10:   18    1:   10
           7       1:   18   10:   18    1:   10
           8      19:   27    7:   18   11:   24
           9      10:   18   25:   36   11:   24
          10      28:   36    7:   18   11:   24
          11       1:   18   19:   27    1:   10
          12       1:   18    1:    6   11:   24
          13      19:   36   19:   27    1:   10
          14      28:   36   25:   36   11:   24
          15       1:   18   19:   24   11:   24
          16       1:   18   28:   36    1:   10
          17      19:   36   28:   36    1:   10
          18       1:    9   25:   36   11:   24
          19      19:   27   25:   36   11:   24
          20       1:    9    7:   18   11:   24
Setting up quadratic distribution...
ExtMesh (bp) on 0 =   110 x   101 x   102 =     1133220
PhiOnMesh: Number of (b)points on node 0 =                 1620
PhiOnMesh: nlist on node 0 =               292008

stepf: Fermi-Dirac step function

siesta: Program's energy decomposition (eV):
siesta: Ebs     =     -2602.813990
siesta: Eions   =      9434.507561
siesta: Ena     =      2208.005339
siesta: Ekin    =      3943.996760
siesta: Enl     =      -385.419412
siesta: Eso     =         0.000000
siesta: Edftu   =         0.000000
siesta: DEna    =      -135.754400
siesta: DUscf   =         7.481111
siesta: DUext   =         0.000000
siesta: Exc     =     -1713.025654
siesta: eta*DQ  =         0.000000
siesta: Emadel  =         0.000000
siesta: Emeta   =         0.000000
siesta: Emolmec =        -7.175568
siesta: Ekinion =         0.000000
siesta: Eharris =     -5248.769850
siesta: Etot    =     -5516.399386
siesta: FreeEng =     -5516.406283

        iscf     Eharris(eV)        E_KS(eV)     FreeEng(eV)     dDmax    Ef(eV) dHmax(eV)
   scf:    1    -5248.769850    -5516.399386    -5516.406283  1.271520 -8.551503  0.756822
timer: Routine,Calls,Time,% = IterSCF        1       2.229  52.01
   scf:    2    -5516.720188    -5516.582130    -5516.589311  0.017824 -8.390780  0.527636
   scf:    3    -5516.580321    -5516.612022    -5516.620161  0.019717 -8.026160  0.120698
   scf:    4    -5516.656875    -5516.643673    -5516.651596  0.012380 -8.001071  0.001291
   scf:    5    -5516.643702    -5516.643691    -5516.651605  0.000196 -8.001706  0.000316

SCF Convergence by FreeE+DM+H criterion
|FreeE_i-FreeE_(i-1)| (eV) <     0.00100000
max |DM_out - DM_in|         :     0.0001955980
max |H_out - H_in|      (eV) :     0.0003158436
SCF cycle converged after 5 iterations

Using DM_out to compute the final energy and forces
No. of atoms with KB's overlaping orbs in proc 0. Max # of overlaps:     144     348

MM-Stress (kbar):       50.01       50.01       39.96        0.00        0.00       -0.00

siesta: E_KS(eV) =            -5516.6437

siesta: E_KS - E_eggbox =     -5516.6437

siesta: Atomic forces (eV/Ang):
     1   -0.000000   -0.000000   -0.000000
     2    0.000000   -0.000000   -0.000000
     3    0.000059   -0.000052   -0.000000
     4   -0.000059    0.000053   -0.000000
     5    0.000016    0.000077   -0.000000
     6   -0.000016   -0.000077   -0.000000
     7   -0.000075   -0.000025   -0.000000
     8    0.000075    0.000024   -0.000000
     9   -0.000020   -0.000019   -0.000000
    10    0.000020    0.000019   -0.000000
    11   -0.000007    0.000027   -0.000000
    12    0.000007   -0.000026   -0.000000
    13    0.000026   -0.000007   -0.000000
    14   -0.000026    0.000008   -0.000000
    15   -0.000000   -0.000000   -0.000000
    16    0.000000    0.000000   -0.000000
    17   -0.000000    0.000000   -0.000000
    18    0.000000    0.000000   -0.000000
    19    0.000012    0.000106    0.000000
    20   -0.000012   -0.000106    0.000000
    21   -0.000098   -0.000043    0.000000
    22    0.000098    0.000043    0.000000
    23    0.000086   -0.000063    0.000000
    24   -0.000086    0.000063    0.000000
    25    0.000008    0.000104    0.000000
    26   -0.000008   -0.000105    0.000000
    27   -0.000094   -0.000046    0.000000
    28    0.000094    0.000045    0.000000
    29    0.000086   -0.000059    0.000000
    30   -0.000086    0.000059    0.000000
    31   -0.000005    0.000102    0.000000
    32    0.000004   -0.000102    0.000000
    33   -0.000086   -0.000055    0.000000
    34    0.000086    0.000055    0.000000
    35    0.000091   -0.000047    0.000000
    36   -0.000091    0.000047    0.000000
----------------------------------------
   Tot   -0.000000    0.000000    0.000000
----------------------------------------
   Max    0.000106
   Res    0.000047    sqrt( Sum f_i^2 / 3N )
----------------------------------------
   Max    0.000106    constrained

Stress tensor Voigt[x,y,z,yz,xz,xy] (kbar):     -305.10     -305.10    -1098.79        0.00       -0.00        0.00
(Free)E + p*V (eV/cell)    -5444.3867
Target enthalpy (eV/cell)    -5516.6516

siesta: Eigenvalues (eV):
  ik is       eps
   1  1  -29.8238  -29.0797  -29.0796  -26.9760  -26.9759  -25.9787  -25.6887  -25.3717  -25.3717  -25.1362
         -25.1361  -24.3348  -23.6306  -23.6306  -23.2536  -23.1182  -23.1182  -22.5837  -21.6441  -21.6441
  -20.8399  -20.7180  -20.6641  -20.1520  -20.1520  -19.6838  -19.6838  -19.6678  -19.3907  -18.7224
  -18.7224  -18.2066  -18.1939  -18.1939  -17.7187  -17.1097  -16.8887  -16.8887  -16.8226  -16.8226
  -16.6565  -16.6565  -16.5250  -16.5250  -16.3724  -15.7283  -15.7283  -15.3656  -15.3655  -15.2705
  -15.2517  -15.2517  -14.8163  -14.8163  -14.6123  -14.4368  -14.4368  -14.1257  -14.0789  -13.6228
  -13.6228  -13.1432  -12.7987  -10.7922  -10.7921  -10.7661   -9.1043   -8.6655   -8.6655   -8.0236
   -8.0236   -7.9086   -7.8313   -6.1330   -6.0038   -6.0038   -5.0902   -5.0902   -2.8355   -2.6254
   -2.6254   -2.4101   -2.4101   -2.2764   -1.2305   -1.2305   -0.7311   -0.2233   -0.2233    0.8887
    0.8888    1.1104    1.4667    1.5972    1.5972    2.0720    2.4524    2.4524    2.8754    2.8817
    3.2810    3.2810    3.3331    3.5134    3.5135    3.5942    3.5942    4.5525    4.6967    5.0042
    5.0042    5.0870    5.2133    5.2133    5.6264    6.1847    6.1847    6.6544    7.1653    7.1653
    7.6770    7.7251    7.7251    7.8978    8.5495    8.5495    9.7515   10.2476   10.6426   10.6426
   11.1174   11.1174   12.4602   12.4602   12.9310   12.9311   13.7706   13.7706   13.9808   13.9808
   14.3292   14.5219   14.8313   14.8493
   2  1  -30.2033  -28.7153  -28.0028  -28.0028  -26.6469  -26.6469  -26.2850  -26.0118  -25.0718  -24.4825
         -24.4825  -24.2621  -24.2621  -23.3728  -23.3728  -22.9840  -22.3233  -22.3233  -21.7707  -21.3141
  -21.3141  -20.8596  -20.8596  -20.3189  -20.3189  -19.7211  -19.3442  -18.8460  -18.8460  -18.7453
  -18.7453  -18.4305  -18.4305  -18.3847  -17.7004  -17.7004  -17.6692  -17.6692  -17.6481  -16.7170
  -16.7170  -16.5395  -16.5395  -16.3232  -16.3232  -16.2019  -15.7718  -15.7718  -15.6771  -15.5877
  -14.9911  -14.9548  -14.9548  -14.7146  -14.3872  -14.3872  -13.8197  -13.8197  -13.6208  -13.4875
  -13.1267  -12.4849  -12.2136  -10.0421   -9.6991   -9.6991   -9.3525   -8.9755   -8.9755   -8.5205
   -8.2780   -8.2780   -7.7704   -7.7704   -5.4542   -5.4542   -5.0177   -4.4106   -4.4106   -3.1571
   -2.8005   -2.8005   -2.0037   -1.4676   -1.4676   -1.0654   -0.2604   -0.0034   -0.0034    0.0458
    0.0458    0.2076    0.3981    0.3981    0.5119    1.0771    1.2005    1.8242    2.2956    2.8980
    2.9166    3.3884    3.5705    3.5705    3.6003    3.6248    3.6248    4.8375    4.8375    5.7973
    5.9424    6.1049    6.1049    6.7195    6.7195    7.0033    7.3586    7.6508    7.6508    8.2868
    8.2868    8.8413    8.8413    9.0388    9.0388    9.1011    9.8600    9.8600    9.8823    9.8823
   10.7207   10.8752   10.8752   11.2284   12.2607   12.2607   12.4513   12.8765   12.8765   13.0781
   15.3183   15.3183   15.3702   15.3702
   3  1  -30.2033  -28.7153  -28.0028  -28.0028  -26.6469  -26.6469  -26.2850  -26.0118  -25.0718  -24.4825
         -24.4825  -24.2621  -24.2621  -23.3728  -23.3728  -22.9840  -22.3233  -22.3233  -21.7707  -21.3141
  -21.3141  -20.8596  -20.8596  -20.3189  -20.3189  -19.7211  -19.3442  -18.8460  -18.8460  -18.7453
  -18.7453  -18.4305  -18.4305  -18.3847  -17.7004  -17.7004  -17.6692  -17.6692  -17.6481  -16.7170
  -16.7170  -16.5395  -16.5395  -16.3232  -16.3232  -16.2019  -15.7718  -15.7718  -15.6771  -15.5877
  -14.9911  -14.9548  -14.9548  -14.7146  -14.3872  -14.3872  -13.8197  -13.8197  -13.6208  -13.4875
  -13.1267  -12.4849  -12.2136  -10.0421   -9.6991   -9.6991   -9.3525   -8.9755   -8.9755   -8.5205
   -8.2780   -8.2780   -7.7704   -7.7704   -5.4542   -5.4542   -5.0177   -4.4106   -4.4106   -3.1571
   -2.8005   -2.8005   -2.0037   -1.4676   -1.4676   -1.0654   -0.2604   -0.0034   -0.0034    0.0458
    0.0458    0.2076    0.3981    0.3981    0.5119    1.0771    1.2005    1.8242    2.2956    2.8980
    2.9166    3.3884    3.5705    3.5705    3.6003    3.6248    3.6248    4.8375    4.8375    5.7973
    5.9424    6.1049    6.1049    6.7195    6.7195    7.0033    7.3586    7.6508    7.6508    8.2868
    8.2868    8.8413    8.8413    9.0388    9.0388    9.1011    9.8600    9.8600    9.8823    9.8823
   10.7207   10.8752   10.8752   11.2284   12.2607   12.2607   12.4513   12.8765   12.8765   13.0781
   15.3183   15.3183   15.3702   15.3702
   4  1  -29.8238  -29.0797  -29.0796  -26.9760  -26.9759  -25.9787  -25.6887  -25.3717  -25.3717  -25.1362
         -25.1361  -24.3348  -23.6306  -23.6306  -23.2536  -23.1182  -23.1182  -22.5837  -21.6441  -21.6441
  -20.8399  -20.7180  -20.6641  -20.1520  -20.1520  -19.6838  -19.6838  -19.6678  -19.3907  -18.7224
  -18.7224  -18.2066  -18.1939  -18.1939  -17.7187  -17.1097  -16.8887  -16.8887  -16.8226  -16.8226
  -16.6565  -16.6565  -16.5250  -16.5250  -16.3724  -15.7283  -15.7283  -15.3656  -15.3655  -15.2705
  -15.2517  -15.2517  -14.8163  -14.8163  -14.6123  -14.4368  -14.4368  -14.1257  -14.0789  -13.6228
  -13.6228  -13.1432  -12.7987  -10.7922  -10.7921  -10.7661   -9.1043   -8.6655   -8.6655   -8.0236
   -8.0236   -7.9086   -7.8313   -6.1330   -6.0038   -6.0038   -5.0902   -5.0902   -2.8355   -2.6254
   -2.6254   -2.4101   -2.4101   -2.2764   -1.2305   -1.2305   -0.7311   -0.2233   -0.2233    0.8887
    0.8888    1.1104    1.4667    1.5972    1.5972    2.0720    2.4524    2.4524    2.8754    2.8817
    3.2810    3.2810    3.3331    3.5134    3.5135    3.5942    3.5942    4.5525    4.6967    5.0042
    5.0042    5.0870    5.2133    5.2133    5.6264    6.1847    6.1847    6.6544    7.1653    7.1653
    7.6770    7.7251    7.7251    7.8978    8.5495    8.5495    9.7515   10.2476   10.6426   10.6426
   11.1174   11.1174   12.4602   12.4602   12.9310   12.9311   13.7706   13.7706   13.9808   13.9808
   14.3292   14.5219   14.8313   14.8493
   5  1  -30.2033  -28.7153  -28.0028  -28.0028  -26.6469  -26.6469  -26.2850  -26.0118  -25.0718  -24.4825
         -24.4825  -24.2621  -24.2621  -23.3728  -23.3728  -22.9840  -22.3233  -22.3233  -21.7707  -21.3141
  -21.3141  -20.8596  -20.8596  -20.3189  -20.3189  -19.7211  -19.3442  -18.8460  -18.8460  -18.7453
  -18.7453  -18.4305  -18.4305  -18.3847  -17.7004  -17.7004  -17.6692  -17.6692  -17.6481  -16.7170
  -16.7170  -16.5395  -16.5395  -16.3232  -16.3232  -16.2019  -15.7718  -15.7718  -15.6771  -15.5877
  -14.9911  -14.9548  -14.9548  -14.7146  -14.3872  -14.3872  -13.8197  -13.8197  -13.6208  -13.4875
  -13.1267  -12.4849  -12.2136  -10.0421   -9.6991   -9.6991   -9.3525   -8.9755   -8.9755   -8.5205
   -8.2780   -8.2780   -7.7704   -7.7704   -5.4542   -5.4542   -5.0177   -4.4106   -4.4106   -3.1571
   -2.8005   -2.8005   -2.0037   -1.4676   -1.4676   -1.0654   -0.2604   -0.0034   -0.0034    0.0458
    0.0458    0.2076    0.3981    0.3981    0.5119    1.0771    1.2005    1.8242    2.2956    2.8980
    2.9166    3.3884    3.5705    3.5705    3.6003    3.6248    3.6248    4.8375    4.8375    5.7973
    5.9424    6.1049    6.1049    6.7195    6.7195    7.0033    7.3586    7.6508    7.6508    8.2868
    8.2868    8.8413    8.8413    9.0388    9.0388    9.1011    9.8600    9.8600    9.8823    9.8823
   10.7207   10.8752   10.8752   11.2284   12.2607   12.2607   12.4513   12.8765   12.8765   13.0781
   15.3183   15.3183   15.3702   15.3702
   6  1  -30.3948  -27.4833  -27.4833  -27.4833  -27.4833  -27.4833  -27.4832  -26.4386  -24.0526  -24.0526
         -24.0526  -24.0526  -24.0526  -24.0526  -23.3599  -23.3599  -22.1082  -22.1082  -22.1082  -22.1082
  -20.1132  -20.1132  -19.9022  -19.9022  -19.9022  -19.9022  -19.9021  -19.9021  -19.8854  -18.8298
  -18.8298  -18.8298  -18.8298  -17.4915  -17.4915  -17.4915  -17.4915  -17.4915  -17.4915  -17.1856
  -17.1856  -17.1856  -17.1856  -17.1856  -17.1856  -15.7362  -15.7362  -15.7362  -15.7362  -15.7362
  -15.7362  -14.2846  -14.2846  -14.2846  -14.2846  -14.2846  -14.2846  -13.1075  -13.1075  -12.6816
  -12.6816  -11.9948  -11.9948   -9.4823   -9.1892   -9.1892   -9.1892   -9.1892   -8.5231   -8.5231
   -8.5231   -8.5231   -8.5231   -8.5231   -4.9042   -4.9042   -4.9042   -4.9042   -4.9042   -4.9042
   -2.8938   -2.8938   -0.7361   -0.7361   -0.7361   -0.7360   -0.7360   -0.7360   -0.5252   -0.5252
   -0.5252   -0.5252   -0.5252   -0.5252    0.4603    0.4603    0.7063    1.4646    1.4646    2.8683
    2.9500    2.9500    2.9500    2.9500    2.9500    2.9500    3.9771    5.4433    6.6786    6.6786
    7.5367    7.5367    7.5367    7.5367    8.6100    8.6100    8.6750    8.6750    8.6750    8.6751
    8.6751    8.6751    9.4862    9.4862    9.4862    9.4862    9.4862    9.4862   10.1041   10.1041
   10.1041   10.1041   10.1041   10.1041   11.3558   11.3559   11.3559   11.3559   11.3559   11.3559
   15.7092   15.7092   15.7092   15.7092
   7  1  -29.6359  -29.6359  -28.1789  -28.1789  -25.8261  -25.8261  -25.5417  -25.5417  -25.5417  -25.5417
         -24.7728  -24.6287  -24.6287  -23.6665  -22.5813  -22.5813  -22.5813  -22.5813  -21.4584  -21.4584
  -21.4584  -21.4584  -21.1792  -20.8865  -19.3436  -19.3436  -19.3436  -19.3436  -19.2247  -19.2247
  -17.9033  -17.9033  -17.9033  -17.9033  -17.8711  -17.8711  -17.8301  -17.8301  -17.0389  -17.0389
  -16.3593  -16.2120  -16.2120  -16.2120  -16.2120  -15.4188  -15.4188  -15.3749  -15.3749  -15.1394
  -15.1394  -15.1394  -15.1394  -14.8620  -14.8488  -14.8488  -14.6036  -14.0502  -14.0502  -13.8153
  -13.8153  -12.8467  -12.8467  -11.3591   -9.4691   -9.4691   -9.4691   -9.4691   -8.9896   -8.9896
   -8.2124   -8.2124   -6.3226   -6.3226   -6.3226   -6.3226   -4.5409   -4.1816   -4.1816   -2.8326
   -2.3682   -2.3682   -2.3682   -2.3681   -1.1822   -1.1810   -1.1810    0.2131    0.2131    0.2360
    0.2360    2.1704    2.1705    2.1705    2.1705    2.5523    2.5523    2.5695    2.5695    2.7111
    2.7111    2.8698    3.1733    3.1733    3.2172    3.2172    4.3810    4.3810    4.9506    4.9506
    5.1037    5.1037    5.1037    5.1037    5.3772    5.3772    5.4376    5.4376    7.0381    7.0382
    8.6002    8.6002    8.6002    8.6002    9.6061    9.6061    9.6061    9.6061   10.0003   10.0003
   10.8131   10.8131   11.5001   11.8338   13.5281   13.6012   14.1620   14.1620   14.1620   14.1620
   14.3824   14.3824   14.3824   14.3824
   8  1  -29.8238  -29.0797  -29.0796  -26.9760  -26.9759  -25.9787  -25.6887  -25.3717  -25.3717  -25.1362
         -25.1361  -24.3348  -23.6306  -23.6306  -23.2536  -23.1182  -23.1182  -22.5837  -21.6441  -21.6441
  -20.8399  -20.7180  -20.6641  -20.1520  -20.1520  -19.6838  -19.6838  -19.6678  -19.3907  -18.7224
  -18.7224  -18.2066  -18.1939  -18.1939  -17.7187  -17.1097  -16.8887  -16.8887  -16.8226  -16.8226
  -16.6565  -16.6565  -16.5250  -16.5250  -16.3724  -15.7283  -15.7283  -15.3656  -15.3655  -15.2705
  -15.2517  -15.2517  -14.8163  -14.8163  -14.6123  -14.4368  -14.4368  -14.1257  -14.0789  -13.6228
  -13.6228  -13.1432  -12.7987  -10.7922  -10.7921  -10.7661   -9.1043   -8.6655   -8.6655   -8.0236
   -8.0236   -7.9086   -7.8313   -6.1330   -6.0038   -6.0038   -5.0902   -5.0902   -2.8355   -2.6254
   -2.6254   -2.4101   -2.4101   -2.2764   -1.2305   -1.2305   -0.7311   -0.2233   -0.2233    0.8887
    0.8888    1.1104    1.4667    1.5972    1.5972    2.0720    2.4524    2.4524    2.8754    2.8817
    3.2810    3.2810    3.3331    3.5134    3.5135    3.5942    3.5942    4.5525    4.6967    5.0042
    5.0042    5.0870    5.2133    5.2133    5.6264    6.1847    6.1847    6.6544    7.1653    7.1653
    7.6770    7.7251    7.7251    7.8978    8.5495    8.5495    9.7515   10.2476   10.6426   10.6426
   11.1174   11.1174   12.4602   12.4602   12.9310   12.9311   13.7706   13.7706   13.9808   13.9808
   14.3292   14.5219   14.8313   14.8493
   9  1  -29.8238  -29.0797  -29.0796  -26.9760  -26.9759  -25.9787  -25.6887  -25.3717  -25.3717  -25.1362
         -25.1361  -24.3348  -23.6306  -23.6306  -23.2536  -23.1182  -23.1182  -22.5837  -21.6441  -21.6441
  -20.8399  -20.7180  -20.6641  -20.1520  -20.1520  -19.6838  -19.6838  -19.6678  -19.3907  -18.7224
  -18.7224  -18.2066  -18.1939  -18.1939  -17.7187  -17.1097  -16.8887  -16.8887  -16.8226  -16.8226
  -16.6565  -16.6565  -16.5250  -16.5250  -16.3724  -15.7283  -15.7283  -15.3656  -15.3655  -15.2705
  -15.2517  -15.2517  -14.8163  -14.8163  -14.6123  -14.4368  -14.4368  -14.1257  -14.0789  -13.6228
  -13.6228  -13.1432  -12.7987  -10.7922  -10.7921  -10.7661   -9.1043   -8.6655   -8.6655   -8.0236
   -8.0236   -7.9086   -7.8313   -6.1330   -6.0038   -6.0038   -5.0902   -5.0902   -2.8355   -2.6254
   -2.6254   -2.4101   -2.4101   -2.2764   -1.2305   -1.2305   -0.7311   -0.2233   -0.2233    0.8887
    0.8888    1.1104    1.4667    1.5972    1.5972    2.0720    2.4524    2.4524    2.8754    2.8817
    3.2810    3.2810    3.3331    3.5134    3.5135    3.5942    3.5942    4.5525    4.6967    5.0042
    5.0042    5.0870    5.2133    5.2133    5.6264    6.1847    6.1847    6.6544    7.1653    7.1653
    7.6770    7.7251    7.7251    7.8978    8.5495    8.5495    9.7515   10.2476   10.6426   10.6426
   11.1174   11.1174   12.4602   12.4602   12.9310   12.9311   13.7706   13.7706   13.9808   13.9808
   14.3292   14.5219   14.8313   14.8493
  10  1  -29.6359  -29.6359  -28.1789  -28.1789  -25.8261  -25.8261  -25.5417  -25.5417  -25.5417  -25.5417
         -24.7728  -24.6287  -24.6287  -23.6665  -22.5813  -22.5813  -22.5813  -22.5813  -21.4584  -21.4584
  -21.4584  -21.4584  -21.1792  -20.8865  -19.3436  -19.3436  -19.3436  -19.3436  -19.2247  -19.2247
  -17.9033  -17.9033  -17.9033  -17.9033  -17.8711  -17.8711  -17.8301  -17.8301  -17.0389  -17.0389
  -16.3593  -16.2120  -16.2120  -16.2120  -16.2120  -15.4188  -15.4188  -15.3749  -15.3749  -15.1394
  -15.1394  -15.1394  -15.1394  -14.8620  -14.8488  -14.8488  -14.6036  -14.0502  -14.0502  -13.8153
  -13.8153  -12.8467  -12.8467  -11.3591   -9.4691   -9.4691   -9.4691   -9.4691   -8.9896   -8.9896
   -8.2124   -8.2124   -6.3226   -6.3226   -6.3226   -6.3226   -4.5409   -4.1816   -4.1816   -2.8326
   -2.3682   -2.3682   -2.3682   -2.3681   -1.1822   -1.1810   -1.1810    0.2131    0.2131    0.2360
    0.2360    2.1704    2.1705    2.1705    2.1705    2.5523    2.5523    2.5695    2.5695    2.7111
    2.7111    2.8698    3.1733    3.1733    3.2172    3.2172    4.3810    4.3810    4.9506    4.9506
    5.1037    5.1037    5.1037    5.1037    5.3772    5.3772    5.4376    5.4376    7.0381    7.0382
    8.6002    8.6002    8.6002    8.6002    9.6061    9.6061    9.6061    9.6061   10.0003   10.0003
   10.8131   10.8131   11.5001   11.8338   13.5281   13.6012   14.1620   14.1620   14.1620   14.1620
   14.3824   14.3824   14.3824   14.3824
  11  1  -29.8238  -29.0797  -29.0796  -26.9760  -26.9759  -25.9787  -25.6887  -25.3717  -25.3717  -25.1362
         -25.1361  -24.3348  -23.6306  -23.6306  -23.2536  -23.1182  -23.1182  -22.5837  -21.6441  -21.6441
  -20.8399  -20.7180  -20.6641  -20.1520  -20.1520  -19.6838  -19.6838  -19.6678  -19.3907  -18.7224
  -18.7224  -18.2066  -18.1939  -18.1939  -17.7187  -17.1097  -16.8887  -16.8887  -16.8226  -16.8226
  -16.6565  -16.6565  -16.5250  -16.5250  -16.3724  -15.7283  -15.7283  -15.3656  -15.3655  -15.2705
  -15.2517  -15.2517  -14.8163  -14.8163  -14.6123  -14.4368  -14.4368  -14.1257  -14.0789  -13.6228
  -13.6228  -13.1432  -12.7987  -10.7922  -10.7921  -10.7661   -9.1043   -8.6655   -8.6655   -8.0236
   -8.0236   -7.9086   -7.8313   -6.1330   -6.0038   -6.0038   -5.0902   -5.0902   -2.8355   -2.6254
   -2.6254   -2.4101   -2.4101   -2.2764   -1.2305   -1.2305   -0.7311   -0.2233   -0.2233    0.8887
    0.8888    1.1104    1.4667    1.5972    1.5972    2.0720    2.4524    2.4524    2.8754    2.8817
    3.2810    3.2810    3.3331    3.5134    3.5135    3.5942    3.5942    4.5525    4.6967    5.0042
    5.0042    5.0870    5.2133    5.2133    5.6264    6.1847    6.1847    6.6544    7.1653    7.1653
    7.6770    7.7251    7.7251    7.8978    8.5495    8.5495    9.7515   10.2476   10.6426   10.6426
   11.1174   11.1174   12.4602   12.4602   12.9310   12.9311   13.7706   13.7706   13.9808   13.9808
   14.3292   14.5219   14.8313   14.8493
  12  1  -29.6359  -29.6359  -28.1789  -28.1789  -25.8261  -25.8261  -25.5417  -25.5417  -25.5417  -25.5417
         -24.7728  -24.6287  -24.6287  -23.6665  -22.5813  -22.5813  -22.5813  -22.5813  -21.4584  -21.4584
  -21.4584  -21.4584  -21.1792  -20.8865  -19.3436  -19.3436  -19.3436  -19.3436  -19.2247  -19.2247
  -17.9033  -17.9033  -17.9033  -17.9033  -17.8711  -17.8711  -17.8301  -17.8301  -17.0389  -17.0389
  -16.3593  -16.2120  -16.2120  -16.2120  -16.2120  -15.4188  -15.4188  -15.3749  -15.3749  -15.1394
  -15.1394  -15.1394  -15.1394  -14.8620  -14.8488  -14.8488  -14.6036  -14.0502  -14.0502  -13.8153
  -13.8153  -12.8467  -12.8467  -11.3591   -9.4691   -9.4691   -9.4691   -9.4691   -8.9896   -8.9896
   -8.2124   -8.2124   -6.3226   -6.3226   -6.3226   -6.3226   -4.5409   -4.1816   -4.1816   -2.8326
   -2.3682   -2.3682   -2.3682   -2.3681   -1.1822   -1.1810   -1.1810    0.2131    0.2131    0.2360
    0.2360    2.1704    2.1705    2.1705    2.1705    2.5523    2.5523    2.5695    2.5695    2.7111
    2.7111    2.8698    3.1733    3.1733    3.2172    3.2172    4.3810    4.3810    4.9506    4.9506
    5.1037    5.1037    5.1037    5.1037    5.3772    5.3772    5.4376    5.4376    7.0381    7.0382
    8.6002    8.6002    8.6002    8.6002    9.6061    9.6061    9.6061    9.6061   10.0003   10.0003
   10.8131   10.8131   11.5001   11.8338   13.5281   13.6012   14.1620   14.1620   14.1620   14.1620
   14.3824   14.3824   14.3824   14.3824
  13  1  -29.4534  -28.7179  -28.7179  -26.8967  -26.6380  -26.6380  -26.2457  -26.2457  -25.3653  -24.8187
         -24.8186  -24.3899  -24.3899  -24.0222  -23.2582  -23.1188  -23.1188  -23.0590  -22.0801  -22.0801
  -21.5365  -21.1474  -20.7245  -20.7245  -20.4295  -19.6317  -19.4500  -19.4500  -18.2760  -18.2760
  -18.0965  -18.0570  -17.8429  -17.5060  -17.2246  -17.2246  -17.0181  -17.0181  -16.7514  -16.7037
  -16.7037  -16.3136  -16.3136  -16.0819  -16.0819  -15.5489  -15.5489  -15.3328  -15.3328  -15.1253
  -15.1253  -14.5818  -14.5818  -14.4526  -14.0029  -13.8615  -13.8615  -13.7803  -13.3510  -13.3510
  -13.3229  -12.9853  -12.6208  -10.8759  -10.3262  -10.3262  -10.0302  -10.0302   -9.9328   -8.9742
   -8.9742   -8.3447   -7.1077   -6.2581   -5.7119   -5.7119   -5.4769   -5.4769   -4.5943   -4.2598
   -4.2598   -3.6442   -2.3828   -2.3828   -2.1134   -2.1134   -0.6178    0.0754    0.0754    0.6216
    0.6216    0.9202    1.5410    1.9214    1.9214    2.5018    2.6694    3.0514    3.0559    3.0559
    3.1697    3.1697    3.1795    3.4060    3.4060    3.8417    3.8418    4.7368    4.7828    4.7829
    4.9695    5.0232    5.0232    5.1872    5.6628    6.4555    6.4555    6.4810    7.4011    7.4011
    7.5340    7.5340    7.5852    7.7759    8.3768    8.3768    9.8403   10.1747   10.7224   10.7224
   11.0502   11.0502   12.5248   12.5248   12.8557   12.8557   13.8076   13.8076   13.9534   13.9534
   14.3544   14.4890   14.8334   14.8492
  14  1  -29.8284  -28.3577  -27.6533  -27.6533  -27.2270  -26.3125  -26.3125  -25.9254  -25.6845  -25.2973
         -25.2973  -24.1035  -24.1035  -23.9530  -23.9530  -23.5785  -22.2929  -22.2929  -21.6371  -21.5763
  -21.5763  -20.6199  -20.6199  -20.6122  -20.6122  -19.9167  -19.0766  -19.0766  -18.9441  -18.9441
  -18.5065  -18.5065  -18.1495  -18.1028  -18.1028  -17.4283  -17.1093  -17.1093  -16.9057  -16.3708
  -16.3708  -16.1158  -16.1158  -16.0188  -15.9096  -15.6890  -15.6890  -15.2512  -15.2512  -14.9701
  -14.8174  -14.8080  -14.8080  -14.6575  -14.6575  -14.1923  -13.8504  -13.3537  -13.0004  -12.6397
  -12.3587  -12.3587  -12.3544  -11.1607  -10.0798   -9.6178   -9.6075   -9.6075   -9.1861   -9.1861
   -8.9805   -8.9805   -7.5594   -7.5594   -5.7853   -5.6940   -5.6940   -4.5179   -4.5179   -4.0410
   -4.0410   -3.5219   -2.9077   -2.8174   -2.8174   -1.2795   -1.2795   -0.6909   -0.0461    0.1267
    0.8728    0.8890    0.8890    1.1894    1.3202    1.3812    1.3812    1.5269    2.0956    2.6031
    2.6139    2.8825    3.2774    3.2774    3.4164    3.4164    4.4681    5.2235    5.2235    5.6625
    6.0812    6.4090    6.4090    6.4948    6.4948    6.8318    7.4676    7.4676    7.7076    8.3875
    8.3875    8.9097    8.9097    8.9113    9.0227    9.0227    9.7269    9.7269   10.0374   10.0374
   10.7372   10.7372   10.7924   11.1517   12.3591   12.3591   12.5670   12.7885   12.7885   12.9965
   15.3247   15.3247   15.3608   15.3608
  15  1  -29.8284  -28.3577  -27.6533  -27.6533  -27.2270  -26.3125  -26.3125  -25.9254  -25.6845  -25.2973
         -25.2973  -24.1035  -24.1035  -23.9530  -23.9530  -23.5785  -22.2929  -22.2929  -21.6371  -21.5763
  -21.5763  -20.6199  -20.6199  -20.6122  -20.6122  -19.9167  -19.0766  -19.0766  -18.9441  -18.9441
  -18.5065  -18.5065  -18.1495  -18.1028  -18.1028  -17.4283  -17.1093  -17.1093  -16.9057  -16.3708
  -16.3708  -16.1158  -16.1158  -16.0188  -15.9096  -15.6890  -15.6890  -15.2512  -15.2512  -14.9701
  -14.8174  -14.8080  -14.8080  -14.6575  -14.6575  -14.1923  -13.8504  -13.3537  -13.0004  -12.6397
  -12.3587  -12.3587  -12.3544  -11.1607  -10.0798   -9.6178   -9.6075   -9.6075   -9.1861   -9.1861
   -8.9805   -8.9805   -7.5594   -7.5594   -5.7853   -5.6940   -5.6940   -4.5179   -4.5179   -4.0410
   -4.0410   -3.5219   -2.9077   -2.8174   -2.8174   -1.2795   -1.2795   -0.6909   -0.0461    0.1267
    0.8728    0.8890    0.8890    1.1894    1.3202    1.3812    1.3812    1.5269    2.0956    2.6031
    2.6139    2.8825    3.2774    3.2774    3.4164    3.4164    4.4681    5.2235    5.2235    5.6625
    6.0812    6.4090    6.4090    6.4948    6.4948    6.8318    7.4676    7.4676    7.7076    8.3875
    8.3875    8.9097    8.9097    8.9113    9.0227    9.0227    9.7269    9.7269   10.0374   10.0374
   10.7372   10.7372   10.7924   11.1517   12.3591   12.3591   12.5670   12.7885   12.7885   12.9965
   15.3247   15.3247   15.3608   15.3608
  16  1  -29.4534  -28.7179  -28.7179  -26.8967  -26.6380  -26.6380  -26.2457  -26.2457  -25.3653  -24.8187
         -24.8186  -24.3899  -24.3899  -24.0222  -23.2582  -23.1188  -23.1188  -23.0590  -22.0801  -22.0801
  -21.5365  -21.1474  -20.7245  -20.7245  -20.4295  -19.6317  -19.4500  -19.4500  -18.2760  -18.2760
  -18.0965  -18.0570  -17.8429  -17.5060  -17.2246  -17.2246  -17.0181  -17.0181  -16.7514  -16.7037
  -16.7037  -16.3136  -16.3136  -16.0819  -16.0819  -15.5489  -15.5489  -15.3328  -15.3328  -15.1253
  -15.1253  -14.5818  -14.5818  -14.4526  -14.0029  -13.8615  -13.8615  -13.7803  -13.3510  -13.3510
  -13.3229  -12.9853  -12.6208  -10.8759  -10.3262  -10.3262  -10.0302  -10.0302   -9.9328   -8.9742
   -8.9742   -8.3447   -7.1077   -6.2581   -5.7119   -5.7119   -5.4769   -5.4769   -4.5943   -4.2598
   -4.2598   -3.6442   -2.3828   -2.3828   -2.1134   -2.1134   -0.6178    0.0754    0.0754    0.6216
    0.6216    0.9202    1.5410    1.9214    1.9214    2.5018    2.6694    3.0514    3.0559    3.0559
    3.1697    3.1697    3.1795    3.4060    3.4060    3.8417    3.8418    4.7368    4.7828    4.7829
    4.9695    5.0232    5.0232    5.1872    5.6628    6.4555    6.4555    6.4810    7.4011    7.4011
    7.5340    7.5340    7.5852    7.7759    8.3768    8.3768    9.8403   10.1747   10.7224   10.7224
   11.0502   11.0502   12.5248   12.5248   12.8557   12.8557   13.8076   13.8076   13.9534   13.9534
   14.3544   14.4890   14.8334   14.8492
  17  1  -29.8284  -28.3577  -27.6533  -27.6533  -27.2270  -26.3125  -26.3125  -25.9254  -25.6845  -25.2973
         -25.2973  -24.1035  -24.1035  -23.9530  -23.9530  -23.5785  -22.2929  -22.2929  -21.6371  -21.5763
  -21.5763  -20.6199  -20.6199  -20.6122  -20.6122  -19.9167  -19.0766  -19.0766  -18.9441  -18.9441
  -18.5065  -18.5065  -18.1495  -18.1028  -18.1028  -17.4283  -17.1093  -17.1093  -16.9057  -16.3708
  -16.3708  -16.1158  -16.1158  -16.0188  -15.9096  -15.6890  -15.6890  -15.2512  -15.2512  -14.9701
  -14.8174  -14.8080  -14.8080  -14.6575  -14.6575  -14.1923  -13.8504  -13.3537  -13.0004  -12.6397
  -12.3587  -12.3587  -12.3544  -11.1607  -10.0798   -9.6178   -9.6075   -9.6075   -9.1861   -9.1861
   -8.9805   -8.9805   -7.5594   -7.5594   -5.7853   -5.6940   -5.6940   -4.5179   -4.5179   -4.0410
   -4.0410   -3.5219   -2.9077   -2.8174   -2.8174   -1.2795   -1.2795   -0.6909   -0.0461    0.1267
    0.8728    0.8890    0.8890    1.1894    1.3202    1.3812    1.3812    1.5269    2.0956    2.6031
    2.6139    2.8825    3.2774    3.2774    3.4164    3.4164    4.4681    5.2235    5.2235    5.6625
    6.0812    6.4090    6.4090    6.4948    6.4948    6.8318    7.4676    7.4676    7.7076    8.3875
    8.3875    8.9097    8.9097    8.9113    9.0227    9.0227    9.7269    9.7269   10.0374   10.0374
   10.7372   10.7372   10.7924   11.1517   12.3591   12.3591   12.5670   12.7885   12.7885   12.9965
   15.3247   15.3247   15.3608   15.3608
  18  1  -30.0176  -27.3932  -27.1395  -27.1395  -27.1395  -27.1395  -27.1395  -27.1395  -24.8384  -24.8384
         -24.8384  -24.8384  -24.8384  -24.8384  -23.0370  -23.0370  -21.9460  -21.9460  -21.9460  -21.9460
  -20.8682  -20.8682  -19.6495  -19.6495  -19.6495  -19.6495  -19.6495  -19.6495  -19.2243  -19.2243
  -19.2243  -19.2243  -18.3005  -18.0053  -18.0053  -18.0053  -18.0053  -18.0053  -18.0053  -15.6530
  -15.6529  -15.6529  -15.6529  -15.6529  -15.6529  -15.5557  -15.5557  -15.5557  -15.5557  -15.5557
  -15.5557  -14.5319  -14.5319  -14.5319  -14.5319  -14.5319  -14.5319  -12.5819  -12.5819  -12.0955
  -12.0955  -11.6221  -11.6221  -11.3063   -9.4103   -9.4103   -9.4103   -9.4103   -9.4103   -9.4103
   -8.6086   -8.6086   -8.6086   -8.6086   -4.8671   -4.8671   -4.8671   -4.8671   -4.8671   -4.8671
   -4.7231   -4.7231   -2.0243   -2.0243   -2.0243   -2.0243   -2.0243   -2.0243    0.4348    0.4348
    0.4348    0.4348    0.4348    0.4348    0.5595    0.5595    0.9071    1.2709    1.2709    2.3005
    2.7547    2.7547    2.7547    2.7547    2.7547    2.7547    4.4299    5.3425    7.0996    7.0996
    7.4825    7.4825    7.4825    7.4825    8.3717    8.3717    8.7856    8.7856    8.7856    8.7856
    8.7856    8.7856    9.3597    9.3597    9.3597    9.3597    9.3597    9.3597   10.3379   10.3379
   10.3379   10.3379   10.3379   10.3379   11.2032   11.2032   11.2032   11.2032   11.2032   11.2032
   15.7074   15.7074   15.7074   15.7074
  19  1  -29.8284  -28.3577  -27.6533  -27.6533  -27.2270  -26.3125  -26.3125  -25.9254  -25.6845  -25.2973
         -25.2973  -24.1035  -24.1035  -23.9530  -23.9530  -23.5785  -22.2929  -22.2929  -21.6371  -21.5763
  -21.5763  -20.6199  -20.6199  -20.6122  -20.6122  -19.9167  -19.0766  -19.0766  -18.9441  -18.9441
  -18.5065  -18.5065  -18.1495  -18.1028  -18.1028  -17.4283  -17.1093  -17.1093  -16.9057  -16.3708
  -16.3708  -16.1158  -16.1158  -16.0188  -15.9096  -15.6890  -15.6890  -15.2512  -15.2512  -14.9701
  -14.8174  -14.8080  -14.8080  -14.6575  -14.6575  -14.1923  -13.8504  -13.3537  -13.0004  -12.6397
  -12.3587  -12.3587  -12.3544  -11.1607  -10.0798   -9.6178   -9.6075   -9.6075   -9.1861   -9.1861
   -8.9805   -8.9805   -7.5594   -7.5594   -5.7853   -5.6940   -5.6940   -4.5179   -4.5179   -4.0410
   -4.0410   -3.5219   -2.9077   -2.8174   -2.8174   -1.2795   -1.2795   -0.6909   -0.0461    0.1267
    0.8728    0.8890    0.8890    1.1894    1.3202    1.3812    1.3812    1.5269    2.0956    2.6031
    2.6139    2.8825    3.2774    3.2774    3.4164    3.4164    4.4681    5.2235    5.2235    5.6625
    6.0812    6.4090    6.4090    6.4948    6.4948    6.8318    7.4676    7.4676    7.7076    8.3875
    8.3875    8.9097    8.9097    8.9113    9.0227    9.0227    9.7269    9.7269   10.0374   10.0374
   10.7372   10.7372   10.7924   11.1517   12.3591   12.3591   12.5670   12.7885   12.7885   12.9965
   15.3247   15.3247   15.3608   15.3608
  20  1  -29.2677  -29.2677  -27.8274  -27.8274  -26.7327  -26.7326  -25.4530  -25.4530  -25.2200  -25.2200
         -25.2200  -25.2200  -24.4563  -23.4719  -23.1591  -23.1591  -23.1591  -23.1591  -21.8881  -21.3983
  -21.3205  -21.3205  -21.3205  -21.3205  -19.7659  -19.7659  -19.7659  -19.7659  -17.8283  -17.8283
  -17.8283  -17.8283  -17.6882  -17.6882  -17.6222  -17.6222  -17.0328  -17.0328  -16.5854  -16.5854
  -16.5854  -16.5854  -16.2905  -16.2905  -16.1755  -15.6601  -15.6601  -15.1813  -15.1813  -15.1491
  -15.1491  -15.1200  -14.0716  -14.0716  -13.8926  -13.8925  -13.6567  -13.6567  -13.6567  -13.6567
  -13.1461  -13.0425  -13.0425  -10.7373  -10.7373  -10.4965   -9.6829   -9.6829   -9.0512   -9.0512
   -9.0511   -9.0511   -6.5070   -6.5070   -6.5070   -6.5070   -5.1968   -4.7147   -3.8043   -3.8043
   -3.8043   -3.8043   -3.6630   -3.6630   -1.0989   -1.0989   -0.9072   -0.9072   -0.2082    0.2912
    0.2913    1.8320    1.8320    2.5394    2.7703    2.7703    2.7703    2.7703    2.8611    2.8611
    3.3600    3.3600    3.4191    3.4191    3.5205    3.5205    4.1835    4.1835    4.7717    4.7717
    4.7717    4.7717    5.2126    5.2126    5.2437    5.2437    5.4689    5.4689    6.8529    6.8529
    8.7827    8.7827    8.7827    8.7827    9.4717    9.4717    9.4717    9.4718   10.1161   10.1161
   10.6898   10.6898   11.5484   11.7843   13.5407   13.6059   14.1944   14.1945   14.1945   14.1945
   14.3480   14.3480   14.3480   14.3480
  21  1  -29.8284  -28.3577  -27.6533  -27.6533  -27.2270  -26.3125  -26.3125  -25.9254  -25.6845  -25.2973
         -25.2973  -24.1035  -24.1035  -23.9530  -23.9530  -23.5785  -22.2929  -22.2929  -21.6371  -21.5763
  -21.5763  -20.6199  -20.6199  -20.6122  -20.6122  -19.9167  -19.0766  -19.0766  -18.9441  -18.9441
  -18.5065  -18.5065  -18.1495  -18.1028  -18.1028  -17.4283  -17.1093  -17.1093  -16.9057  -16.3708
  -16.3708  -16.1158  -16.1158  -16.0188  -15.9096  -15.6890  -15.6890  -15.2512  -15.2512  -14.9701
  -14.8174  -14.8080  -14.8080  -14.6575  -14.6575  -14.1923  -13.8504  -13.3537  -13.0004  -12.6397
  -12.3587  -12.3587  -12.3544  -11.1607  -10.0798   -9.6178   -9.6075   -9.6075   -9.1861   -9.1861
   -8.9805   -8.9805   -7.5594   -7.5594   -5.7853   -5.6940   -5.6940   -4.5179   -4.5179   -4.0410
   -4.0410   -3.5219   -2.9077   -2.8174   -2.8174   -1.2795   -1.2795   -0.6909   -0.0461    0.1267
    0.8728    0.8890    0.8890    1.1894    1.3202    1.3812    1.3812    1.5269    2.0956    2.6031
    2.6139    2.8825    3.2774    3.2774    3.4164    3.4164    4.4681    5.2235    5.2235    5.6625
    6.0812    6.4090    6.4090    6.4948    6.4948    6.8318    7.4676    7.4676    7.7076    8.3875
    8.3875    8.9097    8.9097    8.9113    9.0227    9.0227    9.7269    9.7269   10.0374   10.0374
   10.7372   10.7372   10.7924   11.1517   12.3591   12.3591   12.5670   12.7885   12.7885   12.9965
   15.3247   15.3247   15.3608   15.3608
  22  1  -29.8284  -28.3577  -27.6533  -27.6533  -27.2270  -26.3125  -26.3125  -25.9254  -25.6845  -25.2973
         -25.2973  -24.1035  -24.1035  -23.9530  -23.9530  -23.5785  -22.2929  -22.2929  -21.6371  -21.5763
  -21.5763  -20.6199  -20.6199  -20.6122  -20.6122  -19.9167  -19.0766  -19.0766  -18.9441  -18.9441
  -18.5065  -18.5065  -18.1495  -18.1028  -18.1028  -17.4283  -17.1093  -17.1093  -16.9057  -16.3708
  -16.3708  -16.1158  -16.1158  -16.0188  -15.9096  -15.6890  -15.6890  -15.2512  -15.2512  -14.9701
  -14.8174  -14.8080  -14.8080  -14.6575  -14.6575  -14.1923  -13.8504  -13.3537  -13.0004  -12.6397
  -12.3587  -12.3587  -12.3544  -11.1607  -10.0798   -9.6178   -9.6075   -9.6075   -9.1861   -9.1861
   -8.9805   -8.9805   -7.5594   -7.5594   -5.7853   -5.6940   -5.6940   -4.5179   -4.5179   -4.0410
   -4.0410   -3.5219   -2.9077   -2.8174   -2.8174   -1.2795   -1.2795   -0.6909   -0.0461    0.1267
    0.8728    0.8890    0.8890    1.1894    1.3202    1.3812    1.3812    1.5269    2.0956    2.6031
    2.6139    2.8825    3.2774    3.2774    3.4164    3.4164    4.4681    5.2235    5.2235    5.6625
    6.0812    6.4090    6.4090    6.4948    6.4948    6.8318    7.4676    7.4676    7.7076    8.3875
    8.3875    8.9097    8.9097    8.9113    9.0227    9.0227    9.7269    9.7269   10.0374   10.0374
   10.7372   10.7372   10.7924   11.1517   12.3591   12.3591   12.5670   12.7885   12.7885   12.9965
   15.3247   15.3247   15.3608   15.3608
  23  1  -29.4534  -28.7179  -28.7179  -26.8967  -26.6380  -26.6380  -26.2457  -26.2457  -25.3653  -24.8187
         -24.8186  -24.3899  -24.3899  -24.0222  -23.2582  -23.1188  -23.1188  -23.0590  -22.0801  -22.0801
  -21.5365  -21.1474  -20.7245  -20.7245  -20.4295  -19.6317  -19.4500  -19.4500  -18.2760  -18.2760
  -18.0965  -18.0570  -17.8429  -17.5060  -17.2246  -17.2246  -17.0181  -17.0181  -16.7514  -16.7037
  -16.7037  -16.3136  -16.3136  -16.0819  -16.0819  -15.5489  -15.5489  -15.3328  -15.3328  -15.1253
  -15.1253  -14.5818  -14.5818  -14.4526  -14.0029  -13.8615  -13.8615  -13.7803  -13.3510  -13.3510
  -13.3229  -12.9853  -12.6208  -10.8759  -10.3262  -10.3262  -10.0302  -10.0302   -9.9328   -8.9742
   -8.9742   -8.3447   -7.1077   -6.2581   -5.7119   -5.7119   -5.4769   -5.4769   -4.5943   -4.2598
   -4.2598   -3.6442   -2.3828   -2.3828   -2.1134   -2.1134   -0.6178    0.0754    0.0754    0.6216
    0.6216    0.9202    1.5410    1.9214    1.9214    2.5018    2.6694    3.0514    3.0559    3.0559
    3.1697    3.1697    3.1795    3.4060    3.4060    3.8417    3.8418    4.7368    4.7828    4.7829
    4.9695    5.0232    5.0232    5.1872    5.6628    6.4555    6.4555    6.4810    7.4011    7.4011
    7.5340    7.5340    7.5852    7.7759    8.3768    8.3768    9.8403   10.1747   10.7224   10.7224
   11.0502   11.0502   12.5248   12.5248   12.8557   12.8557   13.8076   13.8076   13.9534   13.9534
   14.3544   14.4890   14.8334   14.8492
  24  1  -29.4534  -28.7179  -28.7179  -26.8967  -26.6380  -26.6380  -26.2457  -26.2457  -25.3653  -24.8187
         -24.8186  -24.3899  -24.3899  -24.0222  -23.2582  -23.1188  -23.1188  -23.0590  -22.0801  -22.0801
  -21.5365  -21.1474  -20.7245  -20.7245  -20.4295  -19.6317  -19.4500  -19.4500  -18.2760  -18.2760
  -18.0965  -18.0570  -17.8429  -17.5060  -17.2246  -17.2246  -17.0181  -17.0181  -16.7514  -16.7037
  -16.7037  -16.3136  -16.3136  -16.0819  -16.0819  -15.5489  -15.5489  -15.3328  -15.3328  -15.1253
  -15.1253  -14.5818  -14.5818  -14.4526  -14.0029  -13.8615  -13.8615  -13.7803  -13.3510  -13.3510
  -13.3229  -12.9853  -12.6208  -10.8759  -10.3262  -10.3262  -10.0302  -10.0302   -9.9328   -8.9742
   -8.9742   -8.3447   -7.1077   -6.2581   -5.7119   -5.7119   -5.4769   -5.4769   -4.5943   -4.2598
   -4.2598   -3.6442   -2.3828   -2.3828   -2.1134   -2.1134   -0.6178    0.0754    0.0754    0.6216
    0.6216    0.9202    1.5410    1.9214    1.9214    2.5018    2.6694    3.0514    3.0559    3.0559
    3.1697    3.1697    3.1795    3.4060    3.4060    3.8417    3.8418    4.7368    4.7828    4.7829
    4.9695    5.0232    5.0232    5.1872    5.6628    6.4555    6.4555    6.4810    7.4011    7.4011
    7.5340    7.5340    7.5852    7.7759    8.3768    8.3768    9.8403   10.1747   10.7224   10.7224
   11.0502   11.0502   12.5248   12.5248   12.8557   12.8557   13.8076   13.8076   13.9534   13.9534
   14.3544   14.4890   14.8334   14.8492
  25  1  -29.4534  -28.7179  -28.7179  -26.8967  -26.6380  -26.6380  -26.2457  -26.2457  -25.3653  -24.8187
         -24.8186  -24.3899  -24.3899  -24.0222  -23.2582  -23.1188  -23.1188  -23.0590  -22.0801  -22.0801
  -21.5365  -21.1474  -20.7245  -20.7245  -20.4295  -19.6317  -19.4500  -19.4500  -18.2760  -18.2760
  -18.0965  -18.0570  -17.8429  -17.5060  -17.2246  -17.2246  -17.0181  -17.0181  -16.7514  -16.7037
  -16.7037  -16.3136  -16.3136  -16.0819  -16.0819  -15.5489  -15.5489  -15.3328  -15.3328  -15.1253
  -15.1253  -14.5818  -14.5818  -14.4526  -14.0029  -13.8615  -13.8615  -13.7803  -13.3510  -13.3510
  -13.3229  -12.9853  -12.6208  -10.8759  -10.3262  -10.3262  -10.0302  -10.0302   -9.9328   -8.9742
   -8.9742   -8.3447   -7.1077   -6.2581   -5.7119   -5.7119   -5.4769   -5.4769   -4.5943   -4.2598
   -4.2598   -3.6442   -2.3828   -2.3828   -2.1134   -2.1134   -0.6178    0.0754    0.0754    0.6216
    0.6216    0.9202    1.5410    1.9214    1.9214    2.5018    2.6694    3.0514    3.0559    3.0559
    3.1697    3.1697    3.1795    3.4060    3.4060    3.8417    3.8418    4.7368    4.7828    4.7829
    4.9695    5.0232    5.0232    5.1872    5.6628    6.4555    6.4555    6.4810    7.4011    7.4011
    7.5340    7.5340    7.5852    7.7759    8.3768    8.3768    9.8403   10.1747   10.7224   10.7224
   11.0502   11.0502   12.5248   12.5248   12.8557   12.8557   13.8076   13.8076   13.9534   13.9534
   14.3544   14.4890   14.8334   14.8492
  26  1  -29.2677  -29.2677  -27.8274  -27.8274  -26.7327  -26.7326  -25.4530  -25.4530  -25.2200  -25.2200
         -25.2200  -25.2200  -24.4563  -23.4719  -23.1591  -23.1591  -23.1591  -23.1591  -21.8881  -21.3983
  -21.3205  -21.3205  -21.3205  -21.3205  -19.7659  -19.7659  -19.7659  -19.7659  -17.8283  -17.8283
  -17.8283  -17.8283  -17.6882  -17.6882  -17.6222  -17.6222  -17.0328  -17.0328  -16.5854  -16.5854
  -16.5854  -16.5854  -16.2905  -16.2905  -16.1755  -15.6601  -15.6601  -15.1813  -15.1813  -15.1491
  -15.1491  -15.1200  -14.0716  -14.0716  -13.8926  -13.8925  -13.6567  -13.6567  -13.6567  -13.6567
  -13.1461  -13.0425  -13.0425  -10.7373  -10.7373  -10.4965   -9.6829   -9.6829   -9.0512   -9.0512
   -9.0511   -9.0511   -6.5070   -6.5070   -6.5070   -6.5070   -5.1968   -4.7147   -3.8043   -3.8043
   -3.8043   -3.8043   -3.6630   -3.6630   -1.0989   -1.0989   -0.9072   -0.9072   -0.2082    0.2912
    0.2913    1.8320    1.8320    2.5394    2.7703    2.7703    2.7703    2.7703    2.8611    2.8611
    3.3600    3.3600    3.4191    3.4191    3.5205    3.5205    4.1835    4.1835    4.7717    4.7717
    4.7717    4.7717    5.2126    5.2126    5.2437    5.2437    5.4689    5.4689    6.8529    6.8529
    8.7827    8.7827    8.7827    8.7827    9.4717    9.4717    9.4717    9.4718   10.1161   10.1161
   10.6898   10.6898   11.5484   11.7843   13.5407   13.6059   14.1944   14.1945   14.1945   14.1945
   14.3480   14.3480   14.3480   14.3480
  27  1  -29.4534  -28.7179  -28.7179  -26.8967  -26.6380  -26.6380  -26.2457  -26.2457  -25.3653  -24.8187
         -24.8186  -24.3899  -24.3899  -24.0222  -23.2582  -23.1188  -23.1188  -23.0590  -22.0801  -22.0801
  -21.5365  -21.1474  -20.7245  -20.7245  -20.4295  -19.6317  -19.4500  -19.4500  -18.2760  -18.2760
  -18.0965  -18.0570  -17.8429  -17.5060  -17.2246  -17.2246  -17.0181  -17.0181  -16.7514  -16.7037
  -16.7037  -16.3136  -16.3136  -16.0819  -16.0819  -15.5489  -15.5489  -15.3328  -15.3328  -15.1253
  -15.1253  -14.5818  -14.5818  -14.4526  -14.0029  -13.8615  -13.8615  -13.7803  -13.3510  -13.3510
  -13.3229  -12.9853  -12.6208  -10.8759  -10.3262  -10.3262  -10.0302  -10.0302   -9.9328   -8.9742
   -8.9742   -8.3447   -7.1077   -6.2581   -5.7119   -5.7119   -5.4769   -5.4769   -4.5943   -4.2598
   -4.2598   -3.6442   -2.3828   -2.3828   -2.1134   -2.1134   -0.6178    0.0754    0.0754    0.6216
    0.6216    0.9202    1.5410    1.9214    1.9214    2.5018    2.6694    3.0514    3.0559    3.0559
    3.1697    3.1697    3.1795    3.4060    3.4060    3.8417    3.8418    4.7368    4.7828    4.7829
    4.9695    5.0232    5.0232    5.1872    5.6628    6.4555    6.4555    6.4810    7.4011    7.4011
    7.5340    7.5340    7.5852    7.7759    8.3768    8.3768    9.8403   10.1747   10.7224   10.7224
   11.0502   11.0502   12.5248   12.5248   12.8557   12.8557   13.8076   13.8076   13.9534   13.9534
   14.3544   14.4890   14.8334   14.8492
  28  1  -29.2677  -29.2677  -27.8274  -27.8274  -26.7327  -26.7326  -25.4530  -25.4530  -25.2200  -25.2200
         -25.2200  -25.2200  -24.4563  -23.4719  -23.1591  -23.1591  -23.1591  -23.1591  -21.8881  -21.3983
  -21.3205  -21.3205  -21.3205  -21.3205  -19.7659  -19.7659  -19.7659  -19.7659  -17.8283  -17.8283
  -17.8283  -17.8283  -17.6882  -17.6882  -17.6222  -17.6222  -17.0328  -17.0328  -16.5854  -16.5854
  -16.5854  -16.5854  -16.2905  -16.2905  -16.1755  -15.6601  -15.6601  -15.1813  -15.1813  -15.1491
  -15.1491  -15.1200  -14.0716  -14.0716  -13.8926  -13.8925  -13.6567  -13.6567  -13.6567  -13.6567
  -13.1461  -13.0425  -13.0425  -10.7373  -10.7373  -10.4965   -9.6829   -9.6829   -9.0512   -9.0512
   -9.0511   -9.0511   -6.5070   -6.5070   -6.5070   -6.5070   -5.1968   -4.7147   -3.8043   -3.8043
   -3.8043   -3.8043   -3.6630   -3.6630   -1.0989   -1.0989   -0.9072   -0.9072   -0.2082    0.2912
    0.2913    1.8320    1.8320    2.5394    2.7703    2.7703    2.7703    2.7703    2.8611    2.8611
    3.3600    3.3600    3.4191    3.4191    3.5205    3.5205    4.1835    4.1835    4.7717    4.7717
    4.7717    4.7717    5.2126    5.2126    5.2437    5.2437    5.4689    5.4689    6.8529    6.8529
    8.7827    8.7827    8.7827    8.7827    9.4717    9.4717    9.4717    9.4718   10.1161   10.1161
   10.6898   10.6898   11.5484   11.7843   13.5407   13.6059   14.1944   14.1945   14.1945   14.1945
   14.3480   14.3480   14.3480   14.3480
  29  1  -28.3899  -28.3899  -27.6847  -27.6847  -27.6847  -27.6847  -25.6856  -25.6856  -25.6856  -25.6856
         -24.4615  -24.4615  -23.9544  -23.9544  -23.9544  -23.9544  -23.2248  -23.2248  -21.9205  -21.9205
  -21.7031  -21.7031  -21.7031  -21.7031  -19.8695  -19.8695  -18.8253  -18.8253  -18.8253  -18.8253
  -18.1742  -18.1742  -17.5007  -17.5007  -16.7502  -16.7502  -16.7502  -16.7502  -16.1780  -16.1780
  -16.1780  -16.1780  -15.8192  -15.8192  -15.8192  -15.8192  -14.5849  -14.5849  -14.3669  -14.3669
  -14.3668  -14.3668  -13.9643  -13.9643  -13.8187  -13.8187  -13.8187  -13.8187  -13.3658  -13.3658
  -11.9257  -11.9257  -11.9257  -11.9257  -10.7106  -10.7106  -10.5231  -10.5231  -10.5231  -10.5231
   -9.8844   -9.8844   -6.6046   -6.6046   -6.1069   -6.1069   -6.1069   -6.1069   -5.5270   -5.5270
   -4.0660   -4.0660   -4.0659   -4.0659   -1.2318   -1.2318   -1.2318   -1.2318   -0.0550   -0.0550
    2.0501    2.0501    2.0501    2.0501    2.2788    2.2788    2.7945    2.7945    2.7945    2.7945
    2.9232    2.9232    3.7807    3.7807    4.0500    4.0500    4.0500    4.0500    4.5276    4.5276
    4.5276    4.5276    5.5134    5.5134    5.9609    5.9609    7.0374    7.0374    7.0374    7.0374
    7.5660    7.5660    7.9200    7.9200    7.9200    7.9200   10.0096   10.0096   10.8899   10.8899
   10.8899   10.8899   12.6837   12.6837   12.6837   12.6837   13.8826   13.8826   13.8826   13.8826
   14.4172   14.4172   14.8413   14.8413
  30  1  -28.7489  -28.7489  -27.3389  -27.3389  -26.6620  -26.6620  -26.6620  -26.6620  -25.3727  -25.3727
         -25.3727  -25.3727  -24.7714  -24.7714  -23.1115  -23.1115  -23.1115  -23.1115  -21.2129  -21.2129
  -21.2129  -21.2129  -20.9275  -20.9275  -19.8931  -19.8931  -19.8931  -19.8931  -18.8573  -18.8573
  -18.8573  -18.8573  -17.8441  -17.8441  -17.8441  -17.8441  -16.7819  -16.7819  -15.8616  -15.8616
  -15.8616  -15.8616  -15.5306  -15.5306  -15.2429  -15.2429  -15.2429  -15.2429  -14.8004  -14.8004
  -14.3618  -14.3618  -13.5219  -13.5219  -12.9944  -12.9944  -12.8837  -12.8837  -12.8837  -12.8837
  -12.6848  -12.6848  -11.6674  -11.6674  -11.6674  -11.6674  -11.1731  -11.1731   -9.4685   -9.4685
   -9.4685   -9.4685   -6.9100   -6.9100   -6.9100   -6.9100   -5.4459   -5.4459   -4.6489   -4.6489
   -4.6489   -4.6489   -2.8645   -2.8645   -2.8645   -2.8645   -1.9802   -1.9802    0.4795    0.4795
    1.4787    1.4787    1.6681    1.6681    1.9066    1.9066    2.2063    2.2063    2.2623    2.2623
    2.2623    2.2623    2.5906    2.5906    2.5906    2.5906    5.2246    5.2246    5.9056    5.9056
    5.9056    5.9056    6.4402    6.4402    6.9916    6.9916    6.9916    6.9916    8.3828    8.3828
    8.6318    8.6318    8.6319    8.6319    9.3953    9.3953    9.3953    9.3953   10.3947   10.3947
   10.3947   10.3947   10.9695   10.9695   12.5775   12.5775   12.5775   12.5775   12.7943   12.7943
   15.3411   15.3411   15.3411   15.3411
  31  1  -28.7489  -28.7489  -27.3389  -27.3389  -26.6620  -26.6620  -26.6620  -26.6620  -25.3727  -25.3727
         -25.3727  -25.3727  -24.7714  -24.7714  -23.1115  -23.1115  -23.1115  -23.1115  -21.2129  -21.2129
  -21.2129  -21.2129  -20.9275  -20.9275  -19.8931  -19.8931  -19.8931  -19.8931  -18.8573  -18.8573
  -18.8573  -18.8573  -17.8441  -17.8441  -17.8441  -17.8441  -16.7819  -16.7819  -15.8616  -15.8616
  -15.8616  -15.8616  -15.5306  -15.5306  -15.2429  -15.2429  -15.2429  -15.2429  -14.8004  -14.8004
  -14.3618  -14.3618  -13.5219  -13.5219  -12.9944  -12.9944  -12.8837  -12.8837  -12.8837  -12.8837
  -12.6848  -12.6848  -11.6674  -11.6674  -11.6674  -11.6674  -11.1731  -11.1731   -9.4685   -9.4685
   -9.4685   -9.4685   -6.9100   -6.9100   -6.9100   -6.9100   -5.4459   -5.4459   -4.6489   -4.6489
   -4.6489   -4.6489   -2.8645   -2.8645   -2.8645   -2.8645   -1.9802   -1.9802    0.4795    0.4795
    1.4787    1.4787    1.6681    1.6681    1.9066    1.9066    2.2063    2.2063    2.2623    2.2623
    2.2623    2.2623    2.5906    2.5906    2.5906    2.5906    5.2246    5.2246    5.9056    5.9056
    5.9056    5.9056    6.4402    6.4402    6.9916    6.9916    6.9916    6.9916    8.3828    8.3828
    8.6318    8.6318    8.6319    8.6319    9.3953    9.3953    9.3953    9.3953   10.3947   10.3947
   10.3947   10.3947   10.9695   10.9695   12.5775   12.5775   12.5775   12.5775   12.7943   12.7943
   15.3411   15.3411   15.3411   15.3411
  32  1  -28.3899  -28.3899  -27.6847  -27.6847  -27.6847  -27.6847  -25.6856  -25.6856  -25.6856  -25.6856
         -24.4615  -24.4615  -23.9544  -23.9544  -23.9544  -23.9544  -23.2248  -23.2248  -21.9205  -21.9205
  -21.7031  -21.7031  -21.7031  -21.7031  -19.8695  -19.8695  -18.8253  -18.8253  -18.8253  -18.8253
  -18.1742  -18.1742  -17.5007  -17.5007  -16.7502  -16.7502  -16.7502  -16.7502  -16.1780  -16.1780
  -16.1780  -16.1780  -15.8192  -15.8192  -15.8192  -15.8192  -14.5849  -14.5849  -14.3669  -14.3669
  -14.3668  -14.3668  -13.9643  -13.9643  -13.8187  -13.8187  -13.8187  -13.8187  -13.3658  -13.3658
  -11.9257  -11.9257  -11.9257  -11.9257  -10.7106  -10.7106  -10.5231  -10.5231  -10.5231  -10.5231
   -9.8844   -9.8844   -6.6046   -6.6046   -6.1069   -6.1069   -6.1069   -6.1069   -5.5270   -5.5270
   -4.0660   -4.0660   -4.0659   -4.0659   -1.2318   -1.2318   -1.2318   -1.2318   -0.0550   -0.0550
    2.0501    2.0501    2.0501    2.0501    2.2788    2.2788    2.7945    2.7945    2.7945    2.7945
    2.9232    2.9232    3.7807    3.7807    4.0500    4.0500    4.0500    4.0500    4.5276    4.5276
    4.5276    4.5276    5.5134    5.5134    5.9609    5.9609    7.0374    7.0374    7.0374    7.0374
    7.5660    7.5660    7.9200    7.9200    7.9200    7.9200   10.0096   10.0096   10.8899   10.8899
   10.8899   10.8899   12.6837   12.6837   12.6837   12.6837   13.8826   13.8826   13.8826   13.8826
   14.4172   14.4172   14.8413   14.8413
  33  1  -28.7489  -28.7489  -27.3389  -27.3389  -26.6620  -26.6620  -26.6620  -26.6620  -25.3727  -25.3727
         -25.3727  -25.3727  -24.7714  -24.7714  -23.1115  -23.1115  -23.1115  -23.1115  -21.2129  -21.2129
  -21.2129  -21.2129  -20.9275  -20.9275  -19.8931  -19.8931  -19.8931  -19.8931  -18.8573  -18.8573
  -18.8573  -18.8573  -17.8441  -17.8441  -17.8441  -17.8441  -16.7819  -16.7819  -15.8616  -15.8616
  -15.8616  -15.8616  -15.5306  -15.5306  -15.2429  -15.2429  -15.2429  -15.2429  -14.8004  -14.8004
  -14.3618  -14.3618  -13.5219  -13.5219  -12.9944  -12.9944  -12.8837  -12.8837  -12.8837  -12.8837
  -12.6848  -12.6848  -11.6674  -11.6674  -11.6674  -11.6674  -11.1731  -11.1731   -9.4685   -9.4685
   -9.4685   -9.4685   -6.9100   -6.9100   -6.9100   -6.9100   -5.4459   -5.4459   -4.6489   -4.6489
   -4.6489   -4.6489   -2.8645   -2.8645   -2.8645   -2.8645   -1.9802   -1.9802    0.4795    0.4795
    1.4787    1.4787    1.6681    1.6681    1.9066    1.9066    2.2063    2.2063    2.2623    2.2623
    2.2623    2.2623    2.5906    2.5906    2.5906    2.5906    5.2246    5.2246    5.9056    5.9056
    5.9056    5.9056    6.4402    6.4402    6.9916    6.9916    6.9916    6.9916    8.3828    8.3828
    8.6318    8.6318    8.6319    8.6319    9.3953    9.3953    9.3953    9.3953   10.3947   10.3947
   10.3947   10.3947   10.9695   10.9695   12.5775   12.5775   12.5775   12.5775   12.7943   12.7943
   15.3411   15.3411   15.3411   15.3411
  34  1  -28.9299  -28.9299  -26.1679  -26.1679  -26.1679  -26.1679  -26.1679  -26.1679  -26.1679  -26.1679
         -26.1679  -26.1679  -26.1679  -26.1679  -22.1255  -22.1255  -22.1255  -22.1255  -21.7398  -21.7398
  -21.7398  -21.7398  -19.6401  -19.6401  -19.6401  -19.6401  -18.9258  -18.9258  -18.9258  -18.9258
  -18.9258  -18.9258  -18.9258  -18.9258  -18.9258  -18.9258  -18.9258  -18.9258  -15.0771  -15.0771
  -15.0771  -15.0771  -15.0771  -15.0771  -15.0771  -15.0771  -15.0771  -15.0771  -15.0771  -15.0771
  -14.9346  -14.9346  -12.4290  -12.4290  -12.4289  -12.4289  -12.4289  -12.4289  -12.4289  -12.4289
  -12.4289  -12.4289  -12.4289  -12.4289  -12.3392  -12.3392  -12.3392  -12.3392   -8.3346   -8.3346
   -8.3345   -8.3345   -8.0482   -8.0482   -8.0482   -8.0482   -3.7295   -3.7295   -3.7295   -3.7295
   -3.7295   -3.7295   -3.7295   -3.7295   -3.7295   -3.7295   -3.7295   -3.7295    0.8682    0.8682
    0.8682    0.8682    1.4844    1.4844    1.8135    1.8135    1.8135    1.8135    1.8135    1.8135
    1.8135    1.8135    1.8135    1.8135    1.8135    1.8135    5.0020    5.0020    7.4279    7.4279
    7.4279    7.4279    7.7926    7.7926    7.7927    7.7927    9.0647    9.0647    9.0647    9.0647
    9.0647    9.0647    9.0647    9.0647    9.0647    9.0647    9.0647    9.0647   10.8070   10.8070
   10.8070   10.8070   10.8070   10.8070   10.8070   10.8070   10.8070   10.8070   10.8070   10.8070
   15.7056   15.7056   15.7056   15.7056
  35  1  -28.7489  -28.7489  -27.3389  -27.3389  -26.6620  -26.6620  -26.6620  -26.6620  -25.3727  -25.3727
         -25.3727  -25.3727  -24.7714  -24.7714  -23.1115  -23.1115  -23.1115  -23.1115  -21.2129  -21.2129
  -21.2129  -21.2129  -20.9275  -20.9275  -19.8931  -19.8931  -19.8931  -19.8931  -18.8573  -18.8573
  -18.8573  -18.8573  -17.8441  -17.8441  -17.8441  -17.8441  -16.7819  -16.7819  -15.8616  -15.8616
  -15.8616  -15.8616  -15.5306  -15.5306  -15.2429  -15.2429  -15.2429  -15.2429  -14.8004  -14.8004
  -14.3618  -14.3618  -13.5219  -13.5219  -12.9944  -12.9944  -12.8837  -12.8837  -12.8837  -12.8837
  -12.6848  -12.6848  -11.6674  -11.6674  -11.6674  -11.6674  -11.1731  -11.1731   -9.4685   -9.4685
   -9.4685   -9.4685   -6.9100   -6.9100   -6.9100   -6.9100   -5.4459   -5.4459   -4.6489   -4.6489
   -4.6489   -4.6489   -2.8645   -2.8645   -2.8645   -2.8645   -1.9802   -1.9802    0.4795    0.4795
    1.4787    1.4787    1.6681    1.6681    1.9066    1.9066    2.2063    2.2063    2.2623    2.2623
    2.2623    2.2623    2.5906    2.5906    2.5906    2.5906    5.2246    5.2246    5.9056    5.9056
    5.9056    5.9056    6.4402    6.4402    6.9916    6.9916    6.9916    6.9916    8.3828    8.3828
    8.6318    8.6318    8.6319    8.6319    9.3953    9.3953    9.3953    9.3953   10.3947   10.3947
   10.3947   10.3947   10.9695   10.9695   12.5775   12.5775   12.5775   12.5775   12.7943   12.7943
   15.3411   15.3411   15.3411   15.3411
  36  1  -28.2120  -28.2120  -28.2120  -28.2120  -26.8295  -26.8295  -26.8295  -26.8295  -24.3241  -24.3241
         -24.3241  -24.3241  -24.3241  -24.3241  -24.3241  -24.3241  -23.6522  -23.6522  -22.2480  -22.2480
  -20.6504  -20.6504  -20.6503  -20.6503  -20.6503  -20.6503  -20.6503  -20.6503  -17.3192  -17.3192
  -17.3192  -17.3192  -17.3192  -17.3192  -17.3192  -17.3192  -17.1385  -17.1385  -17.1385  -17.1385
  -15.7057  -15.7057  -15.7057  -15.7057  -15.6848  -15.6848  -14.7934  -14.7934  -14.7934  -14.7934
  -14.2063  -14.2063  -14.2063  -14.2063  -13.4866  -13.4866  -13.4866  -13.4866  -13.0324  -13.0324
  -13.0323  -13.0323  -10.6523  -10.6523  -10.6523  -10.6523  -10.6523  -10.6523  -10.6523  -10.6523
  -10.4496  -10.4496   -6.3343   -6.3343   -5.7067   -5.7067   -5.7067   -5.7067   -5.7067   -5.7067
   -5.7067   -5.7067   -2.4506   -2.4506   -2.4506   -2.4506   -0.5155   -0.5155   -0.5155   -0.5155
    1.3513    1.3513    2.3533    2.3533    2.3533    2.3533    3.7446    3.7446    3.7446    3.7446
    3.8594    3.8594    3.8594    3.8594    3.8594    3.8594    3.8594    3.8594    4.0180    4.0180
    4.0180    4.0180    4.9281    4.9281    4.9281    4.9281    6.2963    6.2963    6.2964    6.2964
    9.1453    9.1453    9.1453    9.1453    9.1453    9.1453    9.1453    9.1453   10.3974   10.3974
   10.3974   10.3974   11.6657   11.6657   13.5771   13.5771   14.2693   14.2693   14.2693   14.2693
   14.2693   14.2693   14.2694   14.2694
  37  1  -28.7489  -28.7489  -27.3389  -27.3389  -26.6620  -26.6620  -26.6620  -26.6620  -25.3727  -25.3727
         -25.3727  -25.3727  -24.7714  -24.7714  -23.1115  -23.1115  -23.1115  -23.1115  -21.2129  -21.2129
  -21.2129  -21.2129  -20.9275  -20.9275  -19.8931  -19.8931  -19.8931  -19.8931  -18.8573  -18.8573
  -18.8573  -18.8573  -17.8441  -17.8441  -17.8441  -17.8441  -16.7819  -16.7819  -15.8616  -15.8616
  -15.8616  -15.8616  -15.5306  -15.5306  -15.2429  -15.2429  -15.2429  -15.2429  -14.8004  -14.8004
  -14.3618  -14.3618  -13.5219  -13.5219  -12.9944  -12.9944  -12.8837  -12.8837  -12.8837  -12.8837
  -12.6848  -12.6848  -11.6674  -11.6674  -11.6674  -11.6674  -11.1731  -11.1731   -9.4685   -9.4685
   -9.4685   -9.4685   -6.9100   -6.9100   -6.9100   -6.9100   -5.4459   -5.4459   -4.6489   -4.6489
   -4.6489   -4.6489   -2.8645   -2.8645   -2.8645   -2.8645   -1.9802   -1.9802    0.4795    0.4795
    1.4787    1.4787    1.6681    1.6681    1.9066    1.9066    2.2063    2.2063    2.2623    2.2623
    2.2623    2.2623    2.5906    2.5906    2.5906    2.5906    5.2246    5.2246    5.9056    5.9056
    5.9056    5.9056    6.4402    6.4402    6.9916    6.9916    6.9916    6.9916    8.3828    8.3828
    8.6318    8.6318    8.6319    8.6319    9.3953    9.3953    9.3953    9.3953   10.3947   10.3947
   10.3947   10.3947   10.9695   10.9695   12.5775   12.5775   12.5775   12.5775   12.7943   12.7943
   15.3411   15.3411   15.3411   15.3411
  38  1  -28.7489  -28.7489  -27.3389  -27.3389  -26.6620  -26.6620  -26.6620  -26.6620  -25.3727  -25.3727
         -25.3727  -25.3727  -24.7714  -24.7714  -23.1115  -23.1115  -23.1115  -23.1115  -21.2129  -21.2129
  -21.2129  -21.2129  -20.9275  -20.9275  -19.8931  -19.8931  -19.8931  -19.8931  -18.8573  -18.8573
  -18.8573  -18.8573  -17.8441  -17.8441  -17.8441  -17.8441  -16.7819  -16.7819  -15.8616  -15.8616
  -15.8616  -15.8616  -15.5306  -15.5306  -15.2429  -15.2429  -15.2429  -15.2429  -14.8004  -14.8004
  -14.3618  -14.3618  -13.5219  -13.5219  -12.9944  -12.9944  -12.8837  -12.8837  -12.8837  -12.8837
  -12.6848  -12.6848  -11.6674  -11.6674  -11.6674  -11.6674  -11.1731  -11.1731   -9.4685   -9.4685
   -9.4685   -9.4685   -6.9100   -6.9100   -6.9100   -6.9100   -5.4459   -5.4459   -4.6489   -4.6489
   -4.6489   -4.6489   -2.8645   -2.8645   -2.8645   -2.8645   -1.9802   -1.9802    0.4795    0.4795
    1.4787    1.4787    1.6681    1.6681    1.9066    1.9066    2.2063    2.2063    2.2623    2.2623
    2.2623    2.2623    2.5906    2.5906    2.5906    2.5906    5.2246    5.2246    5.9056    5.9056
    5.9056    5.9056    6.4402    6.4402    6.9916    6.9916    6.9916    6.9916    8.3828    8.3828
    8.6318    8.6318    8.6319    8.6319    9.3953    9.3953    9.3953    9.3953   10.3947   10.3947
   10.3947   10.3947   10.9695   10.9695   12.5775   12.5775   12.5775   12.5775   12.7943   12.7943
   15.3411   15.3411   15.3411   15.3411
  39  1  -28.3899  -28.3899  -27.6847  -27.6847  -27.6847  -27.6847  -25.6856  -25.6856  -25.6856  -25.6856
         -24.4615  -24.4615  -23.9544  -23.9544  -23.9544  -23.9544  -23.2248  -23.2248  -21.9205  -21.9205
  -21.7031  -21.7031  -21.7031  -21.7031  -19.8695  -19.8695  -18.8253  -18.8253  -18.8253  -18.8253
  -18.1742  -18.1742  -17.5007  -17.5007  -16.7502  -16.7502  -16.7502  -16.7502  -16.1780  -16.1780
  -16.1780  -16.1780  -15.8192  -15.8192  -15.8192  -15.8192  -14.5849  -14.5849  -14.3669  -14.3669
  -14.3668  -14.3668  -13.9643  -13.9643  -13.8187  -13.8187  -13.8187  -13.8187  -13.3658  -13.3658
  -11.9257  -11.9257  -11.9257  -11.9257  -10.7106  -10.7106  -10.5231  -10.5231  -10.5231  -10.5231
   -9.8844   -9.8844   -6.6046   -6.6046   -6.1069   -6.1069   -6.1069   -6.1069   -5.5270   -5.5270
   -4.0660   -4.0660   -4.0659   -4.0659   -1.2318   -1.2318   -1.2318   -1.2318   -0.0550   -0.0550
    2.0501    2.0501    2.0501    2.0501    2.2788    2.2788    2.7945    2.7945    2.7945    2.7945
    2.9232    2.9232    3.7807    3.7807    4.0500    4.0500    4.0500    4.0500    4.5276    4.5276
    4.5276    4.5276    5.5134    5.5134    5.9609    5.9609    7.0374    7.0374    7.0374    7.0374
    7.5660    7.5660    7.9200    7.9200    7.9200    7.9200   10.0096   10.0096   10.8899   10.8899
   10.8899   10.8899   12.6837   12.6837   12.6837   12.6837   13.8826   13.8826   13.8826   13.8826
   14.4172   14.4172   14.8413   14.8413
  40  1  -28.3899  -28.3899  -27.6847  -27.6847  -27.6847  -27.6847  -25.6856  -25.6856  -25.6856  -25.6856
         -24.4615  -24.4615  -23.9544  -23.9544  -23.9544  -23.9544  -23.2248  -23.2248  -21.9205  -21.9205
  -21.7031  -21.7031  -21.7031  -21.7031  -19.8695  -19.8695  -18.8253  -18.8253  -18.8253  -18.8253
  -18.1742  -18.1742  -17.5007  -17.5007  -16.7502  -16.7502  -16.7502  -16.7502  -16.1780  -16.1780
  -16.1780  -16.1780  -15.8192  -15.8192  -15.8192  -15.8192  -14.5849  -14.5849  -14.3669  -14.3669
  -14.3668  -14.3668  -13.9643  -13.9643  -13.8187  -13.8187  -13.8187  -13.8187  -13.3658  -13.3658
  -11.9257  -11.9257  -11.9257  -11.9257  -10.7106  -10.7106  -10.5231  -10.5231  -10.5231  -10.5231
   -9.8844   -9.8844   -6.6046   -6.6046   -6.1069   -6.1069   -6.1069   -6.1069   -5.5270   -5.5270
   -4.0660   -4.0660   -4.0659   -4.0659   -1.2318   -1.2318   -1.2318   -1.2318   -0.0550   -0.0550
    2.0501    2.0501    2.0501    2.0501    2.2788    2.2788    2.7945    2.7945    2.7945    2.7945
    2.9232    2.9232    3.7807    3.7807    4.0500    4.0500    4.0500    4.0500    4.5276    4.5276
    4.5276    4.5276    5.5134    5.5134    5.9609    5.9609    7.0374    7.0374    7.0374    7.0374
    7.5660    7.5660    7.9200    7.9200    7.9200    7.9200   10.0096   10.0096   10.8899   10.8899
   10.8899   10.8899   12.6837   12.6837   12.6837   12.6837   13.8826   13.8826   13.8826   13.8826
   14.4172   14.4172   14.8413   14.8413
  41  1  -28.3899  -28.3899  -27.6847  -27.6847  -27.6847  -27.6847  -25.6856  -25.6856  -25.6856  -25.6856
         -24.4615  -24.4615  -23.9544  -23.9544  -23.9544  -23.9544  -23.2248  -23.2248  -21.9205  -21.9205
  -21.7031  -21.7031  -21.7031  -21.7031  -19.8695  -19.8695  -18.8253  -18.8253  -18.8253  -18.8253
  -18.1742  -18.1742  -17.5007  -17.5007  -16.7502  -16.7502  -16.7502  -16.7502  -16.1780  -16.1780
  -16.1780  -16.1780  -15.8192  -15.8192  -15.8192  -15.8192  -14.5849  -14.5849  -14.3669  -14.3669
  -14.3668  -14.3668  -13.9643  -13.9643  -13.8187  -13.8187  -13.8187  -13.8187  -13.3658  -13.3658
  -11.9257  -11.9257  -11.9257  -11.9257  -10.7106  -10.7106  -10.5231  -10.5231  -10.5231  -10.5231
   -9.8844   -9.8844   -6.6046   -6.6046   -6.1069   -6.1069   -6.1069   -6.1069   -5.5270   -5.5270
   -4.0660   -4.0660   -4.0659   -4.0659   -1.2318   -1.2318   -1.2318   -1.2318   -0.0550   -0.0550
    2.0501    2.0501    2.0501    2.0501    2.2788    2.2788    2.7945    2.7945    2.7945    2.7945
    2.9232    2.9232    3.7807    3.7807    4.0500    4.0500    4.0500    4.0500    4.5276    4.5276
    4.5276    4.5276    5.5134    5.5134    5.9609    5.9609    7.0374    7.0374    7.0374    7.0374
    7.5660    7.5660    7.9200    7.9200    7.9200    7.9200   10.0096   10.0096   10.8899   10.8899
   10.8899   10.8899   12.6837   12.6837   12.6837   12.6837   13.8826   13.8826   13.8826   13.8826
   14.4172   14.4172   14.8413   14.8413
  42  1  -28.2120  -28.2120  -28.2120  -28.2120  -26.8295  -26.8295  -26.8295  -26.8295  -24.3241  -24.3241
         -24.3241  -24.3241  -24.3241  -24.3241  -24.3241  -24.3241  -23.6522  -23.6522  -22.2480  -22.2480
  -20.6504  -20.6504  -20.6503  -20.6503  -20.6503  -20.6503  -20.6503  -20.6503  -17.3192  -17.3192
  -17.3192  -17.3192  -17.3192  -17.3192  -17.3192  -17.3192  -17.1385  -17.1385  -17.1385  -17.1385
  -15.7057  -15.7057  -15.7057  -15.7057  -15.6848  -15.6848  -14.7934  -14.7934  -14.7934  -14.7934
  -14.2063  -14.2063  -14.2063  -14.2063  -13.4866  -13.4866  -13.4866  -13.4866  -13.0324  -13.0324
  -13.0323  -13.0323  -10.6523  -10.6523  -10.6523  -10.6523  -10.6523  -10.6523  -10.6523  -10.6523
  -10.4496  -10.4496   -6.3343   -6.3343   -5.7067   -5.7067   -5.7067   -5.7067   -5.7067   -5.7067
   -5.7067   -5.7067   -2.4506   -2.4506   -2.4506   -2.4506   -0.5155   -0.5155   -0.5155   -0.5155
    1.3513    1.3513    2.3533    2.3533    2.3533    2.3533    3.7446    3.7446    3.7446    3.7446
    3.8594    3.8594    3.8594    3.8594    3.8594    3.8594    3.8594    3.8594    4.0180    4.0180
    4.0180    4.0180    4.9281    4.9281    4.9281    4.9281    6.2963    6.2963    6.2964    6.2964
    9.1453    9.1453    9.1453    9.1453    9.1453    9.1453    9.1453    9.1453   10.3974   10.3974
   10.3974   10.3974   11.6657   11.6657   13.5771   13.5771   14.2693   14.2693   14.2693   14.2693
   14.2693   14.2693   14.2694   14.2694
  43  1  -28.3899  -28.3899  -27.6847  -27.6847  -27.6847  -27.6847  -25.6856  -25.6856  -25.6856  -25.6856
         -24.4615  -24.4615  -23.9544  -23.9544  -23.9544  -23.9544  -23.2248  -23.2248  -21.9205  -21.9205
  -21.7031  -21.7031  -21.7031  -21.7031  -19.8695  -19.8695  -18.8253  -18.8253  -18.8253  -18.8253
  -18.1742  -18.1742  -17.5007  -17.5007  -16.7502  -16.7502  -16.7502  -16.7502  -16.1780  -16.1780
  -16.1780  -16.1780  -15.8192  -15.8192  -15.8192  -15.8192  -14.5849  -14.5849  -14.3669  -14.3669
  -14.3668  -14.3668  -13.9643  -13.9643  -13.8187  -13.8187  -13.8187  -13.8187  -13.3658  -13.3658
  -11.9257  -11.9257  -11.9257  -11.9257  -10.7106  -10.7106  -10.5231  -10.5231  -10.5231  -10.5231
   -9.8844   -9.8844   -6.6046   -6.6046   -6.1069   -6.1069   -6.1069   -6.1069   -5.5270   -5.5270
   -4.0660   -4.0660   -4.0659   -4.0659   -1.2318   -1.2318   -1.2318   -1.2318   -0.0550   -0.0550
    2.0501    2.0501    2.0501    2.0501    2.2788    2.2788    2.7945    2.7945    2.7945    2.7945
    2.9232    2.9232    3.7807    3.7807    4.0500    4.0500    4.0500    4.0500    4.5276    4.5276
    4.5276    4.5276    5.5134    5.5134    5.9609    5.9609    7.0374    7.0374    7.0374    7.0374
    7.5660    7.5660    7.9200    7.9200    7.9200    7.9200   10.0096   10.0096   10.8899   10.8899
   10.8899   10.8899   12.6837   12.6837   12.6837   12.6837   13.8826   13.8826   13.8826   13.8826
   14.4172   14.4172   14.8413   14.8413
  44  1  -28.2120  -28.2120  -28.2120  -28.2120  -26.8295  -26.8295  -26.8295  -26.8295  -24.3241  -24.3241
         -24.3241  -24.3241  -24.3241  -24.3241  -24.3241  -24.3241  -23.6522  -23.6522  -22.2480  -22.2480
  -20.6504  -20.6504  -20.6503  -20.6503  -20.6503  -20.6503  -20.6503  -20.6503  -17.3192  -17.3192
  -17.3192  -17.3192  -17.3192  -17.3192  -17.3192  -17.3192  -17.1385  -17.1385  -17.1385  -17.1385
  -15.7057  -15.7057  -15.7057  -15.7057  -15.6848  -15.6848  -14.7934  -14.7934  -14.7934  -14.7934
  -14.2063  -14.2063  -14.2063  -14.2063  -13.4866  -13.4866  -13.4866  -13.4866  -13.0324  -13.0324
  -13.0323  -13.0323  -10.6523  -10.6523  -10.6523  -10.6523  -10.6523  -10.6523  -10.6523  -10.6523
  -10.4496  -10.4496   -6.3343   -6.3343   -5.7067   -5.7067   -5.7067   -5.7067   -5.7067   -5.7067
   -5.7067   -5.7067   -2.4506   -2.4506   -2.4506   -2.4506   -0.5155   -0.5155   -0.5155   -0.5155
    1.3513    1.3513    2.3533    2.3533    2.3533    2.3533    3.7446    3.7446    3.7446    3.7446
    3.8594    3.8594    3.8594    3.8594    3.8594    3.8594    3.8594    3.8594    4.0180    4.0180
    4.0180    4.0180    4.9281    4.9281    4.9281    4.9281    6.2963    6.2963    6.2964    6.2964
    9.1453    9.1453    9.1453    9.1453    9.1453    9.1453    9.1453    9.1453   10.3974   10.3974
   10.3974   10.3974   11.6657   11.6657   13.5771   13.5771   14.2693   14.2693   14.2693   14.2693
   14.2693   14.2693   14.2694   14.2694
siesta: Fermi energy =      -8.001706 eV

siesta: Program's energy decomposition (eV):
siesta: Ebs     =     -2604.287622
siesta: Eions   =      9434.507561
siesta: Ena     =      2208.005339
siesta: Ekin    =      3939.404355
siesta: Enl     =      -383.435911
siesta: Eso     =         0.000000
siesta: Edftu   =         0.000000
siesta: DEna    =      -133.379503
siesta: DUscf   =         6.920888
siesta: DUext   =         0.000000
siesta: Exc     =     -1712.475729
siesta: eta*DQ  =         0.000000
siesta: Emadel  =         0.000000
siesta: Emeta   =         0.000000
siesta: Emolmec =        -7.175568
siesta: Ekinion =         0.000000
siesta: Eharris =     -5516.643702
siesta: Etot    =     -5516.643691
siesta: FreeEng =     -5516.651605

siesta: Final energy (eV):
siesta:  Band Struct. =   -2604.287622
siesta:       Kinetic =    3939.404355
siesta:       Hartree =     425.045306
siesta:       Edftu   =       0.000000
siesta:       Eso     =       0.000000
siesta:    Ext. field =       0.000000
siesta:   Exch.-corr. =   -1712.475729
siesta:  Ion-electron =   -5154.999089
siesta:       Ion-ion =   -3006.442965
siesta:       Ekinion =       0.000000
siesta:         Total =   -5516.643691
siesta:         Fermi =      -8.001706

siesta: Stress tensor (static) (eV/Ang**3):
siesta:    -0.190429    0.000000   -0.000000
siesta:     0.000000   -0.190429   -0.000000
siesta:    -0.000000    0.000000   -0.685805

siesta: Cell volume =        203.245885 Ang**3

siesta: Pressure (static):
siesta:                Solid            Molecule  Units
siesta:           0.00387244          0.00387247  Ry/Bohr**3
siesta:           0.35555413          0.35555743  eV/Ang**3
siesta:         569.66668294        569.67197070  kBar
(Free)E+ p_basis*V_orbitals  =       -5498.348558
(Free)Eharris+ p_basis*V_orbitals  =       -5498.348569

cite: Please see "graphite_scf.bib" for an exhaustive BiBTeX file.
cite: Please clearly indicate Siesta version in published work: 4.1.5
cite: This calculation has made use of the following articles
cite: which are encouraged to be cited in a published work.
        Primary SIESTA paper
          DOI: www.doi.org/10.1088/0953-8984/14/11/302

>> End of run:   1-NOV-2022  14:24:58
Job completed
