Siesta Version  : 4.1.5
Architecture    : x86_64-unknown-linux-gnu--unknown
Compiler version: GNU Fortran (GCC) 11.3.0
Compiler flags  : mpif90 -g -O2 -fallow-argument-mismatch
PP flags        : -DMPI -DFC_HAVE_FLUSH -DFC_HAVE_ABORT
Libraries       :  -I/global/software/sl-7.x86_64/modules/intel/2020.4.304/mkl/include  /globall/software/sl-7.x86_64/modules/intel/2020.4.304/mkl/lib/intel64/libmkl_scalapack_lp64.a -Wl,--start-group /global/software/sl-7.x86_64/modules/intel/2020.4.304/mkl/lib/intel64/libmkl_intel_lp64.a /global/software/sl-7.x86_64/modules/intel/2020.4.304/mkl/lib/intel64/libmkl_sequential.a /global/software/sl-7.x86_64/modules/intel/2020.4.304/mkl/lib/intel64/libmkl_core.a /global/software/sl-7.x86_64/modules/intel/2020.4.304/mkl/lib/intel64/libmkl_blacs_openmpi_lp64.a -Wl,--end-group -lpthread -lm -ldl
PARALLEL version

* Running on 20 nodes in parallel
>> Start of run:   1-NOV-2022  14:30:54

                           ***********************       
                           *  WELCOME TO SIESTA  *       
                           ***********************       

reinit: Reading from standard input
reinit: Dumped input in INPUT_TMP.39612
************************** Dump of input data file ****************************
SystemName graphite_scf
SystemLabel graphite_scf
NumberOfAtoms   36
NumberOfSpecies 1
%block ChemicalSpeciesLabel
1  6   C-gga
%endblock ChemicalSpeciesLabel
PAO.BasisSize  SZ
PAO.EnergyShift  10 meV
%block PS.Lmax
C-gga   2
%endblock PS.Lmax
LatticeConstant 1.000000 Ang
%block LatticeVectors
	7.3920000000	0.0000000000	0.0000000000
	-3.6960000000	6.4016597848	0.0000000000
	0.0000000000	0.0000000000	7.4492100000
%endblock LatticeVectors
AtomicCoordinatesFormat Ang
%block AtomicCoordinatesAndAtomicSpecies
	0.00000000	0.00000000	1.86230250	1
	0.00000000	0.00000000	5.58690750	1
	-1.23200000	2.13388659	1.86230250	1
	-2.46400000	4.26777319	5.58690750	1
	2.46400000	4.26777319	1.86230250	1
	1.23200000	2.13388659	5.58690750	1
	2.46400000	0.00000000	1.86230250	1
	4.92800000	0.00000000	5.58690750	1
	2.46400000	0.00000000	5.58690750	1
	4.92800000	0.00000000	1.86230250	1
	2.46400000	4.26777319	5.58690750	1
	1.23200000	2.13388659	1.86230250	1
	-1.23200000	2.13388659	5.58690750	1
	-2.46400000	4.26777319	1.86230250	1
	0.00000000	4.26777319	1.86230250	1
	3.69600000	2.13388659	5.58690750	1
	3.69600000	2.13388659	1.86230250	1
	0.00000000	4.26777319	5.58690750	1
	0.00000000	1.42258964	1.86230250	1
	3.69600000	4.97907014	5.58690750	1
	2.46400123	5.69036496	1.86230250	1
	1.23199877	0.71129482	5.58690750	1
	-2.46400123	5.69036496	1.86230250	1
	6.16000123	0.71129482	5.58690750	1
	-1.23200000	3.55647624	1.86230250	1
	4.92800000	2.84518355	5.58690750	1
	1.23200123	3.55647837	1.86230250	1
	2.46399877	2.84518142	5.58690750	1
	-0.00000123	5.69036496	1.86230250	1
	3.69600123	0.71129482	5.58690750	1
	2.46400000	1.42258964	1.86230250	1
	1.23200000	4.97907014	5.58690750	1
	4.92800123	1.42259177	1.86230250	1
	-1.23200123	4.97906801	5.58690750	1
	3.69599877	3.55647837	1.86230250	1
	0.00000123	2.84518142	5.58690750	1
%endblock AtomicCoordinatesAndAtomicSpecies
Kgrid_NoTRS  T
%block kgrid_MonkhorstPack
4       0       0       0.0
0       4       0       0.0
0       0       4       0.0
%endblock kgrid_MonkhorstPack
AtomCoorFormatOut Ang
BlockSize 1
#ProcessorY 12
Diag.ParallelOverK   T
Diag.DivideAndConquer F
MeshCutoff   300 Ry
SCF.FreeE.Tolerance 1E-3 eV
SCF.EDM.Tolerance   5E-3 eV
DM.Tolerance  1E-3
DM.Require.Energy.Convergence T
DM.NumberPulay 4
#XC.Functional GGA
#CX.Authors    PBE
UseSaveData        F
SolutionMethod     diagon
MD.TypeOfRun       CG
MD.VariableCell    F
MD.NumCGsteps      00
MD.MaxCGDispl      0.200000 Bohr
#MD.MaxStressTol    1.000000 GPa
#MD.MaxForceTol     0.010000 eV/Ang
WriteMDHistory T
WriteCoorStep T
WriteForces T
WriteCoorStep    T
WriteEigenValues T
WriteDM    F
MM.UnitsDistance Ang  # what this program prints out DO NOT CHANGE
MM.UnitsEnergy    eV  # what this program prints out DO NOT CHANGE
MM.Grimme.S6     0.75 # Grimme-paper for PBE (correct for your functional)
MM.Grimme.D     20.   # Grimme-paper (correct for your functional)
%block MM.Potentials
  1   1 Grimme     18.14      2.904 # C, 10.1002/jcc.20495
%endblock MM.Potentials
#%block ProjectedDensityOfStates
# -200.0  120.0  0.4  12800  eV
#%endblock ProjectedDensityOfStates
************************** End of input data file *****************************

reinit: -----------------------------------------------------------------------
reinit: System Name: graphite_scf
reinit: -----------------------------------------------------------------------
reinit: System Label: graphite_scf
reinit: -----------------------------------------------------------------------
Reading two-body potentials
Grimme - two-body potential between 1 and 1

initatom: Reading input for the pseudopotentials and atomic orbitals ----------
Species number:   1 Atomic number:    6 Label: C-gga

Ground state valence configuration:   2s02  2p02
Reading pseudopotential information in formatted form from C-gga.psf

Valence configuration for pseudopotential generation:
2s( 2.00) rc: 1.56
2p( 2.00) rc: 1.56
3d( 0.00) rc: 1.56
4f( 0.00) rc: 1.56
relmxkb: Read Max KB Ang. Momentum=    2 for species C-gga

<basis_specs>
===============================================================================
C-gga                Z=   6    Mass=  12.010        Charge= 0.17977+309
Lmxo=1 Lmxkb= 2    BasisType=split      Semic=F
L=0  Nsemic=0  Cnfigmx=2
          i=1  nzeta=1  polorb=0  (2s)
            splnorm:   0.15000    
               vcte:    0.0000    
               rinn:    0.0000    
               qcoe:    0.0000    
               qyuk:    0.0000    
               qwid:   0.10000E-01
                rcs:    0.0000    
            lambdas:    1.0000    
L=1  Nsemic=0  Cnfigmx=2
          i=1  nzeta=1  polorb=0  (2p)
            splnorm:   0.15000    
               vcte:    0.0000    
               rinn:    0.0000    
               qcoe:    0.0000    
               qyuk:    0.0000    
               qwid:   0.10000E-01
                rcs:    0.0000    
            lambdas:    1.0000    
-------------------------------------------------------------------------------
L=0  Nkbl=1  erefs: 0.17977+309
L=1  Nkbl=1  erefs: 0.17977+309
L=2  Nkbl=1  erefs: 0.17977+309
===============================================================================
</basis_specs>

atom: Called for C-gga                 (Z =   6)

read_vps: Pseudopotential generation method:
read_vps: ATM 3.2.2 Troullier-Martins                       
Valence charge for ps generation:    4.00000

xc_check: Exchange-correlation functional:
xc_check: Ceperley-Alder
xc_check: WARNING: Pseudopotential generated with GGA PBE functional
V l=0 = -2*Zval/r beyond r=  1.5227
V l=1 = -2*Zval/r beyond r=  1.5227
V l=2 = -2*Zval/r beyond r=  1.5227
All V_l potentials equal beyond r=  1.4851
This should be close to max(r_c) in ps generation
All pots = -2*Zval/r beyond r=  1.5227

VLOCAL1: 99.0% of the norm of Vloc inside     19.682 Ry
VLOCAL1: 99.9% of the norm of Vloc inside     44.856 Ry
atom: Maximum radius for 4*pi*r*r*local-pseudopot. charge    1.79142
atom: Maximum radius for r*vlocal+2*Zval:    1.54183
GHOST: No ghost state for L =  0
GHOST: No ghost state for L =  1
GHOST: No ghost state for L =  2

KBgen: Kleinman-Bylander projectors: 
   l= 0   rc=  1.661951   el= -0.994756   Ekb=  5.296364   kbcos=  0.313951
   l= 1   rc=  1.661951   el= -0.376633   Ekb= -4.104879   kbcos= -0.344765
   l= 2   rc=  1.747182   el=  0.002326   Ekb= -1.006421   kbcos= -0.008606

KBgen: Total number of Kleinman-Bylander projectors:    9
atom: -------------------------------------------------------------------------

atom: SANKEY-TYPE ORBITALS:

SPLIT: Orbitals with angular momentum L= 0

SPLIT: Basis orbitals for state 2s

SPLIT: PAO cut-off radius determined from an
SPLIT: energy shift=  0.000735 Ry

   izeta = 1
                 lambda =    1.000000
                     rc =    5.948690
                 energy =   -0.994108
                kinetic =    0.809152
    potential(screened) =   -1.803260
       potential(ionic) =   -5.360717

SPLIT: Orbitals with angular momentum L= 1

SPLIT: Basis orbitals for state 2p

SPLIT: PAO cut-off radius determined from an
SPLIT: energy shift=  0.000735 Ry

   izeta = 1
                 lambda =    1.000000
                     rc =    7.638387
                 energy =   -0.375915
                kinetic =    2.245823
    potential(screened) =   -2.621738
       potential(ionic) =   -5.993382
atom: Total number of Sankey-type orbitals:  4

atm_pop: Valence configuration (for local Pseudopot. screening):
 2s( 2.00)                                                            
 2p( 2.00)                                                            
Vna: chval, zval:    4.00000   4.00000

Vna:  Cut-off radius for the neutral-atom potential:   7.638387

atom: _________________________________________________________________________

prinput: Basis input ----------------------------------------------------------

PAO.BasisType split     

%block ChemicalSpeciesLabel
    1    6 C-gga                   # Species index, atomic number, species label
%endblock ChemicalSpeciesLabel

%block PAO.Basis                 # Define Basis set
C-gga                 2                    # Species label, number of l-shells
 n=2   0   1                         # n, l, Nzeta 
   5.949   
   1.000   
 n=2   1   1                         # n, l, Nzeta 
   7.638   
   1.000   
%endblock PAO.Basis

prinput: ----------------------------------------------------------------------

coor:   Atomic-coordinates input format  =     Cartesian coordinates
coor:                                          (in Angstroms)

siesta: Atomic coordinates (Bohr) and species
siesta:      0.00000   0.00000   3.51924  1        1
siesta:      0.00000   0.00000  10.55773  1        2
siesta:     -2.32814   4.03246   3.51924  1        3
siesta:     -4.65629   8.06493  10.55773  1        4
siesta:      4.65629   8.06493   3.51924  1        5
siesta:      2.32814   4.03246  10.55773  1        6
siesta:      4.65629   0.00000   3.51924  1        7
siesta:      9.31257   0.00000  10.55773  1        8
siesta:      4.65629   0.00000  10.55773  1        9
siesta:      9.31257   0.00000   3.51924  1       10
siesta:      4.65629   8.06493  10.55773  1       11
siesta:      2.32814   4.03246   3.51924  1       12
siesta:     -2.32814   4.03246  10.55773  1       13
siesta:     -4.65629   8.06493   3.51924  1       14
siesta:      0.00000   8.06493   3.51924  1       15
siesta:      6.98443   4.03246  10.55773  1       16
siesta:      6.98443   4.03246   3.51924  1       17
siesta:      0.00000   8.06493  10.55773  1       18
siesta:      0.00000   2.68831   3.51924  1       19
siesta:      6.98443   9.40908  10.55773  1       20
siesta:      4.65629  10.75324   3.51924  1       21
siesta:      2.32814   1.34415  10.55773  1       22
siesta:     -4.65629  10.75324   3.51924  1       23
siesta:     11.64072   1.34415  10.55773  1       24
siesta:     -2.32814   6.72077   3.51924  1       25
siesta:      9.31257   5.37662  10.55773  1       26
siesta:      2.32815   6.72077   3.51924  1       27
siesta:      4.65628   5.37662  10.55773  1       28
siesta:     -0.00000  10.75324   3.51924  1       29
siesta:      6.98443   1.34415  10.55773  1       30
siesta:      4.65629   2.68831   3.51924  1       31
siesta:      2.32814   9.40908  10.55773  1       32
siesta:      9.31258   2.68831   3.51924  1       33
siesta:     -2.32815   9.40908  10.55773  1       34
siesta:      6.98443   6.72077   3.51924  1       35
siesta:      0.00000   5.37662  10.55773  1       36

siesta: System type = bulk      

initatomlists: Number of atoms, orbitals, and projectors:     36   144   324

siesta: ******************** Simulation parameters ****************************
siesta:
siesta: The following are some of the parameters of the simulation.
siesta: A complete list of the parameters used, including default values,
siesta: can be found in file out.fdf
siesta:
redata: Spin configuration                          = none
redata: Number of spin components                   = 1
redata: Time-Reversal Symmetry                      = T
redata: Spin spiral                                 = F
redata: Long output                                 =   F
redata: Number of Atomic Species                    =        1
redata: Charge density info will appear in .RHO file
redata: Write Mulliken Pop.                         = NO
redata: Matel table size (NRTAB)                    =     1024
redata: Mesh Cutoff                                 =   300.0000 Ry
redata: Net charge of the system                    =     0.0000 |e|
redata: Min. number of SCF Iter                     =        0
redata: Max. number of SCF Iter                     =     1000
redata: SCF convergence failure will abort job
redata: SCF mix quantity                            = Hamiltonian
redata: Mix DM or H after convergence               =   F
redata: Recompute H after scf cycle                 =   F
redata: Mix DM in first SCF step                    =   T
redata: Write Pulay info on disk                    =   F
redata: New DM Occupancy tolerance                  = 0.000000000001
redata: No kicks to SCF
redata: DM Mixing Weight for Kicks                  =     0.5000
redata: Require Harris convergence for SCF          =   F
redata: Harris energy tolerance for SCF             =     0.000100 eV
redata: Require DM convergence for SCF              =   T
redata: DM tolerance for SCF                        =     0.001000
redata: Require EDM convergence for SCF             =   F
redata: EDM tolerance for SCF                       =     0.005000 eV
redata: Require H convergence for SCF               =   T
redata: Hamiltonian tolerance for SCF               =     0.001000 eV
redata: Require (free) Energy convergence for SCF   =   T
redata: (free) Energy tolerance for SCF             =     0.001000 eV
redata: Using Saved Data (generic)                  =   F
redata: Use continuation files for DM               =   F
redata: Neglect nonoverlap interactions             =   F
redata: Method of Calculation                       = Diagonalization
redata: Electronic Temperature                      =   299.9869 K
redata: Fix the spin of the system                  =   F
redata: Dynamics option                             = Single-point calculation
mix.SCF: Pulay mixing                            = Pulay
mix.SCF:    Variant                              = stable
mix.SCF:    History steps                        = 4
mix.SCF:    Linear mixing weight                 =     0.250000
mix.SCF:    Mixing weight                        =     0.250000
mix.SCF:    SVD condition                        = 0.1000E-07
redata: ***********************************************************************

%block SCF.Mixers
  Pulay
%endblock SCF.Mixers

%block SCF.Mixer.Pulay
  # Mixing method
  method pulay
  variant stable

  # Mixing options
  weight 0.2500
  weight.linear 0.2500
  history 4
%endblock SCF.Mixer.Pulay

DM_history_depth set to one: no extrapolation allowed by default for geometry relaxation
Size of DM history Fstack: 1
Total number of electrons:   144.000000
Total ionic charge:   144.000000

* ProcessorY, Blocksize:    4   1


* Orbital distribution balance (max,min):     8     7

k-point displ. along   1 input, could be:     0.00    0.50
k-point displ. along   2 input, could be:     0.00    0.50
k-point displ. along   3 input, could be:     0.00    0.50
 Kpoints in:           48 . Kpoints trimmed:           44

siesta: k-grid: Number of k-points =    44
siesta: k-grid: Cutoff (effective) =    14.784 Ang
siesta: k-grid: Supercell and displacements
siesta: k-grid:    4   0   0      0.000
siesta: k-grid:    0   4   0      0.000
siesta: k-grid:    0   0   4      0.000

diag: Algorithm                                     = Expert
diag: Parallel over k                               =   T
diag: Use parallel 2D distribution                  =   T
diag: Parallel block-size                           = 1
diag: Parallel distribution                         =     4 x     5
diag: Used triangular part                          = Lower
diag: Absolute tolerance                            =  0.100E-15
diag: Orthogonalization factor                      =  0.100E-05
diag: Memory factor                                 =  1.0000

superc: Internal auxiliary supercell:     5 x     5 x     3  =      75
superc: Number of atoms, orbitals, and projectors:   2700  10800  24300


ts: **************************************************************
ts: Save H and S matrices                           =    F
ts: Save DM and EDM matrices                        =    F
ts: Only save the overlap matrix S                  =    F
ts: **************************************************************

************************ Begin: TS CHECKS AND WARNINGS ************************
************************ End: TS CHECKS AND WARNINGS **************************


                     ====================================
                        Single-point calculation
                     ====================================

outcoor: Atomic coordinates (Ang):                          
    0.00000000    0.00000000    1.86230250   1       1  C-gga
    0.00000000    0.00000000    5.58690750   1       2  C-gga
   -1.23200000    2.13388659    1.86230250   1       3  C-gga
   -2.46400000    4.26777319    5.58690750   1       4  C-gga
    2.46400000    4.26777319    1.86230250   1       5  C-gga
    1.23200000    2.13388659    5.58690750   1       6  C-gga
    2.46400000    0.00000000    1.86230250   1       7  C-gga
    4.92800000    0.00000000    5.58690750   1       8  C-gga
    2.46400000    0.00000000    5.58690750   1       9  C-gga
    4.92800000    0.00000000    1.86230250   1      10  C-gga
    2.46400000    4.26777319    5.58690750   1      11  C-gga
    1.23200000    2.13388659    1.86230250   1      12  C-gga
   -1.23200000    2.13388659    5.58690750   1      13  C-gga
   -2.46400000    4.26777319    1.86230250   1      14  C-gga
    0.00000000    4.26777319    1.86230250   1      15  C-gga
    3.69600000    2.13388659    5.58690750   1      16  C-gga
    3.69600000    2.13388659    1.86230250   1      17  C-gga
    0.00000000    4.26777319    5.58690750   1      18  C-gga
    0.00000000    1.42258964    1.86230250   1      19  C-gga
    3.69600000    4.97907014    5.58690750   1      20  C-gga
    2.46400123    5.69036496    1.86230250   1      21  C-gga
    1.23199877    0.71129482    5.58690750   1      22  C-gga
   -2.46400123    5.69036496    1.86230250   1      23  C-gga
    6.16000123    0.71129482    5.58690750   1      24  C-gga
   -1.23200000    3.55647624    1.86230250   1      25  C-gga
    4.92800000    2.84518355    5.58690750   1      26  C-gga
    1.23200123    3.55647837    1.86230250   1      27  C-gga
    2.46399877    2.84518142    5.58690750   1      28  C-gga
   -0.00000123    5.69036496    1.86230250   1      29  C-gga
    3.69600123    0.71129482    5.58690750   1      30  C-gga
    2.46400000    1.42258964    1.86230250   1      31  C-gga
    1.23200000    4.97907014    5.58690750   1      32  C-gga
    4.92800123    1.42259177    1.86230250   1      33  C-gga
   -1.23200123    4.97906801    5.58690750   1      34  C-gga
    3.69599877    3.55647837    1.86230250   1      35  C-gga
    0.00000123    2.84518142    5.58690750   1      36  C-gga

superc: Internal auxiliary supercell:     5 x     5 x     3  =      75
superc: Number of atoms, orbitals, and projectors:   2700  10800  24300

outcell: Unit cell vectors (Ang):
        7.392000    0.000000    0.000000
       -3.696000    6.401660    0.000000
        0.000000    0.000000    7.449210

outcell: Cell vector modules (Ang)   :    7.392000    7.392000    7.449210
outcell: Cell angles (23,13,12) (deg):     90.0000     90.0000    120.0000
outcell: Cell volume (Ang**3)        :    352.5046
<dSpData1D:S at geom step 0
  <sparsity:sparsity for geom step 0
    nrows_g=144 nrows=8 sparsity=.3383 nnzs=7016, refcount: 7>
  <dData1D:(new from dSpData1D) n=7016, refcount: 1>
refcount: 1>
new_DM -- step:     1
Initializing Density Matrix...
DM filled with atomic data:
<dSpData2D:DM initialized from atoms
  <sparsity:sparsity for geom step 0
    nrows_g=144 nrows=8 sparsity=.3383 nnzs=7016, refcount: 8>
  <dData2D:DM n=7016 m=1, refcount: 1>
refcount: 1>
No. of atoms with KB's overlaping orbs in proc 0. Max # of overlaps:     110     198
New grid distribution:   1
           1       1:   36    1:    9    1:    8
           2       1:   36    1:    9    9:   16
           3       1:   36    1:    9   17:   24
           4       1:   36    1:    9   25:   32
           5       1:   36    1:    9   33:   40
           6       1:   36   10:   18    1:    8
           7       1:   36   10:   18    9:   16
           8       1:   36   10:   18   17:   24
           9       1:   36   10:   18   25:   32
          10       1:   36   10:   18   33:   40
          11       1:   36   19:   27    1:    8
          12       1:   36   19:   27    9:   16
          13       1:   36   19:   27   17:   24
          14       1:   36   19:   27   25:   32
          15       1:   36   19:   27   33:   40
          16       1:   36   28:   36    1:    8
          17       1:   36   28:   36    9:   16
          18       1:   36   28:   36   17:   24
          19       1:   36   28:   36   25:   32
          20       1:   36   28:   36   33:   40

InitMesh: MESH =    72 x    72 x    80 =      414720
InitMesh: (bp) =    36 x    36 x    40 =       51840
InitMesh: Mesh cutoff (required, used) =   300.000   318.758 Ry
ExtMesh (bp) on 0 =   128 x   101 x    96 =     1241088
New grid distribution:   2
           1       1:   15   19:   36   31:   40
           2       1:   15    1:   18   11:   20
           3       1:   14    1:   18   31:   40
           4       1:   14    1:   18   21:   30
           5      15:   36    1:    9   27:   40
           6       1:   15    1:   18    1:   10
           7      16:   36   10:   18    7:   20
           8      15:   36    1:   18   21:   26
           9      16:   36    1:    9    7:   20
          10      15:   36   10:   18   27:   40
          11      16:   36   19:   36    1:    6
          12      16:   36   19:   27    7:   20
          13      16:   36    1:   18    1:    6
          14       1:   15   19:   36   21:   30
          15      16:   36   19:   27   27:   40
          16       1:   15   19:   36    1:   10
          17       1:   15   19:   36   11:   20
          18      16:   36   28:   36    7:   20
          19      16:   36   19:   36   21:   26
          20      16:   36   28:   36   27:   40
New grid distribution:   3
           1       1:   15    1:   18    1:   10
           2      16:   36   19:   27    8:   20
           3      16:   36    1:   18   21:   27
           4       1:   15    1:   18   21:   30
           5       1:   15   19:   36   31:   40
           6      16:   36   10:   18   28:   40
           7       1:   15    1:   18   11:   20
           8      16:   36   10:   18    8:   20
           9      16:   36    1:    9   28:   40
          10       1:   15    1:   18   31:   40
          11      16:   36   19:   36    1:    7
          12       1:   15   19:   36   11:   20
          13      16:   36   19:   36   21:   27
          14      16:   36    1:    9    8:   20
          15      16:   36   19:   27   28:   40
          16       1:   15   19:   36    1:   10
          17      16:   36    1:   18    1:    7
          18      16:   36   28:   36    8:   20
          19       1:   15   19:   36   21:   30
          20      16:   36   28:   36   28:   40
Setting up quadratic distribution...
ExtMesh (bp) on 0 =   107 x   110 x    98 =     1153460
PhiOnMesh: Number of (b)points on node 0 =                 2700
PhiOnMesh: nlist on node 0 =               280283

stepf: Fermi-Dirac step function

siesta: Program's energy decomposition (eV):
siesta: Ebs     =     -2577.864459
siesta: Eions   =      9434.507561
siesta: Ena     =      2270.436384
siesta: Ekin    =      3597.643201
siesta: Enl     =      -335.269018
siesta: Eso     =         0.000000
siesta: Edftu   =         0.000000
siesta: DEna    =        15.045112
siesta: DUscf   =         2.648127
siesta: DUext   =         0.000000
siesta: Exc     =     -1624.671520
siesta: eta*DQ  =         0.000000
siesta: Emadel  =         0.000000
siesta: Emeta   =         0.000000
siesta: Emolmec =        -3.567863
siesta: Ekinion =         0.000000
siesta: Eharris =     -5362.234137
siesta: Etot    =     -5512.243139
siesta: FreeEng =     -5512.254360

        iscf     Eharris(eV)        E_KS(eV)     FreeEng(eV)     dDmax    Ef(eV) dHmax(eV)
   scf:    1    -5362.234137    -5512.243139    -5512.254360  1.338099 -8.285931  0.091579
timer: Routine,Calls,Time,% = IterSCF        1       1.120  46.88
   scf:    2    -5512.246315    -5512.244734    -5512.255954  0.000614 -8.298516  0.068569
   scf:    3    -5512.248611    -5512.246694    -5512.257914  0.001863 -8.338317  0.002103
   scf:    4    -5512.246698    -5512.246698    -5512.257922  0.000235 -8.339090  0.000722

SCF Convergence by FreeE+DM+H criterion
|FreeE_i-FreeE_(i-1)| (eV) <     0.00100000
max |DM_out - DM_in|         :     0.0002354343
max |H_out - H_in|      (eV) :     0.0007219191
SCF cycle converged after 4 iterations

Using DM_out to compute the final energy and forces
No. of atoms with KB's overlaping orbs in proc 0. Max # of overlaps:     110     198

MM-Stress (kbar):        7.74        7.74       29.56        0.00       -0.00       -0.00

siesta: E_KS(eV) =            -5512.2467

siesta: E_KS - E_eggbox =     -5512.2467

siesta: Atomic forces (eV/Ang):
     1   -0.000000   -0.000000   -0.000000
     2    0.000000   -0.000000   -0.000000
     3    0.000075   -0.000056   -0.000000
     4   -0.000075    0.000056   -0.000000
     5    0.000011    0.000093   -0.000000
     6   -0.000011   -0.000093    0.000000
     7   -0.000086   -0.000037   -0.000000
     8    0.000086    0.000037   -0.000000
     9   -0.000015   -0.000013   -0.000000
    10    0.000015    0.000012   -0.000000
    11   -0.000003    0.000019   -0.000000
    12    0.000003   -0.000019   -0.000000
    13    0.000018   -0.000007   -0.000000
    14   -0.000018    0.000007   -0.000000
    15   -0.000000   -0.000000    0.000000
    16    0.000000    0.000000   -0.000000
    17   -0.000000    0.000000   -0.000000
    18    0.000000    0.000000    0.000000
    19    0.000007    0.000130   -0.000000
    20   -0.000007   -0.000130    0.000000
    21   -0.000116   -0.000058    0.000000
    22    0.000116    0.000058   -0.000000
    23    0.000109   -0.000071    0.000000
    24   -0.000109    0.000071   -0.000000
    25    0.000009    0.000115    0.000000
    26   -0.000009   -0.000115    0.000000
    27   -0.000104   -0.000050    0.000000
    28    0.000104    0.000050    0.000000
    29    0.000095   -0.000065   -0.000000
    30   -0.000095    0.000065    0.000000
    31    0.000009    0.000115    0.000000
    32   -0.000009   -0.000115    0.000000
    33   -0.000104   -0.000050    0.000000
    34    0.000104    0.000050    0.000000
    35    0.000095   -0.000065    0.000000
    36   -0.000095    0.000064   -0.000000
----------------------------------------
   Tot    0.000000   -0.000000   -0.000000
----------------------------------------
   Max    0.000130
   Res    0.000054    sqrt( Sum f_i^2 / 3N )
----------------------------------------
   Max    0.000130    constrained

Stress tensor Voigt[x,y,z,yz,xz,xy] (kbar):     -366.73     -366.73      173.61        0.00       -0.00        0.00
(Free)E + p*V (eV/cell)    -5471.2002
Target enthalpy (eV/cell)    -5512.2579

siesta: Eigenvalues (eV):
  ik is       eps
   1  1  -27.6201  -27.6035  -26.9185  -26.9185  -26.8868  -26.8868  -25.0320  -25.0320  -24.8843  -24.8843
         -23.9137  -23.7313  -23.4829  -23.4829  -23.3395  -23.3395  -22.8305  -22.7624  -21.4147  -21.2832
  -21.2328  -21.2328  -21.0715  -21.0715  -19.7703  -19.7304  -18.7740  -18.7740  -18.7278  -18.7278
  -17.9511  -17.9364  -17.4745  -17.4613  -16.7764  -16.7764  -16.7403  -16.7403  -16.3661  -16.3661
  -16.3546  -16.3546  -15.9834  -15.9834  -15.9676  -15.9676  -14.6730  -14.6730  -14.6350  -14.6350
  -14.4078  -14.3957  -14.3738  -14.2379  -13.8410  -13.8410  -13.7571  -13.7286  -13.6478  -13.6478
  -12.2116  -12.2116  -11.8353  -11.8353  -11.0978  -10.8400  -10.8400  -10.6543  -10.5246  -10.5246
  -10.1789   -9.9385   -6.6821   -6.5578   -6.1213   -6.1213   -5.8073   -5.8073   -5.5921   -5.3477
   -3.9086   -3.9086   -3.6845   -3.6845   -0.3990   -0.3990   -0.2831   -0.2830    1.0958    1.1718
    1.1910    1.2182    1.2182    1.3142    1.3608    1.3608    1.6470    1.6470    1.7372    1.7372
    2.0211    2.0350    3.0765    3.1754    3.3300    3.3300    3.3898    3.3898    3.6932    3.6932
    3.7266    3.7266    4.9596    4.9724    5.2044    5.2492    6.1609    6.1609    6.1783    6.1783
    6.6834    6.7950    7.2003    7.2003    7.2188    7.2188    9.2658    9.3765   10.0943   10.0943
   10.1444   10.1444   11.8501   11.8501   11.8619   11.8619   13.0288   13.0288   13.1121   13.1122
   13.5454   13.5511   13.9617   13.9966
   2  1  -27.9971  -27.9562  -26.5866  -26.5321  -25.9438  -25.9438  -25.8468  -25.8468  -24.7465  -24.7465
         -24.5910  -24.5910  -24.2044  -24.0418  -22.7098  -22.7098  -22.5562  -22.5562  -20.9556  -20.9556
  -20.8616  -20.8616  -20.5649  -20.4217  -19.6676  -19.6676  -19.5662  -19.5662  -18.5526  -18.5526
  -18.5225  -18.5225  -17.8291  -17.8291  -17.7910  -17.7910  -16.8449  -16.8101  -16.0704  -16.0704
  -16.0514  -16.0514  -15.8160  -15.7973  -15.4911  -15.4911  -15.4607  -15.4607  -14.7173  -14.6901
  -14.6396  -14.5276  -13.5745  -13.4297  -13.4085  -13.3499  -13.1403  -13.1169  -13.0357  -13.0357
  -12.7468  -12.7468  -11.9665  -11.9665  -11.5831  -11.5831  -11.4915  -11.1153   -9.8310   -9.8310
   -9.4560   -9.4560   -7.0936   -7.0936   -6.8693   -6.8693   -5.3155   -4.9294   -4.4736   -4.4736
   -4.1417   -4.1417   -2.3563   -2.3563   -2.1457   -2.1457   -1.1124   -0.9443    0.5357    0.5883
    0.6357    0.6866    0.9073    0.9561    1.1279    1.1385    1.3586    1.3586    1.4804    1.4804
    1.5754    1.5754    1.6335    1.6335    1.9137    1.9761    4.3026    4.3422    5.3116    5.3116
    5.3216    5.3216    5.7440    5.7490    6.1581    6.1581    6.2079    6.2079    7.5418    7.6119
    7.9034    7.9034    8.0349    8.0349    8.5845    8.5845    8.6181    8.6181    9.5846    9.5846
    9.6148    9.6148   10.1534   10.1538   11.7102   11.7102   11.7748   11.7748   11.9338   12.0604
   14.4474   14.4474   14.4554   14.4554
   3  1  -27.9971  -27.9562  -26.5866  -26.5321  -25.9438  -25.9438  -25.8468  -25.8468  -24.7465  -24.7465
         -24.5910  -24.5910  -24.2044  -24.0418  -22.7098  -22.7098  -22.5562  -22.5562  -20.9556  -20.9556
  -20.8616  -20.8616  -20.5649  -20.4217  -19.6676  -19.6676  -19.5662  -19.5662  -18.5526  -18.5526
  -18.5225  -18.5225  -17.8291  -17.8291  -17.7910  -17.7910  -16.8449  -16.8101  -16.0704  -16.0704
  -16.0514  -16.0514  -15.8160  -15.7973  -15.4911  -15.4911  -15.4607  -15.4607  -14.7173  -14.6901
  -14.6396  -14.5276  -13.5745  -13.4297  -13.4085  -13.3499  -13.1403  -13.1169  -13.0357  -13.0357
  -12.7468  -12.7468  -11.9665  -11.9665  -11.5831  -11.5831  -11.4915  -11.1153   -9.8310   -9.8310
   -9.4560   -9.4560   -7.0936   -7.0936   -6.8693   -6.8693   -5.3155   -4.9294   -4.4736   -4.4736
   -4.1417   -4.1417   -2.3563   -2.3563   -2.1457   -2.1457   -1.1124   -0.9443    0.5357    0.5883
    0.6357    0.6866    0.9073    0.9561    1.1279    1.1385    1.3586    1.3586    1.4804    1.4804
    1.5754    1.5754    1.6335    1.6335    1.9137    1.9761    4.3026    4.3422    5.3116    5.3116
    5.3216    5.3216    5.7441    5.7490    6.1581    6.1581    6.2079    6.2079    7.5418    7.6119
    7.9034    7.9034    8.0349    8.0349    8.5845    8.5845    8.6181    8.6181    9.5846    9.5846
    9.6148    9.6148   10.1534   10.1538   11.7102   11.7102   11.7748   11.7748   11.9338   12.0604
   14.4474   14.4474   14.4554   14.4554
   4  1  -27.6201  -27.6035  -26.9185  -26.9185  -26.8868  -26.8868  -25.0320  -25.0320  -24.8843  -24.8843
         -23.9137  -23.7313  -23.4829  -23.4829  -23.3395  -23.3395  -22.8305  -22.7624  -21.4147  -21.2832
  -21.2328  -21.2328  -21.0715  -21.0715  -19.7703  -19.7304  -18.7740  -18.7740  -18.7278  -18.7278
  -17.9511  -17.9364  -17.4745  -17.4613  -16.7764  -16.7764  -16.7403  -16.7403  -16.3661  -16.3661
  -16.3546  -16.3546  -15.9834  -15.9834  -15.9676  -15.9676  -14.6730  -14.6730  -14.6350  -14.6350
  -14.4078  -14.3957  -14.3738  -14.2379  -13.8410  -13.8410  -13.7571  -13.7286  -13.6478  -13.6478
  -12.2116  -12.2116  -11.8353  -11.8353  -11.0978  -10.8400  -10.8400  -10.6543  -10.5246  -10.5246
  -10.1789   -9.9385   -6.6821   -6.5578   -6.1213   -6.1213   -5.8073   -5.8073   -5.5921   -5.3477
   -3.9086   -3.9086   -3.6845   -3.6845   -0.3990   -0.3990   -0.2831   -0.2830    1.0958    1.1718
    1.1910    1.2182    1.2182    1.3142    1.3608    1.3608    1.6470    1.6470    1.7372    1.7372
    2.0211    2.0350    3.0765    3.1754    3.3300    3.3300    3.3898    3.3898    3.6932    3.6932
    3.7266    3.7266    4.9596    4.9724    5.2044    5.2492    6.1609    6.1609    6.1783    6.1783
    6.6834    6.7950    7.2003    7.2003    7.2188    7.2188    9.2658    9.3765   10.0943   10.0943
   10.1444   10.1444   11.8501   11.8501   11.8619   11.8619   13.0288   13.0288   13.1121   13.1121
   13.5454   13.5511   13.9617   13.9966
   5  1  -27.9971  -27.9562  -26.5866  -26.5321  -25.9438  -25.9438  -25.8468  -25.8468  -24.7465  -24.7465
         -24.5910  -24.5910  -24.2044  -24.0418  -22.7098  -22.7098  -22.5562  -22.5562  -20.9556  -20.9556
  -20.8616  -20.8616  -20.5649  -20.4217  -19.6676  -19.6676  -19.5662  -19.5662  -18.5526  -18.5526
  -18.5225  -18.5225  -17.8291  -17.8291  -17.7910  -17.7910  -16.8449  -16.8101  -16.0704  -16.0704
  -16.0514  -16.0514  -15.8160  -15.7973  -15.4911  -15.4911  -15.4607  -15.4607  -14.7173  -14.6901
  -14.6396  -14.5276  -13.5745  -13.4297  -13.4085  -13.3499  -13.1403  -13.1169  -13.0357  -13.0357
  -12.7468  -12.7468  -11.9665  -11.9665  -11.5831  -11.5831  -11.4915  -11.1153   -9.8310   -9.8310
   -9.4560   -9.4560   -7.0936   -7.0936   -6.8693   -6.8693   -5.3155   -4.9294   -4.4736   -4.4736
   -4.1417   -4.1417   -2.3563   -2.3563   -2.1457   -2.1457   -1.1124   -0.9443    0.5357    0.5883
    0.6357    0.6866    0.9073    0.9561    1.1279    1.1385    1.3586    1.3586    1.4804    1.4804
    1.5754    1.5754    1.6335    1.6335    1.9137    1.9761    4.3026    4.3422    5.3116    5.3116
    5.3216    5.3216    5.7441    5.7490    6.1581    6.1581    6.2079    6.2079    7.5418    7.6119
    7.9034    7.9034    8.0349    8.0349    8.5845    8.5845    8.6181    8.6181    9.5846    9.5846
    9.6148    9.6148   10.1534   10.1538   11.7102   11.7102   11.7748   11.7748   11.9338   12.0604
   14.4474   14.4474   14.4554   14.4554
   6  1  -28.1879  -28.1351  -25.4812  -25.4812  -25.4812  -25.4812  -25.4812  -25.4812  -25.3587  -25.3586
         -25.3586  -25.3586  -25.3586  -25.3586  -21.6895  -21.6895  -21.6241  -21.6241  -21.6241  -21.6241
  -21.5544  -21.5544  -19.1080  -19.1080  -19.1080  -19.1080  -18.7834  -18.7834  -18.7834  -18.7834
  -18.7834  -18.7834  -18.7130  -18.7130  -18.7130  -18.7130  -18.7130  -18.7130  -15.3901  -15.3901
  -15.3901  -15.3901  -15.3901  -15.3901  -15.3672  -15.3672  -15.3672  -15.3672  -15.3671  -15.3671
  -14.7725  -14.6709  -12.8155  -12.8155  -12.7975  -12.7975  -12.6373  -12.6373  -12.6373  -12.6373
  -12.6373  -12.6373  -12.3073  -12.3073  -12.3073  -12.3073  -12.3073  -12.3073   -8.6024   -8.6024
   -8.3405   -8.3405   -8.3405   -8.3405   -8.0563   -8.0563   -3.2632   -3.2632   -3.2632   -3.2632
   -3.2632   -3.2632   -2.9649   -2.9649   -2.9649   -2.9649   -2.9649   -2.9649    0.3591    0.3591
    0.3723    0.3723    0.7267    0.7267    0.7267    0.7267    0.7267    0.7267    0.8307    0.8307
    0.8307    0.8307    0.8307    0.8307    2.3434    2.3996    3.9630    3.9958    6.9073    6.9073
    7.0128    7.0128    7.0128    7.0128    7.1216    7.1216    8.2961    8.2961    8.2961    8.2962
    8.2962    8.2962    8.2996    8.2996    8.2996    8.2997    8.2997    8.2997    9.9001    9.9001
    9.9001    9.9002    9.9002    9.9002   10.0138   10.0138   10.0138   10.0138   10.0138   10.0138
   14.8053   14.8053   14.8053   14.8053
   7  1  -27.4341  -27.4341  -27.4297  -27.4297  -26.1016  -26.1016  -26.0139  -26.0139  -23.7949  -23.7949
         -23.7949  -23.7949  -23.6188  -23.6188  -23.6188  -23.6188  -23.2307  -23.1677  -21.6364  -21.4774
  -20.3848  -20.3848  -20.3848  -20.3848  -20.2647  -20.2647  -20.2647  -20.2647  -17.3027  -17.3027
  -17.3027  -17.3027  -17.2875  -17.2875  -17.2875  -17.2875  -17.2391  -17.2391  -17.2346  -17.2346
  -15.9607  -15.9437  -15.8428  -15.8428  -15.7869  -15.7869  -14.9477  -14.9477  -14.9213  -14.9213
  -14.2409  -14.2409  -14.0918  -14.0918  -13.8939  -13.8939  -13.8657  -13.8657  -13.1678  -13.1678
  -12.8935  -12.8935  -11.0215  -11.0215  -11.0215  -11.0215  -10.7208  -10.6077  -10.6077  -10.6077
  -10.6077  -10.5005   -6.2791   -5.9897   -5.7773   -5.7773   -5.7773   -5.7773   -5.4875   -5.4875
   -5.4875   -5.4875   -2.0070   -2.0070   -1.8569   -1.8569    0.4624    0.6182    0.7001    0.7001
    0.7903    0.7903    0.8660    0.8660    0.9669    0.9669    3.1321    3.1321    3.1380    3.1380
    3.1437    3.1437    3.1437    3.1437    3.2359    3.2359    3.2359    3.2359    3.5081    3.5081
    3.5424    3.5424    3.6457    3.6457    3.7578    3.7578    5.5282    5.5282    5.5514    5.5514
    8.3698    8.3698    8.3698    8.3698    8.4399    8.4399    8.4399    8.4399    9.6313    9.6313
    9.6463    9.6463   10.8319   10.8332   12.7608   12.8985   13.3939   13.3939   13.3939   13.3939
   13.4243   13.4243   13.4243   13.4243
   8  1  -27.6201  -27.6035  -26.9185  -26.9185  -26.8868  -26.8868  -25.0320  -25.0320  -24.8843  -24.8843
         -23.9137  -23.7313  -23.4829  -23.4829  -23.3395  -23.3395  -22.8305  -22.7624  -21.4147  -21.2832
  -21.2328  -21.2328  -21.0715  -21.0715  -19.7703  -19.7304  -18.7740  -18.7740  -18.7278  -18.7278
  -17.9511  -17.9364  -17.4745  -17.4613  -16.7764  -16.7764  -16.7403  -16.7403  -16.3661  -16.3661
  -16.3546  -16.3546  -15.9834  -15.9834  -15.9676  -15.9676  -14.6730  -14.6730  -14.6350  -14.6350
  -14.4078  -14.3957  -14.3738  -14.2379  -13.8410  -13.8410  -13.7571  -13.7286  -13.6478  -13.6478
  -12.2116  -12.2116  -11.8353  -11.8353  -11.0978  -10.8400  -10.8400  -10.6543  -10.5246  -10.5246
  -10.1789   -9.9385   -6.6821   -6.5578   -6.1213   -6.1213   -5.8073   -5.8073   -5.5921   -5.3477
   -3.9086   -3.9086   -3.6845   -3.6845   -0.3990   -0.3990   -0.2831   -0.2830    1.0958    1.1718
    1.1910    1.2182    1.2182    1.3142    1.3608    1.3608    1.6470    1.6470    1.7372    1.7372
    2.0211    2.0350    3.0765    3.1754    3.3300    3.3300    3.3898    3.3898    3.6932    3.6932
    3.7266    3.7266    4.9596    4.9724    5.2044    5.2492    6.1609    6.1609    6.1783    6.1783
    6.6834    6.7950    7.2003    7.2003    7.2188    7.2188    9.2658    9.3765   10.0943   10.0943
   10.1444   10.1444   11.8501   11.8501   11.8619   11.8619   13.0288   13.0288   13.1121   13.1121
   13.5454   13.5511   13.9617   13.9966
   9  1  -27.6201  -27.6035  -26.9185  -26.9185  -26.8868  -26.8868  -25.0320  -25.0320  -24.8843  -24.8843
         -23.9137  -23.7313  -23.4829  -23.4829  -23.3395  -23.3395  -22.8305  -22.7624  -21.4147  -21.2832
  -21.2328  -21.2328  -21.0715  -21.0715  -19.7703  -19.7304  -18.7740  -18.7740  -18.7278  -18.7278
  -17.9511  -17.9364  -17.4745  -17.4613  -16.7764  -16.7764  -16.7403  -16.7403  -16.3661  -16.3661
  -16.3546  -16.3546  -15.9834  -15.9834  -15.9676  -15.9676  -14.6730  -14.6730  -14.6350  -14.6350
  -14.4078  -14.3957  -14.3738  -14.2379  -13.8410  -13.8410  -13.7571  -13.7286  -13.6478  -13.6478
  -12.2116  -12.2116  -11.8353  -11.8353  -11.0978  -10.8400  -10.8400  -10.6543  -10.5246  -10.5246
  -10.1789   -9.9385   -6.6821   -6.5578   -6.1213   -6.1213   -5.8073   -5.8073   -5.5921   -5.3477
   -3.9086   -3.9086   -3.6845   -3.6845   -0.3990   -0.3990   -0.2831   -0.2830    1.0958    1.1718
    1.1910    1.2182    1.2182    1.3142    1.3608    1.3608    1.6470    1.6470    1.7372    1.7372
    2.0211    2.0350    3.0765    3.1754    3.3300    3.3300    3.3898    3.3898    3.6932    3.6932
    3.7266    3.7266    4.9596    4.9724    5.2044    5.2492    6.1609    6.1609    6.1783    6.1783
    6.6834    6.7950    7.2003    7.2003    7.2188    7.2188    9.2658    9.3765   10.0943   10.0943
   10.1444   10.1444   11.8501   11.8501   11.8619   11.8619   13.0288   13.0288   13.1121   13.1122
   13.5454   13.5511   13.9617   13.9966
  10  1  -27.4341  -27.4341  -27.4297  -27.4297  -26.1016  -26.1016  -26.0139  -26.0139  -23.7949  -23.7949
         -23.7949  -23.7949  -23.6188  -23.6188  -23.6188  -23.6188  -23.2307  -23.1677  -21.6364  -21.4774
  -20.3848  -20.3848  -20.3848  -20.3848  -20.2647  -20.2647  -20.2647  -20.2647  -17.3027  -17.3027
  -17.3027  -17.3027  -17.2875  -17.2875  -17.2875  -17.2875  -17.2391  -17.2391  -17.2346  -17.2346
  -15.9607  -15.9437  -15.8428  -15.8428  -15.7869  -15.7869  -14.9477  -14.9477  -14.9213  -14.9213
  -14.2409  -14.2409  -14.0918  -14.0918  -13.8939  -13.8939  -13.8657  -13.8657  -13.1678  -13.1678
  -12.8935  -12.8935  -11.0215  -11.0215  -11.0215  -11.0215  -10.7208  -10.6077  -10.6077  -10.6077
  -10.6077  -10.5005   -6.2791   -5.9897   -5.7773   -5.7773   -5.7773   -5.7773   -5.4875   -5.4875
   -5.4875   -5.4875   -2.0070   -2.0070   -1.8569   -1.8569    0.4624    0.6182    0.7001    0.7001
    0.7903    0.7903    0.8660    0.8660    0.9669    0.9669    3.1321    3.1321    3.1380    3.1380
    3.1437    3.1437    3.1437    3.1437    3.2359    3.2359    3.2359    3.2359    3.5081    3.5081
    3.5424    3.5424    3.6457    3.6457    3.7578    3.7578    5.5282    5.5282    5.5514    5.5514
    8.3698    8.3698    8.3698    8.3698    8.4399    8.4399    8.4399    8.4399    9.6313    9.6313
    9.6463    9.6463   10.8319   10.8332   12.7608   12.8985   13.3939   13.3939   13.3939   13.3939
   13.4243   13.4243   13.4243   13.4243
  11  1  -27.6201  -27.6035  -26.9185  -26.9185  -26.8868  -26.8868  -25.0320  -25.0320  -24.8843  -24.8843
         -23.9137  -23.7313  -23.4829  -23.4829  -23.3395  -23.3395  -22.8305  -22.7624  -21.4147  -21.2832
  -21.2328  -21.2328  -21.0715  -21.0715  -19.7703  -19.7304  -18.7740  -18.7740  -18.7278  -18.7278
  -17.9511  -17.9364  -17.4745  -17.4613  -16.7764  -16.7764  -16.7403  -16.7403  -16.3661  -16.3661
  -16.3546  -16.3546  -15.9834  -15.9834  -15.9676  -15.9676  -14.6730  -14.6730  -14.6350  -14.6350
  -14.4078  -14.3957  -14.3738  -14.2379  -13.8410  -13.8410  -13.7571  -13.7286  -13.6478  -13.6478
  -12.2116  -12.2116  -11.8353  -11.8353  -11.0978  -10.8400  -10.8400  -10.6543  -10.5246  -10.5246
  -10.1789   -9.9385   -6.6821   -6.5578   -6.1213   -6.1213   -5.8073   -5.8073   -5.5921   -5.3477
   -3.9086   -3.9086   -3.6845   -3.6845   -0.3990   -0.3990   -0.2831   -0.2830    1.0958    1.1718
    1.1910    1.2182    1.2182    1.3142    1.3608    1.3608    1.6470    1.6470    1.7372    1.7372
    2.0211    2.0350    3.0765    3.1754    3.3300    3.3300    3.3898    3.3898    3.6932    3.6932
    3.7266    3.7266    4.9596    4.9724    5.2044    5.2492    6.1609    6.1609    6.1783    6.1783
    6.6834    6.7950    7.2003    7.2003    7.2188    7.2188    9.2658    9.3765   10.0943   10.0943
   10.1444   10.1444   11.8501   11.8501   11.8619   11.8619   13.0288   13.0288   13.1121   13.1122
   13.5454   13.5511   13.9617   13.9966
  12  1  -27.4341  -27.4341  -27.4297  -27.4297  -26.1016  -26.1016  -26.0139  -26.0139  -23.7949  -23.7949
         -23.7949  -23.7949  -23.6188  -23.6188  -23.6188  -23.6188  -23.2307  -23.1677  -21.6364  -21.4774
  -20.3848  -20.3848  -20.3848  -20.3848  -20.2647  -20.2647  -20.2647  -20.2647  -17.3027  -17.3027
  -17.3027  -17.3027  -17.2875  -17.2875  -17.2875  -17.2875  -17.2391  -17.2391  -17.2346  -17.2346
  -15.9607  -15.9437  -15.8428  -15.8428  -15.7869  -15.7869  -14.9477  -14.9477  -14.9213  -14.9213
  -14.2409  -14.2409  -14.0918  -14.0918  -13.8939  -13.8939  -13.8657  -13.8657  -13.1678  -13.1678
  -12.8935  -12.8935  -11.0215  -11.0215  -11.0215  -11.0215  -10.7208  -10.6077  -10.6077  -10.6077
  -10.6077  -10.5005   -6.2791   -5.9897   -5.7773   -5.7773   -5.7773   -5.7773   -5.4875   -5.4875
   -5.4875   -5.4875   -2.0070   -2.0070   -1.8569   -1.8569    0.4624    0.6182    0.7001    0.7001
    0.7903    0.7903    0.8660    0.8660    0.9669    0.9669    3.1321    3.1321    3.1380    3.1380
    3.1437    3.1437    3.1437    3.1437    3.2359    3.2359    3.2359    3.2359    3.5081    3.5081
    3.5424    3.5424    3.6457    3.6457    3.7578    3.7578    5.5282    5.5282    5.5514    5.5514
    8.3698    8.3698    8.3698    8.3698    8.4399    8.4399    8.4399    8.4399    9.6313    9.6313
    9.6463    9.6463   10.8319   10.8332   12.7608   12.8985   13.3939   13.3939   13.3939   13.3939
   13.4243   13.4243   13.4243   13.4243
  13  1  -27.6256  -27.6116  -26.9197  -26.9197  -26.8991  -26.8991  -25.0147  -25.0147  -24.9110  -24.9110
         -23.8895  -23.7608  -23.4622  -23.4622  -23.3606  -23.3606  -22.8183  -22.7697  -21.4004  -21.3067
  -21.2129  -21.2129  -21.0983  -21.0983  -19.7638  -19.7356  -18.7676  -18.7676  -18.7348  -18.7348
  -17.9512  -17.9410  -17.4733  -17.4640  -16.7729  -16.7729  -16.7477  -16.7477  -16.3646  -16.3646
  -16.3565  -16.3565  -15.9818  -15.9818  -15.9709  -15.9709  -14.6698  -14.6698  -14.6436  -14.6436
  -14.4061  -14.3977  -14.3422  -14.2422  -13.8048  -13.8048  -13.7520  -13.7308  -13.6653  -13.6653
  -12.1612  -12.1611  -11.8959  -11.8959  -11.0389  -10.7946  -10.7946  -10.7261  -10.5712  -10.5712
  -10.1410   -9.9702   -6.6776   -6.5883   -6.0885   -6.0885   -5.8652   -5.8652   -5.5567   -5.3841
   -3.8763   -3.8763   -3.7177   -3.7177   -0.3821   -0.3821   -0.3001   -0.3001    1.1051    1.1550
    1.2313    1.2410    1.2410    1.3103    1.3420    1.3421    1.6762    1.6762    1.7364    1.7364
    2.0231    2.0330    3.0925    3.1625    3.3423    3.3423    3.3850    3.3850    3.7025    3.7025
    3.7255    3.7255    4.9615    4.9705    5.2110    5.2427    6.1722    6.1722    6.1831    6.1831
    6.7048    6.7845    7.2041    7.2041    7.2174    7.2174    9.2817    9.3600   10.1023   10.1023
   10.1378   10.1378   11.8523   11.8523   11.8606   11.8606   13.0418   13.0418   13.1008   13.1008
   13.5462   13.5503   13.9667   13.9915
  14  1  -27.9992  -27.9679  -26.5843  -26.5474  -25.9349  -25.9349  -25.8676  -25.8676  -24.7275  -24.7275
         -24.6181  -24.6181  -24.1832  -24.0684  -22.6873  -22.6873  -22.5785  -22.5785  -20.9422  -20.9422
  -20.8755  -20.8755  -20.5465  -20.4449  -19.6545  -19.6545  -19.5826  -19.5826  -18.5505  -18.5505
  -18.5291  -18.5291  -17.8249  -17.8249  -17.7980  -17.7980  -16.8417  -16.8176  -16.0680  -16.0680
  -16.0546  -16.0546  -15.8132  -15.8000  -15.4876  -15.4876  -15.4663  -15.4663  -14.7133  -14.6941
  -14.6062  -14.5195  -13.5377  -13.4266  -13.4115  -13.3775  -13.1368  -13.1203  -12.9938  -12.9938
  -12.7895  -12.7895  -11.9153  -11.9153  -11.6449  -11.6449  -11.4405  -11.1749   -9.7772   -9.7772
   -9.5115   -9.5115   -7.0659   -7.0659   -6.9073   -6.9073   -5.2678   -4.9938   -4.4288   -4.4288
   -4.1936   -4.1936   -2.3262   -2.3262   -2.1772   -2.1772   -1.0885   -0.9695    0.5604    0.6025
    0.6340    0.6676    0.9270    0.9604    1.1295    1.1370    1.3802    1.3802    1.4669    1.4669
    1.5919    1.5919    1.6340    1.6340    1.9234    1.9675    4.3087    4.3367    5.3139    5.3139
    5.3210    5.3210    5.7447    5.7482    6.1719    6.1719    6.2059    6.2059    7.5606    7.6086
    7.9222    7.9222    8.0153    8.0153    8.5931    8.5931    8.6164    8.6164    9.5924    9.5924
    9.6132    9.6132   10.1534   10.1537   11.7227   11.7227   11.7682   11.7682   11.9568   12.0461
   14.4486   14.4486   14.4542   14.4542
  15  1  -27.9992  -27.9679  -26.5843  -26.5474  -25.9349  -25.9349  -25.8676  -25.8676  -24.7275  -24.7275
         -24.6181  -24.6181  -24.1832  -24.0684  -22.6873  -22.6873  -22.5785  -22.5785  -20.9422  -20.9422
  -20.8755  -20.8755  -20.5465  -20.4449  -19.6545  -19.6545  -19.5826  -19.5826  -18.5505  -18.5505
  -18.5291  -18.5291  -17.8249  -17.8249  -17.7980  -17.7980  -16.8417  -16.8176  -16.0680  -16.0680
  -16.0546  -16.0546  -15.8132  -15.8000  -15.4876  -15.4876  -15.4663  -15.4663  -14.7133  -14.6941
  -14.6062  -14.5195  -13.5377  -13.4266  -13.4115  -13.3775  -13.1368  -13.1203  -12.9938  -12.9938
  -12.7895  -12.7895  -11.9153  -11.9153  -11.6449  -11.6449  -11.4405  -11.1749   -9.7772   -9.7772
   -9.5115   -9.5115   -7.0659   -7.0659   -6.9073   -6.9073   -5.2678   -4.9938   -4.4288   -4.4288
   -4.1936   -4.1936   -2.3262   -2.3262   -2.1772   -2.1772   -1.0885   -0.9695    0.5604    0.6025
    0.6340    0.6676    0.9270    0.9604    1.1295    1.1370    1.3802    1.3802    1.4669    1.4669
    1.5919    1.5919    1.6340    1.6340    1.9234    1.9675    4.3087    4.3367    5.3139    5.3139
    5.3210    5.3210    5.7447    5.7482    6.1719    6.1719    6.2059    6.2059    7.5606    7.6086
    7.9222    7.9222    8.0153    8.0153    8.5931    8.5931    8.6164    8.6164    9.5924    9.5924
    9.6132    9.6132   10.1534   10.1537   11.7227   11.7227   11.7682   11.7682   11.9568   12.0461
   14.4486   14.4486   14.4542   14.4542
  16  1  -27.6256  -27.6116  -26.9197  -26.9197  -26.8991  -26.8991  -25.0147  -25.0147  -24.9110  -24.9110
         -23.8895  -23.7608  -23.4622  -23.4622  -23.3606  -23.3606  -22.8183  -22.7697  -21.4004  -21.3067
  -21.2129  -21.2129  -21.0983  -21.0983  -19.7638  -19.7356  -18.7676  -18.7676  -18.7348  -18.7348
  -17.9512  -17.9410  -17.4733  -17.4640  -16.7729  -16.7729  -16.7477  -16.7477  -16.3646  -16.3646
  -16.3565  -16.3565  -15.9818  -15.9818  -15.9709  -15.9709  -14.6698  -14.6698  -14.6436  -14.6436
  -14.4061  -14.3977  -14.3422  -14.2422  -13.8048  -13.8048  -13.7520  -13.7308  -13.6653  -13.6653
  -12.1612  -12.1611  -11.8959  -11.8959  -11.0389  -10.7946  -10.7946  -10.7261  -10.5712  -10.5712
  -10.1410   -9.9702   -6.6776   -6.5883   -6.0885   -6.0885   -5.8652   -5.8652   -5.5567   -5.3841
   -3.8763   -3.8763   -3.7177   -3.7177   -0.3821   -0.3821   -0.3001   -0.3001    1.1051    1.1550
    1.2313    1.2410    1.2410    1.3103    1.3420    1.3421    1.6762    1.6762    1.7364    1.7364
    2.0231    2.0330    3.0925    3.1625    3.3423    3.3423    3.3850    3.3850    3.7025    3.7025
    3.7255    3.7255    4.9615    4.9705    5.2110    5.2427    6.1722    6.1722    6.1831    6.1831
    6.7048    6.7845    7.2041    7.2041    7.2174    7.2174    9.2817    9.3600   10.1023   10.1023
   10.1378   10.1378   11.8523   11.8523   11.8606   11.8606   13.0418   13.0418   13.1008   13.1008
   13.5462   13.5503   13.9667   13.9915
  17  1  -27.9992  -27.9679  -26.5843  -26.5474  -25.9349  -25.9349  -25.8676  -25.8676  -24.7275  -24.7275
         -24.6181  -24.6181  -24.1832  -24.0684  -22.6873  -22.6873  -22.5785  -22.5785  -20.9422  -20.9422
  -20.8755  -20.8755  -20.5465  -20.4449  -19.6545  -19.6545  -19.5826  -19.5826  -18.5505  -18.5505
  -18.5291  -18.5291  -17.8249  -17.8249  -17.7980  -17.7980  -16.8417  -16.8176  -16.0680  -16.0680
  -16.0546  -16.0546  -15.8132  -15.8000  -15.4876  -15.4876  -15.4663  -15.4663  -14.7133  -14.6941
  -14.6062  -14.5195  -13.5377  -13.4266  -13.4115  -13.3775  -13.1368  -13.1203  -12.9938  -12.9938
  -12.7895  -12.7895  -11.9153  -11.9153  -11.6449  -11.6449  -11.4405  -11.1749   -9.7772   -9.7772
   -9.5115   -9.5115   -7.0659   -7.0659   -6.9073   -6.9073   -5.2678   -4.9938   -4.4288   -4.4288
   -4.1936   -4.1936   -2.3262   -2.3262   -2.1772   -2.1772   -1.0885   -0.9695    0.5604    0.6025
    0.6340    0.6676    0.9270    0.9604    1.1295    1.1370    1.3802    1.3802    1.4669    1.4669
    1.5919    1.5919    1.6340    1.6340    1.9234    1.9675    4.3087    4.3367    5.3139    5.3139
    5.3210    5.3210    5.7447    5.7482    6.1719    6.1719    6.2059    6.2059    7.5606    7.6086
    7.9222    7.9222    8.0153    8.0153    8.5931    8.5931    8.6164    8.6164    9.5924    9.5924
    9.6132    9.6132   10.1534   10.1537   11.7227   11.7227   11.7682   11.7682   11.9568   12.0461
   14.4486   14.4486   14.4542   14.4542
  18  1  -28.1884  -28.1485  -25.4681  -25.4681  -25.4681  -25.4681  -25.4681  -25.4681  -25.3824  -25.3824
         -25.3824  -25.3824  -25.3824  -25.3824  -21.6705  -21.6705  -21.6210  -21.6210  -21.6210  -21.6210
  -21.5750  -21.5750  -19.1116  -19.1116  -19.1116  -19.1116  -18.7751  -18.7751  -18.7751  -18.7751
  -18.7751  -18.7751  -18.7253  -18.7253  -18.7253  -18.7252  -18.7252  -18.7252  -15.3867  -15.3867
  -15.3867  -15.3867  -15.3867  -15.3867  -15.3705  -15.3705  -15.3705  -15.3705  -15.3705  -15.3705
  -14.7381  -14.6571  -12.8129  -12.8129  -12.8001  -12.8001  -12.5919  -12.5919  -12.5919  -12.5919
  -12.5919  -12.5919  -12.3592  -12.3592  -12.3592  -12.3592  -12.3592  -12.3592   -8.5282   -8.5282
   -8.3385   -8.3385   -8.3385   -8.3385   -8.1425   -8.1425   -3.2220   -3.2220   -3.2220   -3.2220
   -3.2220   -3.2220   -3.0107   -3.0107   -3.0107   -3.0107   -3.0107   -3.0107    0.3610    0.3610
    0.3704    0.3704    0.7478    0.7478    0.7478    0.7478    0.7478    0.7478    0.8225    0.8225
    0.8225    0.8225    0.8225    0.8225    2.3520    2.3917    3.9681    3.9913    6.9381    6.9381
    7.0120    7.0120    7.0120    7.0120    7.0896    7.0896    8.2966    8.2966    8.2966    8.2966
    8.2966    8.2966    8.2991    8.2991    8.2991    8.2991    8.2991    8.2991    9.9263    9.9263
    9.9263    9.9263    9.9263    9.9263   10.0052   10.0052   10.0052   10.0052   10.0052   10.0052
   14.8054   14.8054   14.8054   14.8054
  19  1  -27.9992  -27.9679  -26.5843  -26.5474  -25.9349  -25.9349  -25.8676  -25.8676  -24.7275  -24.7275
         -24.6181  -24.6181  -24.1832  -24.0684  -22.6873  -22.6873  -22.5785  -22.5785  -20.9422  -20.9422
  -20.8755  -20.8755  -20.5465  -20.4449  -19.6545  -19.6545  -19.5826  -19.5826  -18.5505  -18.5505
  -18.5291  -18.5291  -17.8249  -17.8249  -17.7980  -17.7980  -16.8417  -16.8176  -16.0680  -16.0680
  -16.0546  -16.0546  -15.8132  -15.8000  -15.4876  -15.4876  -15.4663  -15.4663  -14.7133  -14.6941
  -14.6062  -14.5195  -13.5377  -13.4266  -13.4115  -13.3775  -13.1368  -13.1203  -12.9938  -12.9938
  -12.7895  -12.7895  -11.9153  -11.9153  -11.6449  -11.6449  -11.4405  -11.1749   -9.7772   -9.7772
   -9.5115   -9.5115   -7.0659   -7.0659   -6.9073   -6.9073   -5.2678   -4.9938   -4.4288   -4.4288
   -4.1936   -4.1936   -2.3262   -2.3262   -2.1772   -2.1772   -1.0885   -0.9695    0.5604    0.6025
    0.6340    0.6676    0.9270    0.9604    1.1295    1.1370    1.3802    1.3802    1.4669    1.4669
    1.5919    1.5919    1.6340    1.6340    1.9234    1.9675    4.3087    4.3367    5.3139    5.3139
    5.3210    5.3210    5.7447    5.7482    6.1719    6.1719    6.2059    6.2059    7.5606    7.6086
    7.9222    7.9222    8.0153    8.0153    8.5931    8.5931    8.6164    8.6164    9.5924    9.5924
    9.6132    9.6132   10.1534   10.1537   11.7227   11.7227   11.7682   11.7682   11.9568   12.0461
   14.4486   14.4486   14.4542   14.4542
  20  1  -27.4413  -27.4413  -27.4361  -27.4361  -26.0942  -26.0942  -26.0336  -26.0336  -23.7712  -23.7712
         -23.7712  -23.7712  -23.6468  -23.6468  -23.6468  -23.6468  -23.2195  -23.1744  -21.6196  -21.5064
  -20.3685  -20.3685  -20.3685  -20.3685  -20.2832  -20.2832  -20.2832  -20.2832  -17.3015  -17.3015
  -17.3015  -17.3015  -17.2908  -17.2908  -17.2908  -17.2908  -17.2384  -17.2384  -17.2352  -17.2352
  -15.9581  -15.9461  -15.8373  -15.8373  -15.7985  -15.7985  -14.9460  -14.9460  -14.9280  -14.9280
  -14.2066  -14.2066  -14.0963  -14.0963  -13.8897  -13.8897  -13.8698  -13.8698  -13.1268  -13.1268
  -12.9324  -12.9324  -10.9657  -10.9657  -10.9657  -10.9657  -10.6865  -10.6734  -10.6734  -10.6734
  -10.6734  -10.5301   -6.2550   -6.0491   -5.7392   -5.7392   -5.7392   -5.7392   -5.5338   -5.5338
   -5.5338   -5.5338   -1.9849   -1.9849   -1.8788   -1.8788    0.4870    0.5974    0.7112    0.7112
    0.7727    0.7727    0.9011    0.9011    0.9662    0.9662    3.1330    3.1330    3.1371    3.1371
    3.1592    3.1592    3.1592    3.1592    3.2246    3.2246    3.2246    3.2246    3.5143    3.5143
    3.5383    3.5383    3.6809    3.6809    3.7567    3.7567    5.5341    5.5341    5.5510    5.5510
    8.3823    8.3823    8.3823    8.3823    8.4321    8.4321    8.4321    8.4321    9.6335    9.6335
    9.6441    9.6441   10.8321   10.8329   12.7820   12.8796   13.3987   13.3987   13.3987   13.3987
   13.4202   13.4202   13.4202   13.4202
  21  1  -27.9992  -27.9679  -26.5843  -26.5474  -25.9349  -25.9349  -25.8676  -25.8676  -24.7275  -24.7275
         -24.6181  -24.6181  -24.1832  -24.0684  -22.6873  -22.6873  -22.5785  -22.5785  -20.9422  -20.9422
  -20.8755  -20.8755  -20.5465  -20.4449  -19.6545  -19.6545  -19.5826  -19.5826  -18.5505  -18.5505
  -18.5291  -18.5291  -17.8249  -17.8249  -17.7980  -17.7980  -16.8417  -16.8176  -16.0680  -16.0680
  -16.0546  -16.0546  -15.8132  -15.8000  -15.4876  -15.4876  -15.4663  -15.4663  -14.7133  -14.6941
  -14.6062  -14.5195  -13.5377  -13.4266  -13.4115  -13.3775  -13.1368  -13.1203  -12.9938  -12.9938
  -12.7895  -12.7895  -11.9153  -11.9153  -11.6449  -11.6449  -11.4405  -11.1749   -9.7772   -9.7772
   -9.5115   -9.5115   -7.0659   -7.0659   -6.9073   -6.9073   -5.2678   -4.9938   -4.4288   -4.4288
   -4.1936   -4.1936   -2.3262   -2.3262   -2.1772   -2.1772   -1.0885   -0.9695    0.5604    0.6025
    0.6340    0.6676    0.9270    0.9604    1.1295    1.1370    1.3802    1.3802    1.4669    1.4669
    1.5919    1.5919    1.6340    1.6340    1.9234    1.9675    4.3087    4.3367    5.3139    5.3139
    5.3210    5.3210    5.7447    5.7482    6.1719    6.1719    6.2059    6.2059    7.5606    7.6086
    7.9222    7.9222    8.0153    8.0153    8.5931    8.5931    8.6164    8.6164    9.5924    9.5924
    9.6132    9.6132   10.1534   10.1537   11.7227   11.7227   11.7682   11.7682   11.9568   12.0461
   14.4486   14.4486   14.4542   14.4542
  22  1  -27.9992  -27.9679  -26.5843  -26.5474  -25.9349  -25.9349  -25.8676  -25.8676  -24.7275  -24.7275
         -24.6181  -24.6181  -24.1832  -24.0684  -22.6873  -22.6873  -22.5785  -22.5785  -20.9422  -20.9422
  -20.8755  -20.8755  -20.5465  -20.4449  -19.6545  -19.6545  -19.5826  -19.5826  -18.5505  -18.5505
  -18.5291  -18.5291  -17.8249  -17.8249  -17.7980  -17.7980  -16.8417  -16.8176  -16.0680  -16.0680
  -16.0546  -16.0546  -15.8132  -15.8000  -15.4876  -15.4876  -15.4663  -15.4663  -14.7133  -14.6941
  -14.6062  -14.5195  -13.5377  -13.4266  -13.4115  -13.3775  -13.1368  -13.1203  -12.9938  -12.9938
  -12.7895  -12.7895  -11.9153  -11.9153  -11.6449  -11.6449  -11.4405  -11.1749   -9.7772   -9.7772
   -9.5115   -9.5115   -7.0659   -7.0659   -6.9073   -6.9073   -5.2678   -4.9938   -4.4288   -4.4288
   -4.1936   -4.1936   -2.3262   -2.3262   -2.1772   -2.1772   -1.0885   -0.9695    0.5604    0.6025
    0.6340    0.6676    0.9270    0.9604    1.1295    1.1370    1.3802    1.3802    1.4669    1.4669
    1.5919    1.5919    1.6340    1.6340    1.9234    1.9675    4.3087    4.3367    5.3139    5.3139
    5.3210    5.3210    5.7447    5.7482    6.1719    6.1719    6.2059    6.2059    7.5606    7.6086
    7.9222    7.9222    8.0153    8.0153    8.5931    8.5931    8.6164    8.6164    9.5924    9.5924
    9.6132    9.6132   10.1534   10.1537   11.7227   11.7227   11.7682   11.7682   11.9568   12.0461
   14.4486   14.4486   14.4542   14.4542
  23  1  -27.6256  -27.6116  -26.9197  -26.9197  -26.8991  -26.8991  -25.0147  -25.0147  -24.9110  -24.9110
         -23.8895  -23.7608  -23.4622  -23.4622  -23.3606  -23.3606  -22.8183  -22.7697  -21.4004  -21.3067
  -21.2129  -21.2129  -21.0983  -21.0983  -19.7638  -19.7356  -18.7676  -18.7676  -18.7348  -18.7348
  -17.9512  -17.9410  -17.4733  -17.4640  -16.7729  -16.7729  -16.7477  -16.7477  -16.3646  -16.3646
  -16.3565  -16.3565  -15.9818  -15.9818  -15.9709  -15.9709  -14.6698  -14.6698  -14.6436  -14.6436
  -14.4061  -14.3977  -14.3422  -14.2422  -13.8048  -13.8048  -13.7520  -13.7308  -13.6653  -13.6653
  -12.1612  -12.1611  -11.8959  -11.8959  -11.0389  -10.7946  -10.7946  -10.7261  -10.5712  -10.5712
  -10.1410   -9.9702   -6.6776   -6.5883   -6.0885   -6.0885   -5.8652   -5.8652   -5.5567   -5.3841
   -3.8763   -3.8763   -3.7177   -3.7177   -0.3821   -0.3821   -0.3001   -0.3001    1.1051    1.1550
    1.2313    1.2410    1.2410    1.3103    1.3420    1.3421    1.6762    1.6762    1.7364    1.7364
    2.0231    2.0330    3.0925    3.1625    3.3423    3.3423    3.3850    3.3850    3.7025    3.7025
    3.7255    3.7255    4.9615    4.9705    5.2110    5.2427    6.1722    6.1722    6.1831    6.1831
    6.7048    6.7845    7.2041    7.2041    7.2174    7.2174    9.2817    9.3600   10.1023   10.1023
   10.1378   10.1378   11.8523   11.8523   11.8606   11.8606   13.0418   13.0418   13.1008   13.1008
   13.5462   13.5503   13.9667   13.9915
  24  1  -27.6256  -27.6116  -26.9197  -26.9197  -26.8991  -26.8991  -25.0147  -25.0147  -24.9110  -24.9110
         -23.8895  -23.7608  -23.4622  -23.4622  -23.3606  -23.3606  -22.8183  -22.7697  -21.4004  -21.3067
  -21.2129  -21.2129  -21.0983  -21.0983  -19.7638  -19.7356  -18.7676  -18.7676  -18.7348  -18.7348
  -17.9512  -17.9410  -17.4733  -17.4640  -16.7729  -16.7729  -16.7477  -16.7477  -16.3646  -16.3646
  -16.3565  -16.3565  -15.9818  -15.9818  -15.9709  -15.9709  -14.6698  -14.6698  -14.6436  -14.6436
  -14.4061  -14.3977  -14.3422  -14.2422  -13.8048  -13.8048  -13.7520  -13.7308  -13.6653  -13.6653
  -12.1612  -12.1611  -11.8959  -11.8959  -11.0389  -10.7946  -10.7946  -10.7261  -10.5712  -10.5712
  -10.1410   -9.9702   -6.6776   -6.5883   -6.0885   -6.0885   -5.8652   -5.8652   -5.5567   -5.3841
   -3.8763   -3.8763   -3.7177   -3.7177   -0.3821   -0.3821   -0.3001   -0.3001    1.1051    1.1550
    1.2313    1.2410    1.2410    1.3103    1.3420    1.3421    1.6762    1.6762    1.7364    1.7364
    2.0231    2.0330    3.0925    3.1625    3.3423    3.3423    3.3850    3.3850    3.7025    3.7025
    3.7255    3.7255    4.9615    4.9705    5.2110    5.2427    6.1722    6.1722    6.1831    6.1831
    6.7048    6.7845    7.2041    7.2041    7.2174    7.2174    9.2817    9.3600   10.1023   10.1023
   10.1378   10.1378   11.8523   11.8523   11.8606   11.8606   13.0418   13.0418   13.1008   13.1008
   13.5462   13.5503   13.9667   13.9915
  25  1  -27.6256  -27.6116  -26.9197  -26.9197  -26.8991  -26.8991  -25.0147  -25.0147  -24.9110  -24.9110
         -23.8895  -23.7608  -23.4622  -23.4622  -23.3606  -23.3606  -22.8183  -22.7697  -21.4004  -21.3067
  -21.2129  -21.2129  -21.0983  -21.0983  -19.7638  -19.7356  -18.7676  -18.7676  -18.7348  -18.7348
  -17.9512  -17.9410  -17.4733  -17.4640  -16.7729  -16.7729  -16.7477  -16.7477  -16.3646  -16.3646
  -16.3565  -16.3565  -15.9818  -15.9818  -15.9709  -15.9709  -14.6698  -14.6698  -14.6436  -14.6436
  -14.4061  -14.3977  -14.3422  -14.2422  -13.8048  -13.8048  -13.7520  -13.7308  -13.6653  -13.6653
  -12.1612  -12.1611  -11.8959  -11.8959  -11.0389  -10.7946  -10.7946  -10.7261  -10.5712  -10.5712
  -10.1410   -9.9702   -6.6776   -6.5883   -6.0885   -6.0885   -5.8652   -5.8652   -5.5567   -5.3841
   -3.8763   -3.8763   -3.7177   -3.7177   -0.3821   -0.3821   -0.3001   -0.3001    1.1051    1.1550
    1.2313    1.2410    1.2410    1.3103    1.3420    1.3421    1.6762    1.6762    1.7364    1.7364
    2.0231    2.0330    3.0925    3.1625    3.3423    3.3423    3.3850    3.3850    3.7025    3.7025
    3.7255    3.7255    4.9615    4.9705    5.2110    5.2427    6.1722    6.1722    6.1831    6.1831
    6.7048    6.7845    7.2041    7.2041    7.2174    7.2174    9.2817    9.3600   10.1023   10.1023
   10.1378   10.1378   11.8523   11.8523   11.8606   11.8606   13.0418   13.0418   13.1008   13.1008
   13.5462   13.5503   13.9667   13.9915
  26  1  -27.4413  -27.4413  -27.4361  -27.4361  -26.0942  -26.0942  -26.0336  -26.0336  -23.7712  -23.7712
         -23.7712  -23.7712  -23.6468  -23.6468  -23.6468  -23.6468  -23.2195  -23.1744  -21.6196  -21.5064
  -20.3685  -20.3685  -20.3685  -20.3685  -20.2832  -20.2832  -20.2832  -20.2832  -17.3015  -17.3015
  -17.3015  -17.3015  -17.2908  -17.2908  -17.2908  -17.2908  -17.2384  -17.2384  -17.2352  -17.2352
  -15.9581  -15.9461  -15.8373  -15.8373  -15.7985  -15.7985  -14.9460  -14.9460  -14.9280  -14.9280
  -14.2066  -14.2066  -14.0963  -14.0963  -13.8897  -13.8897  -13.8698  -13.8698  -13.1268  -13.1268
  -12.9324  -12.9324  -10.9657  -10.9657  -10.9657  -10.9657  -10.6865  -10.6734  -10.6734  -10.6734
  -10.6734  -10.5301   -6.2550   -6.0491   -5.7392   -5.7392   -5.7392   -5.7392   -5.5338   -5.5338
   -5.5338   -5.5338   -1.9849   -1.9849   -1.8788   -1.8788    0.4870    0.5974    0.7112    0.7112
    0.7727    0.7727    0.9011    0.9011    0.9662    0.9662    3.1330    3.1330    3.1371    3.1371
    3.1592    3.1592    3.1592    3.1592    3.2246    3.2246    3.2246    3.2246    3.5143    3.5143
    3.5383    3.5383    3.6809    3.6809    3.7567    3.7567    5.5341    5.5341    5.5510    5.5510
    8.3823    8.3823    8.3823    8.3823    8.4321    8.4321    8.4321    8.4321    9.6335    9.6335
    9.6441    9.6441   10.8321   10.8329   12.7820   12.8796   13.3987   13.3987   13.3987   13.3987
   13.4202   13.4202   13.4202   13.4202
  27  1  -27.6256  -27.6116  -26.9197  -26.9197  -26.8991  -26.8991  -25.0147  -25.0147  -24.9110  -24.9110
         -23.8895  -23.7608  -23.4622  -23.4622  -23.3606  -23.3606  -22.8183  -22.7697  -21.4004  -21.3067
  -21.2129  -21.2129  -21.0983  -21.0983  -19.7638  -19.7356  -18.7676  -18.7676  -18.7348  -18.7348
  -17.9512  -17.9410  -17.4733  -17.4640  -16.7729  -16.7729  -16.7477  -16.7477  -16.3646  -16.3646
  -16.3565  -16.3565  -15.9818  -15.9818  -15.9709  -15.9709  -14.6698  -14.6698  -14.6436  -14.6436
  -14.4061  -14.3977  -14.3422  -14.2422  -13.8048  -13.8048  -13.7520  -13.7308  -13.6653  -13.6653
  -12.1612  -12.1611  -11.8959  -11.8959  -11.0389  -10.7946  -10.7946  -10.7261  -10.5712  -10.5712
  -10.1410   -9.9702   -6.6776   -6.5883   -6.0885   -6.0885   -5.8652   -5.8652   -5.5567   -5.3841
   -3.8763   -3.8763   -3.7177   -3.7177   -0.3821   -0.3821   -0.3001   -0.3001    1.1051    1.1550
    1.2313    1.2410    1.2410    1.3103    1.3420    1.3421    1.6762    1.6762    1.7364    1.7364
    2.0231    2.0330    3.0925    3.1625    3.3423    3.3423    3.3850    3.3850    3.7025    3.7025
    3.7255    3.7255    4.9615    4.9705    5.2110    5.2427    6.1722    6.1722    6.1831    6.1831
    6.7048    6.7845    7.2041    7.2041    7.2174    7.2174    9.2817    9.3600   10.1023   10.1023
   10.1378   10.1378   11.8523   11.8523   11.8606   11.8606   13.0418   13.0418   13.1008   13.1008
   13.5462   13.5503   13.9667   13.9915
  28  1  -27.4413  -27.4413  -27.4361  -27.4361  -26.0942  -26.0942  -26.0336  -26.0336  -23.7712  -23.7712
         -23.7712  -23.7712  -23.6468  -23.6468  -23.6468  -23.6468  -23.2195  -23.1744  -21.6196  -21.5064
  -20.3685  -20.3685  -20.3685  -20.3685  -20.2832  -20.2832  -20.2832  -20.2832  -17.3015  -17.3015
  -17.3015  -17.3015  -17.2908  -17.2908  -17.2908  -17.2908  -17.2384  -17.2384  -17.2352  -17.2352
  -15.9581  -15.9461  -15.8373  -15.8373  -15.7985  -15.7985  -14.9460  -14.9460  -14.9280  -14.9280
  -14.2066  -14.2066  -14.0963  -14.0963  -13.8897  -13.8897  -13.8698  -13.8698  -13.1268  -13.1268
  -12.9324  -12.9324  -10.9657  -10.9657  -10.9657  -10.9657  -10.6865  -10.6734  -10.6734  -10.6734
  -10.6734  -10.5301   -6.2550   -6.0491   -5.7392   -5.7392   -5.7392   -5.7392   -5.5338   -5.5338
   -5.5338   -5.5338   -1.9849   -1.9849   -1.8788   -1.8788    0.4870    0.5974    0.7112    0.7112
    0.7727    0.7727    0.9011    0.9011    0.9662    0.9662    3.1330    3.1330    3.1371    3.1371
    3.1592    3.1592    3.1592    3.1592    3.2246    3.2246    3.2246    3.2246    3.5143    3.5143
    3.5383    3.5383    3.6809    3.6809    3.7567    3.7567    5.5341    5.5341    5.5510    5.5510
    8.3823    8.3823    8.3823    8.3823    8.4321    8.4321    8.4321    8.4321    9.6335    9.6335
    9.6441    9.6441   10.8321   10.8329   12.7820   12.8796   13.3987   13.3987   13.3987   13.3987
   13.4202   13.4202   13.4202   13.4202
  29  1  -27.6251  -27.6251  -26.9158  -26.9158  -26.9158  -26.9158  -24.9675  -24.9675  -24.9675  -24.9675
         -23.8278  -23.8278  -23.4117  -23.4117  -23.4117  -23.4117  -22.7916  -22.7916  -21.3582  -21.3582
  -21.1591  -21.1591  -21.1591  -21.1591  -19.7491  -19.7491  -18.7515  -18.7515  -18.7515  -18.7515
  -17.9485  -17.9485  -17.4694  -17.4694  -16.7622  -16.7622  -16.7622  -16.7622  -16.3607  -16.3607
  -16.3607  -16.3607  -15.9771  -15.9771  -15.9771  -15.9771  -14.6593  -14.6593  -14.6593  -14.6593
  -14.4019  -14.4019  -14.2794  -14.2794  -13.7400  -13.7400  -13.7261  -13.7261  -13.7261  -13.7261
  -12.0335  -12.0335  -12.0335  -12.0335  -10.8889  -10.8889  -10.6836  -10.6836  -10.6836  -10.6836
  -10.0525  -10.0525   -6.6459   -6.6459   -5.9893   -5.9893   -5.9893   -5.9893   -5.4709   -5.4709
   -3.7974   -3.7974   -3.7974   -3.7974   -0.3412   -0.3412   -0.3412   -0.3412    1.1288    1.1288
    1.2859    1.2859    1.2935    1.2935    1.2935    1.2935    1.7200    1.7200    1.7200    1.7200
    2.0281    2.0281    3.1290    3.1290    3.3673    3.3673    3.3673    3.3673    3.7181    3.7181
    3.7181    3.7181    4.9660    4.9660    5.2269    5.2269    6.1857    6.1857    6.1857    6.1857
    6.7501    6.7501    7.2119    7.2119    7.2119    7.2119    9.3206    9.3206   10.1207   10.1207
   10.1208   10.1208   11.8568   11.8568   11.8568   11.8568   13.0721   13.0721   13.0721   13.0721
   13.5482   13.5482   13.9790   13.9790
  30  1  -27.9900  -27.9900  -26.5722  -26.5722  -25.9071  -25.9071  -25.9071  -25.9071  -24.6768  -24.6768
         -24.6768  -24.6768  -24.1284  -24.1284  -22.6328  -22.6328  -22.6328  -22.6328  -20.9090  -20.9090
  -20.9090  -20.9090  -20.4981  -20.4981  -19.6202  -19.6202  -19.6202  -19.6202  -18.5420  -18.5420
  -18.5420  -18.5420  -17.8128  -17.8128  -17.8128  -17.8128  -16.8317  -16.8317  -16.0617  -16.0617
  -16.0617  -16.0617  -15.8066  -15.8066  -15.4779  -15.4779  -15.4779  -15.4779  -14.7037  -14.7037
  -14.5434  -14.5434  -13.4532  -13.4532  -13.4190  -13.4190  -13.1286  -13.1286  -12.8921  -12.8921
  -12.8921  -12.8921  -11.7854  -11.7854  -11.7854  -11.7854  -11.3120  -11.3120   -9.6453   -9.6453
   -9.6453   -9.6453   -6.9917   -6.9917   -6.9917   -6.9917   -5.1390   -5.1390   -4.3147   -4.3147
   -4.3147   -4.3147   -2.2523   -2.2523   -2.2523   -2.2523   -1.0296   -1.0296    0.6168    0.6168
    0.6241    0.6241    0.9554    0.9554    1.1332    1.1332    1.4275    1.4275    1.4275    1.4275
    1.6213    1.6213    1.6213    1.6213    1.9460    1.9460    4.3230    4.3230    5.3183    5.3183
    5.3183    5.3183    5.7464    5.7464    6.1947    6.1947    6.1947    6.1947    7.5922    7.5922
    7.9682    7.9682    7.9683    7.9683    8.6081    8.6081    8.6082    8.6082    9.6058    9.6058
    9.6058    9.6058   10.1535   10.1535   11.7484   11.7484   11.7484   11.7484   12.0058   12.0058
   14.4514   14.4514   14.4514   14.4514
  31  1  -27.9900  -27.9900  -26.5722  -26.5722  -25.9071  -25.9071  -25.9071  -25.9071  -24.6768  -24.6768
         -24.6768  -24.6768  -24.1284  -24.1284  -22.6328  -22.6328  -22.6328  -22.6328  -20.9090  -20.9090
  -20.9090  -20.9090  -20.4981  -20.4981  -19.6202  -19.6202  -19.6202  -19.6202  -18.5420  -18.5420
  -18.5420  -18.5420  -17.8128  -17.8128  -17.8128  -17.8128  -16.8317  -16.8317  -16.0617  -16.0617
  -16.0617  -16.0617  -15.8066  -15.8066  -15.4779  -15.4779  -15.4779  -15.4779  -14.7037  -14.7037
  -14.5434  -14.5434  -13.4532  -13.4532  -13.4190  -13.4190  -13.1286  -13.1286  -12.8921  -12.8921
  -12.8921  -12.8921  -11.7854  -11.7854  -11.7854  -11.7854  -11.3120  -11.3120   -9.6453   -9.6453
   -9.6453   -9.6453   -6.9917   -6.9917   -6.9917   -6.9917   -5.1390   -5.1390   -4.3147   -4.3147
   -4.3147   -4.3147   -2.2523   -2.2523   -2.2523   -2.2523   -1.0296   -1.0296    0.6168    0.6168
    0.6241    0.6241    0.9554    0.9554    1.1332    1.1332    1.4275    1.4275    1.4275    1.4275
    1.6213    1.6213    1.6213    1.6213    1.9460    1.9460    4.3230    4.3230    5.3183    5.3183
    5.3183    5.3183    5.7464    5.7464    6.1947    6.1947    6.1947    6.1947    7.5922    7.5922
    7.9682    7.9682    7.9683    7.9683    8.6081    8.6081    8.6082    8.6082    9.6058    9.6058
    9.6058    9.6058   10.1535   10.1535   11.7484   11.7484   11.7484   11.7484   12.0058   12.0058
   14.4514   14.4514   14.4514   14.4514
  32  1  -27.6251  -27.6251  -26.9158  -26.9158  -26.9158  -26.9158  -24.9675  -24.9675  -24.9675  -24.9675
         -23.8278  -23.8278  -23.4117  -23.4117  -23.4117  -23.4117  -22.7916  -22.7916  -21.3582  -21.3582
  -21.1591  -21.1591  -21.1591  -21.1591  -19.7491  -19.7491  -18.7515  -18.7515  -18.7515  -18.7515
  -17.9485  -17.9485  -17.4694  -17.4694  -16.7622  -16.7622  -16.7622  -16.7622  -16.3607  -16.3607
  -16.3607  -16.3607  -15.9771  -15.9771  -15.9771  -15.9771  -14.6593  -14.6593  -14.6593  -14.6593
  -14.4019  -14.4019  -14.2794  -14.2794  -13.7400  -13.7400  -13.7261  -13.7261  -13.7261  -13.7261
  -12.0335  -12.0335  -12.0335  -12.0335  -10.8889  -10.8889  -10.6836  -10.6836  -10.6836  -10.6836
  -10.0525  -10.0525   -6.6459   -6.6459   -5.9893   -5.9893   -5.9893   -5.9893   -5.4709   -5.4709
   -3.7974   -3.7974   -3.7974   -3.7974   -0.3412   -0.3412   -0.3412   -0.3412    1.1288    1.1288
    1.2859    1.2859    1.2935    1.2935    1.2935    1.2935    1.7200    1.7200    1.7200    1.7200
    2.0281    2.0281    3.1290    3.1290    3.3673    3.3673    3.3673    3.3673    3.7181    3.7181
    3.7181    3.7181    4.9660    4.9660    5.2269    5.2269    6.1857    6.1857    6.1857    6.1857
    6.7501    6.7501    7.2119    7.2119    7.2119    7.2119    9.3206    9.3206   10.1207   10.1207
   10.1208   10.1208   11.8568   11.8568   11.8568   11.8568   13.0721   13.0721   13.0721   13.0721
   13.5482   13.5482   13.9790   13.9790
  33  1  -27.9900  -27.9900  -26.5722  -26.5722  -25.9071  -25.9071  -25.9071  -25.9071  -24.6768  -24.6768
         -24.6768  -24.6768  -24.1284  -24.1284  -22.6328  -22.6328  -22.6328  -22.6328  -20.9090  -20.9090
  -20.9090  -20.9090  -20.4981  -20.4981  -19.6202  -19.6202  -19.6202  -19.6202  -18.5420  -18.5420
  -18.5420  -18.5420  -17.8128  -17.8128  -17.8128  -17.8128  -16.8317  -16.8317  -16.0617  -16.0617
  -16.0617  -16.0617  -15.8066  -15.8066  -15.4779  -15.4779  -15.4779  -15.4779  -14.7037  -14.7037
  -14.5434  -14.5434  -13.4532  -13.4532  -13.4190  -13.4190  -13.1286  -13.1286  -12.8921  -12.8921
  -12.8921  -12.8921  -11.7854  -11.7854  -11.7854  -11.7854  -11.3120  -11.3120   -9.6453   -9.6453
   -9.6453   -9.6453   -6.9917   -6.9917   -6.9917   -6.9917   -5.1390   -5.1390   -4.3147   -4.3147
   -4.3147   -4.3147   -2.2523   -2.2523   -2.2523   -2.2523   -1.0296   -1.0296    0.6168    0.6168
    0.6241    0.6241    0.9554    0.9554    1.1332    1.1332    1.4275    1.4275    1.4275    1.4275
    1.6213    1.6213    1.6213    1.6213    1.9460    1.9460    4.3230    4.3230    5.3183    5.3183
    5.3183    5.3183    5.7464    5.7464    6.1947    6.1947    6.1947    6.1947    7.5922    7.5922
    7.9682    7.9682    7.9683    7.9683    8.6081    8.6081    8.6082    8.6082    9.6058    9.6058
    9.6058    9.6058   10.1535   10.1535   11.7484   11.7484   11.7484   11.7484   12.0058   12.0058
   14.4514   14.4514   14.4514   14.4514
  34  1  -28.1748  -28.1748  -25.4305  -25.4305  -25.4305  -25.4305  -25.4305  -25.4305  -25.4305  -25.4305
         -25.4305  -25.4305  -25.4305  -25.4305  -21.6236  -21.6236  -21.6235  -21.6235  -21.6180  -21.6180
  -21.6180  -21.6180  -19.1153  -19.1153  -19.1153  -19.1153  -18.7521  -18.7521  -18.7521  -18.7521
  -18.7521  -18.7521  -18.7521  -18.7521  -18.7521  -18.7521  -18.7521  -18.7521  -15.3786  -15.3786
  -15.3786  -15.3786  -15.3785  -15.3785  -15.3785  -15.3785  -15.3785  -15.3785  -15.3785  -15.3785
  -14.6751  -14.6751  -12.8065  -12.8065  -12.8065  -12.8065  -12.4788  -12.4788  -12.4788  -12.4788
  -12.4788  -12.4788  -12.4788  -12.4788  -12.4788  -12.4788  -12.4788  -12.4788   -8.3413   -8.3413
   -8.3413   -8.3413   -8.3366   -8.3366   -8.3366   -8.3366   -3.1186   -3.1186   -3.1186   -3.1186
   -3.1186   -3.1186   -3.1186   -3.1186   -3.1186   -3.1186   -3.1186   -3.1186    0.3657    0.3657
    0.3657    0.3657    0.7915    0.7915    0.7915    0.7915    0.7915    0.7915    0.7915    0.7915
    0.7915    0.7915    0.7915    0.7915    2.3723    2.3723    3.9800    3.9800    7.0113    7.0113
    7.0113    7.0113    7.0133    7.0133    7.0133    7.0133    8.2978    8.2978    8.2978    8.2978
    8.2978    8.2978    8.2978    8.2978    8.2978    8.2978    8.2978    8.2978    9.9743    9.9743
    9.9743    9.9743    9.9743    9.9743    9.9743    9.9743    9.9744    9.9744    9.9744    9.9744
   14.8054   14.8054   14.8054   14.8054
  35  1  -27.9900  -27.9900  -26.5722  -26.5722  -25.9071  -25.9071  -25.9071  -25.9071  -24.6768  -24.6768
         -24.6768  -24.6768  -24.1284  -24.1284  -22.6328  -22.6328  -22.6328  -22.6328  -20.9090  -20.9090
  -20.9090  -20.9090  -20.4981  -20.4981  -19.6202  -19.6202  -19.6202  -19.6202  -18.5420  -18.5420
  -18.5420  -18.5420  -17.8128  -17.8128  -17.8128  -17.8128  -16.8317  -16.8317  -16.0617  -16.0617
  -16.0617  -16.0617  -15.8066  -15.8066  -15.4779  -15.4779  -15.4779  -15.4779  -14.7037  -14.7037
  -14.5434  -14.5434  -13.4532  -13.4532  -13.4190  -13.4190  -13.1286  -13.1286  -12.8921  -12.8921
  -12.8921  -12.8921  -11.7854  -11.7854  -11.7854  -11.7854  -11.3120  -11.3120   -9.6453   -9.6453
   -9.6453   -9.6453   -6.9917   -6.9917   -6.9917   -6.9917   -5.1390   -5.1390   -4.3147   -4.3147
   -4.3147   -4.3147   -2.2523   -2.2523   -2.2523   -2.2523   -1.0296   -1.0296    0.6168    0.6168
    0.6241    0.6241    0.9554    0.9554    1.1332    1.1332    1.4275    1.4275    1.4275    1.4275
    1.6213    1.6213    1.6213    1.6213    1.9460    1.9460    4.3230    4.3230    5.3183    5.3183
    5.3183    5.3183    5.7464    5.7464    6.1947    6.1947    6.1947    6.1947    7.5922    7.5922
    7.9682    7.9682    7.9683    7.9683    8.6081    8.6081    8.6082    8.6082    9.6058    9.6058
    9.6058    9.6058   10.1535   10.1535   11.7484   11.7484   11.7484   11.7484   12.0058   12.0058
   14.4514   14.4514   14.4514   14.4514
  36  1  -27.4452  -27.4452  -27.4452  -27.4452  -26.0700  -26.0700  -26.0699  -26.0699  -23.7111  -23.7111
         -23.7111  -23.7111  -23.7111  -23.7111  -23.7111  -23.7111  -23.1948  -23.1948  -21.5690  -21.5690
  -20.3269  -20.3269  -20.3269  -20.3269  -20.3269  -20.3269  -20.3269  -20.3269  -17.2972  -17.2972
  -17.2972  -17.2972  -17.2972  -17.2972  -17.2972  -17.2972  -17.2367  -17.2367  -17.2367  -17.2367
  -15.9521  -15.9521  -15.8209  -15.8209  -15.8209  -15.8209  -14.9393  -14.9393  -14.9393  -14.9393
  -14.1374  -14.1374  -14.1374  -14.1374  -13.8798  -13.8798  -13.8797  -13.8797  -13.0286  -13.0286
  -13.0285  -13.0285  -10.8245  -10.8245  -10.8245  -10.8245  -10.8245  -10.8245  -10.8245  -10.8245
  -10.6060  -10.6060   -6.1697   -6.1697   -5.6405   -5.6405   -5.6405   -5.6405   -5.6405   -5.6405
   -5.6405   -5.6405   -1.9318   -1.9318   -1.9317   -1.9317    0.5440    0.5440    0.7400    0.7400
    0.7400    0.7400    0.9490    0.9490    0.9490    0.9490    3.1350    3.1350    3.1350    3.1350
    3.1940    3.1940    3.1940    3.1940    3.1940    3.1940    3.1940    3.1940    3.5272    3.5272
    3.5272    3.5272    3.7356    3.7356    3.7356    3.7356    5.5452    5.5452    5.5453    5.5453
    8.4095    8.4095    8.4095    8.4095    8.4095    8.4095    8.4095    8.4095    9.6388    9.6388
    9.6388    9.6388   10.8325   10.8325   12.8319   12.8319   13.4098   13.4098   13.4098   13.4098
   13.4098   13.4098   13.4098   13.4098
  37  1  -27.9900  -27.9900  -26.5722  -26.5722  -25.9071  -25.9071  -25.9071  -25.9071  -24.6768  -24.6768
         -24.6768  -24.6768  -24.1284  -24.1284  -22.6328  -22.6328  -22.6328  -22.6328  -20.9090  -20.9090
  -20.9090  -20.9090  -20.4981  -20.4981  -19.6202  -19.6202  -19.6202  -19.6202  -18.5420  -18.5420
  -18.5420  -18.5420  -17.8128  -17.8128  -17.8128  -17.8128  -16.8317  -16.8317  -16.0617  -16.0617
  -16.0617  -16.0617  -15.8066  -15.8066  -15.4779  -15.4779  -15.4779  -15.4779  -14.7037  -14.7037
  -14.5434  -14.5434  -13.4532  -13.4532  -13.4190  -13.4190  -13.1286  -13.1286  -12.8921  -12.8921
  -12.8921  -12.8921  -11.7854  -11.7854  -11.7854  -11.7854  -11.3120  -11.3120   -9.6453   -9.6453
   -9.6453   -9.6453   -6.9917   -6.9917   -6.9917   -6.9917   -5.1390   -5.1390   -4.3147   -4.3147
   -4.3147   -4.3147   -2.2523   -2.2523   -2.2523   -2.2523   -1.0296   -1.0296    0.6168    0.6168
    0.6241    0.6241    0.9554    0.9554    1.1332    1.1332    1.4275    1.4275    1.4275    1.4275
    1.6213    1.6213    1.6213    1.6213    1.9460    1.9460    4.3230    4.3230    5.3183    5.3183
    5.3183    5.3183    5.7464    5.7464    6.1947    6.1947    6.1947    6.1947    7.5922    7.5922
    7.9682    7.9682    7.9683    7.9683    8.6081    8.6081    8.6082    8.6082    9.6058    9.6058
    9.6058    9.6058   10.1535   10.1535   11.7484   11.7484   11.7484   11.7484   12.0058   12.0058
   14.4514   14.4514   14.4514   14.4514
  38  1  -27.9900  -27.9900  -26.5722  -26.5722  -25.9071  -25.9071  -25.9071  -25.9071  -24.6768  -24.6768
         -24.6768  -24.6768  -24.1284  -24.1284  -22.6328  -22.6328  -22.6328  -22.6328  -20.9090  -20.9090
  -20.9090  -20.9090  -20.4981  -20.4981  -19.6202  -19.6202  -19.6202  -19.6202  -18.5420  -18.5420
  -18.5420  -18.5420  -17.8128  -17.8128  -17.8128  -17.8128  -16.8317  -16.8317  -16.0617  -16.0617
  -16.0617  -16.0617  -15.8066  -15.8066  -15.4779  -15.4779  -15.4779  -15.4779  -14.7037  -14.7037
  -14.5434  -14.5434  -13.4532  -13.4532  -13.4190  -13.4190  -13.1286  -13.1286  -12.8921  -12.8921
  -12.8921  -12.8921  -11.7854  -11.7854  -11.7854  -11.7854  -11.3120  -11.3120   -9.6453   -9.6453
   -9.6453   -9.6453   -6.9917   -6.9917   -6.9917   -6.9917   -5.1390   -5.1390   -4.3147   -4.3147
   -4.3147   -4.3147   -2.2523   -2.2523   -2.2523   -2.2523   -1.0296   -1.0296    0.6168    0.6168
    0.6241    0.6241    0.9554    0.9554    1.1332    1.1332    1.4275    1.4275    1.4275    1.4275
    1.6213    1.6213    1.6213    1.6213    1.9460    1.9460    4.3230    4.3230    5.3183    5.3183
    5.3183    5.3183    5.7464    5.7464    6.1947    6.1947    6.1947    6.1947    7.5922    7.5922
    7.9682    7.9682    7.9683    7.9683    8.6081    8.6081    8.6082    8.6082    9.6058    9.6058
    9.6058    9.6058   10.1535   10.1535   11.7484   11.7484   11.7484   11.7484   12.0058   12.0058
   14.4514   14.4514   14.4514   14.4514
  39  1  -27.6251  -27.6251  -26.9158  -26.9158  -26.9158  -26.9158  -24.9675  -24.9675  -24.9675  -24.9675
         -23.8278  -23.8278  -23.4117  -23.4117  -23.4117  -23.4117  -22.7916  -22.7916  -21.3582  -21.3582
  -21.1591  -21.1591  -21.1591  -21.1591  -19.7491  -19.7491  -18.7515  -18.7515  -18.7515  -18.7515
  -17.9485  -17.9485  -17.4694  -17.4694  -16.7622  -16.7622  -16.7622  -16.7622  -16.3607  -16.3607
  -16.3607  -16.3607  -15.9771  -15.9771  -15.9771  -15.9771  -14.6593  -14.6593  -14.6593  -14.6593
  -14.4019  -14.4019  -14.2794  -14.2794  -13.7400  -13.7400  -13.7261  -13.7261  -13.7261  -13.7261
  -12.0335  -12.0335  -12.0335  -12.0335  -10.8889  -10.8889  -10.6836  -10.6836  -10.6836  -10.6836
  -10.0525  -10.0525   -6.6459   -6.6459   -5.9893   -5.9893   -5.9893   -5.9893   -5.4709   -5.4709
   -3.7974   -3.7974   -3.7974   -3.7974   -0.3412   -0.3412   -0.3412   -0.3412    1.1288    1.1288
    1.2859    1.2859    1.2935    1.2935    1.2935    1.2935    1.7200    1.7200    1.7200    1.7200
    2.0281    2.0281    3.1290    3.1290    3.3673    3.3673    3.3673    3.3673    3.7181    3.7181
    3.7181    3.7181    4.9660    4.9660    5.2269    5.2269    6.1857    6.1857    6.1857    6.1857
    6.7501    6.7501    7.2119    7.2119    7.2119    7.2119    9.3206    9.3206   10.1207   10.1207
   10.1208   10.1208   11.8568   11.8568   11.8568   11.8568   13.0721   13.0721   13.0721   13.0721
   13.5482   13.5482   13.9790   13.9790
  40  1  -27.6251  -27.6251  -26.9158  -26.9158  -26.9158  -26.9158  -24.9675  -24.9675  -24.9675  -24.9675
         -23.8278  -23.8278  -23.4117  -23.4117  -23.4117  -23.4117  -22.7916  -22.7916  -21.3582  -21.3582
  -21.1591  -21.1591  -21.1591  -21.1591  -19.7491  -19.7491  -18.7515  -18.7515  -18.7515  -18.7515
  -17.9485  -17.9485  -17.4694  -17.4694  -16.7622  -16.7622  -16.7622  -16.7622  -16.3607  -16.3607
  -16.3607  -16.3607  -15.9771  -15.9771  -15.9771  -15.9771  -14.6593  -14.6593  -14.6593  -14.6593
  -14.4019  -14.4019  -14.2794  -14.2794  -13.7400  -13.7400  -13.7261  -13.7261  -13.7261  -13.7261
  -12.0335  -12.0335  -12.0335  -12.0335  -10.8889  -10.8889  -10.6836  -10.6836  -10.6836  -10.6836
  -10.0525  -10.0525   -6.6459   -6.6459   -5.9893   -5.9893   -5.9893   -5.9893   -5.4709   -5.4709
   -3.7974   -3.7974   -3.7974   -3.7974   -0.3412   -0.3412   -0.3412   -0.3412    1.1288    1.1288
    1.2859    1.2859    1.2935    1.2935    1.2935    1.2935    1.7200    1.7200    1.7200    1.7200
    2.0281    2.0281    3.1290    3.1290    3.3673    3.3673    3.3673    3.3673    3.7181    3.7181
    3.7181    3.7181    4.9660    4.9660    5.2269    5.2269    6.1857    6.1857    6.1857    6.1857
    6.7501    6.7501    7.2119    7.2119    7.2119    7.2119    9.3206    9.3206   10.1207   10.1207
   10.1208   10.1208   11.8568   11.8568   11.8568   11.8568   13.0721   13.0721   13.0721   13.0721
   13.5482   13.5482   13.9790   13.9790
  41  1  -27.6251  -27.6251  -26.9158  -26.9158  -26.9158  -26.9158  -24.9675  -24.9675  -24.9675  -24.9675
         -23.8278  -23.8278  -23.4117  -23.4117  -23.4117  -23.4117  -22.7916  -22.7916  -21.3582  -21.3582
  -21.1591  -21.1591  -21.1591  -21.1591  -19.7491  -19.7491  -18.7515  -18.7515  -18.7515  -18.7515
  -17.9485  -17.9485  -17.4694  -17.4694  -16.7622  -16.7622  -16.7622  -16.7622  -16.3607  -16.3607
  -16.3607  -16.3607  -15.9771  -15.9771  -15.9771  -15.9771  -14.6593  -14.6593  -14.6593  -14.6593
  -14.4019  -14.4019  -14.2794  -14.2794  -13.7400  -13.7400  -13.7261  -13.7261  -13.7261  -13.7261
  -12.0335  -12.0335  -12.0335  -12.0335  -10.8889  -10.8889  -10.6836  -10.6836  -10.6836  -10.6836
  -10.0525  -10.0525   -6.6459   -6.6459   -5.9893   -5.9893   -5.9893   -5.9893   -5.4709   -5.4709
   -3.7974   -3.7974   -3.7974   -3.7974   -0.3412   -0.3412   -0.3412   -0.3412    1.1288    1.1288
    1.2859    1.2859    1.2935    1.2935    1.2935    1.2935    1.7200    1.7200    1.7200    1.7200
    2.0281    2.0281    3.1290    3.1290    3.3673    3.3673    3.3673    3.3673    3.7181    3.7181
    3.7181    3.7181    4.9660    4.9660    5.2269    5.2269    6.1857    6.1857    6.1857    6.1857
    6.7501    6.7501    7.2119    7.2119    7.2119    7.2119    9.3206    9.3206   10.1207   10.1207
   10.1208   10.1208   11.8568   11.8568   11.8568   11.8568   13.0721   13.0721   13.0721   13.0721
   13.5482   13.5482   13.9790   13.9790
  42  1  -27.4452  -27.4452  -27.4452  -27.4452  -26.0700  -26.0700  -26.0699  -26.0699  -23.7111  -23.7111
         -23.7111  -23.7111  -23.7111  -23.7111  -23.7111  -23.7111  -23.1948  -23.1948  -21.5690  -21.5690
  -20.3269  -20.3269  -20.3269  -20.3269  -20.3269  -20.3269  -20.3269  -20.3269  -17.2972  -17.2972
  -17.2972  -17.2972  -17.2972  -17.2972  -17.2972  -17.2972  -17.2367  -17.2367  -17.2367  -17.2367
  -15.9521  -15.9521  -15.8209  -15.8209  -15.8209  -15.8209  -14.9393  -14.9393  -14.9393  -14.9393
  -14.1374  -14.1374  -14.1374  -14.1374  -13.8798  -13.8798  -13.8797  -13.8797  -13.0286  -13.0286
  -13.0285  -13.0285  -10.8245  -10.8245  -10.8245  -10.8245  -10.8245  -10.8245  -10.8245  -10.8245
  -10.6060  -10.6060   -6.1697   -6.1697   -5.6405   -5.6405   -5.6405   -5.6405   -5.6405   -5.6405
   -5.6405   -5.6405   -1.9318   -1.9318   -1.9317   -1.9317    0.5440    0.5440    0.7400    0.7400
    0.7400    0.7400    0.9490    0.9490    0.9490    0.9490    3.1350    3.1350    3.1350    3.1350
    3.1940    3.1940    3.1940    3.1940    3.1940    3.1940    3.1940    3.1940    3.5272    3.5272
    3.5272    3.5272    3.7356    3.7356    3.7356    3.7356    5.5452    5.5452    5.5453    5.5453
    8.4095    8.4095    8.4095    8.4095    8.4095    8.4095    8.4095    8.4095    9.6388    9.6388
    9.6388    9.6388   10.8325   10.8325   12.8319   12.8319   13.4098   13.4098   13.4098   13.4098
   13.4098   13.4098   13.4098   13.4098
  43  1  -27.6251  -27.6251  -26.9158  -26.9158  -26.9158  -26.9158  -24.9675  -24.9675  -24.9675  -24.9675
         -23.8278  -23.8278  -23.4117  -23.4117  -23.4117  -23.4117  -22.7916  -22.7916  -21.3582  -21.3582
  -21.1591  -21.1591  -21.1591  -21.1591  -19.7491  -19.7491  -18.7515  -18.7515  -18.7515  -18.7515
  -17.9485  -17.9485  -17.4694  -17.4694  -16.7622  -16.7622  -16.7622  -16.7622  -16.3607  -16.3607
  -16.3607  -16.3607  -15.9771  -15.9771  -15.9771  -15.9771  -14.6593  -14.6593  -14.6593  -14.6593
  -14.4019  -14.4019  -14.2794  -14.2794  -13.7400  -13.7400  -13.7261  -13.7261  -13.7261  -13.7261
  -12.0335  -12.0335  -12.0335  -12.0335  -10.8889  -10.8889  -10.6836  -10.6836  -10.6836  -10.6836
  -10.0525  -10.0525   -6.6459   -6.6459   -5.9893   -5.9893   -5.9893   -5.9893   -5.4709   -5.4709
   -3.7974   -3.7974   -3.7974   -3.7974   -0.3412   -0.3412   -0.3412   -0.3412    1.1288    1.1288
    1.2859    1.2859    1.2935    1.2935    1.2935    1.2935    1.7200    1.7200    1.7200    1.7200
    2.0281    2.0281    3.1290    3.1290    3.3673    3.3673    3.3673    3.3673    3.7181    3.7181
    3.7181    3.7181    4.9660    4.9660    5.2269    5.2269    6.1857    6.1857    6.1857    6.1857
    6.7501    6.7501    7.2119    7.2119    7.2119    7.2119    9.3206    9.3206   10.1207   10.1207
   10.1208   10.1208   11.8568   11.8568   11.8568   11.8568   13.0721   13.0721   13.0721   13.0721
   13.5482   13.5482   13.9790   13.9790
  44  1  -27.4452  -27.4452  -27.4452  -27.4452  -26.0700  -26.0700  -26.0699  -26.0699  -23.7111  -23.7111
         -23.7111  -23.7111  -23.7111  -23.7111  -23.7111  -23.7111  -23.1948  -23.1948  -21.5690  -21.5690
  -20.3269  -20.3269  -20.3269  -20.3269  -20.3269  -20.3269  -20.3269  -20.3269  -17.2972  -17.2972
  -17.2972  -17.2972  -17.2972  -17.2972  -17.2972  -17.2972  -17.2367  -17.2367  -17.2367  -17.2367
  -15.9521  -15.9521  -15.8209  -15.8209  -15.8209  -15.8209  -14.9393  -14.9393  -14.9393  -14.9393
  -14.1374  -14.1374  -14.1374  -14.1374  -13.8798  -13.8798  -13.8797  -13.8797  -13.0286  -13.0286
  -13.0285  -13.0285  -10.8245  -10.8245  -10.8245  -10.8245  -10.8245  -10.8245  -10.8245  -10.8245
  -10.6060  -10.6060   -6.1697   -6.1697   -5.6405   -5.6405   -5.6405   -5.6405   -5.6405   -5.6405
   -5.6405   -5.6405   -1.9318   -1.9318   -1.9317   -1.9317    0.5440    0.5440    0.7400    0.7400
    0.7400    0.7400    0.9490    0.9490    0.9490    0.9490    3.1350    3.1350    3.1350    3.1350
    3.1940    3.1940    3.1940    3.1940    3.1940    3.1940    3.1940    3.1940    3.5272    3.5272
    3.5272    3.5272    3.7356    3.7356    3.7356    3.7356    5.5452    5.5452    5.5453    5.5453
    8.4095    8.4095    8.4095    8.4095    8.4095    8.4095    8.4095    8.4095    9.6388    9.6388
    9.6388    9.6388   10.8325   10.8325   12.8319   12.8319   13.4098   13.4098   13.4098   13.4098
   13.4098   13.4098   13.4098   13.4098
siesta: Fermi energy =      -8.339090 eV

siesta: Program's energy decomposition (eV):
siesta: Ebs     =     -2578.168613
siesta: Eions   =      9434.507561
siesta: Ena     =      2270.436384
siesta: Ekin    =      3597.572071
siesta: Enl     =      -335.829218
siesta: Eso     =         0.000000
siesta: Edftu   =         0.000000
siesta: DEna    =        15.582376
siesta: DUscf   =         2.632901
siesta: DUext   =         0.000000
siesta: Exc     =     -1624.565788
siesta: eta*DQ  =         0.000000
siesta: Emadel  =         0.000000
siesta: Emeta   =         0.000000
siesta: Emolmec =        -3.567863
siesta: Ekinion =         0.000000
siesta: Eharris =     -5512.246698
siesta: Etot    =     -5512.246698
siesta: FreeEng =     -5512.257922

siesta: Final energy (eV):
siesta:  Band Struct. =   -2578.168613
siesta:       Kinetic =    3597.572071
siesta:       Hartree =    1706.207920
siesta:       Edftu   =       0.000000
siesta:       Eso     =       0.000000
siesta:    Ext. field =       0.000000
siesta:   Exch.-corr. =   -1624.565788
siesta:  Ion-electron =   -7464.897957
siesta:       Ion-ion =   -1722.995082
siesta:       Ekinion =       0.000000
siesta:         Total =   -5512.246698
siesta:         Fermi =      -8.339090

siesta: Stress tensor (static) (eV/Ang**3):
siesta:    -0.228891    0.000000    0.000000
siesta:     0.000000   -0.228891    0.000000
siesta:    -0.000000    0.000000    0.108359

siesta: Cell volume =        352.504581 Ang**3

siesta: Pressure (static):
siesta:                Solid            Molecule  Units
siesta:           0.00126855          0.00126858  Ry/Bohr**3
siesta:           0.11647429          0.11647672  eV/Ang**3
siesta:         186.61440697        186.61830220  kBar
(Free)E+ p_basis*V_orbitals  =       -5493.954875
(Free)Eharris+ p_basis*V_orbitals  =       -5493.954875

cite: Please see "graphite_scf.bib" for an exhaustive BiBTeX file.
cite: Please clearly indicate Siesta version in published work: 4.1.5
cite: This calculation has made use of the following articles
cite: which are encouraged to be cited in a published work.
        Primary SIESTA paper
          DOI: www.doi.org/10.1088/0953-8984/14/11/302

>> End of run:   1-NOV-2022  14:31:01
Job completed
