Siesta Version  : 4.1.5
Architecture    : x86_64-unknown-linux-gnu--unknown
Compiler version: GNU Fortran (GCC) 11.3.0
Compiler flags  : mpif90 -g -O2 -fallow-argument-mismatch
PP flags        : -DMPI -DFC_HAVE_FLUSH -DFC_HAVE_ABORT
Libraries       :  -I/global/software/sl-7.x86_64/modules/intel/2020.4.304/mkl/include  /globall/software/sl-7.x86_64/modules/intel/2020.4.304/mkl/lib/intel64/libmkl_scalapack_lp64.a -Wl,--start-group /global/software/sl-7.x86_64/modules/intel/2020.4.304/mkl/lib/intel64/libmkl_intel_lp64.a /global/software/sl-7.x86_64/modules/intel/2020.4.304/mkl/lib/intel64/libmkl_sequential.a /global/software/sl-7.x86_64/modules/intel/2020.4.304/mkl/lib/intel64/libmkl_core.a /global/software/sl-7.x86_64/modules/intel/2020.4.304/mkl/lib/intel64/libmkl_blacs_openmpi_lp64.a -Wl,--end-group -lpthread -lm -ldl
PARALLEL version

* Running on 20 nodes in parallel
>> Start of run:   1-NOV-2022  14:29:36

                           ***********************       
                           *  WELCOME TO SIESTA  *       
                           ***********************       

reinit: Reading from standard input
reinit: Dumped input in INPUT_TMP.61453
************************** Dump of input data file ****************************
SystemName graphite_scf
SystemLabel graphite_scf
NumberOfAtoms   36
NumberOfSpecies 1
%block ChemicalSpeciesLabel
1  6   C-gga
%endblock ChemicalSpeciesLabel
PAO.BasisSize  SZ
PAO.EnergyShift  10 meV
%block PS.Lmax
C-gga   2
%endblock PS.Lmax
LatticeConstant 1.000000 Ang
%block LatticeVectors
	7.3920000000	0.0000000000	0.0000000000
	-3.6960000000	6.4016597848	0.0000000000
	0.0000000000	0.0000000000	6.7781100000
%endblock LatticeVectors
AtomicCoordinatesFormat Ang
%block AtomicCoordinatesAndAtomicSpecies
	0.00000000	0.00000000	1.69452750	1
	0.00000000	0.00000000	5.08358250	1
	-1.23200000	2.13388659	1.69452750	1
	-2.46400000	4.26777319	5.08358250	1
	2.46400000	4.26777319	1.69452750	1
	1.23200000	2.13388659	5.08358250	1
	2.46400000	0.00000000	1.69452750	1
	4.92800000	0.00000000	5.08358250	1
	2.46400000	0.00000000	5.08358250	1
	4.92800000	0.00000000	1.69452750	1
	2.46400000	4.26777319	5.08358250	1
	1.23200000	2.13388659	1.69452750	1
	-1.23200000	2.13388659	5.08358250	1
	-2.46400000	4.26777319	1.69452750	1
	0.00000000	4.26777319	1.69452750	1
	3.69600000	2.13388659	5.08358250	1
	3.69600000	2.13388659	1.69452750	1
	0.00000000	4.26777319	5.08358250	1
	0.00000000	1.42258964	1.69452750	1
	3.69600000	4.97907014	5.08358250	1
	2.46400123	5.69036496	1.69452750	1
	1.23199877	0.71129482	5.08358250	1
	-2.46400123	5.69036496	1.69452750	1
	6.16000123	0.71129482	5.08358250	1
	-1.23200000	3.55647624	1.69452750	1
	4.92800000	2.84518355	5.08358250	1
	1.23200123	3.55647837	1.69452750	1
	2.46399877	2.84518142	5.08358250	1
	-0.00000123	5.69036496	1.69452750	1
	3.69600123	0.71129482	5.08358250	1
	2.46400000	1.42258964	1.69452750	1
	1.23200000	4.97907014	5.08358250	1
	4.92800123	1.42259177	1.69452750	1
	-1.23200123	4.97906801	5.08358250	1
	3.69599877	3.55647837	1.69452750	1
	0.00000123	2.84518142	5.08358250	1
%endblock AtomicCoordinatesAndAtomicSpecies
Kgrid_NoTRS  T
%block kgrid_MonkhorstPack
4       0       0       0.0
0       4       0       0.0
0       0       4       0.0
%endblock kgrid_MonkhorstPack
AtomCoorFormatOut Ang
BlockSize 1
#ProcessorY 12
Diag.ParallelOverK   T
Diag.DivideAndConquer F
MeshCutoff   300 Ry
SCF.FreeE.Tolerance 1E-3 eV
SCF.EDM.Tolerance   5E-3 eV
DM.Tolerance  1E-3
DM.Require.Energy.Convergence T
DM.NumberPulay 4
#XC.Functional GGA
#CX.Authors    PBE
UseSaveData        F
SolutionMethod     diagon
MD.TypeOfRun       CG
MD.VariableCell    F
MD.NumCGsteps      00
MD.MaxCGDispl      0.200000 Bohr
#MD.MaxStressTol    1.000000 GPa
#MD.MaxForceTol     0.010000 eV/Ang
WriteMDHistory T
WriteCoorStep T
WriteForces T
WriteCoorStep    T
WriteEigenValues T
WriteDM    F
MM.UnitsDistance Ang  # what this program prints out DO NOT CHANGE
MM.UnitsEnergy    eV  # what this program prints out DO NOT CHANGE
MM.Grimme.S6     0.75 # Grimme-paper for PBE (correct for your functional)
MM.Grimme.D     20.   # Grimme-paper (correct for your functional)
%block MM.Potentials
  1   1 Grimme     18.14      2.904 # C, 10.1002/jcc.20495
%endblock MM.Potentials
#%block ProjectedDensityOfStates
# -200.0  120.0  0.4  12800  eV
#%endblock ProjectedDensityOfStates
************************** End of input data file *****************************

reinit: -----------------------------------------------------------------------
reinit: System Name: graphite_scf
reinit: -----------------------------------------------------------------------
reinit: System Label: graphite_scf
reinit: -----------------------------------------------------------------------
Reading two-body potentials
Grimme - two-body potential between 1 and 1

initatom: Reading input for the pseudopotentials and atomic orbitals ----------
Species number:   1 Atomic number:    6 Label: C-gga

Ground state valence configuration:   2s02  2p02
Reading pseudopotential information in formatted form from C-gga.psf

Valence configuration for pseudopotential generation:
2s( 2.00) rc: 1.56
2p( 2.00) rc: 1.56
3d( 0.00) rc: 1.56
4f( 0.00) rc: 1.56
relmxkb: Read Max KB Ang. Momentum=    2 for species C-gga

<basis_specs>
===============================================================================
C-gga                Z=   6    Mass=  12.010        Charge= 0.17977+309
Lmxo=1 Lmxkb= 2    BasisType=split      Semic=F
L=0  Nsemic=0  Cnfigmx=2
          i=1  nzeta=1  polorb=0  (2s)
            splnorm:   0.15000    
               vcte:    0.0000    
               rinn:    0.0000    
               qcoe:    0.0000    
               qyuk:    0.0000    
               qwid:   0.10000E-01
                rcs:    0.0000    
            lambdas:    1.0000    
L=1  Nsemic=0  Cnfigmx=2
          i=1  nzeta=1  polorb=0  (2p)
            splnorm:   0.15000    
               vcte:    0.0000    
               rinn:    0.0000    
               qcoe:    0.0000    
               qyuk:    0.0000    
               qwid:   0.10000E-01
                rcs:    0.0000    
            lambdas:    1.0000    
-------------------------------------------------------------------------------
L=0  Nkbl=1  erefs: 0.17977+309
L=1  Nkbl=1  erefs: 0.17977+309
L=2  Nkbl=1  erefs: 0.17977+309
===============================================================================
</basis_specs>

atom: Called for C-gga                 (Z =   6)

read_vps: Pseudopotential generation method:
read_vps: ATM 3.2.2 Troullier-Martins                       
Valence charge for ps generation:    4.00000

xc_check: Exchange-correlation functional:
xc_check: Ceperley-Alder
xc_check: WARNING: Pseudopotential generated with GGA PBE functional
V l=0 = -2*Zval/r beyond r=  1.5227
V l=1 = -2*Zval/r beyond r=  1.5227
V l=2 = -2*Zval/r beyond r=  1.5227
All V_l potentials equal beyond r=  1.4851
This should be close to max(r_c) in ps generation
All pots = -2*Zval/r beyond r=  1.5227

VLOCAL1: 99.0% of the norm of Vloc inside     19.682 Ry
VLOCAL1: 99.9% of the norm of Vloc inside     44.856 Ry
atom: Maximum radius for 4*pi*r*r*local-pseudopot. charge    1.79142
atom: Maximum radius for r*vlocal+2*Zval:    1.54183
GHOST: No ghost state for L =  0
GHOST: No ghost state for L =  1
GHOST: No ghost state for L =  2

KBgen: Kleinman-Bylander projectors: 
   l= 0   rc=  1.661951   el= -0.994756   Ekb=  5.296364   kbcos=  0.313951
   l= 1   rc=  1.661951   el= -0.376633   Ekb= -4.104879   kbcos= -0.344765
   l= 2   rc=  1.747182   el=  0.002326   Ekb= -1.006421   kbcos= -0.008606

KBgen: Total number of Kleinman-Bylander projectors:    9
atom: -------------------------------------------------------------------------

atom: SANKEY-TYPE ORBITALS:

SPLIT: Orbitals with angular momentum L= 0

SPLIT: Basis orbitals for state 2s

SPLIT: PAO cut-off radius determined from an
SPLIT: energy shift=  0.000735 Ry

   izeta = 1
                 lambda =    1.000000
                     rc =    5.948690
                 energy =   -0.994108
                kinetic =    0.809152
    potential(screened) =   -1.803260
       potential(ionic) =   -5.360717

SPLIT: Orbitals with angular momentum L= 1

SPLIT: Basis orbitals for state 2p

SPLIT: PAO cut-off radius determined from an
SPLIT: energy shift=  0.000735 Ry

   izeta = 1
                 lambda =    1.000000
                     rc =    7.638387
                 energy =   -0.375915
                kinetic =    2.245823
    potential(screened) =   -2.621738
       potential(ionic) =   -5.993382
atom: Total number of Sankey-type orbitals:  4

atm_pop: Valence configuration (for local Pseudopot. screening):
 2s( 2.00)                                                            
 2p( 2.00)                                                            
Vna: chval, zval:    4.00000   4.00000

Vna:  Cut-off radius for the neutral-atom potential:   7.638387

atom: _________________________________________________________________________

prinput: Basis input ----------------------------------------------------------

PAO.BasisType split     

%block ChemicalSpeciesLabel
    1    6 C-gga                   # Species index, atomic number, species label
%endblock ChemicalSpeciesLabel

%block PAO.Basis                 # Define Basis set
C-gga                 2                    # Species label, number of l-shells
 n=2   0   1                         # n, l, Nzeta 
   5.949   
   1.000   
 n=2   1   1                         # n, l, Nzeta 
   7.638   
   1.000   
%endblock PAO.Basis

prinput: ----------------------------------------------------------------------

coor:   Atomic-coordinates input format  =     Cartesian coordinates
coor:                                          (in Angstroms)

siesta: Atomic coordinates (Bohr) and species
siesta:      0.00000   0.00000   3.20219  1        1
siesta:      0.00000   0.00000   9.60658  1        2
siesta:     -2.32814   4.03246   3.20219  1        3
siesta:     -4.65629   8.06493   9.60658  1        4
siesta:      4.65629   8.06493   3.20219  1        5
siesta:      2.32814   4.03246   9.60658  1        6
siesta:      4.65629   0.00000   3.20219  1        7
siesta:      9.31257   0.00000   9.60658  1        8
siesta:      4.65629   0.00000   9.60658  1        9
siesta:      9.31257   0.00000   3.20219  1       10
siesta:      4.65629   8.06493   9.60658  1       11
siesta:      2.32814   4.03246   3.20219  1       12
siesta:     -2.32814   4.03246   9.60658  1       13
siesta:     -4.65629   8.06493   3.20219  1       14
siesta:      0.00000   8.06493   3.20219  1       15
siesta:      6.98443   4.03246   9.60658  1       16
siesta:      6.98443   4.03246   3.20219  1       17
siesta:      0.00000   8.06493   9.60658  1       18
siesta:      0.00000   2.68831   3.20219  1       19
siesta:      6.98443   9.40908   9.60658  1       20
siesta:      4.65629  10.75324   3.20219  1       21
siesta:      2.32814   1.34415   9.60658  1       22
siesta:     -4.65629  10.75324   3.20219  1       23
siesta:     11.64072   1.34415   9.60658  1       24
siesta:     -2.32814   6.72077   3.20219  1       25
siesta:      9.31257   5.37662   9.60658  1       26
siesta:      2.32815   6.72077   3.20219  1       27
siesta:      4.65628   5.37662   9.60658  1       28
siesta:     -0.00000  10.75324   3.20219  1       29
siesta:      6.98443   1.34415   9.60658  1       30
siesta:      4.65629   2.68831   3.20219  1       31
siesta:      2.32814   9.40908   9.60658  1       32
siesta:      9.31258   2.68831   3.20219  1       33
siesta:     -2.32815   9.40908   9.60658  1       34
siesta:      6.98443   6.72077   3.20219  1       35
siesta:      0.00000   5.37662   9.60658  1       36

siesta: System type = bulk      

initatomlists: Number of atoms, orbitals, and projectors:     36   144   324

siesta: ******************** Simulation parameters ****************************
siesta:
siesta: The following are some of the parameters of the simulation.
siesta: A complete list of the parameters used, including default values,
siesta: can be found in file out.fdf
siesta:
redata: Spin configuration                          = none
redata: Number of spin components                   = 1
redata: Time-Reversal Symmetry                      = T
redata: Spin spiral                                 = F
redata: Long output                                 =   F
redata: Number of Atomic Species                    =        1
redata: Charge density info will appear in .RHO file
redata: Write Mulliken Pop.                         = NO
redata: Matel table size (NRTAB)                    =     1024
redata: Mesh Cutoff                                 =   300.0000 Ry
redata: Net charge of the system                    =     0.0000 |e|
redata: Min. number of SCF Iter                     =        0
redata: Max. number of SCF Iter                     =     1000
redata: SCF convergence failure will abort job
redata: SCF mix quantity                            = Hamiltonian
redata: Mix DM or H after convergence               =   F
redata: Recompute H after scf cycle                 =   F
redata: Mix DM in first SCF step                    =   T
redata: Write Pulay info on disk                    =   F
redata: New DM Occupancy tolerance                  = 0.000000000001
redata: No kicks to SCF
redata: DM Mixing Weight for Kicks                  =     0.5000
redata: Require Harris convergence for SCF          =   F
redata: Harris energy tolerance for SCF             =     0.000100 eV
redata: Require DM convergence for SCF              =   T
redata: DM tolerance for SCF                        =     0.001000
redata: Require EDM convergence for SCF             =   F
redata: EDM tolerance for SCF                       =     0.005000 eV
redata: Require H convergence for SCF               =   T
redata: Hamiltonian tolerance for SCF               =     0.001000 eV
redata: Require (free) Energy convergence for SCF   =   T
redata: (free) Energy tolerance for SCF             =     0.001000 eV
redata: Using Saved Data (generic)                  =   F
redata: Use continuation files for DM               =   F
redata: Neglect nonoverlap interactions             =   F
redata: Method of Calculation                       = Diagonalization
redata: Electronic Temperature                      =   299.9869 K
redata: Fix the spin of the system                  =   F
redata: Dynamics option                             = Single-point calculation
mix.SCF: Pulay mixing                            = Pulay
mix.SCF:    Variant                              = stable
mix.SCF:    History steps                        = 4
mix.SCF:    Linear mixing weight                 =     0.250000
mix.SCF:    Mixing weight                        =     0.250000
mix.SCF:    SVD condition                        = 0.1000E-07
redata: ***********************************************************************

%block SCF.Mixers
  Pulay
%endblock SCF.Mixers

%block SCF.Mixer.Pulay
  # Mixing method
  method pulay
  variant stable

  # Mixing options
  weight 0.2500
  weight.linear 0.2500
  history 4
%endblock SCF.Mixer.Pulay

DM_history_depth set to one: no extrapolation allowed by default for geometry relaxation
Size of DM history Fstack: 1
Total number of electrons:   144.000000
Total ionic charge:   144.000000

* ProcessorY, Blocksize:    4   1


* Orbital distribution balance (max,min):     8     7

k-point displ. along   1 input, could be:     0.00    0.50
k-point displ. along   2 input, could be:     0.00    0.50
k-point displ. along   3 input, could be:     0.00    0.50
 Kpoints in:           48 . Kpoints trimmed:           44

siesta: k-grid: Number of k-points =    44
siesta: k-grid: Cutoff (effective) =    13.556 Ang
siesta: k-grid: Supercell and displacements
siesta: k-grid:    4   0   0      0.000
siesta: k-grid:    0   4   0      0.000
siesta: k-grid:    0   0   4      0.000

diag: Algorithm                                     = Expert
diag: Parallel over k                               =   T
diag: Use parallel 2D distribution                  =   T
diag: Parallel block-size                           = 1
diag: Parallel distribution                         =     4 x     5
diag: Used triangular part                          = Lower
diag: Absolute tolerance                            =  0.100E-15
diag: Orthogonalization factor                      =  0.100E-05
diag: Memory factor                                 =  1.0000

superc: Internal auxiliary supercell:     5 x     5 x     3  =      75
superc: Number of atoms, orbitals, and projectors:   2700  10800  24300


ts: **************************************************************
ts: Save H and S matrices                           =    F
ts: Save DM and EDM matrices                        =    F
ts: Only save the overlap matrix S                  =    F
ts: **************************************************************

************************ Begin: TS CHECKS AND WARNINGS ************************
************************ End: TS CHECKS AND WARNINGS **************************


                     ====================================
                        Single-point calculation
                     ====================================

outcoor: Atomic coordinates (Ang):                          
    0.00000000    0.00000000    1.69452750   1       1  C-gga
    0.00000000    0.00000000    5.08358250   1       2  C-gga
   -1.23200000    2.13388659    1.69452750   1       3  C-gga
   -2.46400000    4.26777319    5.08358250   1       4  C-gga
    2.46400000    4.26777319    1.69452750   1       5  C-gga
    1.23200000    2.13388659    5.08358250   1       6  C-gga
    2.46400000    0.00000000    1.69452750   1       7  C-gga
    4.92800000    0.00000000    5.08358250   1       8  C-gga
    2.46400000    0.00000000    5.08358250   1       9  C-gga
    4.92800000    0.00000000    1.69452750   1      10  C-gga
    2.46400000    4.26777319    5.08358250   1      11  C-gga
    1.23200000    2.13388659    1.69452750   1      12  C-gga
   -1.23200000    2.13388659    5.08358250   1      13  C-gga
   -2.46400000    4.26777319    1.69452750   1      14  C-gga
    0.00000000    4.26777319    1.69452750   1      15  C-gga
    3.69600000    2.13388659    5.08358250   1      16  C-gga
    3.69600000    2.13388659    1.69452750   1      17  C-gga
    0.00000000    4.26777319    5.08358250   1      18  C-gga
    0.00000000    1.42258964    1.69452750   1      19  C-gga
    3.69600000    4.97907014    5.08358250   1      20  C-gga
    2.46400123    5.69036496    1.69452750   1      21  C-gga
    1.23199877    0.71129482    5.08358250   1      22  C-gga
   -2.46400123    5.69036496    1.69452750   1      23  C-gga
    6.16000123    0.71129482    5.08358250   1      24  C-gga
   -1.23200000    3.55647624    1.69452750   1      25  C-gga
    4.92800000    2.84518355    5.08358250   1      26  C-gga
    1.23200123    3.55647837    1.69452750   1      27  C-gga
    2.46399877    2.84518142    5.08358250   1      28  C-gga
   -0.00000123    5.69036496    1.69452750   1      29  C-gga
    3.69600123    0.71129482    5.08358250   1      30  C-gga
    2.46400000    1.42258964    1.69452750   1      31  C-gga
    1.23200000    4.97907014    5.08358250   1      32  C-gga
    4.92800123    1.42259177    1.69452750   1      33  C-gga
   -1.23200123    4.97906801    5.08358250   1      34  C-gga
    3.69599877    3.55647837    1.69452750   1      35  C-gga
    0.00000123    2.84518142    5.08358250   1      36  C-gga

superc: Internal auxiliary supercell:     5 x     5 x     3  =      75
superc: Number of atoms, orbitals, and projectors:   2700  10800  24300

outcell: Unit cell vectors (Ang):
        7.392000    0.000000    0.000000
       -3.696000    6.401660    0.000000
        0.000000    0.000000    6.778110

outcell: Cell vector modules (Ang)   :    7.392000    7.392000    6.778110
outcell: Cell angles (23,13,12) (deg):     90.0000     90.0000    120.0000
outcell: Cell volume (Ang**3)        :    320.7474
<dSpData1D:S at geom step 0
  <sparsity:sparsity for geom step 0
    nrows_g=144 nrows=8 sparsity=.3383 nnzs=7016, refcount: 7>
  <dData1D:(new from dSpData1D) n=7016, refcount: 1>
refcount: 1>
new_DM -- step:     1
Initializing Density Matrix...
DM filled with atomic data:
<dSpData2D:DM initialized from atoms
  <sparsity:sparsity for geom step 0
    nrows_g=144 nrows=8 sparsity=.3383 nnzs=7016, refcount: 8>
  <dData2D:DM n=7016 m=1, refcount: 1>
refcount: 1>
No. of atoms with KB's overlaping orbs in proc 0. Max # of overlaps:     110     198
New grid distribution:   1
           1       1:   36    1:    9    1:    8
           2       1:   36    1:    9    9:   15
           3       1:   36    1:    9   16:   22
           4       1:   36    1:    9   23:   29
           5       1:   36    1:    9   30:   36
           6       1:   36   10:   18    1:    8
           7       1:   36   10:   18    9:   15
           8       1:   36   10:   18   16:   22
           9       1:   36   10:   18   23:   29
          10       1:   36   10:   18   30:   36
          11       1:   36   19:   27    1:    8
          12       1:   36   19:   27    9:   15
          13       1:   36   19:   27   16:   22
          14       1:   36   19:   27   23:   29
          15       1:   36   19:   27   30:   36
          16       1:   36   28:   36    1:    8
          17       1:   36   28:   36    9:   15
          18       1:   36   28:   36   16:   22
          19       1:   36   28:   36   23:   29
          20       1:   36   28:   36   30:   36

InitMesh: MESH =    72 x    72 x    72 =      373248
InitMesh: (bp) =    36 x    36 x    36 =       46656
InitMesh: Mesh cutoff (required, used) =   300.000   311.853 Ry
ExtMesh (bp) on 0 =   128 x   101 x    96 =     1241088
New grid distribution:   2
           1      16:   36   19:   36   19:   24
           2       1:   15    1:   18   10:   18
           3      16:   36   19:   36    1:    6
           4       1:   15    1:   18   19:   27
           5       1:   15   19:   36   28:   36
           6       1:   15    1:   18    1:    9
           7      16:   36   28:   36    7:   18
           8      16:   36   10:   18    7:   18
           9      16:   36    1:   18    1:    6
          10       1:   15    1:   18   28:   36
          11      16:   36   19:   27    7:   18
          12       1:   15   19:   36   10:   18
          13      16:   36    1:    9   25:   36
          14      16:   36    1:   18   19:   24
          15      16:   36   19:   27   25:   36
          16       1:   15   19:   36    1:    9
          17      16:   36   10:   18   25:   36
          18      16:   36    1:    9    7:   18
          19       1:   15   19:   36   19:   27
          20      16:   36   28:   36   25:   36
New grid distribution:   3
           1      16:   36   19:   36   19:   24
           2       1:   15    1:   18   10:   18
           3      16:   36   19:   36    1:    6
           4       1:   15    1:   18   19:   27
           5       1:   15   19:   36   28:   36
           6       1:   15    1:   18    1:    9
           7      16:   36   28:   36    7:   18
           8      16:   36   10:   18    7:   18
           9      16:   36    1:   18    1:    6
          10       1:   15    1:   18   28:   36
          11      16:   36   19:   27    7:   18
          12       1:   15   19:   36   10:   18
          13      16:   36    1:    9   25:   36
          14      16:   36    1:   18   19:   24
          15      16:   36   19:   27   25:   36
          16       1:   15   19:   36    1:    9
          17      16:   36   10:   18   25:   36
          18      16:   36    1:    9    7:   18
          19       1:   15   19:   36   19:   27
          20      16:   36   28:   36   25:   36
Setting up quadratic distribution...
ExtMesh (bp) on 0 =   113 x   110 x    94 =     1168420
PhiOnMesh: Number of (b)points on node 0 =                 2268
PhiOnMesh: nlist on node 0 =               263041

stepf: Fermi-Dirac step function

siesta: Program's energy decomposition (eV):
siesta: Ebs     =     -2563.920378
siesta: Eions   =      9434.507561
siesta: Ena     =      2268.906393
siesta: Ekin    =      3617.534943
siesta: Enl     =      -338.913491
siesta: Eso     =         0.000000
siesta: Edftu   =         0.000000
siesta: DEna    =         3.410121
siesta: DUscf   =         2.540396
siesta: DUext   =         0.000000
siesta: Exc     =     -1631.057285
siesta: eta*DQ  =         0.000000
siesta: Emadel  =         0.000000
siesta: Emeta   =         0.000000
siesta: Emolmec =        -4.309568
siesta: Ekinion =         0.000000
siesta: Eharris =     -5365.385104
siesta: Etot    =     -5516.396053
siesta: FreeEng =     -5516.407146

        iscf     Eharris(eV)        E_KS(eV)     FreeEng(eV)     dDmax    Ef(eV) dHmax(eV)
   scf:    1    -5365.385104    -5516.396053    -5516.407146  1.338469 -8.330575  0.083268
timer: Routine,Calls,Time,% = IterSCF        1       1.174  48.31
   scf:    2    -5516.401151    -5516.398675    -5516.409762  0.001215 -8.313651  0.058466
   scf:    3    -5516.404151    -5516.401490    -5516.412556  0.002105 -8.269975  0.004362
   scf:    4    -5516.401563    -5516.401549    -5516.412630  0.000731 -8.269769  0.000508

SCF Convergence by FreeE+DM+H criterion
|FreeE_i-FreeE_(i-1)| (eV) <     0.00100000
max |DM_out - DM_in|         :     0.0007311688
max |H_out - H_in|      (eV) :     0.0005077868
SCF cycle converged after 4 iterations

Using DM_out to compute the final energy and forces
No. of atoms with KB's overlaping orbs in proc 0. Max # of overlaps:     110     198

MM-Stress (kbar):       12.22       12.22       46.20        0.00        0.00       -0.00

siesta: E_KS(eV) =            -5516.4015

siesta: E_KS - E_eggbox =     -5516.4015

siesta: Atomic forces (eV/Ang):
     1   -0.000000   -0.000000   -0.000000
     2    0.000000   -0.000000   -0.000000
     3    0.000075   -0.000055   -0.000000
     4   -0.000075    0.000056   -0.000000
     5    0.000011    0.000092   -0.000000
     6   -0.000011   -0.000092   -0.000000
     7   -0.000086   -0.000037   -0.000000
     8    0.000086    0.000037   -0.000000
     9   -0.000015   -0.000013   -0.000000
    10    0.000015    0.000012   -0.000000
    11   -0.000003    0.000019   -0.000000
    12    0.000003   -0.000019   -0.000000
    13    0.000018   -0.000006   -0.000000
    14   -0.000018    0.000007   -0.000000
    15   -0.000000   -0.000000   -0.000000
    16    0.000000    0.000000   -0.000000
    17   -0.000000    0.000000   -0.000000
    18    0.000000    0.000000   -0.000000
    19    0.000008    0.000129    0.000000
    20   -0.000008   -0.000129    0.000000
    21   -0.000116   -0.000058    0.000000
    22    0.000116    0.000058    0.000000
    23    0.000108   -0.000071    0.000000
    24   -0.000108    0.000071    0.000000
    25    0.000008    0.000114    0.000000
    26   -0.000008   -0.000115    0.000000
    27   -0.000104   -0.000050    0.000000
    28    0.000104    0.000050    0.000000
    29    0.000095   -0.000064    0.000000
    30   -0.000095    0.000065    0.000000
    31    0.000008    0.000115    0.000000
    32   -0.000008   -0.000115    0.000000
    33   -0.000104   -0.000050    0.000000
    34    0.000104    0.000050    0.000000
    35    0.000095   -0.000065    0.000000
    36   -0.000095    0.000064    0.000000
----------------------------------------
   Tot    0.000000   -0.000000   -0.000000
----------------------------------------
   Max    0.000129
   Res    0.000054    sqrt( Sum f_i^2 / 3N )
----------------------------------------
   Max    0.000129    constrained

Stress tensor Voigt[x,y,z,yz,xz,xy] (kbar):     -382.01     -382.01      245.73        0.00       -0.00        0.00
(Free)E + p*V (eV/cell)    -5481.8269
Target enthalpy (eV/cell)    -5516.4126

siesta: Eigenvalues (eV):
  ik is       eps
   1  1  -27.5196  -27.4949  -26.8192  -26.8192  -26.7830  -26.7830  -24.9425  -24.9425  -24.7731  -24.7731
         -23.8177  -23.6172  -23.3756  -23.3756  -23.2236  -23.2236  -22.7076  -22.6474  -21.3157  -21.1638
  -21.1259  -21.1259  -20.9576  -20.9576  -19.6206  -19.6011  -18.6221  -18.6221  -18.5944  -18.5944
  -17.8298  -17.7930  -17.3349  -17.3119  -16.6443  -16.6442  -16.5800  -16.5800  -16.2303  -16.2303
  -16.1774  -16.1774  -15.8410  -15.8410  -15.7964  -15.7964  -14.7641  -14.5255  -14.5255  -14.4603
  -14.4603  -14.2515  -14.2248  -14.2070  -14.2070  -13.9956  -13.5978  -13.5568  -13.3756  -13.3756
  -12.4953  -12.4953  -11.5182  -11.5182  -11.3218  -11.0009  -11.0009  -10.3479  -10.3202  -10.3202
  -10.2873   -9.7938   -6.5709   -6.4103   -6.0845   -6.0845   -5.5929   -5.5900   -5.5900   -5.1551
   -3.8863   -3.8863   -3.4945   -3.4945   -0.3307   -0.3306   -0.1054   -0.1054    1.1760    1.3278
    1.3278    1.3507    1.3935    1.4536    1.5558    1.5559    1.8202    1.8202    1.8932    1.8932
    2.1835    2.2168    3.1962    3.3747    3.4516    3.4516    3.5929    3.5929    3.8627    3.8627
    3.9031    3.9031    5.1153    5.1486    5.3596    5.4164    6.3144    6.3144    6.3771    6.3771
    6.8269    7.0004    7.3616    7.3617    7.4036    7.4036    9.4435    9.5582   10.2792   10.2792
   10.3304   10.3304   12.0391   12.0391   12.0473   12.0473   13.2099   13.2099   13.3092   13.3092
   13.7385   13.7386   14.1469   14.1935
   2  1  -27.8985  -27.8418  -26.4907  -26.4267  -25.8525  -25.8525  -25.7388  -25.7388  -24.6551  -24.6551
         -24.4791  -24.4791  -24.1080  -23.9284  -22.5952  -22.5952  -22.4386  -22.4386  -20.8278  -20.8278
  -20.7364  -20.7364  -20.4425  -20.3073  -19.5293  -19.5293  -19.4460  -19.4460  -18.4169  -18.4169
  -18.4046  -18.4046  -17.6862  -17.6862  -17.6440  -17.6440  -16.7091  -16.6465  -15.9330  -15.9330
  -15.8743  -15.8743  -15.6762  -15.6146  -15.3505  -15.3505  -15.2842  -15.2842  -15.0413  -14.5714
  -14.5078  -14.3019  -13.9275  -13.3618  -13.3618  -13.2714  -13.2327  -13.0656  -12.9795  -12.9410
  -12.4434  -12.4434  -12.2309  -12.2309  -11.7153  -11.2769  -11.2769  -10.8424   -9.9708   -9.9708
   -9.2335   -9.2335   -7.0831   -7.0831   -6.6759   -6.6759   -5.3161   -4.6935   -4.4695   -4.4695
   -3.9253   -3.9253   -2.3151   -2.3151   -1.9571   -1.9571   -1.0538   -0.7622    0.6402    0.7763
    0.7913    0.8803    1.0307    1.1457    1.2954    1.3208    1.4651    1.4651    1.6805    1.6805
    1.6858    1.6858    1.8372    1.8372    1.9981    2.1578    4.4495    4.5039    5.4515    5.4515
    5.5147    5.5147    5.9218    5.9359    6.3440    6.3440    6.3805    6.3805    7.7136    7.7877
    8.0733    8.0733    8.2133    8.2133    8.7783    8.7783    8.7921    8.7921    9.7722    9.7722
    9.7915    9.7915   10.3369   10.3475   11.9129   11.9129   11.9468   11.9468   12.1281   12.2396
   14.6384   14.6384   14.6483   14.6483
   3  1  -27.8985  -27.8418  -26.4907  -26.4267  -25.8525  -25.8525  -25.7388  -25.7388  -24.6551  -24.6551
         -24.4791  -24.4791  -24.1080  -23.9284  -22.5952  -22.5952  -22.4386  -22.4386  -20.8278  -20.8278
  -20.7364  -20.7364  -20.4425  -20.3073  -19.5293  -19.5293  -19.4460  -19.4460  -18.4169  -18.4169
  -18.4046  -18.4046  -17.6862  -17.6862  -17.6440  -17.6440  -16.7091  -16.6465  -15.9330  -15.9330
  -15.8743  -15.8743  -15.6762  -15.6146  -15.3505  -15.3505  -15.2842  -15.2842  -15.0413  -14.5714
  -14.5078  -14.3019  -13.9275  -13.3618  -13.3618  -13.2714  -13.2327  -13.0656  -12.9795  -12.9410
  -12.4434  -12.4434  -12.2309  -12.2309  -11.7153  -11.2769  -11.2769  -10.8424   -9.9708   -9.9708
   -9.2335   -9.2335   -7.0831   -7.0831   -6.6759   -6.6759   -5.3161   -4.6935   -4.4695   -4.4695
   -3.9253   -3.9253   -2.3151   -2.3151   -1.9571   -1.9571   -1.0538   -0.7622    0.6402    0.7763
    0.7913    0.8803    1.0307    1.1457    1.2954    1.3208    1.4651    1.4651    1.6805    1.6805
    1.6858    1.6858    1.8372    1.8372    1.9981    2.1578    4.4495    4.5039    5.4515    5.4515
    5.5147    5.5147    5.9218    5.9359    6.3440    6.3440    6.3805    6.3805    7.7136    7.7877
    8.0733    8.0733    8.2133    8.2133    8.7783    8.7783    8.7921    8.7921    9.7722    9.7722
    9.7915    9.7915   10.3369   10.3475   11.9129   11.9129   11.9468   11.9468   12.1281   12.2396
   14.6384   14.6384   14.6483   14.6483
   4  1  -27.5196  -27.4949  -26.8192  -26.8192  -26.7830  -26.7830  -24.9425  -24.9425  -24.7731  -24.7731
         -23.8177  -23.6172  -23.3756  -23.3756  -23.2236  -23.2236  -22.7076  -22.6474  -21.3157  -21.1638
  -21.1259  -21.1259  -20.9576  -20.9576  -19.6206  -19.6011  -18.6221  -18.6221  -18.5944  -18.5944
  -17.8298  -17.7930  -17.3349  -17.3119  -16.6443  -16.6442  -16.5800  -16.5800  -16.2303  -16.2303
  -16.1774  -16.1774  -15.8410  -15.8410  -15.7964  -15.7964  -14.7641  -14.5255  -14.5255  -14.4603
  -14.4603  -14.2515  -14.2248  -14.2070  -14.2070  -13.9956  -13.5978  -13.5568  -13.3756  -13.3756
  -12.4953  -12.4953  -11.5182  -11.5182  -11.3218  -11.0009  -11.0009  -10.3479  -10.3202  -10.3202
  -10.2873   -9.7938   -6.5709   -6.4103   -6.0845   -6.0845   -5.5929   -5.5900   -5.5900   -5.1551
   -3.8863   -3.8863   -3.4945   -3.4945   -0.3307   -0.3306   -0.1054   -0.1054    1.1760    1.3278
    1.3278    1.3507    1.3935    1.4536    1.5558    1.5559    1.8202    1.8202    1.8932    1.8932
    2.1835    2.2168    3.1962    3.3747    3.4516    3.4516    3.5929    3.5929    3.8627    3.8627
    3.9031    3.9031    5.1153    5.1486    5.3596    5.4164    6.3144    6.3144    6.3771    6.3771
    6.8269    7.0004    7.3616    7.3617    7.4036    7.4036    9.4435    9.5582   10.2792   10.2792
   10.3304   10.3304   12.0391   12.0391   12.0473   12.0473   13.2099   13.2099   13.3092   13.3092
   13.7385   13.7386   14.1469   14.1935
   5  1  -27.8985  -27.8418  -26.4907  -26.4267  -25.8525  -25.8525  -25.7388  -25.7388  -24.6551  -24.6551
         -24.4791  -24.4791  -24.1080  -23.9284  -22.5952  -22.5952  -22.4386  -22.4386  -20.8278  -20.8278
  -20.7364  -20.7364  -20.4425  -20.3073  -19.5293  -19.5293  -19.4460  -19.4460  -18.4169  -18.4169
  -18.4046  -18.4046  -17.6862  -17.6862  -17.6440  -17.6440  -16.7091  -16.6465  -15.9330  -15.9330
  -15.8743  -15.8743  -15.6762  -15.6146  -15.3505  -15.3505  -15.2842  -15.2842  -15.0413  -14.5714
  -14.5078  -14.3019  -13.9275  -13.3618  -13.3618  -13.2714  -13.2327  -13.0656  -12.9795  -12.9410
  -12.4434  -12.4434  -12.2309  -12.2309  -11.7153  -11.2769  -11.2769  -10.8424   -9.9708   -9.9708
   -9.2335   -9.2335   -7.0831   -7.0831   -6.6759   -6.6759   -5.3161   -4.6935   -4.4695   -4.4695
   -3.9253   -3.9253   -2.3151   -2.3151   -1.9571   -1.9571   -1.0538   -0.7622    0.6402    0.7763
    0.7913    0.8803    1.0307    1.1457    1.2954    1.3208    1.4651    1.4651    1.6805    1.6805
    1.6858    1.6858    1.8372    1.8372    1.9981    2.1578    4.4495    4.5039    5.4515    5.4515
    5.5147    5.5147    5.9218    5.9359    6.3440    6.3440    6.3805    6.3805    7.7136    7.7877
    8.0733    8.0733    8.2133    8.2133    8.7783    8.7783    8.7921    8.7921    9.7722    9.7722
    9.7915    9.7915   10.3369   10.3475   11.9129   11.9129   11.9468   11.9468   12.1281   12.2396
   14.6384   14.6384   14.6483   14.6483
   6  1  -28.0902  -28.0175  -25.3909  -25.3909  -25.3909  -25.3909  -25.3909  -25.3909  -25.2491  -25.2490
         -25.2490  -25.2490  -25.2490  -25.2490  -21.5521  -21.5521  -21.4961  -21.4961  -21.4961  -21.4961
  -21.4436  -21.4436  -18.9933  -18.9933  -18.9933  -18.9933  -18.6409  -18.6409  -18.6409  -18.6408
  -18.6408  -18.6408  -18.5841  -18.5841  -18.5841  -18.5841  -18.5841  -18.5841  -15.2482  -15.2482
  -15.2481  -15.2481  -15.2481  -15.2481  -15.1843  -15.1843  -15.1843  -15.1843  -15.1843  -15.1843
  -15.1798  -14.4539  -12.9408  -12.9408  -12.9408  -12.9408  -12.9408  -12.9407  -12.6480  -12.6480
  -12.6265  -12.6265  -11.9985  -11.9985  -11.9985  -11.9985  -11.9985  -11.9985   -8.7643   -8.7643
   -8.2785   -8.2785   -8.2785   -8.2785   -7.7327   -7.7327   -3.2434   -3.2434   -3.2434   -3.2434
   -3.2434   -3.2434   -2.7576   -2.7576   -2.7576   -2.7576   -2.7576   -2.7576    0.5247    0.5247
    0.5536    0.5536    0.8272    0.8272    0.8272    0.8272    0.8272    0.8272    1.0320    1.0320
    1.0320    1.0320    1.0320    1.0320    2.4292    2.5835    4.1081    4.1552    7.1028    7.1028
    7.1816    7.1816    7.1816    7.1816    7.2700    7.2700    8.4779    8.4779    8.4779    8.4779
    8.4779    8.4779    8.4899    8.4899    8.4899    8.4899    8.4899    8.4899   10.1157   10.1157
   10.1157   10.1157   10.1157   10.1157   10.1645   10.1645   10.1645   10.1645   10.1645   10.1645
   14.9979   14.9979   14.9979   14.9979
   7  1  -27.3328  -27.3328  -27.3237  -27.3237  -26.0097  -26.0097  -25.9064  -25.9064  -23.6963  -23.6963
         -23.6963  -23.6963  -23.5043  -23.5043  -23.5043  -23.5043  -23.1103  -23.0540  -21.5469  -21.3643
  -20.2535  -20.2535  -20.2535  -20.2535  -20.1442  -20.1442  -20.1442  -20.1442  -17.1679  -17.1679
  -17.1679  -17.1679  -17.1327  -17.1327  -17.1327  -17.1327  -17.0925  -17.0925  -17.0747  -17.0747
  -15.8215  -15.7611  -15.7053  -15.7053  -15.6217  -15.6217  -14.8038  -14.8038  -14.7447  -14.7447
  -14.6253  -14.6253  -13.8415  -13.8415  -13.7417  -13.7417  -13.6854  -13.6853  -13.5012  -13.5012
  -12.5931  -12.5931  -11.2297  -11.2297  -11.2297  -11.2297  -10.8398  -10.3599  -10.3268  -10.3268
  -10.3268  -10.3268   -6.2086   -5.7765   -5.7728   -5.7728   -5.7728   -5.7728   -5.2828   -5.2828
   -5.2828   -5.2828   -1.9566   -1.9566   -1.6770   -1.6770    0.5698    0.7781    0.7781    0.8089
    0.9680    0.9680    1.0527    1.0527    1.1103    1.1103    3.2628    3.2628    3.2628    3.2628
    3.3039    3.3039    3.3228    3.3228    3.4368    3.4369    3.4369    3.4369    3.6491    3.6491
    3.7160    3.7160    3.8720    3.8720    3.8905    3.8905    5.6712    5.6712    5.7332    5.7332
    8.5405    8.5405    8.5405    8.5405    8.6277    8.6277    8.6277    8.6277    9.8069    9.8069
    9.8341    9.8341   11.0176   11.0265   12.9280   13.1051   13.5847   13.5847   13.5847   13.5847
   13.6139   13.6139   13.6139   13.6139
   8  1  -27.5196  -27.4949  -26.8192  -26.8192  -26.7830  -26.7830  -24.9425  -24.9425  -24.7731  -24.7731
         -23.8177  -23.6172  -23.3756  -23.3756  -23.2236  -23.2236  -22.7076  -22.6474  -21.3157  -21.1638
  -21.1259  -21.1259  -20.9576  -20.9576  -19.6206  -19.6011  -18.6221  -18.6221  -18.5944  -18.5944
  -17.8298  -17.7930  -17.3349  -17.3119  -16.6443  -16.6442  -16.5800  -16.5800  -16.2303  -16.2303
  -16.1774  -16.1774  -15.8410  -15.8410  -15.7964  -15.7964  -14.7641  -14.5255  -14.5255  -14.4603
  -14.4603  -14.2515  -14.2248  -14.2070  -14.2070  -13.9956  -13.5978  -13.5568  -13.3756  -13.3756
  -12.4953  -12.4953  -11.5182  -11.5182  -11.3218  -11.0009  -11.0009  -10.3479  -10.3202  -10.3202
  -10.2873   -9.7938   -6.5709   -6.4103   -6.0845   -6.0845   -5.5929   -5.5900   -5.5900   -5.1551
   -3.8863   -3.8863   -3.4945   -3.4945   -0.3307   -0.3306   -0.1054   -0.1054    1.1760    1.3278
    1.3278    1.3507    1.3935    1.4536    1.5558    1.5559    1.8202    1.8202    1.8932    1.8932
    2.1835    2.2168    3.1962    3.3747    3.4516    3.4516    3.5929    3.5929    3.8627    3.8627
    3.9031    3.9031    5.1153    5.1486    5.3596    5.4164    6.3144    6.3144    6.3771    6.3771
    6.8269    7.0004    7.3616    7.3617    7.4036    7.4036    9.4435    9.5582   10.2792   10.2792
   10.3304   10.3304   12.0391   12.0391   12.0473   12.0473   13.2099   13.2099   13.3092   13.3092
   13.7385   13.7386   14.1469   14.1935
   9  1  -27.5196  -27.4949  -26.8192  -26.8192  -26.7830  -26.7830  -24.9425  -24.9425  -24.7731  -24.7731
         -23.8177  -23.6172  -23.3756  -23.3756  -23.2236  -23.2236  -22.7076  -22.6474  -21.3157  -21.1638
  -21.1259  -21.1259  -20.9576  -20.9576  -19.6206  -19.6011  -18.6221  -18.6221  -18.5944  -18.5944
  -17.8298  -17.7930  -17.3349  -17.3119  -16.6443  -16.6442  -16.5800  -16.5800  -16.2303  -16.2303
  -16.1774  -16.1774  -15.8410  -15.8410  -15.7964  -15.7964  -14.7641  -14.5255  -14.5255  -14.4603
  -14.4603  -14.2515  -14.2248  -14.2070  -14.2070  -13.9956  -13.5978  -13.5568  -13.3756  -13.3756
  -12.4953  -12.4953  -11.5182  -11.5182  -11.3218  -11.0009  -11.0009  -10.3479  -10.3202  -10.3202
  -10.2873   -9.7938   -6.5709   -6.4103   -6.0845   -6.0845   -5.5929   -5.5900   -5.5900   -5.1551
   -3.8863   -3.8863   -3.4945   -3.4945   -0.3307   -0.3306   -0.1054   -0.1054    1.1760    1.3278
    1.3278    1.3507    1.3935    1.4536    1.5558    1.5559    1.8202    1.8202    1.8932    1.8932
    2.1835    2.2168    3.1962    3.3747    3.4516    3.4516    3.5929    3.5929    3.8627    3.8627
    3.9031    3.9031    5.1153    5.1486    5.3596    5.4164    6.3144    6.3144    6.3771    6.3771
    6.8269    7.0004    7.3616    7.3617    7.4036    7.4036    9.4435    9.5582   10.2792   10.2792
   10.3304   10.3304   12.0391   12.0391   12.0473   12.0473   13.2099   13.2099   13.3092   13.3092
   13.7385   13.7386   14.1469   14.1935
  10  1  -27.3328  -27.3328  -27.3237  -27.3237  -26.0097  -26.0097  -25.9064  -25.9064  -23.6963  -23.6963
         -23.6963  -23.6963  -23.5043  -23.5043  -23.5043  -23.5043  -23.1103  -23.0540  -21.5469  -21.3643
  -20.2535  -20.2535  -20.2535  -20.2535  -20.1442  -20.1442  -20.1442  -20.1442  -17.1679  -17.1679
  -17.1679  -17.1679  -17.1327  -17.1327  -17.1327  -17.1327  -17.0925  -17.0925  -17.0747  -17.0747
  -15.8215  -15.7611  -15.7053  -15.7053  -15.6217  -15.6217  -14.8038  -14.8038  -14.7447  -14.7447
  -14.6253  -14.6253  -13.8415  -13.8415  -13.7417  -13.7417  -13.6854  -13.6853  -13.5012  -13.5012
  -12.5931  -12.5931  -11.2297  -11.2297  -11.2297  -11.2297  -10.8398  -10.3599  -10.3268  -10.3268
  -10.3268  -10.3268   -6.2086   -5.7765   -5.7728   -5.7728   -5.7728   -5.7728   -5.2828   -5.2828
   -5.2828   -5.2828   -1.9566   -1.9566   -1.6770   -1.6770    0.5698    0.7781    0.7781    0.8089
    0.9680    0.9680    1.0527    1.0527    1.1103    1.1103    3.2628    3.2628    3.2628    3.2628
    3.3039    3.3039    3.3228    3.3228    3.4368    3.4369    3.4369    3.4369    3.6491    3.6491
    3.7160    3.7160    3.8720    3.8720    3.8905    3.8905    5.6712    5.6712    5.7332    5.7332
    8.5405    8.5405    8.5405    8.5405    8.6277    8.6277    8.6277    8.6277    9.8069    9.8069
    9.8341    9.8341   11.0176   11.0265   12.9280   13.1051   13.5847   13.5847   13.5847   13.5847
   13.6139   13.6139   13.6139   13.6139
  11  1  -27.5196  -27.4949  -26.8192  -26.8192  -26.7830  -26.7830  -24.9425  -24.9425  -24.7731  -24.7731
         -23.8177  -23.6172  -23.3756  -23.3756  -23.2236  -23.2236  -22.7076  -22.6474  -21.3157  -21.1638
  -21.1259  -21.1259  -20.9576  -20.9576  -19.6206  -19.6011  -18.6221  -18.6221  -18.5944  -18.5944
  -17.8298  -17.7930  -17.3349  -17.3119  -16.6443  -16.6442  -16.5800  -16.5800  -16.2303  -16.2303
  -16.1774  -16.1774  -15.8410  -15.8410  -15.7964  -15.7964  -14.7641  -14.5255  -14.5255  -14.4603
  -14.4603  -14.2515  -14.2248  -14.2070  -14.2070  -13.9956  -13.5978  -13.5568  -13.3756  -13.3756
  -12.4953  -12.4953  -11.5182  -11.5182  -11.3218  -11.0009  -11.0009  -10.3479  -10.3202  -10.3202
  -10.2873   -9.7938   -6.5709   -6.4103   -6.0845   -6.0845   -5.5929   -5.5900   -5.5900   -5.1551
   -3.8863   -3.8863   -3.4945   -3.4945   -0.3307   -0.3306   -0.1054   -0.1054    1.1760    1.3278
    1.3278    1.3507    1.3935    1.4536    1.5558    1.5559    1.8202    1.8202    1.8932    1.8932
    2.1835    2.2168    3.1962    3.3747    3.4516    3.4516    3.5929    3.5929    3.8627    3.8627
    3.9031    3.9031    5.1153    5.1486    5.3596    5.4164    6.3144    6.3144    6.3771    6.3771
    6.8269    7.0004    7.3616    7.3617    7.4036    7.4036    9.4435    9.5582   10.2792   10.2792
   10.3304   10.3304   12.0391   12.0391   12.0473   12.0473   13.2099   13.2099   13.3092   13.3092
   13.7385   13.7386   14.1469   14.1935
  12  1  -27.3328  -27.3328  -27.3237  -27.3237  -26.0097  -26.0097  -25.9064  -25.9064  -23.6963  -23.6963
         -23.6963  -23.6963  -23.5043  -23.5043  -23.5043  -23.5043  -23.1103  -23.0540  -21.5469  -21.3643
  -20.2535  -20.2535  -20.2535  -20.2535  -20.1442  -20.1442  -20.1442  -20.1442  -17.1679  -17.1679
  -17.1679  -17.1679  -17.1327  -17.1327  -17.1327  -17.1327  -17.0925  -17.0925  -17.0747  -17.0747
  -15.8215  -15.7611  -15.7053  -15.7053  -15.6217  -15.6217  -14.8038  -14.8038  -14.7447  -14.7447
  -14.6253  -14.6253  -13.8415  -13.8415  -13.7417  -13.7417  -13.6854  -13.6853  -13.5012  -13.5012
  -12.5931  -12.5931  -11.2297  -11.2297  -11.2297  -11.2297  -10.8398  -10.3599  -10.3268  -10.3268
  -10.3268  -10.3268   -6.2086   -5.7765   -5.7728   -5.7728   -5.7728   -5.7728   -5.2828   -5.2828
   -5.2828   -5.2828   -1.9566   -1.9566   -1.6770   -1.6770    0.5698    0.7781    0.7781    0.8089
    0.9680    0.9680    1.0527    1.0527    1.1103    1.1103    3.2628    3.2628    3.2628    3.2628
    3.3039    3.3039    3.3228    3.3228    3.4368    3.4369    3.4369    3.4369    3.6491    3.6491
    3.7160    3.7160    3.8720    3.8720    3.8905    3.8905    5.6712    5.6712    5.7332    5.7332
    8.5405    8.5405    8.5405    8.5405    8.6277    8.6277    8.6277    8.6277    9.8069    9.8069
    9.8341    9.8341   11.0176   11.0265   12.9280   13.1051   13.5847   13.5847   13.5847   13.5847
   13.6139   13.6139   13.6139   13.6139
  13  1  -27.5310  -27.5085  -26.8235  -26.8235  -26.8017  -26.8017  -24.9241  -24.9241  -24.8053  -24.8053
         -23.7917  -23.6500  -23.3537  -23.3537  -23.2458  -23.2458  -22.6961  -22.6528  -21.2989  -21.1905
  -21.1057  -21.1057  -20.9859  -20.9859  -19.6170  -19.6032  -18.6185  -18.6185  -18.5988  -18.5988
  -17.8267  -17.8009  -17.3323  -17.3161  -16.6371  -16.6371  -16.5921  -16.5921  -16.2229  -16.2229
  -16.1855  -16.1855  -15.8356  -15.8356  -15.8043  -15.8043  -14.6518  -14.5207  -14.5207  -14.4741
  -14.4741  -14.2479  -14.2284  -14.1075  -14.0907  -14.0907  -13.5920  -13.5611  -13.5066  -13.5066
  -12.3726  -12.3726  -11.6864  -11.6863  -11.1958  -10.8997  -10.8997  -10.5090  -10.4146  -10.4146
  -10.2011   -9.8466   -6.5865   -6.4650   -6.0476   -6.0476   -5.6911   -5.6911   -5.5276   -5.2187
   -3.8290   -3.8290   -3.5518   -3.5518   -0.2994   -0.2994   -0.1401   -0.1401    1.1955    1.3132
    1.3658    1.3658    1.4379    1.4663    1.5278    1.5278    1.8518    1.8518    1.9042    1.9043
    2.1886    2.2121    3.2259    3.3524    3.4781    3.4781    3.5790    3.5790    3.8751    3.8751
    3.9042    3.9042    5.1211    5.1447    5.3683    5.4084    6.3344    6.3345    6.3810    6.3810
    6.8599    6.9836    7.3693    7.3693    7.3996    7.3996    9.4595    9.5406   10.2871   10.2872
   10.3234   10.3234   12.0409   12.0409   12.0467   12.0467   13.2245   13.2245   13.2948   13.2948
   13.7386   13.7387   14.1532   14.1862
  14  1  -27.9061  -27.8602  -26.4905  -26.4486  -25.8442  -25.8442  -25.7660  -25.7660  -24.6348  -24.6348
         -24.5110  -24.5110  -24.0852  -23.9583  -22.5720  -22.5720  -22.4610  -22.4610  -20.8145  -20.8145
  -20.7495  -20.7495  -20.4258  -20.3296  -19.5193  -19.5193  -19.4600  -19.4600  -18.4172  -18.4172
  -18.4084  -18.4084  -17.6818  -17.6818  -17.6525  -17.6525  -16.7026  -16.6592  -15.9250  -15.9250
  -15.8836  -15.8836  -15.6674  -15.6238  -15.3422  -15.3422  -15.2955  -15.2955  -14.9259  -14.5622
  -14.5172  -14.3962  -13.8135  -13.2657  -13.2447  -13.2447  -13.2384  -13.2081  -12.9739  -12.9467
  -12.6006  -12.6006  -12.1096  -12.1096  -11.5993  -11.4383  -11.4383  -10.9822   -9.8607   -9.8607
   -9.3349   -9.3349   -7.0366   -7.0366   -6.7487   -6.7487   -5.2469   -4.8022   -4.3984   -4.3984
   -4.0115   -4.0115   -2.2647   -2.2647   -2.0111   -2.0111   -1.0140   -0.8075    0.6811    0.7884
    0.7965    0.8522    1.0643    1.1500    1.2992    1.3171    1.5034    1.5034    1.6573    1.6573
    1.7199    1.7199    1.8302    1.8302    2.0208    2.1336    4.4584    4.4969    5.4629    5.4629
    5.5076    5.5076    5.9239    5.9339    6.3583    6.3583    6.3839    6.3839    7.7365    7.7882
    8.0937    8.0937    8.1927    8.1927    8.7846    8.7846    8.7953    8.7953    9.7795    9.7795
    9.7933    9.7933   10.3383   10.3457   11.9221   11.9221   11.9457   11.9457   12.1494   12.2283
   14.6399   14.6399   14.6469   14.6469
  15  1  -27.9061  -27.8602  -26.4905  -26.4486  -25.8442  -25.8442  -25.7660  -25.7660  -24.6348  -24.6348
         -24.5110  -24.5110  -24.0852  -23.9583  -22.5720  -22.5720  -22.4610  -22.4610  -20.8145  -20.8145
  -20.7495  -20.7495  -20.4258  -20.3296  -19.5193  -19.5193  -19.4600  -19.4600  -18.4172  -18.4172
  -18.4084  -18.4084  -17.6818  -17.6818  -17.6525  -17.6525  -16.7026  -16.6592  -15.9250  -15.9250
  -15.8836  -15.8836  -15.6674  -15.6238  -15.3422  -15.3422  -15.2955  -15.2955  -14.9259  -14.5622
  -14.5172  -14.3962  -13.8135  -13.2657  -13.2447  -13.2447  -13.2384  -13.2081  -12.9739  -12.9467
  -12.6006  -12.6006  -12.1096  -12.1096  -11.5993  -11.4383  -11.4383  -10.9822   -9.8607   -9.8607
   -9.3349   -9.3349   -7.0366   -7.0366   -6.7487   -6.7487   -5.2469   -4.8022   -4.3984   -4.3984
   -4.0115   -4.0115   -2.2647   -2.2647   -2.0111   -2.0111   -1.0140   -0.8075    0.6811    0.7884
    0.7965    0.8522    1.0643    1.1500    1.2992    1.3171    1.5034    1.5034    1.6573    1.6573
    1.7199    1.7199    1.8302    1.8302    2.0208    2.1336    4.4584    4.4969    5.4629    5.4629
    5.5076    5.5076    5.9239    5.9339    6.3583    6.3583    6.3839    6.3839    7.7365    7.7882
    8.0937    8.0937    8.1927    8.1927    8.7846    8.7846    8.7953    8.7953    9.7795    9.7795
    9.7933    9.7933   10.3383   10.3457   11.9221   11.9221   11.9457   11.9457   12.1494   12.2283
   14.6399   14.6399   14.6469   14.6469
  16  1  -27.5310  -27.5085  -26.8235  -26.8235  -26.8017  -26.8017  -24.9241  -24.9241  -24.8053  -24.8053
         -23.7917  -23.6500  -23.3537  -23.3537  -23.2458  -23.2458  -22.6961  -22.6528  -21.2989  -21.1905
  -21.1057  -21.1057  -20.9859  -20.9859  -19.6170  -19.6032  -18.6185  -18.6185  -18.5988  -18.5988
  -17.8267  -17.8009  -17.3323  -17.3161  -16.6371  -16.6371  -16.5921  -16.5921  -16.2229  -16.2229
  -16.1855  -16.1855  -15.8356  -15.8356  -15.8043  -15.8043  -14.6518  -14.5207  -14.5207  -14.4741
  -14.4741  -14.2479  -14.2284  -14.1075  -14.0907  -14.0907  -13.5920  -13.5611  -13.5066  -13.5066
  -12.3726  -12.3726  -11.6864  -11.6863  -11.1958  -10.8997  -10.8997  -10.5090  -10.4146  -10.4146
  -10.2011   -9.8466   -6.5865   -6.4650   -6.0476   -6.0476   -5.6911   -5.6911   -5.5276   -5.2187
   -3.8290   -3.8290   -3.5518   -3.5518   -0.2994   -0.2994   -0.1401   -0.1401    1.1955    1.3132
    1.3658    1.3658    1.4379    1.4663    1.5278    1.5278    1.8518    1.8518    1.9042    1.9043
    2.1886    2.2121    3.2259    3.3524    3.4781    3.4781    3.5790    3.5790    3.8751    3.8751
    3.9042    3.9042    5.1211    5.1447    5.3683    5.4084    6.3344    6.3345    6.3810    6.3810
    6.8599    6.9836    7.3693    7.3693    7.3996    7.3996    9.4595    9.5406   10.2871   10.2872
   10.3234   10.3234   12.0409   12.0409   12.0467   12.0467   13.2245   13.2245   13.2948   13.2948
   13.7386   13.7387   14.1532   14.1862
  17  1  -27.9061  -27.8602  -26.4905  -26.4486  -25.8442  -25.8442  -25.7660  -25.7660  -24.6348  -24.6348
         -24.5110  -24.5110  -24.0852  -23.9583  -22.5720  -22.5720  -22.4610  -22.4610  -20.8145  -20.8145
  -20.7495  -20.7495  -20.4258  -20.3296  -19.5193  -19.5193  -19.4600  -19.4600  -18.4172  -18.4172
  -18.4084  -18.4084  -17.6818  -17.6818  -17.6525  -17.6525  -16.7026  -16.6592  -15.9250  -15.9250
  -15.8836  -15.8836  -15.6674  -15.6238  -15.3422  -15.3422  -15.2955  -15.2955  -14.9259  -14.5622
  -14.5172  -14.3962  -13.8135  -13.2657  -13.2447  -13.2447  -13.2384  -13.2081  -12.9739  -12.9467
  -12.6006  -12.6006  -12.1096  -12.1096  -11.5993  -11.4383  -11.4383  -10.9822   -9.8607   -9.8607
   -9.3349   -9.3349   -7.0366   -7.0366   -6.7487   -6.7487   -5.2469   -4.8022   -4.3984   -4.3984
   -4.0115   -4.0115   -2.2647   -2.2647   -2.0111   -2.0111   -1.0140   -0.8075    0.6811    0.7884
    0.7965    0.8522    1.0643    1.1500    1.2992    1.3171    1.5034    1.5034    1.6573    1.6573
    1.7199    1.7199    1.8302    1.8302    2.0208    2.1336    4.4584    4.4969    5.4629    5.4629
    5.5076    5.5076    5.9239    5.9339    6.3583    6.3583    6.3839    6.3839    7.7365    7.7882
    8.0937    8.0937    8.1927    8.1927    8.7846    8.7846    8.7953    8.7953    9.7795    9.7795
    9.7933    9.7933   10.3383   10.3457   11.9221   11.9221   11.9457   11.9457   12.1494   12.2283
   14.6399   14.6399   14.6469   14.6469
  18  1  -28.0960  -28.0383  -25.3775  -25.3775  -25.3775  -25.3775  -25.3775  -25.3775  -25.2788  -25.2787
         -25.2787  -25.2787  -25.2787  -25.2787  -21.5372  -21.5372  -21.4918  -21.4918  -21.4918  -21.4918
  -21.4604  -21.4604  -18.9969  -18.9969  -18.9969  -18.9969  -18.6351  -18.6351  -18.6351  -18.6351
  -18.6351  -18.6351  -18.5952  -18.5952  -18.5952  -18.5952  -18.5952  -18.5952  -15.2390  -15.2390
  -15.2390  -15.2390  -15.2390  -15.2390  -15.1938  -15.1938  -15.1938  -15.1938  -15.1938  -15.1938
  -15.0625  -14.5391  -12.8220  -12.8220  -12.8220  -12.8220  -12.8220  -12.8220  -12.6448  -12.6448
  -12.6296  -12.6296  -12.1607  -12.1607  -12.1607  -12.1607  -12.1607  -12.1607   -8.6251   -8.6251
   -8.2689   -8.2689   -8.2689   -8.2689   -7.8965   -7.8965   -3.1781   -3.1781   -3.1781   -3.1781
   -3.1781   -3.1781   -2.8332   -2.8332   -2.8332   -2.8332   -2.8332   -2.8332    0.5290    0.5290
    0.5494    0.5494    0.8670    0.8670    0.8670    0.8670    0.8670    0.8670    1.0146    1.0146
    1.0146    1.0146    1.0146    1.0146    2.4504    2.5595    4.1162    4.1495    7.1267    7.1267
    7.1822    7.1822    7.1822    7.1822    7.2450    7.2450    8.4796    8.4796    8.4796    8.4796
    8.4796    8.4796    8.4881    8.4881    8.4881    8.4881    8.4881    8.4881   10.1369   10.1369
   10.1369   10.1369   10.1369   10.1369   10.1684   10.1684   10.1684   10.1684   10.1684   10.1684
   14.9981   14.9981   14.9981   14.9981
  19  1  -27.9061  -27.8602  -26.4905  -26.4486  -25.8442  -25.8442  -25.7660  -25.7660  -24.6348  -24.6348
         -24.5110  -24.5110  -24.0852  -23.9583  -22.5720  -22.5720  -22.4610  -22.4610  -20.8145  -20.8145
  -20.7495  -20.7495  -20.4258  -20.3296  -19.5193  -19.5193  -19.4600  -19.4600  -18.4172  -18.4172
  -18.4084  -18.4084  -17.6818  -17.6818  -17.6525  -17.6525  -16.7026  -16.6592  -15.9250  -15.9250
  -15.8836  -15.8836  -15.6674  -15.6238  -15.3422  -15.3422  -15.2955  -15.2955  -14.9259  -14.5622
  -14.5172  -14.3962  -13.8135  -13.2657  -13.2447  -13.2447  -13.2384  -13.2081  -12.9739  -12.9467
  -12.6006  -12.6006  -12.1096  -12.1096  -11.5993  -11.4383  -11.4383  -10.9822   -9.8607   -9.8607
   -9.3349   -9.3349   -7.0366   -7.0366   -6.7487   -6.7487   -5.2469   -4.8022   -4.3984   -4.3984
   -4.0115   -4.0115   -2.2647   -2.2647   -2.0111   -2.0111   -1.0140   -0.8075    0.6811    0.7884
    0.7965    0.8522    1.0643    1.1500    1.2992    1.3171    1.5034    1.5034    1.6573    1.6573
    1.7199    1.7199    1.8302    1.8302    2.0208    2.1336    4.4584    4.4969    5.4629    5.4629
    5.5076    5.5076    5.9239    5.9339    6.3583    6.3583    6.3839    6.3839    7.7365    7.7882
    8.0937    8.0937    8.1927    8.1927    8.7846    8.7846    8.7953    8.7953    9.7795    9.7795
    9.7933    9.7933   10.3383   10.3457   11.9221   11.9221   11.9457   11.9457   12.1494   12.2283
   14.6399   14.6399   14.6469   14.6469
  20  1  -27.3461  -27.3461  -27.3349  -27.3349  -26.0032  -26.0032  -25.9327  -25.9327  -23.6709  -23.6709
         -23.6709  -23.6708  -23.5350  -23.5350  -23.5350  -23.5350  -23.0996  -23.0590  -21.5279  -21.3975
  -20.2388  -20.2388  -20.2388  -20.2388  -20.1611  -20.1611  -20.1611  -20.1611  -17.1639  -17.1639
  -17.1639  -17.1639  -17.1390  -17.1390  -17.1390  -17.1390  -17.0898  -17.0898  -17.0772  -17.0772
  -15.8129  -15.7701  -15.6968  -15.6968  -15.6386  -15.6386  -14.8000  -14.8000  -14.7581  -14.7581
  -14.5081  -14.5081  -13.9551  -13.9550  -13.7335  -13.7335  -13.6937  -13.6937  -13.3843  -13.3843
  -12.7474  -12.7474  -11.1093  -11.1093  -11.1093  -11.1093  -10.7582  -10.4709  -10.4709  -10.4709
  -10.4709  -10.4139   -6.1954   -5.8829   -5.7110   -5.7110   -5.7110   -5.7110   -5.3621   -5.3620
   -5.3620   -5.3620   -1.9157   -1.9157   -1.7181   -1.7181    0.6094    0.7794    0.7987    0.7987
    0.9278    0.9278    1.0934    1.0934    1.1271    1.1271    3.2924    3.2925    3.2925    3.2925
    3.3067    3.3068    3.3201    3.3201    3.4160    3.4160    3.4160    3.4160    3.6635    3.6635
    3.7122    3.7122    3.9017    3.9017    3.9053    3.9053    5.6841    5.6841    5.7291    5.7291
    8.5562    8.5562    8.5562    8.5562    8.6183    8.6183    8.6183    8.6183    9.8109    9.8109
    9.8301    9.8301   11.0187   11.0250   12.9534   13.0789   13.5893   13.5893   13.5893   13.5893
   13.6100   13.6100   13.6100   13.6100
  21  1  -27.9061  -27.8602  -26.4905  -26.4486  -25.8442  -25.8442  -25.7660  -25.7660  -24.6348  -24.6348
         -24.5110  -24.5110  -24.0852  -23.9583  -22.5720  -22.5720  -22.4610  -22.4610  -20.8145  -20.8145
  -20.7495  -20.7495  -20.4258  -20.3296  -19.5193  -19.5193  -19.4600  -19.4600  -18.4172  -18.4172
  -18.4084  -18.4084  -17.6818  -17.6818  -17.6525  -17.6525  -16.7026  -16.6592  -15.9250  -15.9250
  -15.8836  -15.8836  -15.6674  -15.6238  -15.3422  -15.3422  -15.2955  -15.2955  -14.9259  -14.5622
  -14.5172  -14.3962  -13.8135  -13.2657  -13.2447  -13.2447  -13.2384  -13.2081  -12.9739  -12.9467
  -12.6006  -12.6006  -12.1096  -12.1096  -11.5993  -11.4383  -11.4383  -10.9822   -9.8607   -9.8607
   -9.3349   -9.3349   -7.0366   -7.0366   -6.7487   -6.7487   -5.2469   -4.8022   -4.3984   -4.3984
   -4.0115   -4.0115   -2.2647   -2.2647   -2.0111   -2.0111   -1.0140   -0.8075    0.6811    0.7884
    0.7965    0.8522    1.0643    1.1500    1.2992    1.3171    1.5034    1.5034    1.6573    1.6573
    1.7199    1.7199    1.8302    1.8302    2.0208    2.1336    4.4584    4.4969    5.4629    5.4629
    5.5076    5.5076    5.9239    5.9339    6.3583    6.3583    6.3839    6.3839    7.7365    7.7882
    8.0937    8.0937    8.1927    8.1927    8.7846    8.7846    8.7953    8.7953    9.7795    9.7795
    9.7933    9.7933   10.3383   10.3457   11.9221   11.9221   11.9457   11.9457   12.1494   12.2283
   14.6399   14.6399   14.6469   14.6469
  22  1  -27.9061  -27.8602  -26.4905  -26.4486  -25.8442  -25.8442  -25.7660  -25.7660  -24.6348  -24.6348
         -24.5110  -24.5110  -24.0852  -23.9583  -22.5720  -22.5720  -22.4610  -22.4610  -20.8145  -20.8145
  -20.7495  -20.7495  -20.4258  -20.3296  -19.5193  -19.5193  -19.4600  -19.4600  -18.4172  -18.4172
  -18.4084  -18.4084  -17.6818  -17.6818  -17.6525  -17.6525  -16.7026  -16.6592  -15.9250  -15.9250
  -15.8836  -15.8836  -15.6674  -15.6238  -15.3422  -15.3422  -15.2955  -15.2955  -14.9259  -14.5622
  -14.5172  -14.3962  -13.8135  -13.2657  -13.2447  -13.2447  -13.2384  -13.2081  -12.9739  -12.9467
  -12.6006  -12.6006  -12.1096  -12.1096  -11.5993  -11.4383  -11.4383  -10.9822   -9.8607   -9.8607
   -9.3349   -9.3349   -7.0366   -7.0366   -6.7487   -6.7487   -5.2469   -4.8022   -4.3984   -4.3984
   -4.0115   -4.0115   -2.2647   -2.2647   -2.0111   -2.0111   -1.0140   -0.8075    0.6811    0.7884
    0.7965    0.8522    1.0643    1.1500    1.2992    1.3171    1.5034    1.5034    1.6573    1.6573
    1.7199    1.7199    1.8302    1.8302    2.0208    2.1336    4.4584    4.4969    5.4629    5.4629
    5.5076    5.5076    5.9239    5.9339    6.3583    6.3583    6.3839    6.3839    7.7365    7.7882
    8.0937    8.0937    8.1927    8.1927    8.7846    8.7846    8.7953    8.7953    9.7795    9.7795
    9.7933    9.7933   10.3383   10.3457   11.9221   11.9221   11.9457   11.9457   12.1494   12.2283
   14.6399   14.6399   14.6469   14.6469
  23  1  -27.5310  -27.5085  -26.8235  -26.8235  -26.8017  -26.8017  -24.9241  -24.9241  -24.8053  -24.8053
         -23.7917  -23.6500  -23.3537  -23.3537  -23.2458  -23.2458  -22.6961  -22.6528  -21.2989  -21.1905
  -21.1057  -21.1057  -20.9859  -20.9859  -19.6170  -19.6032  -18.6185  -18.6185  -18.5988  -18.5988
  -17.8267  -17.8009  -17.3323  -17.3161  -16.6371  -16.6371  -16.5921  -16.5921  -16.2229  -16.2229
  -16.1855  -16.1855  -15.8356  -15.8356  -15.8043  -15.8043  -14.6518  -14.5207  -14.5207  -14.4741
  -14.4741  -14.2479  -14.2284  -14.1075  -14.0907  -14.0907  -13.5920  -13.5611  -13.5066  -13.5066
  -12.3726  -12.3726  -11.6864  -11.6863  -11.1958  -10.8997  -10.8997  -10.5090  -10.4146  -10.4146
  -10.2011   -9.8466   -6.5865   -6.4650   -6.0476   -6.0476   -5.6911   -5.6911   -5.5276   -5.2187
   -3.8290   -3.8290   -3.5518   -3.5518   -0.2994   -0.2994   -0.1401   -0.1401    1.1955    1.3132
    1.3658    1.3658    1.4379    1.4663    1.5278    1.5278    1.8518    1.8518    1.9042    1.9043
    2.1886    2.2121    3.2259    3.3524    3.4781    3.4781    3.5790    3.5790    3.8751    3.8751
    3.9042    3.9042    5.1211    5.1447    5.3683    5.4084    6.3344    6.3345    6.3810    6.3810
    6.8599    6.9836    7.3693    7.3693    7.3996    7.3996    9.4595    9.5406   10.2871   10.2872
   10.3234   10.3234   12.0409   12.0409   12.0467   12.0467   13.2245   13.2245   13.2948   13.2948
   13.7386   13.7387   14.1532   14.1862
  24  1  -27.5310  -27.5085  -26.8235  -26.8235  -26.8017  -26.8017  -24.9241  -24.9241  -24.8053  -24.8053
         -23.7917  -23.6500  -23.3537  -23.3537  -23.2458  -23.2458  -22.6961  -22.6528  -21.2989  -21.1905
  -21.1057  -21.1057  -20.9859  -20.9859  -19.6170  -19.6032  -18.6185  -18.6185  -18.5988  -18.5988
  -17.8267  -17.8009  -17.3323  -17.3161  -16.6371  -16.6371  -16.5921  -16.5921  -16.2229  -16.2229
  -16.1855  -16.1855  -15.8356  -15.8356  -15.8043  -15.8043  -14.6518  -14.5207  -14.5207  -14.4741
  -14.4741  -14.2479  -14.2284  -14.1075  -14.0907  -14.0907  -13.5920  -13.5611  -13.5066  -13.5066
  -12.3726  -12.3726  -11.6864  -11.6863  -11.1958  -10.8997  -10.8997  -10.5090  -10.4146  -10.4146
  -10.2011   -9.8466   -6.5865   -6.4650   -6.0476   -6.0476   -5.6911   -5.6911   -5.5276   -5.2187
   -3.8290   -3.8290   -3.5518   -3.5518   -0.2994   -0.2994   -0.1401   -0.1401    1.1955    1.3132
    1.3658    1.3658    1.4379    1.4663    1.5278    1.5278    1.8518    1.8518    1.9042    1.9043
    2.1886    2.2121    3.2259    3.3524    3.4781    3.4781    3.5790    3.5790    3.8751    3.8751
    3.9042    3.9042    5.1211    5.1447    5.3683    5.4084    6.3344    6.3345    6.3810    6.3810
    6.8599    6.9836    7.3693    7.3693    7.3996    7.3996    9.4595    9.5406   10.2871   10.2872
   10.3234   10.3234   12.0409   12.0409   12.0467   12.0467   13.2245   13.2245   13.2948   13.2948
   13.7386   13.7387   14.1532   14.1862
  25  1  -27.5310  -27.5085  -26.8235  -26.8235  -26.8017  -26.8017  -24.9241  -24.9241  -24.8053  -24.8053
         -23.7917  -23.6500  -23.3537  -23.3537  -23.2458  -23.2458  -22.6961  -22.6528  -21.2989  -21.1905
  -21.1057  -21.1057  -20.9859  -20.9859  -19.6170  -19.6032  -18.6185  -18.6185  -18.5988  -18.5988
  -17.8267  -17.8009  -17.3323  -17.3161  -16.6371  -16.6371  -16.5921  -16.5921  -16.2229  -16.2229
  -16.1855  -16.1855  -15.8356  -15.8356  -15.8043  -15.8043  -14.6518  -14.5207  -14.5207  -14.4741
  -14.4741  -14.2479  -14.2284  -14.1075  -14.0907  -14.0907  -13.5920  -13.5611  -13.5066  -13.5066
  -12.3726  -12.3726  -11.6864  -11.6863  -11.1958  -10.8997  -10.8997  -10.5090  -10.4146  -10.4146
  -10.2011   -9.8466   -6.5865   -6.4650   -6.0476   -6.0476   -5.6911   -5.6911   -5.5276   -5.2187
   -3.8290   -3.8290   -3.5518   -3.5518   -0.2994   -0.2994   -0.1401   -0.1401    1.1955    1.3132
    1.3658    1.3658    1.4379    1.4663    1.5278    1.5278    1.8518    1.8518    1.9042    1.9043
    2.1886    2.2121    3.2259    3.3524    3.4781    3.4781    3.5790    3.5790    3.8751    3.8751
    3.9042    3.9042    5.1211    5.1447    5.3683    5.4084    6.3344    6.3345    6.3810    6.3810
    6.8599    6.9836    7.3693    7.3693    7.3996    7.3996    9.4595    9.5406   10.2871   10.2872
   10.3234   10.3234   12.0409   12.0409   12.0467   12.0467   13.2245   13.2245   13.2948   13.2948
   13.7386   13.7387   14.1532   14.1862
  26  1  -27.3461  -27.3461  -27.3349  -27.3349  -26.0032  -26.0032  -25.9327  -25.9327  -23.6709  -23.6709
         -23.6709  -23.6708  -23.5350  -23.5350  -23.5350  -23.5350  -23.0996  -23.0590  -21.5279  -21.3975
  -20.2388  -20.2388  -20.2388  -20.2388  -20.1611  -20.1611  -20.1611  -20.1611  -17.1639  -17.1639
  -17.1639  -17.1639  -17.1390  -17.1390  -17.1390  -17.1390  -17.0898  -17.0898  -17.0772  -17.0772
  -15.8129  -15.7701  -15.6968  -15.6968  -15.6386  -15.6386  -14.8000  -14.8000  -14.7581  -14.7581
  -14.5081  -14.5081  -13.9551  -13.9550  -13.7335  -13.7335  -13.6937  -13.6937  -13.3843  -13.3843
  -12.7474  -12.7474  -11.1093  -11.1093  -11.1093  -11.1093  -10.7582  -10.4709  -10.4709  -10.4709
  -10.4709  -10.4139   -6.1954   -5.8829   -5.7110   -5.7110   -5.7110   -5.7110   -5.3621   -5.3620
   -5.3620   -5.3620   -1.9157   -1.9157   -1.7181   -1.7181    0.6094    0.7794    0.7987    0.7987
    0.9278    0.9278    1.0934    1.0934    1.1271    1.1271    3.2924    3.2925    3.2925    3.2925
    3.3067    3.3068    3.3201    3.3201    3.4160    3.4160    3.4160    3.4160    3.6635    3.6635
    3.7122    3.7122    3.9017    3.9017    3.9053    3.9053    5.6841    5.6841    5.7291    5.7291
    8.5562    8.5562    8.5562    8.5562    8.6183    8.6183    8.6183    8.6183    9.8109    9.8109
    9.8301    9.8301   11.0187   11.0250   12.9534   13.0789   13.5893   13.5893   13.5893   13.5893
   13.6100   13.6100   13.6100   13.6100
  27  1  -27.5310  -27.5085  -26.8235  -26.8235  -26.8017  -26.8017  -24.9241  -24.9241  -24.8053  -24.8053
         -23.7917  -23.6500  -23.3537  -23.3537  -23.2458  -23.2458  -22.6961  -22.6528  -21.2989  -21.1905
  -21.1057  -21.1057  -20.9859  -20.9859  -19.6170  -19.6032  -18.6185  -18.6185  -18.5988  -18.5988
  -17.8267  -17.8009  -17.3323  -17.3161  -16.6371  -16.6371  -16.5921  -16.5921  -16.2229  -16.2229
  -16.1855  -16.1855  -15.8356  -15.8356  -15.8043  -15.8043  -14.6518  -14.5207  -14.5207  -14.4741
  -14.4741  -14.2479  -14.2284  -14.1075  -14.0907  -14.0907  -13.5920  -13.5611  -13.5066  -13.5066
  -12.3726  -12.3726  -11.6864  -11.6863  -11.1958  -10.8997  -10.8997  -10.5090  -10.4146  -10.4146
  -10.2011   -9.8466   -6.5865   -6.4650   -6.0476   -6.0476   -5.6911   -5.6911   -5.5276   -5.2187
   -3.8290   -3.8290   -3.5518   -3.5518   -0.2994   -0.2994   -0.1401   -0.1401    1.1955    1.3132
    1.3658    1.3658    1.4379    1.4663    1.5278    1.5278    1.8518    1.8518    1.9042    1.9043
    2.1886    2.2121    3.2259    3.3524    3.4781    3.4781    3.5790    3.5790    3.8751    3.8751
    3.9042    3.9042    5.1211    5.1447    5.3683    5.4084    6.3344    6.3345    6.3810    6.3810
    6.8599    6.9836    7.3693    7.3693    7.3996    7.3996    9.4595    9.5406   10.2871   10.2872
   10.3234   10.3234   12.0409   12.0409   12.0467   12.0467   13.2245   13.2245   13.2948   13.2948
   13.7386   13.7387   14.1532   14.1862
  28  1  -27.3461  -27.3461  -27.3349  -27.3349  -26.0032  -26.0032  -25.9327  -25.9327  -23.6709  -23.6709
         -23.6709  -23.6708  -23.5350  -23.5350  -23.5350  -23.5350  -23.0996  -23.0590  -21.5279  -21.3975
  -20.2388  -20.2388  -20.2388  -20.2388  -20.1611  -20.1611  -20.1611  -20.1611  -17.1639  -17.1639
  -17.1639  -17.1639  -17.1390  -17.1390  -17.1390  -17.1390  -17.0898  -17.0898  -17.0772  -17.0772
  -15.8129  -15.7701  -15.6968  -15.6968  -15.6386  -15.6386  -14.8000  -14.8000  -14.7581  -14.7581
  -14.5081  -14.5081  -13.9551  -13.9550  -13.7335  -13.7335  -13.6937  -13.6937  -13.3843  -13.3843
  -12.7474  -12.7474  -11.1093  -11.1093  -11.1093  -11.1093  -10.7582  -10.4709  -10.4709  -10.4709
  -10.4709  -10.4139   -6.1954   -5.8829   -5.7110   -5.7110   -5.7110   -5.7110   -5.3621   -5.3620
   -5.3620   -5.3620   -1.9157   -1.9157   -1.7181   -1.7181    0.6094    0.7794    0.7987    0.7987
    0.9278    0.9278    1.0934    1.0934    1.1271    1.1271    3.2924    3.2925    3.2925    3.2925
    3.3067    3.3068    3.3201    3.3201    3.4160    3.4160    3.4160    3.4160    3.6635    3.6635
    3.7122    3.7122    3.9017    3.9017    3.9053    3.9053    5.6841    5.6841    5.7291    5.7291
    8.5562    8.5562    8.5562    8.5562    8.6183    8.6183    8.6183    8.6183    9.8109    9.8109
    9.8301    9.8301   11.0187   11.0250   12.9534   13.0789   13.5893   13.5893   13.5893   13.5893
   13.6100   13.6100   13.6100   13.6100
  29  1  -27.5312  -27.5312  -26.8235  -26.8235  -26.8234  -26.8234  -24.8716  -24.8716  -24.8716  -24.8716
         -23.7243  -23.7243  -23.3000  -23.3000  -23.3000  -23.3000  -22.6714  -22.6714  -21.2496  -21.2496
  -21.0497  -21.0497  -21.0497  -21.0497  -19.6094  -19.6094  -18.6090  -18.6090  -18.6090  -18.6090
  -17.8163  -17.8163  -17.3250  -17.3250  -16.6170  -16.6170  -16.6170  -16.6170  -16.2046  -16.2046
  -16.2046  -16.2046  -15.8211  -15.8211  -15.8211  -15.8211  -14.5012  -14.5012  -14.5012  -14.5012
  -14.3802  -14.3802  -14.2370  -14.2370  -13.8061  -13.8061  -13.8061  -13.8061  -13.5766  -13.5766
  -12.0517  -12.0517  -12.0517  -12.0517  -10.8698  -10.8698  -10.6542  -10.6542  -10.6542  -10.6542
  -10.0073  -10.0073   -6.5606   -6.5606   -5.9008   -5.9008   -5.9008   -5.9008   -5.3721   -5.3721
   -3.6902   -3.6902   -3.6902   -3.6902   -0.2214   -0.2214   -0.2214   -0.2214    1.2491    1.2491
    1.4517    1.4517    1.4517    1.4517    1.4753    1.4753    1.8979    1.8979    1.8979    1.8979
    2.2006    2.2006    3.2929    3.2929    3.5347    3.5347    3.5347    3.5347    3.8962    3.8962
    3.8962    3.8962    5.1339    5.1339    5.3886    5.3886    6.3695    6.3695    6.3695    6.3695
    6.9298    6.9298    7.3862    7.3862    7.3862    7.3862    9.4992    9.4992   10.3057   10.3057
   10.3058   10.3058   12.0444   12.0444   12.0445   12.0445   13.2597   13.2597   13.2597   13.2597
   13.7388   13.7388   14.1692   14.1692
  30  1  -27.8949  -27.8949  -26.4800  -26.4800  -25.8143  -25.8143  -25.8143  -25.8143  -24.5787  -24.5787
         -24.5787  -24.5787  -24.0253  -24.0253  -22.5161  -22.5161  -22.5161  -22.5161  -20.7819  -20.7819
  -20.7819  -20.7819  -20.3806  -20.3806  -19.4916  -19.4916  -19.4916  -19.4916  -18.4149  -18.4149
  -18.4149  -18.4149  -17.6691  -17.6691  -17.6691  -17.6691  -16.6839  -16.6839  -15.9050  -15.9050
  -15.9050  -15.9050  -15.6458  -15.6458  -15.3203  -15.3203  -15.3203  -15.3203  -14.6520  -14.6520
  -14.5399  -14.5399  -13.5244  -13.5244  -13.2521  -13.2521  -12.9603  -12.9603  -12.9419  -12.9419
  -12.9419  -12.9419  -11.7938  -11.7938  -11.7937  -11.7937  -11.3029  -11.3029   -9.5940   -9.5940
   -9.5940   -9.5940   -6.9052   -6.9052   -6.9052   -6.9052   -5.0437   -5.0437   -4.2122   -4.2122
   -4.2122   -4.2122   -2.1396   -2.1396   -2.1396   -2.1396   -0.9134   -0.9134    0.7730    0.7730
    0.8002    0.8002    1.1250    1.1250    1.3082    1.3082    1.5877    1.5877    1.5877    1.5877
    1.7880    1.7880    1.7880    1.7880    2.0765    2.0765    4.4786    4.4786    5.4874    5.4874
    5.4874    5.4874    5.9289    5.9289    6.3797    6.3797    6.3797    6.3797    7.7736    7.7736
    8.1430    8.1430    8.1430    8.1430    8.7945    8.7945    8.7946    8.7946    9.7909    9.7909
    9.7909    9.7909   10.3418   10.3418   11.9379   11.9379   11.9379   11.9379   12.1938   12.1938
   14.6434   14.6434   14.6434   14.6434
  31  1  -27.8949  -27.8949  -26.4800  -26.4800  -25.8143  -25.8143  -25.8143  -25.8143  -24.5787  -24.5787
         -24.5787  -24.5787  -24.0253  -24.0253  -22.5161  -22.5161  -22.5161  -22.5161  -20.7819  -20.7819
  -20.7819  -20.7819  -20.3806  -20.3806  -19.4916  -19.4916  -19.4916  -19.4916  -18.4149  -18.4149
  -18.4149  -18.4149  -17.6691  -17.6691  -17.6691  -17.6691  -16.6839  -16.6839  -15.9050  -15.9050
  -15.9050  -15.9050  -15.6458  -15.6458  -15.3203  -15.3203  -15.3203  -15.3203  -14.6520  -14.6520
  -14.5399  -14.5399  -13.5244  -13.5244  -13.2521  -13.2521  -12.9603  -12.9603  -12.9419  -12.9419
  -12.9419  -12.9419  -11.7938  -11.7938  -11.7937  -11.7937  -11.3029  -11.3029   -9.5940   -9.5940
   -9.5940   -9.5940   -6.9052   -6.9052   -6.9052   -6.9052   -5.0437   -5.0437   -4.2122   -4.2122
   -4.2122   -4.2122   -2.1396   -2.1396   -2.1396   -2.1396   -0.9134   -0.9134    0.7730    0.7730
    0.8002    0.8002    1.1250    1.1250    1.3082    1.3082    1.5877    1.5877    1.5877    1.5877
    1.7880    1.7880    1.7880    1.7880    2.0765    2.0765    4.4786    4.4786    5.4874    5.4874
    5.4874    5.4874    5.9289    5.9289    6.3797    6.3797    6.3797    6.3797    7.7736    7.7736
    8.1430    8.1430    8.1430    8.1430    8.7945    8.7945    8.7946    8.7946    9.7909    9.7909
    9.7909    9.7909   10.3418   10.3418   11.9379   11.9379   11.9379   11.9379   12.1938   12.1938
   14.6434   14.6434   14.6434   14.6434
  32  1  -27.5312  -27.5312  -26.8235  -26.8235  -26.8234  -26.8234  -24.8716  -24.8716  -24.8716  -24.8716
         -23.7243  -23.7243  -23.3000  -23.3000  -23.3000  -23.3000  -22.6714  -22.6714  -21.2496  -21.2496
  -21.0497  -21.0497  -21.0497  -21.0497  -19.6094  -19.6094  -18.6090  -18.6090  -18.6090  -18.6090
  -17.8163  -17.8163  -17.3250  -17.3250  -16.6170  -16.6170  -16.6170  -16.6170  -16.2046  -16.2046
  -16.2046  -16.2046  -15.8211  -15.8211  -15.8211  -15.8211  -14.5012  -14.5012  -14.5012  -14.5012
  -14.3802  -14.3802  -14.2370  -14.2370  -13.8061  -13.8061  -13.8061  -13.8061  -13.5766  -13.5766
  -12.0517  -12.0517  -12.0517  -12.0517  -10.8698  -10.8698  -10.6542  -10.6542  -10.6542  -10.6542
  -10.0073  -10.0073   -6.5606   -6.5606   -5.9008   -5.9008   -5.9008   -5.9008   -5.3721   -5.3721
   -3.6902   -3.6902   -3.6902   -3.6902   -0.2214   -0.2214   -0.2214   -0.2214    1.2491    1.2491
    1.4517    1.4517    1.4517    1.4517    1.4753    1.4753    1.8979    1.8979    1.8979    1.8979
    2.2006    2.2006    3.2929    3.2929    3.5347    3.5347    3.5347    3.5347    3.8962    3.8962
    3.8962    3.8962    5.1339    5.1339    5.3886    5.3886    6.3695    6.3695    6.3695    6.3695
    6.9298    6.9298    7.3862    7.3862    7.3862    7.3862    9.4992    9.4992   10.3057   10.3057
   10.3058   10.3058   12.0444   12.0444   12.0445   12.0445   13.2597   13.2597   13.2597   13.2597
   13.7388   13.7388   14.1692   14.1692
  33  1  -27.8949  -27.8949  -26.4800  -26.4800  -25.8143  -25.8143  -25.8143  -25.8143  -24.5787  -24.5787
         -24.5787  -24.5787  -24.0253  -24.0253  -22.5161  -22.5161  -22.5161  -22.5161  -20.7819  -20.7819
  -20.7819  -20.7819  -20.3806  -20.3806  -19.4916  -19.4916  -19.4916  -19.4916  -18.4149  -18.4149
  -18.4149  -18.4149  -17.6691  -17.6691  -17.6691  -17.6691  -16.6839  -16.6839  -15.9050  -15.9050
  -15.9050  -15.9050  -15.6458  -15.6458  -15.3203  -15.3203  -15.3203  -15.3203  -14.6520  -14.6520
  -14.5399  -14.5399  -13.5244  -13.5244  -13.2521  -13.2521  -12.9603  -12.9603  -12.9419  -12.9419
  -12.9419  -12.9419  -11.7938  -11.7938  -11.7937  -11.7937  -11.3029  -11.3029   -9.5940   -9.5940
   -9.5940   -9.5940   -6.9052   -6.9052   -6.9052   -6.9052   -5.0437   -5.0437   -4.2122   -4.2122
   -4.2122   -4.2122   -2.1396   -2.1396   -2.1396   -2.1396   -0.9134   -0.9134    0.7730    0.7730
    0.8002    0.8002    1.1250    1.1250    1.3082    1.3082    1.5877    1.5877    1.5877    1.5877
    1.7880    1.7880    1.7880    1.7880    2.0765    2.0765    4.4786    4.4786    5.4874    5.4874
    5.4874    5.4874    5.9289    5.9289    6.3797    6.3797    6.3797    6.3797    7.7736    7.7736
    8.1430    8.1430    8.1430    8.1430    8.7945    8.7945    8.7946    8.7946    9.7909    9.7909
    9.7909    9.7909   10.3418   10.3418   11.9379   11.9379   11.9379   11.9379   12.1938   12.1938
   14.6434   14.6434   14.6434   14.6434
  34  1  -28.0790  -28.0790  -25.3361  -25.3361  -25.3361  -25.3361  -25.3361  -25.3361  -25.3361  -25.3361
         -25.3361  -25.3361  -25.3361  -25.3361  -21.4998  -21.4998  -21.4998  -21.4998  -21.4874  -21.4874
  -21.4874  -21.4874  -19.0004  -19.0004  -19.0004  -19.0004  -18.6177  -18.6177  -18.6177  -18.6177
  -18.6177  -18.6177  -18.6177  -18.6177  -18.6177  -18.6177  -18.6177  -18.6177  -15.2166  -15.2166
  -15.2166  -15.2166  -15.2166  -15.2166  -15.2166  -15.2166  -15.2166  -15.2166  -15.2166  -15.2166
  -14.7871  -14.7871  -12.6371  -12.6371  -12.6371  -12.6371  -12.5125  -12.5125  -12.5125  -12.5125
  -12.5125  -12.5125  -12.5125  -12.5125  -12.5125  -12.5125  -12.5125  -12.5125   -8.2731   -8.2731
   -8.2731   -8.2731   -8.2593   -8.2593   -8.2593   -8.2593   -3.0106   -3.0106   -3.0106   -3.0106
   -3.0106   -3.0106   -3.0106   -3.0106   -3.0106   -3.0106   -3.0106   -3.0106    0.5392    0.5392
    0.5392    0.5392    0.9516    0.9516    0.9516    0.9516    0.9516    0.9516    0.9516    0.9516
    0.9516    0.9516    0.9516    0.9516    2.5036    2.5036    4.1341    4.1341    7.1828    7.1828
    7.1828    7.1828    7.1852    7.1852    7.1853    7.1853    8.4838    8.4838    8.4838    8.4838
    8.4838    8.4838    8.4838    8.4838    8.4838    8.4838    8.4838    8.4838   10.1649   10.1649
   10.1649   10.1649   10.1649   10.1649   10.1649   10.1649   10.1649   10.1649   10.1649   10.1649
   14.9983   14.9983   14.9983   14.9983
  35  1  -27.8949  -27.8949  -26.4800  -26.4800  -25.8143  -25.8143  -25.8143  -25.8143  -24.5787  -24.5787
         -24.5787  -24.5787  -24.0253  -24.0253  -22.5161  -22.5161  -22.5161  -22.5161  -20.7819  -20.7819
  -20.7819  -20.7819  -20.3806  -20.3806  -19.4916  -19.4916  -19.4916  -19.4916  -18.4149  -18.4149
  -18.4149  -18.4149  -17.6691  -17.6691  -17.6691  -17.6691  -16.6839  -16.6839  -15.9050  -15.9050
  -15.9050  -15.9050  -15.6458  -15.6458  -15.3203  -15.3203  -15.3203  -15.3203  -14.6520  -14.6520
  -14.5399  -14.5399  -13.5244  -13.5244  -13.2521  -13.2521  -12.9603  -12.9603  -12.9419  -12.9419
  -12.9419  -12.9419  -11.7938  -11.7938  -11.7937  -11.7937  -11.3029  -11.3029   -9.5940   -9.5940
   -9.5940   -9.5940   -6.9052   -6.9052   -6.9052   -6.9052   -5.0437   -5.0437   -4.2122   -4.2122
   -4.2122   -4.2122   -2.1396   -2.1396   -2.1396   -2.1396   -0.9134   -0.9134    0.7730    0.7730
    0.8002    0.8002    1.1250    1.1250    1.3082    1.3082    1.5877    1.5877    1.5877    1.5877
    1.7880    1.7880    1.7880    1.7880    2.0765    2.0765    4.4786    4.4786    5.4874    5.4874
    5.4874    5.4874    5.9289    5.9289    6.3797    6.3797    6.3797    6.3797    7.7736    7.7736
    8.1430    8.1430    8.1430    8.1430    8.7945    8.7945    8.7946    8.7946    9.7909    9.7909
    9.7909    9.7909   10.3418   10.3418   11.9379   11.9379   11.9379   11.9379   12.1938   12.1938
   14.6434   14.6434   14.6434   14.6434
  36  1  -27.3518  -27.3518  -27.3518  -27.3518  -25.9775  -25.9775  -25.9775  -25.9775  -23.6056  -23.6056
         -23.6056  -23.6056  -23.6056  -23.6056  -23.6056  -23.6056  -23.0764  -23.0764  -21.4697  -21.4697
  -20.2010  -20.2010  -20.2010  -20.2010  -20.2010  -20.2010  -20.2010  -20.2010  -17.1526  -17.1526
  -17.1526  -17.1526  -17.1526  -17.1526  -17.1526  -17.1526  -17.0834  -17.0834  -17.0834  -17.0834
  -15.7918  -15.7918  -15.6718  -15.6718  -15.6718  -15.6718  -14.7825  -14.7825  -14.7825  -14.7825
  -14.2313  -14.2313  -14.2313  -14.2313  -13.7137  -13.7137  -13.7137  -13.7137  -13.0838  -13.0838
  -13.0838  -13.0838  -10.8022  -10.8022  -10.8022  -10.8022  -10.8022  -10.8022  -10.8022  -10.8022
  -10.5724  -10.5724   -6.0854   -6.0854   -5.5449   -5.5449   -5.5449   -5.5449   -5.5449   -5.5449
   -5.5449   -5.5449   -1.8170   -1.8170   -1.8170   -1.8170    0.6995    0.6995    0.8567    0.8567
    0.8567    0.8567    1.1342    1.1342    1.1342    1.1342    3.3135    3.3135    3.3135    3.3135
    3.3585    3.3585    3.3586    3.3586    3.3586    3.3586    3.3586    3.3586    3.6923    3.6923
    3.6923    3.6923    3.9255    3.9255    3.9255    3.9255    5.7107    5.7107    5.7107    5.7107
    8.5904    8.5904    8.5904    8.5904    8.5904    8.5904    8.5904    8.5904    9.8205    9.8205
    9.8205    9.8205   11.0216   11.0216   13.0158   13.0158   13.6000   13.6000   13.6000   13.6000
   13.6000   13.6000   13.6000   13.6000
  37  1  -27.8949  -27.8949  -26.4800  -26.4800  -25.8143  -25.8143  -25.8143  -25.8143  -24.5787  -24.5787
         -24.5787  -24.5787  -24.0253  -24.0253  -22.5161  -22.5161  -22.5161  -22.5161  -20.7819  -20.7819
  -20.7819  -20.7819  -20.3806  -20.3806  -19.4916  -19.4916  -19.4916  -19.4916  -18.4149  -18.4149
  -18.4149  -18.4149  -17.6691  -17.6691  -17.6691  -17.6691  -16.6839  -16.6839  -15.9050  -15.9050
  -15.9050  -15.9050  -15.6458  -15.6458  -15.3203  -15.3203  -15.3203  -15.3203  -14.6520  -14.6520
  -14.5399  -14.5399  -13.5244  -13.5244  -13.2521  -13.2521  -12.9603  -12.9603  -12.9419  -12.9419
  -12.9419  -12.9419  -11.7938  -11.7938  -11.7937  -11.7937  -11.3029  -11.3029   -9.5940   -9.5940
   -9.5940   -9.5940   -6.9052   -6.9052   -6.9052   -6.9052   -5.0437   -5.0437   -4.2122   -4.2122
   -4.2122   -4.2122   -2.1396   -2.1396   -2.1396   -2.1396   -0.9134   -0.9134    0.7730    0.7730
    0.8002    0.8002    1.1250    1.1250    1.3082    1.3082    1.5877    1.5877    1.5877    1.5877
    1.7880    1.7880    1.7880    1.7880    2.0765    2.0765    4.4786    4.4786    5.4874    5.4874
    5.4874    5.4874    5.9289    5.9289    6.3797    6.3797    6.3797    6.3797    7.7736    7.7736
    8.1430    8.1430    8.1430    8.1430    8.7945    8.7945    8.7946    8.7946    9.7909    9.7909
    9.7909    9.7909   10.3418   10.3418   11.9379   11.9379   11.9379   11.9379   12.1938   12.1938
   14.6434   14.6434   14.6434   14.6434
  38  1  -27.8949  -27.8949  -26.4800  -26.4800  -25.8143  -25.8143  -25.8143  -25.8143  -24.5787  -24.5787
         -24.5787  -24.5787  -24.0253  -24.0253  -22.5161  -22.5161  -22.5161  -22.5161  -20.7819  -20.7819
  -20.7819  -20.7819  -20.3806  -20.3806  -19.4916  -19.4916  -19.4916  -19.4916  -18.4149  -18.4149
  -18.4149  -18.4149  -17.6691  -17.6691  -17.6691  -17.6691  -16.6839  -16.6839  -15.9050  -15.9050
  -15.9050  -15.9050  -15.6458  -15.6458  -15.3203  -15.3203  -15.3203  -15.3203  -14.6520  -14.6520
  -14.5399  -14.5399  -13.5244  -13.5244  -13.2521  -13.2521  -12.9603  -12.9603  -12.9419  -12.9419
  -12.9419  -12.9419  -11.7938  -11.7938  -11.7937  -11.7937  -11.3029  -11.3029   -9.5940   -9.5940
   -9.5940   -9.5940   -6.9052   -6.9052   -6.9052   -6.9052   -5.0437   -5.0437   -4.2122   -4.2122
   -4.2122   -4.2122   -2.1396   -2.1396   -2.1396   -2.1396   -0.9134   -0.9134    0.7730    0.7730
    0.8002    0.8002    1.1250    1.1250    1.3082    1.3082    1.5877    1.5877    1.5877    1.5877
    1.7880    1.7880    1.7880    1.7880    2.0765    2.0765    4.4786    4.4786    5.4874    5.4874
    5.4874    5.4874    5.9289    5.9289    6.3797    6.3797    6.3797    6.3797    7.7736    7.7736
    8.1430    8.1430    8.1430    8.1430    8.7945    8.7945    8.7946    8.7946    9.7909    9.7909
    9.7909    9.7909   10.3418   10.3418   11.9379   11.9379   11.9379   11.9379   12.1938   12.1938
   14.6434   14.6434   14.6434   14.6434
  39  1  -27.5312  -27.5312  -26.8235  -26.8235  -26.8234  -26.8234  -24.8716  -24.8716  -24.8716  -24.8716
         -23.7243  -23.7243  -23.3000  -23.3000  -23.3000  -23.3000  -22.6714  -22.6714  -21.2496  -21.2496
  -21.0497  -21.0497  -21.0497  -21.0497  -19.6094  -19.6094  -18.6090  -18.6090  -18.6090  -18.6090
  -17.8163  -17.8163  -17.3250  -17.3250  -16.6170  -16.6170  -16.6170  -16.6170  -16.2046  -16.2046
  -16.2046  -16.2046  -15.8211  -15.8211  -15.8211  -15.8211  -14.5012  -14.5012  -14.5012  -14.5012
  -14.3802  -14.3802  -14.2370  -14.2370  -13.8061  -13.8061  -13.8061  -13.8061  -13.5766  -13.5766
  -12.0517  -12.0517  -12.0517  -12.0517  -10.8698  -10.8698  -10.6542  -10.6542  -10.6542  -10.6542
  -10.0073  -10.0073   -6.5606   -6.5606   -5.9008   -5.9008   -5.9008   -5.9008   -5.3721   -5.3721
   -3.6902   -3.6902   -3.6902   -3.6902   -0.2214   -0.2214   -0.2214   -0.2214    1.2491    1.2491
    1.4517    1.4517    1.4517    1.4517    1.4753    1.4753    1.8979    1.8979    1.8979    1.8979
    2.2006    2.2006    3.2929    3.2929    3.5347    3.5347    3.5347    3.5347    3.8962    3.8962
    3.8962    3.8962    5.1339    5.1339    5.3886    5.3886    6.3695    6.3695    6.3695    6.3695
    6.9298    6.9298    7.3862    7.3862    7.3862    7.3862    9.4992    9.4992   10.3057   10.3057
   10.3058   10.3058   12.0444   12.0444   12.0445   12.0445   13.2597   13.2597   13.2597   13.2597
   13.7388   13.7388   14.1692   14.1692
  40  1  -27.5312  -27.5312  -26.8235  -26.8235  -26.8234  -26.8234  -24.8716  -24.8716  -24.8716  -24.8716
         -23.7243  -23.7243  -23.3000  -23.3000  -23.3000  -23.3000  -22.6714  -22.6714  -21.2496  -21.2496
  -21.0497  -21.0497  -21.0497  -21.0497  -19.6094  -19.6094  -18.6090  -18.6090  -18.6090  -18.6090
  -17.8163  -17.8163  -17.3250  -17.3250  -16.6170  -16.6170  -16.6170  -16.6170  -16.2046  -16.2046
  -16.2046  -16.2046  -15.8211  -15.8211  -15.8211  -15.8211  -14.5012  -14.5012  -14.5012  -14.5012
  -14.3802  -14.3802  -14.2370  -14.2370  -13.8061  -13.8061  -13.8061  -13.8061  -13.5766  -13.5766
  -12.0517  -12.0517  -12.0517  -12.0517  -10.8698  -10.8698  -10.6542  -10.6542  -10.6542  -10.6542
  -10.0073  -10.0073   -6.5606   -6.5606   -5.9008   -5.9008   -5.9008   -5.9008   -5.3721   -5.3721
   -3.6902   -3.6902   -3.6902   -3.6902   -0.2214   -0.2214   -0.2214   -0.2214    1.2491    1.2491
    1.4517    1.4517    1.4517    1.4517    1.4753    1.4753    1.8979    1.8979    1.8979    1.8979
    2.2006    2.2006    3.2929    3.2929    3.5347    3.5347    3.5347    3.5347    3.8962    3.8962
    3.8962    3.8962    5.1339    5.1339    5.3886    5.3886    6.3695    6.3695    6.3695    6.3695
    6.9298    6.9298    7.3862    7.3862    7.3862    7.3862    9.4992    9.4992   10.3057   10.3057
   10.3058   10.3058   12.0444   12.0444   12.0445   12.0445   13.2597   13.2597   13.2597   13.2597
   13.7388   13.7388   14.1692   14.1692
  41  1  -27.5312  -27.5312  -26.8235  -26.8235  -26.8234  -26.8234  -24.8716  -24.8716  -24.8716  -24.8716
         -23.7243  -23.7243  -23.3000  -23.3000  -23.3000  -23.3000  -22.6714  -22.6714  -21.2496  -21.2496
  -21.0497  -21.0497  -21.0497  -21.0497  -19.6094  -19.6094  -18.6090  -18.6090  -18.6090  -18.6090
  -17.8163  -17.8163  -17.3250  -17.3250  -16.6170  -16.6170  -16.6170  -16.6170  -16.2046  -16.2046
  -16.2046  -16.2046  -15.8211  -15.8211  -15.8211  -15.8211  -14.5012  -14.5012  -14.5012  -14.5012
  -14.3802  -14.3802  -14.2370  -14.2370  -13.8061  -13.8061  -13.8061  -13.8061  -13.5766  -13.5766
  -12.0517  -12.0517  -12.0517  -12.0517  -10.8698  -10.8698  -10.6542  -10.6542  -10.6542  -10.6542
  -10.0073  -10.0073   -6.5606   -6.5606   -5.9008   -5.9008   -5.9008   -5.9008   -5.3721   -5.3721
   -3.6902   -3.6902   -3.6902   -3.6902   -0.2214   -0.2214   -0.2214   -0.2214    1.2491    1.2491
    1.4517    1.4517    1.4517    1.4517    1.4753    1.4753    1.8979    1.8979    1.8979    1.8979
    2.2006    2.2006    3.2929    3.2929    3.5347    3.5347    3.5347    3.5347    3.8962    3.8962
    3.8962    3.8962    5.1339    5.1339    5.3886    5.3886    6.3695    6.3695    6.3695    6.3695
    6.9298    6.9298    7.3862    7.3862    7.3862    7.3862    9.4992    9.4992   10.3057   10.3057
   10.3058   10.3058   12.0444   12.0444   12.0445   12.0445   13.2597   13.2597   13.2597   13.2597
   13.7388   13.7388   14.1692   14.1692
  42  1  -27.3518  -27.3518  -27.3518  -27.3518  -25.9775  -25.9775  -25.9775  -25.9775  -23.6056  -23.6056
         -23.6056  -23.6056  -23.6056  -23.6056  -23.6056  -23.6056  -23.0764  -23.0764  -21.4697  -21.4697
  -20.2010  -20.2010  -20.2010  -20.2010  -20.2010  -20.2010  -20.2010  -20.2010  -17.1526  -17.1526
  -17.1526  -17.1526  -17.1526  -17.1526  -17.1526  -17.1526  -17.0834  -17.0834  -17.0834  -17.0834
  -15.7918  -15.7918  -15.6718  -15.6718  -15.6718  -15.6718  -14.7825  -14.7825  -14.7825  -14.7825
  -14.2313  -14.2313  -14.2313  -14.2313  -13.7137  -13.7137  -13.7137  -13.7137  -13.0838  -13.0838
  -13.0838  -13.0838  -10.8022  -10.8022  -10.8022  -10.8022  -10.8022  -10.8022  -10.8022  -10.8022
  -10.5724  -10.5724   -6.0854   -6.0854   -5.5449   -5.5449   -5.5449   -5.5449   -5.5449   -5.5449
   -5.5449   -5.5449   -1.8170   -1.8170   -1.8170   -1.8170    0.6995    0.6995    0.8567    0.8567
    0.8567    0.8567    1.1342    1.1342    1.1342    1.1342    3.3135    3.3135    3.3135    3.3135
    3.3585    3.3585    3.3586    3.3586    3.3586    3.3586    3.3586    3.3586    3.6923    3.6923
    3.6923    3.6923    3.9255    3.9255    3.9255    3.9255    5.7107    5.7107    5.7107    5.7107
    8.5904    8.5904    8.5904    8.5904    8.5904    8.5904    8.5904    8.5904    9.8205    9.8205
    9.8205    9.8205   11.0216   11.0216   13.0158   13.0158   13.6000   13.6000   13.6000   13.6000
   13.6000   13.6000   13.6000   13.6000
  43  1  -27.5312  -27.5312  -26.8235  -26.8235  -26.8234  -26.8234  -24.8716  -24.8716  -24.8716  -24.8716
         -23.7243  -23.7243  -23.3000  -23.3000  -23.3000  -23.3000  -22.6714  -22.6714  -21.2496  -21.2496
  -21.0497  -21.0497  -21.0497  -21.0497  -19.6094  -19.6094  -18.6090  -18.6090  -18.6090  -18.6090
  -17.8163  -17.8163  -17.3250  -17.3250  -16.6170  -16.6170  -16.6170  -16.6170  -16.2046  -16.2046
  -16.2046  -16.2046  -15.8211  -15.8211  -15.8211  -15.8211  -14.5012  -14.5012  -14.5012  -14.5012
  -14.3802  -14.3802  -14.2370  -14.2370  -13.8061  -13.8061  -13.8061  -13.8061  -13.5766  -13.5766
  -12.0517  -12.0517  -12.0517  -12.0517  -10.8698  -10.8698  -10.6542  -10.6542  -10.6542  -10.6542
  -10.0073  -10.0073   -6.5606   -6.5606   -5.9008   -5.9008   -5.9008   -5.9008   -5.3721   -5.3721
   -3.6902   -3.6902   -3.6902   -3.6902   -0.2214   -0.2214   -0.2214   -0.2214    1.2491    1.2491
    1.4517    1.4517    1.4517    1.4517    1.4753    1.4753    1.8979    1.8979    1.8979    1.8979
    2.2006    2.2006    3.2929    3.2929    3.5347    3.5347    3.5347    3.5347    3.8962    3.8962
    3.8962    3.8962    5.1339    5.1339    5.3886    5.3886    6.3695    6.3695    6.3695    6.3695
    6.9298    6.9298    7.3862    7.3862    7.3862    7.3862    9.4992    9.4992   10.3057   10.3057
   10.3058   10.3058   12.0444   12.0444   12.0445   12.0445   13.2597   13.2597   13.2597   13.2597
   13.7388   13.7388   14.1692   14.1692
  44  1  -27.3518  -27.3518  -27.3518  -27.3518  -25.9775  -25.9775  -25.9775  -25.9775  -23.6056  -23.6056
         -23.6056  -23.6056  -23.6056  -23.6056  -23.6056  -23.6056  -23.0764  -23.0764  -21.4697  -21.4697
  -20.2010  -20.2010  -20.2010  -20.2010  -20.2010  -20.2010  -20.2010  -20.2010  -17.1526  -17.1526
  -17.1526  -17.1526  -17.1526  -17.1526  -17.1526  -17.1526  -17.0834  -17.0834  -17.0834  -17.0834
  -15.7918  -15.7918  -15.6718  -15.6718  -15.6718  -15.6718  -14.7825  -14.7825  -14.7825  -14.7825
  -14.2313  -14.2313  -14.2313  -14.2313  -13.7137  -13.7137  -13.7137  -13.7137  -13.0838  -13.0838
  -13.0838  -13.0838  -10.8022  -10.8022  -10.8022  -10.8022  -10.8022  -10.8022  -10.8022  -10.8022
  -10.5724  -10.5724   -6.0854   -6.0854   -5.5449   -5.5449   -5.5449   -5.5449   -5.5449   -5.5449
   -5.5449   -5.5449   -1.8170   -1.8170   -1.8170   -1.8170    0.6995    0.6995    0.8567    0.8567
    0.8567    0.8567    1.1342    1.1342    1.1342    1.1342    3.3135    3.3135    3.3135    3.3135
    3.3585    3.3585    3.3586    3.3586    3.3586    3.3586    3.3586    3.3586    3.6923    3.6923
    3.6923    3.6923    3.9255    3.9255    3.9255    3.9255    5.7107    5.7107    5.7107    5.7107
    8.5904    8.5904    8.5904    8.5904    8.5904    8.5904    8.5904    8.5904    9.8205    9.8205
    9.8205    9.8205   11.0216   11.0216   13.0158   13.0158   13.6000   13.6000   13.6000   13.6000
   13.6000   13.6000   13.6000   13.6000
siesta: Fermi energy =      -8.269769 eV

siesta: Program's energy decomposition (eV):
siesta: Ebs     =     -2564.368059
siesta: Eions   =      9434.507561
siesta: Ena     =      2268.906393
siesta: Ekin    =      3617.066680
siesta: Enl     =      -339.281303
siesta: Eso     =         0.000000
siesta: Edftu   =         0.000000
siesta: DEna    =         4.119526
siesta: DUscf   =         2.518380
siesta: DUext   =         0.000000
siesta: Exc     =     -1630.914096
siesta: eta*DQ  =         0.000000
siesta: Emadel  =         0.000000
siesta: Emeta   =         0.000000
siesta: Emolmec =        -4.309568
siesta: Ekinion =         0.000000
siesta: Eharris =     -5516.401563
siesta: Etot    =     -5516.401549
siesta: FreeEng =     -5516.412630

siesta: Final energy (eV):
siesta:  Band Struct. =   -2564.368059
siesta:       Kinetic =    3617.066680
siesta:       Hartree =    1350.303777
siesta:       Edftu   =       0.000000
siesta:       Eso     =       0.000000
siesta:    Ext. field =       0.000000
siesta:   Exch.-corr. =   -1630.914096
siesta:  Ion-electron =   -6750.457671
siesta:       Ion-ion =   -2098.090670
siesta:       Ekinion =       0.000000
siesta:         Total =   -5516.401549
siesta:         Fermi =      -8.269769

siesta: Stress tensor (static) (eV/Ang**3):
siesta:    -0.238429    0.000000    0.000000
siesta:     0.000000   -0.238429    0.000000
siesta:    -0.000000    0.000000    0.153373

siesta: Cell volume =        320.747412 Ang**3

siesta: Pressure (static):
siesta:                Solid            Molecule  Units
siesta:           0.00117439          0.00117442  Ry/Bohr**3
siesta:           0.10782851          0.10783117  eV/Ang**3
siesta:         172.76217863        172.76644098  kBar
(Free)E+ p_basis*V_orbitals  =       -5498.109584
(Free)Eharris+ p_basis*V_orbitals  =       -5498.109598

cite: Please see "graphite_scf.bib" for an exhaustive BiBTeX file.
cite: Please clearly indicate Siesta version in published work: 4.1.5
cite: This calculation has made use of the following articles
cite: which are encouraged to be cited in a published work.
        Primary SIESTA paper
          DOI: www.doi.org/10.1088/0953-8984/14/11/302

>> End of run:   1-NOV-2022  14:29:43
Job completed
