Siesta Version  : 4.1.5
Architecture    : x86_64-unknown-linux-gnu--unknown
Compiler version: GNU Fortran (GCC) 11.3.0
Compiler flags  : mpif90 -g -O2 -fallow-argument-mismatch
PP flags        : -DMPI -DFC_HAVE_FLUSH -DFC_HAVE_ABORT
Libraries       :  -I/global/software/sl-7.x86_64/modules/intel/2020.4.304/mkl/include  /globall/software/sl-7.x86_64/modules/intel/2020.4.304/mkl/lib/intel64/libmkl_scalapack_lp64.a -Wl,--start-group /global/software/sl-7.x86_64/modules/intel/2020.4.304/mkl/lib/intel64/libmkl_intel_lp64.a /global/software/sl-7.x86_64/modules/intel/2020.4.304/mkl/lib/intel64/libmkl_sequential.a /global/software/sl-7.x86_64/modules/intel/2020.4.304/mkl/lib/intel64/libmkl_core.a /global/software/sl-7.x86_64/modules/intel/2020.4.304/mkl/lib/intel64/libmkl_blacs_openmpi_lp64.a -Wl,--end-group -lpthread -lm -ldl
PARALLEL version

* Running on 20 nodes in parallel
>> Start of run:   1-NOV-2022  14:26:37

                           ***********************       
                           *  WELCOME TO SIESTA  *       
                           ***********************       

reinit: Reading from standard input
reinit: Dumped input in INPUT_TMP.82864
************************** Dump of input data file ****************************
SystemName graphite_scf
SystemLabel graphite_scf
NumberOfAtoms   36
NumberOfSpecies 1
%block ChemicalSpeciesLabel
1  6   C-gga
%endblock ChemicalSpeciesLabel
PAO.BasisSize  SZ
PAO.EnergyShift  10 meV
%block PS.Lmax
C-gga   2
%endblock PS.Lmax
LatticeConstant 1.000000 Ang
%block LatticeVectors
	7.3920000000	0.0000000000	0.0000000000
	-3.6960000000	6.4016597848	0.0000000000
	0.0000000000	0.0000000000	3.8252700000
%endblock LatticeVectors
AtomicCoordinatesFormat Ang
%block AtomicCoordinatesAndAtomicSpecies
	0.00000000	0.00000000	0.95631750	1
	0.00000000	0.00000000	2.86895250	1
	-1.23200000	2.13388659	0.95631750	1
	-2.46400000	4.26777319	2.86895250	1
	2.46400000	4.26777319	0.95631750	1
	1.23200000	2.13388659	2.86895250	1
	2.46400000	0.00000000	0.95631750	1
	4.92800000	0.00000000	2.86895250	1
	2.46400000	0.00000000	2.86895250	1
	4.92800000	0.00000000	0.95631750	1
	2.46400000	4.26777319	2.86895250	1
	1.23200000	2.13388659	0.95631750	1
	-1.23200000	2.13388659	2.86895250	1
	-2.46400000	4.26777319	0.95631750	1
	0.00000000	4.26777319	0.95631750	1
	3.69600000	2.13388659	2.86895250	1
	3.69600000	2.13388659	0.95631750	1
	0.00000000	4.26777319	2.86895250	1
	0.00000000	1.42258964	0.95631750	1
	3.69600000	4.97907014	2.86895250	1
	2.46400123	5.69036496	0.95631750	1
	1.23199877	0.71129482	2.86895250	1
	-2.46400123	5.69036496	0.95631750	1
	6.16000123	0.71129482	2.86895250	1
	-1.23200000	3.55647624	0.95631750	1
	4.92800000	2.84518355	2.86895250	1
	1.23200123	3.55647837	0.95631750	1
	2.46399877	2.84518142	2.86895250	1
	-0.00000123	5.69036496	0.95631750	1
	3.69600123	0.71129482	2.86895250	1
	2.46400000	1.42258964	0.95631750	1
	1.23200000	4.97907014	2.86895250	1
	4.92800123	1.42259177	0.95631750	1
	-1.23200123	4.97906801	2.86895250	1
	3.69599877	3.55647837	0.95631750	1
	0.00000123	2.84518142	2.86895250	1
%endblock AtomicCoordinatesAndAtomicSpecies
Kgrid_NoTRS  T
%block kgrid_MonkhorstPack
4       0       0       0.0
0       4       0       0.0
0       0       4       0.0
%endblock kgrid_MonkhorstPack
AtomCoorFormatOut Ang
BlockSize 1
#ProcessorY 12
Diag.ParallelOverK   T
Diag.DivideAndConquer F
MeshCutoff   300 Ry
SCF.FreeE.Tolerance 1E-3 eV
SCF.EDM.Tolerance   5E-3 eV
DM.Tolerance  1E-3
DM.Require.Energy.Convergence T
DM.NumberPulay 4
#XC.Functional GGA
#CX.Authors    PBE
UseSaveData        F
SolutionMethod     diagon
MD.TypeOfRun       CG
MD.VariableCell    F
MD.NumCGsteps      00
MD.MaxCGDispl      0.200000 Bohr
#MD.MaxStressTol    1.000000 GPa
#MD.MaxForceTol     0.010000 eV/Ang
WriteMDHistory T
WriteCoorStep T
WriteForces T
WriteCoorStep    T
WriteEigenValues T
WriteDM    F
MM.UnitsDistance Ang  # what this program prints out DO NOT CHANGE
MM.UnitsEnergy    eV  # what this program prints out DO NOT CHANGE
MM.Grimme.S6     0.75 # Grimme-paper for PBE (correct for your functional)
MM.Grimme.D     20.   # Grimme-paper (correct for your functional)
%block MM.Potentials
  1   1 Grimme     18.14      2.904 # C, 10.1002/jcc.20495
%endblock MM.Potentials
#%block ProjectedDensityOfStates
# -200.0  120.0  0.4  12800  eV
#%endblock ProjectedDensityOfStates
************************** End of input data file *****************************

reinit: -----------------------------------------------------------------------
reinit: System Name: graphite_scf
reinit: -----------------------------------------------------------------------
reinit: System Label: graphite_scf
reinit: -----------------------------------------------------------------------
Reading two-body potentials
Grimme - two-body potential between 1 and 1

initatom: Reading input for the pseudopotentials and atomic orbitals ----------
Species number:   1 Atomic number:    6 Label: C-gga

Ground state valence configuration:   2s02  2p02
Reading pseudopotential information in formatted form from C-gga.psf

Valence configuration for pseudopotential generation:
2s( 2.00) rc: 1.56
2p( 2.00) rc: 1.56
3d( 0.00) rc: 1.56
4f( 0.00) rc: 1.56
relmxkb: Read Max KB Ang. Momentum=    2 for species C-gga

<basis_specs>
===============================================================================
C-gga                Z=   6    Mass=  12.010        Charge= 0.17977+309
Lmxo=1 Lmxkb= 2    BasisType=split      Semic=F
L=0  Nsemic=0  Cnfigmx=2
          i=1  nzeta=1  polorb=0  (2s)
            splnorm:   0.15000    
               vcte:    0.0000    
               rinn:    0.0000    
               qcoe:    0.0000    
               qyuk:    0.0000    
               qwid:   0.10000E-01
                rcs:    0.0000    
            lambdas:    1.0000    
L=1  Nsemic=0  Cnfigmx=2
          i=1  nzeta=1  polorb=0  (2p)
            splnorm:   0.15000    
               vcte:    0.0000    
               rinn:    0.0000    
               qcoe:    0.0000    
               qyuk:    0.0000    
               qwid:   0.10000E-01
                rcs:    0.0000    
            lambdas:    1.0000    
-------------------------------------------------------------------------------
L=0  Nkbl=1  erefs: 0.17977+309
L=1  Nkbl=1  erefs: 0.17977+309
L=2  Nkbl=1  erefs: 0.17977+309
===============================================================================
</basis_specs>

atom: Called for C-gga                 (Z =   6)

read_vps: Pseudopotential generation method:
read_vps: ATM 3.2.2 Troullier-Martins                       
Valence charge for ps generation:    4.00000

xc_check: Exchange-correlation functional:
xc_check: Ceperley-Alder
xc_check: WARNING: Pseudopotential generated with GGA PBE functional
V l=0 = -2*Zval/r beyond r=  1.5227
V l=1 = -2*Zval/r beyond r=  1.5227
V l=2 = -2*Zval/r beyond r=  1.5227
All V_l potentials equal beyond r=  1.4851
This should be close to max(r_c) in ps generation
All pots = -2*Zval/r beyond r=  1.5227

VLOCAL1: 99.0% of the norm of Vloc inside     19.682 Ry
VLOCAL1: 99.9% of the norm of Vloc inside     44.856 Ry
atom: Maximum radius for 4*pi*r*r*local-pseudopot. charge    1.79142
atom: Maximum radius for r*vlocal+2*Zval:    1.54183
GHOST: No ghost state for L =  0
GHOST: No ghost state for L =  1
GHOST: No ghost state for L =  2

KBgen: Kleinman-Bylander projectors: 
   l= 0   rc=  1.661951   el= -0.994756   Ekb=  5.296364   kbcos=  0.313951
   l= 1   rc=  1.661951   el= -0.376633   Ekb= -4.104879   kbcos= -0.344765
   l= 2   rc=  1.747182   el=  0.002326   Ekb= -1.006421   kbcos= -0.008606

KBgen: Total number of Kleinman-Bylander projectors:    9
atom: -------------------------------------------------------------------------

atom: SANKEY-TYPE ORBITALS:

SPLIT: Orbitals with angular momentum L= 0

SPLIT: Basis orbitals for state 2s

SPLIT: PAO cut-off radius determined from an
SPLIT: energy shift=  0.000735 Ry

   izeta = 1
                 lambda =    1.000000
                     rc =    5.948690
                 energy =   -0.994108
                kinetic =    0.809152
    potential(screened) =   -1.803260
       potential(ionic) =   -5.360717

SPLIT: Orbitals with angular momentum L= 1

SPLIT: Basis orbitals for state 2p

SPLIT: PAO cut-off radius determined from an
SPLIT: energy shift=  0.000735 Ry

   izeta = 1
                 lambda =    1.000000
                     rc =    7.638387
                 energy =   -0.375915
                kinetic =    2.245823
    potential(screened) =   -2.621738
       potential(ionic) =   -5.993382
atom: Total number of Sankey-type orbitals:  4

atm_pop: Valence configuration (for local Pseudopot. screening):
 2s( 2.00)                                                            
 2p( 2.00)                                                            
Vna: chval, zval:    4.00000   4.00000

Vna:  Cut-off radius for the neutral-atom potential:   7.638387

atom: _________________________________________________________________________

prinput: Basis input ----------------------------------------------------------

PAO.BasisType split     

%block ChemicalSpeciesLabel
    1    6 C-gga                   # Species index, atomic number, species label
%endblock ChemicalSpeciesLabel

%block PAO.Basis                 # Define Basis set
C-gga                 2                    # Species label, number of l-shells
 n=2   0   1                         # n, l, Nzeta 
   5.949   
   1.000   
 n=2   1   1                         # n, l, Nzeta 
   7.638   
   1.000   
%endblock PAO.Basis

prinput: ----------------------------------------------------------------------

coor:   Atomic-coordinates input format  =     Cartesian coordinates
coor:                                          (in Angstroms)

siesta: Atomic coordinates (Bohr) and species
siesta:      0.00000   0.00000   1.80718  1        1
siesta:      0.00000   0.00000   5.42154  1        2
siesta:     -2.32814   4.03246   1.80718  1        3
siesta:     -4.65629   8.06493   5.42154  1        4
siesta:      4.65629   8.06493   1.80718  1        5
siesta:      2.32814   4.03246   5.42154  1        6
siesta:      4.65629   0.00000   1.80718  1        7
siesta:      9.31257   0.00000   5.42154  1        8
siesta:      4.65629   0.00000   5.42154  1        9
siesta:      9.31257   0.00000   1.80718  1       10
siesta:      4.65629   8.06493   5.42154  1       11
siesta:      2.32814   4.03246   1.80718  1       12
siesta:     -2.32814   4.03246   5.42154  1       13
siesta:     -4.65629   8.06493   1.80718  1       14
siesta:      0.00000   8.06493   1.80718  1       15
siesta:      6.98443   4.03246   5.42154  1       16
siesta:      6.98443   4.03246   1.80718  1       17
siesta:      0.00000   8.06493   5.42154  1       18
siesta:      0.00000   2.68831   1.80718  1       19
siesta:      6.98443   9.40908   5.42154  1       20
siesta:      4.65629  10.75324   1.80718  1       21
siesta:      2.32814   1.34415   5.42154  1       22
siesta:     -4.65629  10.75324   1.80718  1       23
siesta:     11.64072   1.34415   5.42154  1       24
siesta:     -2.32814   6.72077   1.80718  1       25
siesta:      9.31257   5.37662   5.42154  1       26
siesta:      2.32815   6.72077   1.80718  1       27
siesta:      4.65628   5.37662   5.42154  1       28
siesta:     -0.00000  10.75324   1.80718  1       29
siesta:      6.98443   1.34415   5.42154  1       30
siesta:      4.65629   2.68831   1.80718  1       31
siesta:      2.32814   9.40908   5.42154  1       32
siesta:      9.31258   2.68831   1.80718  1       33
siesta:     -2.32815   9.40908   5.42154  1       34
siesta:      6.98443   6.72077   1.80718  1       35
siesta:      0.00000   5.37662   5.42154  1       36

siesta: System type = bulk      

initatomlists: Number of atoms, orbitals, and projectors:     36   144   324

siesta: ******************** Simulation parameters ****************************
siesta:
siesta: The following are some of the parameters of the simulation.
siesta: A complete list of the parameters used, including default values,
siesta: can be found in file out.fdf
siesta:
redata: Spin configuration                          = none
redata: Number of spin components                   = 1
redata: Time-Reversal Symmetry                      = T
redata: Spin spiral                                 = F
redata: Long output                                 =   F
redata: Number of Atomic Species                    =        1
redata: Charge density info will appear in .RHO file
redata: Write Mulliken Pop.                         = NO
redata: Matel table size (NRTAB)                    =     1024
redata: Mesh Cutoff                                 =   300.0000 Ry
redata: Net charge of the system                    =     0.0000 |e|
redata: Min. number of SCF Iter                     =        0
redata: Max. number of SCF Iter                     =     1000
redata: SCF convergence failure will abort job
redata: SCF mix quantity                            = Hamiltonian
redata: Mix DM or H after convergence               =   F
redata: Recompute H after scf cycle                 =   F
redata: Mix DM in first SCF step                    =   T
redata: Write Pulay info on disk                    =   F
redata: New DM Occupancy tolerance                  = 0.000000000001
redata: No kicks to SCF
redata: DM Mixing Weight for Kicks                  =     0.5000
redata: Require Harris convergence for SCF          =   F
redata: Harris energy tolerance for SCF             =     0.000100 eV
redata: Require DM convergence for SCF              =   T
redata: DM tolerance for SCF                        =     0.001000
redata: Require EDM convergence for SCF             =   F
redata: EDM tolerance for SCF                       =     0.005000 eV
redata: Require H convergence for SCF               =   T
redata: Hamiltonian tolerance for SCF               =     0.001000 eV
redata: Require (free) Energy convergence for SCF   =   T
redata: (free) Energy tolerance for SCF             =     0.001000 eV
redata: Using Saved Data (generic)                  =   F
redata: Use continuation files for DM               =   F
redata: Neglect nonoverlap interactions             =   F
redata: Method of Calculation                       = Diagonalization
redata: Electronic Temperature                      =   299.9869 K
redata: Fix the spin of the system                  =   F
redata: Dynamics option                             = Single-point calculation
mix.SCF: Pulay mixing                            = Pulay
mix.SCF:    Variant                              = stable
mix.SCF:    History steps                        = 4
mix.SCF:    Linear mixing weight                 =     0.250000
mix.SCF:    Mixing weight                        =     0.250000
mix.SCF:    SVD condition                        = 0.1000E-07
redata: ***********************************************************************

%block SCF.Mixers
  Pulay
%endblock SCF.Mixers

%block SCF.Mixer.Pulay
  # Mixing method
  method pulay
  variant stable

  # Mixing options
  weight 0.2500
  weight.linear 0.2500
  history 4
%endblock SCF.Mixer.Pulay

DM_history_depth set to one: no extrapolation allowed by default for geometry relaxation
Size of DM history Fstack: 1
Total number of electrons:   144.000000
Total ionic charge:   144.000000

* ProcessorY, Blocksize:    4   1


* Orbital distribution balance (max,min):     8     7

k-point displ. along   1 input, could be:     0.00    0.50
k-point displ. along   2 input, could be:     0.00    0.50
k-point displ. along   3 input, could be:     0.00    0.50
 Kpoints in:           48 . Kpoints trimmed:           44

siesta: k-grid: Number of k-points =    44
siesta: k-grid: Cutoff (effective) =     7.651 Ang
siesta: k-grid: Supercell and displacements
siesta: k-grid:    4   0   0      0.000
siesta: k-grid:    0   4   0      0.000
siesta: k-grid:    0   0   4      0.000

diag: Algorithm                                     = Expert
diag: Parallel over k                               =   T
diag: Use parallel 2D distribution                  =   T
diag: Parallel block-size                           = 1
diag: Parallel distribution                         =     4 x     5
diag: Used triangular part                          = Lower
diag: Absolute tolerance                            =  0.100E-15
diag: Orthogonalization factor                      =  0.100E-05
diag: Memory factor                                 =  1.0000

superc: Internal auxiliary supercell:     5 x     5 x     5  =     125
superc: Number of atoms, orbitals, and projectors:   4500  18000  40500


ts: **************************************************************
ts: Save H and S matrices                           =    F
ts: Save DM and EDM matrices                        =    F
ts: Only save the overlap matrix S                  =    F
ts: **************************************************************

************************ Begin: TS CHECKS AND WARNINGS ************************
************************ End: TS CHECKS AND WARNINGS **************************


                     ====================================
                        Single-point calculation
                     ====================================

outcoor: Atomic coordinates (Ang):                          
    0.00000000    0.00000000    0.95631750   1       1  C-gga
    0.00000000    0.00000000    2.86895250   1       2  C-gga
   -1.23200000    2.13388659    0.95631750   1       3  C-gga
   -2.46400000    4.26777319    2.86895250   1       4  C-gga
    2.46400000    4.26777319    0.95631750   1       5  C-gga
    1.23200000    2.13388659    2.86895250   1       6  C-gga
    2.46400000    0.00000000    0.95631750   1       7  C-gga
    4.92800000    0.00000000    2.86895250   1       8  C-gga
    2.46400000    0.00000000    2.86895250   1       9  C-gga
    4.92800000    0.00000000    0.95631750   1      10  C-gga
    2.46400000    4.26777319    2.86895250   1      11  C-gga
    1.23200000    2.13388659    0.95631750   1      12  C-gga
   -1.23200000    2.13388659    2.86895250   1      13  C-gga
   -2.46400000    4.26777319    0.95631750   1      14  C-gga
    0.00000000    4.26777319    0.95631750   1      15  C-gga
    3.69600000    2.13388659    2.86895250   1      16  C-gga
    3.69600000    2.13388659    0.95631750   1      17  C-gga
    0.00000000    4.26777319    2.86895250   1      18  C-gga
    0.00000000    1.42258964    0.95631750   1      19  C-gga
    3.69600000    4.97907014    2.86895250   1      20  C-gga
    2.46400123    5.69036496    0.95631750   1      21  C-gga
    1.23199877    0.71129482    2.86895250   1      22  C-gga
   -2.46400123    5.69036496    0.95631750   1      23  C-gga
    6.16000123    0.71129482    2.86895250   1      24  C-gga
   -1.23200000    3.55647624    0.95631750   1      25  C-gga
    4.92800000    2.84518355    2.86895250   1      26  C-gga
    1.23200123    3.55647837    0.95631750   1      27  C-gga
    2.46399877    2.84518142    2.86895250   1      28  C-gga
   -0.00000123    5.69036496    0.95631750   1      29  C-gga
    3.69600123    0.71129482    2.86895250   1      30  C-gga
    2.46400000    1.42258964    0.95631750   1      31  C-gga
    1.23200000    4.97907014    2.86895250   1      32  C-gga
    4.92800123    1.42259177    0.95631750   1      33  C-gga
   -1.23200123    4.97906801    2.86895250   1      34  C-gga
    3.69599877    3.55647837    0.95631750   1      35  C-gga
    0.00000123    2.84518142    2.86895250   1      36  C-gga

superc: Internal auxiliary supercell:     5 x     5 x     5  =     125
superc: Number of atoms, orbitals, and projectors:   4500  18000  40500

outcell: Unit cell vectors (Ang):
        7.392000    0.000000    0.000000
       -3.696000    6.401660    0.000000
        0.000000    0.000000    3.825270

outcell: Cell vector modules (Ang)   :    7.392000    7.392000    3.825270
outcell: Cell angles (23,13,12) (deg):     90.0000     90.0000    120.0000
outcell: Cell volume (Ang**3)        :    181.0159
<dSpData1D:S at geom step 0
  <sparsity:sparsity for geom step 0
    nrows_g=144 nrows=8 sparsity=.6393 nnzs=13256, refcount: 7>
  <dData1D:(new from dSpData1D) n=13256, refcount: 1>
refcount: 1>
new_DM -- step:     1
Initializing Density Matrix...
DM filled with atomic data:
<dSpData2D:DM initialized from atoms
  <sparsity:sparsity for geom step 0
    nrows_g=144 nrows=8 sparsity=.6393 nnzs=13256, refcount: 8>
  <dData2D:DM n=13256 m=1, refcount: 1>
refcount: 1>
No. of atoms with KB's overlaping orbs in proc 0. Max # of overlaps:     152     368
New grid distribution:   1
           1       1:   36    1:    9    1:    4
           2       1:   36    1:    9    5:    8
           3       1:   36    1:    9    9:   12
           4       1:   36    1:    9   13:   16
           5       1:   36    1:    9   17:   20
           6       1:   36   10:   18    1:    4
           7       1:   36   10:   18    5:    8
           8       1:   36   10:   18    9:   12
           9       1:   36   10:   18   13:   16
          10       1:   36   10:   18   17:   20
          11       1:   36   19:   27    1:    4
          12       1:   36   19:   27    5:    8
          13       1:   36   19:   27    9:   12
          14       1:   36   19:   27   13:   16
          15       1:   36   19:   27   17:   20
          16       1:   36   28:   36    1:    4
          17       1:   36   28:   36    5:    8
          18       1:   36   28:   36    9:   12
          19       1:   36   28:   36   13:   16
          20       1:   36   28:   36   17:   20

InitMesh: MESH =    72 x    72 x    40 =      207360
InitMesh: (bp) =    36 x    36 x    20 =       25920
InitMesh: Mesh cutoff (required, used) =   300.000   302.202 Ry
ExtMesh (bp) on 0 =   128 x   101 x    92 =     1189376
New grid distribution:   2
           1      10:   18   25:   36    9:   20
           2      28:   36   25:   36    9:   20
           3       1:   18    1:    6    9:   20
           4      19:   36    1:    6    9:   20
           5       1:   18   28:   36    1:    8
           6      19:   36   28:   36    1:    8
           7      28:   36    7:   18    9:   20
           8       1:    9    7:   18    9:   20
           9      10:   18    7:   18    9:   20
          10      19:   27    7:   18    9:   20
          11       1:   18   19:   27    1:    8
          12      19:   36   19:   27    1:    8
          13       1:   18   19:   24    9:   20
          14      19:   36   19:   24    9:   20
          15       1:   18    1:    9    1:    8
          16      19:   36    1:    9    1:    8
          17       1:   18   10:   18    1:    8
          18       1:    9   25:   36    9:   20
          19      19:   27   25:   36    9:   20
          20      19:   36   10:   18    1:    8
New grid distribution:   3
           1      10:   18   25:   36    9:   20
           2      28:   36   25:   36    9:   20
           3       1:   18    1:    6    9:   20
           4      19:   36    1:    6    9:   20
           5       1:   18   28:   36    1:    8
           6      19:   36   28:   36    1:    8
           7      28:   36    7:   18    9:   20
           8       1:    9    7:   18    9:   20
           9      10:   18    7:   18    9:   20
          10      19:   27    7:   18    9:   20
          11       1:   18   19:   27    1:    8
          12      19:   36   19:   27    1:    8
          13       1:   18   19:   24    9:   20
          14      19:   36   19:   24    9:   20
          15       1:   18    1:    9    1:    8
          16      19:   36    1:    9    1:    8
          17       1:   18   10:   18    1:    8
          18       1:    9   25:   36    9:   20
          19      19:   27   25:   36    9:   20
          20      19:   36   10:   18    1:    8
Setting up quadratic distribution...
ExtMesh (bp) on 0 =   101 x   104 x   100 =     1050400
PhiOnMesh: Number of (b)points on node 0 =                 1296
PhiOnMesh: nlist on node 0 =               262519

stepf: Fermi-Dirac step function

siesta: Program's energy decomposition (eV):
siesta: Ebs     =     -2672.624234
siesta: Eions   =      9434.507561
siesta: Ena     =      2163.402416
siesta: Ekin    =      4112.051652
siesta: Enl     =      -406.736221
siesta: Eso     =         0.000000
siesta: Edftu   =         0.000000
siesta: DEna    =      -180.988477
siesta: DUscf   =        10.608631
siesta: DUext   =         0.000000
siesta: Exc     =     -1749.492624
siesta: eta*DQ  =         0.000000
siesta: Emadel  =         0.000000
siesta: Emeta   =         0.000000
siesta: Emolmec =        -8.049132
siesta: Ekinion =         0.000000
siesta: Eharris =     -5132.283624
siesta: Etot    =     -5493.711316
siesta: FreeEng =     -5493.726823

        iscf     Eharris(eV)        E_KS(eV)     FreeEng(eV)     dDmax    Ef(eV) dHmax(eV)
   scf:    1    -5132.283624    -5493.711316    -5493.726823  1.193809 -8.231382  0.815508
timer: Routine,Calls,Time,% = IterSCF        1       2.306  51.49
   scf:    2    -5494.252786    -5494.018900    -5494.034604  0.021819 -8.023399  0.561120
   scf:    3    -5494.041033    -5494.077280    -5494.093624  0.023963 -7.611582  0.164798
   scf:    4    -5494.136928    -5494.118247    -5494.134747  0.013441 -7.567603  0.002522
   scf:    5    -5494.118279    -5494.118279    -5494.134778  0.000437 -7.569351  0.001409
   scf:    6    -5494.118282    -5494.118282    -5494.134781  0.000139 -7.568752  0.000421

SCF Convergence by FreeE+DM+H criterion
|FreeE_i-FreeE_(i-1)| (eV) <     0.00100000
max |DM_out - DM_in|         :     0.0001394634
max |H_out - H_in|      (eV) :     0.0004210527
SCF cycle converged after 6 iterations

Using DM_out to compute the final energy and forces
No. of atoms with KB's overlaping orbs in proc 0. Max # of overlaps:     152     368

MM-Stress (kbar):       70.82       70.82       84.55        0.00       -0.00        0.00

siesta: E_KS(eV) =            -5494.1183

siesta: E_KS - E_eggbox =     -5494.1183

siesta: Atomic forces (eV/Ang):
     1    0.000000   -0.000000   -0.000000
     2    0.000000   -0.000000   -0.000000
     3    0.000062   -0.000033   -0.000000
     4   -0.000062    0.000034   -0.000000
     5   -0.000002    0.000070   -0.000000
     6    0.000002   -0.000069   -0.000000
     7   -0.000060   -0.000037   -0.000000
     8    0.000060    0.000036   -0.000000
     9   -0.000004   -0.000011   -0.000000
    10    0.000004    0.000010   -0.000000
    11   -0.000007    0.000009   -0.000000
    12    0.000007   -0.000009   -0.000000
    13    0.000011    0.000002   -0.000000
    14   -0.000011   -0.000001   -0.000000
    15    0.000000    0.000000   -0.000000
    16   -0.000000    0.000001   -0.000000
    17    0.000000    0.000000   -0.000000
    18   -0.000000    0.000000   -0.000000
    19    0.000007    0.000140    0.000000
    20   -0.000007   -0.000140    0.000000
    21   -0.000125   -0.000064    0.000000
    22    0.000125    0.000064    0.000000
    23    0.000118   -0.000076    0.000000
    24   -0.000118    0.000075    0.000000
    25    0.000011    0.000102    0.000000
    26   -0.000011   -0.000102    0.000000
    27   -0.000094   -0.000042    0.000000
    28    0.000094    0.000042    0.000000
    29    0.000083   -0.000060    0.000000
    30   -0.000083    0.000060    0.000000
    31    0.000026    0.000116    0.000000
    32   -0.000026   -0.000115    0.000000
    33   -0.000113   -0.000036    0.000000
    34    0.000113    0.000036    0.000000
    35    0.000087   -0.000080    0.000000
    36   -0.000087    0.000080    0.000000
----------------------------------------
   Tot   -0.000000    0.000000    0.000000
----------------------------------------
   Max    0.000140
   Res    0.000052    sqrt( Sum f_i^2 / 3N )
----------------------------------------
   Max    0.000140    constrained

Stress tensor Voigt[x,y,z,yz,xz,xy] (kbar):     -429.45     -429.45    -2316.97       -0.00       -0.00        0.00
(Free)E + p*V (eV/cell)    -5374.5316
Target enthalpy (eV/cell)    -5494.1348

siesta: Eigenvalues (eV):
  ik is       eps
   1  1  -31.5577  -30.8054  -30.8054  -28.6607  -28.6607  -27.3384  -26.7781  -26.7781  -25.9838  -25.0841
         -24.6125  -24.5174  -24.5174  -24.4350  -24.4350  -22.9025  -22.9025  -22.0871  -22.0385  -21.1742
  -21.1277  -21.1277  -21.0145  -21.0144  -20.6298  -20.6203  -20.4932  -20.4932  -20.1705  -19.6316
  -19.6316  -19.1793  -19.1793  -19.0917  -18.4216  -18.4216  -18.0203  -18.0203  -17.7111  -17.7111
  -17.3421  -17.0945  -16.7700  -16.7187  -16.7187  -16.6021  -16.6020  -16.3153  -16.3153  -16.0884
  -16.0155  -15.6615  -15.4130  -15.4130  -15.0771  -14.9623  -14.9623  -14.2901  -14.2901  -13.4348
  -13.4348  -13.0597  -12.7144  -11.6790  -11.6790  -11.5917   -9.1876   -8.0864   -8.0864   -7.6811
   -6.6540   -6.5655   -6.5655   -6.5146   -6.4345   -6.4345   -5.1678   -5.1678   -3.9259   -3.9259
   -2.2960   -1.7986   -1.7986   -0.3591   -0.3591    0.0413    0.0935    0.0935    0.2665    0.2903
    0.3585    0.6612    0.7670    0.7670    1.0983    1.0984    2.3621    2.3621    2.7375    2.7375
    3.1485    3.2690    3.6527    3.6615    3.8202    4.0374    4.0374    4.3993    4.3993    4.5768
    4.5768    4.9192    5.5886    5.5886    5.7571    6.3039    6.3039    6.3437    6.3437    7.0509
    7.9386    8.1320    8.1321    8.3486    8.8152    8.8152    9.0991   10.0721   10.0721   10.3563
   11.1322   11.1322   11.9999   11.9999   12.9042   12.9042   13.4287   13.4287   13.8245   13.8245
   13.9886   14.3909   14.5989   14.6041
   2  1  -31.9400  -30.4357  -29.7106  -29.7106  -28.3229  -28.3229  -27.6711  -25.8867  -25.8867  -25.3689
         -24.2369  -23.6861  -23.6861  -23.6447  -23.6169  -23.6169  -22.8690  -22.8690  -22.0464  -22.0464
  -21.9319  -21.9319  -21.8621  -21.5114  -20.1532  -20.1532  -20.1503  -20.0594  -20.0594  -19.4596
  -19.4596  -18.9137  -18.8021  -18.6392  -18.6392  -18.2097  -18.2097  -18.0998  -18.0998  -17.4905
  -17.4177  -17.4177  -17.3276  -17.3014  -17.3014  -17.2837  -17.2837  -16.0575  -15.9126  -15.9126
  -15.8382  -15.8382  -15.2463  -14.6766  -14.6766  -14.4614  -14.4266  -14.1377  -14.1377  -14.0299
  -13.4201  -12.4991  -12.2367  -10.8973  -10.5684  -10.5684   -9.5974   -9.5974   -8.2514   -8.2514
   -7.3386   -7.3386   -6.8167   -6.7617   -5.2870   -5.2870   -5.2259   -5.2259   -4.7552   -4.3934
   -2.6934   -1.6552   -1.5295   -1.5295   -1.3558   -1.0253   -1.0253   -0.2846    0.0686    0.0686
    0.3278    0.5055    0.6115    0.6115    1.5583    1.5583    1.6535    2.3207    2.4203    2.5062
    3.6038    3.6213    3.6213    3.8328    4.2893    4.2893    4.3841    4.3841    4.4563    5.1911
    5.2631    5.2631    6.2341    6.4212    6.6432    6.6432    7.2051    7.8712    7.8712    7.9493
    7.9493    8.1380    8.1380    9.2371    9.2371    9.4116    9.4116    9.4217   10.0117   10.0117
   10.1799   11.0187   11.0187   11.2265   11.7660   11.7660   11.9438   12.8888   12.8888   13.0712
   15.0534   15.0534   15.1699   15.1699
   3  1  -31.9400  -30.4357  -29.7106  -29.7106  -28.3229  -28.3229  -27.6711  -25.8867  -25.8867  -25.3689
         -24.2369  -23.6861  -23.6861  -23.6447  -23.6169  -23.6169  -22.8690  -22.8690  -22.0464  -22.0464
  -21.9319  -21.9319  -21.8621  -21.5114  -20.1532  -20.1532  -20.1503  -20.0594  -20.0594  -19.4596
  -19.4596  -18.9137  -18.8021  -18.6392  -18.6392  -18.2097  -18.2097  -18.0998  -18.0998  -17.4905
  -17.4177  -17.4177  -17.3276  -17.3014  -17.3014  -17.2837  -17.2837  -16.0575  -15.9126  -15.9126
  -15.8382  -15.8382  -15.2463  -14.6766  -14.6766  -14.4614  -14.4266  -14.1377  -14.1377  -14.0299
  -13.4201  -12.4991  -12.2367  -10.8973  -10.5684  -10.5684   -9.5974   -9.5974   -8.2514   -8.2514
   -7.3386   -7.3386   -6.8167   -6.7617   -5.2870   -5.2870   -5.2259   -5.2259   -4.7552   -4.3934
   -2.6934   -1.6552   -1.5295   -1.5295   -1.3558   -1.0253   -1.0253   -0.2846    0.0686    0.0686
    0.3278    0.5055    0.6115    0.6115    1.5583    1.5583    1.6535    2.3207    2.4203    2.5062
    3.6038    3.6213    3.6213    3.8328    4.2893    4.2893    4.3841    4.3841    4.4563    5.1911
    5.2631    5.2631    6.2341    6.4212    6.6432    6.6432    7.2051    7.8712    7.8712    7.9493
    7.9493    8.1380    8.1380    9.2371    9.2371    9.4116    9.4116    9.4217   10.0117   10.0117
   10.1799   11.0187   11.0187   11.2265   11.7660   11.7660   11.9438   12.8888   12.8888   13.0712
   15.0534   15.0534   15.1699   15.1699
   4  1  -31.5577  -30.8054  -30.8054  -28.6607  -28.6607  -27.3384  -26.7781  -26.7781  -25.9838  -25.0841
         -24.6125  -24.5174  -24.5174  -24.4350  -24.4350  -22.9025  -22.9025  -22.0871  -22.0385  -21.1742
  -21.1277  -21.1277  -21.0145  -21.0144  -20.6298  -20.6203  -20.4932  -20.4932  -20.1705  -19.6316
  -19.6316  -19.1793  -19.1793  -19.0917  -18.4216  -18.4216  -18.0203  -18.0203  -17.7111  -17.7111
  -17.3421  -17.0945  -16.7700  -16.7187  -16.7187  -16.6021  -16.6020  -16.3153  -16.3153  -16.0884
  -16.0155  -15.6615  -15.4130  -15.4130  -15.0771  -14.9623  -14.9623  -14.2901  -14.2901  -13.4348
  -13.4348  -13.0597  -12.7144  -11.6790  -11.6790  -11.5917   -9.1876   -8.0864   -8.0864   -7.6811
   -6.6540   -6.5655   -6.5655   -6.5146   -6.4345   -6.4345   -5.1678   -5.1678   -3.9259   -3.9259
   -2.2960   -1.7986   -1.7986   -0.3591   -0.3591    0.0413    0.0935    0.0935    0.2665    0.2903
    0.3585    0.6612    0.7670    0.7670    1.0983    1.0984    2.3621    2.3621    2.7375    2.7375
    3.1485    3.2690    3.6527    3.6615    3.8202    4.0374    4.0374    4.3993    4.3993    4.5768
    4.5768    4.9192    5.5886    5.5886    5.7571    6.3039    6.3039    6.3437    6.3437    7.0509
    7.9386    8.1320    8.1321    8.3486    8.8152    8.8152    9.0991   10.0721   10.0721   10.3563
   11.1322   11.1322   11.9999   11.9999   12.9042   12.9042   13.4287   13.4287   13.8245   13.8245
   13.9886   14.3909   14.5989   14.6041
   5  1  -31.9400  -30.4357  -29.7106  -29.7106  -28.3229  -28.3229  -27.6711  -25.8867  -25.8867  -25.3689
         -24.2369  -23.6861  -23.6861  -23.6447  -23.6169  -23.6169  -22.8690  -22.8690  -22.0464  -22.0464
  -21.9319  -21.9319  -21.8621  -21.5114  -20.1532  -20.1532  -20.1503  -20.0594  -20.0594  -19.4596
  -19.4596  -18.9137  -18.8021  -18.6392  -18.6392  -18.2097  -18.2097  -18.0998  -18.0998  -17.4905
  -17.4177  -17.4177  -17.3276  -17.3014  -17.3014  -17.2837  -17.2837  -16.0575  -15.9126  -15.9126
  -15.8382  -15.8382  -15.2463  -14.6766  -14.6766  -14.4614  -14.4266  -14.1377  -14.1377  -14.0299
  -13.4201  -12.4991  -12.2367  -10.8973  -10.5684  -10.5684   -9.5974   -9.5974   -8.2514   -8.2514
   -7.3386   -7.3386   -6.8167   -6.7617   -5.2870   -5.2870   -5.2259   -5.2259   -4.7552   -4.3934
   -2.6934   -1.6552   -1.5295   -1.5295   -1.3558   -1.0253   -1.0253   -0.2846    0.0686    0.0686
    0.3278    0.5055    0.6115    0.6115    1.5583    1.5583    1.6535    2.3207    2.4203    2.5062
    3.6038    3.6213    3.6213    3.8328    4.2893    4.2893    4.3841    4.3841    4.4563    5.1911
    5.2631    5.2631    6.2341    6.4212    6.6432    6.6432    7.2051    7.8712    7.8712    7.9493
    7.9493    8.1380    8.1380    9.2371    9.2371    9.4116    9.4116    9.4217   10.0117   10.0117
   10.1799   11.0187   11.0187   11.2265   11.7660   11.7660   11.9438   12.8888   12.8888   13.0712
   15.0534   15.0534   15.1699   15.1699
   6  1  -32.1326  -29.1798  -29.1798  -29.1798  -29.1798  -29.1798  -29.1798  -25.5113  -25.0423  -25.0423
         -23.3236  -23.3236  -23.3236  -23.3236  -23.2996  -23.2996  -23.2996  -23.2996  -23.2996  -23.2996
  -21.6792  -21.2622  -21.2622  -21.2622  -21.2622  -21.2622  -21.2622  -19.3745  -19.3745  -18.9459
  -18.9459  -18.9459  -18.9459  -18.9459  -18.9459  -18.5327  -18.5327  -18.5327  -18.5327  -17.0287
  -17.0287  -17.0287  -17.0287  -17.0287  -17.0287  -16.8413  -16.8413  -16.8413  -16.8413  -16.8413
  -16.8413  -15.2957  -15.2957  -14.0470  -14.0470  -14.0470  -14.0470  -14.0470  -14.0470  -13.5154
  -13.5154  -12.1227  -12.1227   -9.8503   -9.8503   -9.8503   -9.8503   -8.5136   -8.5136   -8.5136
   -8.5136   -8.5136   -8.5136   -6.8263   -4.9275   -4.9275   -4.9275   -4.9274   -4.9274   -4.9274
   -2.2805   -2.2805   -2.2805   -2.2804   -2.2804   -2.2804   -0.8545   -0.1598   -0.1598    0.0430
    0.0430    1.1612    1.1612    1.1612    1.1612    1.1612    1.1612    1.3710    1.6358    1.6358
    3.7870    3.7870    3.7870    3.7871    3.7871    3.7871    4.7969    5.4093    5.4093    5.8708
    7.1052    7.1052    7.1052    7.1052    8.0201    8.0201    8.0201    8.0202    8.0202    8.0202
    9.3635    9.3635    9.3808    9.3808    9.3808    9.3809    9.3809    9.3809    9.5922    9.5922
    9.5922    9.5922    9.5922    9.5922   11.5510   11.5510   11.5510   11.5511   11.5511   11.5511
   15.4785   15.4785   15.4785   15.4785
   7  1  -31.3681  -31.3681  -29.8903  -29.8903  -27.1881  -27.1881  -27.1881  -27.1881  -26.4285  -25.0546
         -24.9420  -24.9420  -23.8211  -23.8211  -23.2443  -23.2443  -23.2443  -23.2443  -21.5791  -21.5791
  -21.5791  -21.5791  -21.0048  -21.0048  -20.5027  -20.4007  -19.7545  -19.7545  -19.7545  -19.7545
  -19.6309  -19.6309  -19.0812  -19.0812  -18.1768  -18.1768  -18.1768  -18.1768  -18.0971  -18.0971
  -17.4916  -16.9820  -16.9820  -16.9820  -16.9820  -16.5592  -16.4899  -16.4899  -15.8642  -15.8642
  -15.8642  -15.8642  -15.1604  -15.1604  -15.0514  -15.0514  -14.6046  -14.5957  -14.5957  -13.6379
  -13.6379  -12.7264  -12.7264  -12.2153  -10.3655  -10.3655  -10.3655  -10.3655   -6.6262   -6.6262
   -6.5632   -6.5632   -6.4899   -6.4899   -6.4899   -6.4899   -5.6979   -5.6979   -4.6411   -2.8374
   -2.7260   -2.7260   -0.9181   -0.9180    0.0191    0.2154    0.2154    0.2154    0.2154    0.7758
    0.7758    0.7758    0.7758    1.3103    1.3103    1.6849    1.6849    2.2066    2.2066    2.4446
    2.4446    3.0036    3.0036    3.5349    3.5349    3.8371    3.8371    3.8391    4.6221    4.6221
    5.6645    5.6645    5.6645    5.6645    5.7360    5.7360    6.1557    6.1557    7.4412    7.4412
    7.9639    7.9639    7.9640    7.9640    9.3882    9.3882    9.8074    9.8075    9.8075    9.8075
   10.9071   10.9071   11.0130   11.7812   13.2413   13.3632   13.8180   13.8180   13.8181   13.8181
   14.2508   14.2508   14.2508   14.2508
   8  1  -31.5577  -30.8054  -30.8054  -28.6607  -28.6607  -27.3384  -26.7781  -26.7781  -25.9838  -25.0841
         -24.6125  -24.5174  -24.5174  -24.4350  -24.4350  -22.9025  -22.9025  -22.0871  -22.0385  -21.1742
  -21.1277  -21.1277  -21.0145  -21.0144  -20.6298  -20.6203  -20.4932  -20.4932  -20.1705  -19.6316
  -19.6316  -19.1793  -19.1793  -19.0917  -18.4216  -18.4216  -18.0203  -18.0203  -17.7111  -17.7111
  -17.3421  -17.0945  -16.7700  -16.7187  -16.7187  -16.6021  -16.6020  -16.3153  -16.3153  -16.0884
  -16.0155  -15.6615  -15.4130  -15.4130  -15.0771  -14.9623  -14.9623  -14.2901  -14.2901  -13.4348
  -13.4348  -13.0597  -12.7144  -11.6790  -11.6790  -11.5917   -9.1876   -8.0864   -8.0864   -7.6811
   -6.6540   -6.5655   -6.5655   -6.5146   -6.4345   -6.4345   -5.1678   -5.1678   -3.9259   -3.9259
   -2.2960   -1.7986   -1.7986   -0.3591   -0.3591    0.0413    0.0935    0.0935    0.2665    0.2903
    0.3585    0.6612    0.7670    0.7670    1.0983    1.0984    2.3621    2.3621    2.7375    2.7375
    3.1485    3.2690    3.6527    3.6615    3.8202    4.0374    4.0374    4.3993    4.3993    4.5768
    4.5768    4.9192    5.5886    5.5886    5.7571    6.3039    6.3039    6.3437    6.3437    7.0509
    7.9386    8.1320    8.1321    8.3486    8.8152    8.8152    9.0991   10.0721   10.0721   10.3563
   11.1322   11.1322   11.9999   11.9999   12.9042   12.9042   13.4287   13.4287   13.8245   13.8245
   13.9886   14.3909   14.5989   14.6041
   9  1  -31.5577  -30.8054  -30.8054  -28.6607  -28.6607  -27.3384  -26.7781  -26.7781  -25.9838  -25.0841
         -24.6125  -24.5174  -24.5174  -24.4350  -24.4350  -22.9025  -22.9025  -22.0871  -22.0385  -21.1742
  -21.1277  -21.1277  -21.0145  -21.0144  -20.6298  -20.6203  -20.4932  -20.4932  -20.1705  -19.6316
  -19.6316  -19.1793  -19.1793  -19.0917  -18.4216  -18.4216  -18.0203  -18.0203  -17.7111  -17.7111
  -17.3421  -17.0945  -16.7700  -16.7187  -16.7187  -16.6021  -16.6020  -16.3153  -16.3153  -16.0884
  -16.0155  -15.6615  -15.4130  -15.4130  -15.0771  -14.9623  -14.9623  -14.2901  -14.2901  -13.4348
  -13.4348  -13.0597  -12.7144  -11.6790  -11.6790  -11.5917   -9.1876   -8.0864   -8.0864   -7.6811
   -6.6540   -6.5655   -6.5655   -6.5146   -6.4345   -6.4345   -5.1678   -5.1678   -3.9259   -3.9259
   -2.2960   -1.7986   -1.7986   -0.3591   -0.3591    0.0413    0.0935    0.0935    0.2665    0.2903
    0.3585    0.6612    0.7670    0.7670    1.0983    1.0984    2.3621    2.3621    2.7375    2.7375
    3.1485    3.2690    3.6527    3.6615    3.8202    4.0374    4.0374    4.3993    4.3993    4.5768
    4.5768    4.9192    5.5886    5.5886    5.7571    6.3039    6.3039    6.3437    6.3437    7.0509
    7.9386    8.1320    8.1321    8.3486    8.8152    8.8152    9.0991   10.0721   10.0721   10.3563
   11.1322   11.1322   11.9999   11.9999   12.9042   12.9042   13.4287   13.4287   13.8245   13.8245
   13.9886   14.3909   14.5989   14.6041
  10  1  -31.3681  -31.3681  -29.8903  -29.8903  -27.1881  -27.1881  -27.1881  -27.1881  -26.4285  -25.0546
         -24.9420  -24.9420  -23.8211  -23.8211  -23.2443  -23.2443  -23.2443  -23.2443  -21.5791  -21.5791
  -21.5791  -21.5791  -21.0048  -21.0048  -20.5027  -20.4007  -19.7545  -19.7545  -19.7545  -19.7545
  -19.6309  -19.6309  -19.0812  -19.0812  -18.1768  -18.1768  -18.1768  -18.1768  -18.0971  -18.0971
  -17.4916  -16.9820  -16.9820  -16.9820  -16.9820  -16.5592  -16.4899  -16.4899  -15.8642  -15.8642
  -15.8642  -15.8642  -15.1604  -15.1604  -15.0514  -15.0514  -14.6046  -14.5957  -14.5957  -13.6379
  -13.6379  -12.7264  -12.7264  -12.2153  -10.3655  -10.3655  -10.3655  -10.3655   -6.6262   -6.6262
   -6.5632   -6.5632   -6.4899   -6.4899   -6.4899   -6.4899   -5.6979   -5.6979   -4.6411   -2.8374
   -2.7260   -2.7260   -0.9181   -0.9180    0.0191    0.2154    0.2154    0.2154    0.2154    0.7758
    0.7758    0.7758    0.7758    1.3103    1.3103    1.6849    1.6849    2.2066    2.2066    2.4446
    2.4446    3.0036    3.0036    3.5349    3.5349    3.8371    3.8371    3.8391    4.6221    4.6221
    5.6645    5.6645    5.6645    5.6645    5.7360    5.7360    6.1557    6.1557    7.4412    7.4412
    7.9639    7.9639    7.9640    7.9640    9.3882    9.3882    9.8074    9.8075    9.8075    9.8075
   10.9071   10.9071   11.0130   11.7812   13.2413   13.3632   13.8180   13.8180   13.8181   13.8181
   14.2508   14.2508   14.2508   14.2508
  11  1  -31.5577  -30.8054  -30.8054  -28.6607  -28.6607  -27.3384  -26.7781  -26.7781  -25.9838  -25.0841
         -24.6125  -24.5174  -24.5174  -24.4350  -24.4350  -22.9025  -22.9025  -22.0871  -22.0385  -21.1742
  -21.1277  -21.1277  -21.0145  -21.0144  -20.6298  -20.6203  -20.4932  -20.4932  -20.1705  -19.6316
  -19.6316  -19.1793  -19.1793  -19.0917  -18.4216  -18.4216  -18.0203  -18.0203  -17.7111  -17.7111
  -17.3421  -17.0945  -16.7700  -16.7187  -16.7187  -16.6021  -16.6020  -16.3153  -16.3153  -16.0884
  -16.0155  -15.6615  -15.4130  -15.4130  -15.0771  -14.9623  -14.9623  -14.2901  -14.2901  -13.4348
  -13.4348  -13.0597  -12.7144  -11.6790  -11.6790  -11.5917   -9.1876   -8.0864   -8.0864   -7.6811
   -6.6540   -6.5655   -6.5655   -6.5146   -6.4345   -6.4345   -5.1678   -5.1678   -3.9259   -3.9259
   -2.2960   -1.7986   -1.7986   -0.3591   -0.3591    0.0413    0.0935    0.0935    0.2665    0.2903
    0.3585    0.6612    0.7670    0.7670    1.0983    1.0984    2.3621    2.3621    2.7375    2.7375
    3.1485    3.2690    3.6527    3.6615    3.8202    4.0374    4.0374    4.3993    4.3993    4.5768
    4.5768    4.9192    5.5886    5.5886    5.7571    6.3039    6.3039    6.3437    6.3437    7.0509
    7.9386    8.1320    8.1321    8.3486    8.8152    8.8152    9.0991   10.0721   10.0721   10.3563
   11.1322   11.1322   11.9999   11.9999   12.9042   12.9042   13.4287   13.4287   13.8245   13.8245
   13.9886   14.3909   14.5989   14.6041
  12  1  -31.3681  -31.3681  -29.8903  -29.8903  -27.1881  -27.1881  -27.1881  -27.1881  -26.4285  -25.0546
         -24.9420  -24.9420  -23.8211  -23.8211  -23.2443  -23.2443  -23.2443  -23.2443  -21.5791  -21.5791
  -21.5791  -21.5791  -21.0048  -21.0048  -20.5027  -20.4007  -19.7545  -19.7545  -19.7545  -19.7545
  -19.6309  -19.6309  -19.0812  -19.0812  -18.1768  -18.1768  -18.1768  -18.1768  -18.0971  -18.0971
  -17.4916  -16.9820  -16.9820  -16.9820  -16.9820  -16.5592  -16.4899  -16.4899  -15.8642  -15.8642
  -15.8642  -15.8642  -15.1604  -15.1604  -15.0514  -15.0514  -14.6046  -14.5957  -14.5957  -13.6379
  -13.6379  -12.7264  -12.7264  -12.2153  -10.3655  -10.3655  -10.3655  -10.3655   -6.6262   -6.6262
   -6.5632   -6.5632   -6.4899   -6.4899   -6.4899   -6.4899   -5.6979   -5.6979   -4.6411   -2.8374
   -2.7260   -2.7260   -0.9181   -0.9180    0.0191    0.2154    0.2154    0.2154    0.2154    0.7758
    0.7758    0.7758    0.7758    1.3103    1.3103    1.6849    1.6849    2.2066    2.2066    2.4446
    2.4446    3.0036    3.0036    3.5349    3.5349    3.8371    3.8371    3.8391    4.6221    4.6221
    5.6645    5.6645    5.6645    5.6645    5.7360    5.7360    6.1557    6.1557    7.4412    7.4412
    7.9639    7.9639    7.9640    7.9640    9.3882    9.3882    9.8074    9.8075    9.8075    9.8075
   10.9071   10.9071   11.0130   11.7812   13.2413   13.3632   13.8180   13.8180   13.8181   13.8181
   14.2508   14.2508   14.2508   14.2508
  13  1  -31.0218  -30.2809  -30.2809  -28.1689  -28.1688  -27.0838  -26.8655  -26.4369  -26.4369  -26.3108
         -26.3108  -25.5223  -24.5825  -24.5825  -24.2216  -24.0779  -24.0779  -23.4474  -22.6731  -22.6731
  -21.9146  -21.6528  -21.3086  -20.8823  -20.8823  -20.6599  -20.6599  -20.6168  -19.1607  -19.0172
  -19.0172  -18.4451  -18.3077  -17.7859  -17.7859  -17.7398  -17.7398  -17.6277  -17.5388  -17.5388
  -17.3193  -17.3193  -16.8226  -16.1856  -16.1856  -15.9980  -15.9980  -15.5838  -15.5838  -15.5261
  -15.5261  -15.3613  -14.8413  -14.8413  -14.7848  -14.3525  -14.0062  -14.0062  -13.9176  -13.9176
  -13.4661  -13.3937  -13.0854  -10.1714  -10.1714  -10.0547   -8.7627   -8.3955   -8.3955   -7.8431
   -7.8249   -7.8249   -7.6239   -6.3934   -6.3631   -6.3631   -5.7351   -5.7351   -3.5856   -3.5856
   -3.5487   -3.5487   -3.1168   -2.4913   -2.1933   -1.9609   -1.9609   -0.8977   -0.8977   -0.2338
    0.4197    0.4197    0.9036    1.8359    1.8359    2.0798    2.3114    2.5572    2.5572    3.2099
    3.2216    3.2216    3.3440    3.9804    3.9805    4.1568    4.1568    4.3876    4.7254    4.7254
    5.1148    5.1278    5.2612    5.2624    5.2624    6.3821    6.3821    6.8517    6.8904    6.8904
    7.7407    7.8084    7.8084    8.0275    8.5791    8.5791    9.3342   10.1781   10.2578   10.2578
   10.9850   10.9850   12.1428   12.1428   12.7801   12.7801   13.5061   13.5061   13.7754   13.7754
   14.0485   14.3308   14.6021   14.6063
  14  1  -31.3984  -29.9169  -29.2029  -29.2029  -27.8360  -27.8360  -27.4118  -27.1932  -26.1182  -25.4918
         -25.4918  -25.4301  -25.4301  -24.3003  -24.3003  -23.8507  -23.2543  -23.2543  -22.9041  -22.1339
  -22.1339  -21.9125  -21.9125  -21.3119  -21.3119  -20.0612  -19.6947  -19.6947  -19.6716  -19.6716
  -19.1053  -19.1053  -18.5922  -18.5682  -18.2425  -18.2425  -17.5371  -17.5371  -17.4484  -17.3698
  -17.3698  -16.9938  -16.6286  -16.6286  -16.2750  -16.2750  -15.8681  -15.7362  -15.4212  -15.4212
  -15.1605  -15.1605  -14.9841  -14.7571  -14.6861  -14.6861  -14.1642  -13.8814  -13.7768  -13.1640
  -13.1640  -12.7857  -12.5030   -9.5983   -9.1673   -9.1673   -8.9645   -8.6647   -8.6647   -8.2706
   -8.0528   -8.0528   -7.5901   -7.5901   -6.0407   -6.0407   -5.7809   -5.2412   -5.2412   -4.3679
   -3.5771   -2.8476   -2.8476   -2.8042   -2.8042   -1.8434   -1.8434   -1.7606   -1.3753   -0.0484
    0.1029    0.6605    0.8179    0.8179    1.0209    1.4847    1.4847    1.5990    2.0863    2.1193
    3.5254    3.5943    3.9885    3.9885    4.0225    4.0225    4.5622    4.5622    4.9540    5.4344
    5.9108    5.9108    6.0911    6.4792    6.4792    6.8616    7.2210    7.6314    7.6314    7.9785
    7.9785    8.5017    8.5017    9.1053    9.1053    9.1684    9.5605    9.5605    9.7687    9.7687
   10.3271   10.8096   10.8096   11.0672   11.9641   11.9641   12.1776   12.7443   12.7443   12.9377
   15.0686   15.0686   15.1503   15.1503
  15  1  -31.3984  -29.9169  -29.2029  -29.2029  -27.8360  -27.8360  -27.4118  -27.1932  -26.1182  -25.4918
         -25.4918  -25.4301  -25.4301  -24.3003  -24.3003  -23.8507  -23.2543  -23.2543  -22.9041  -22.1339
  -22.1339  -21.9125  -21.9125  -21.3119  -21.3119  -20.0612  -19.6947  -19.6947  -19.6716  -19.6716
  -19.1053  -19.1053  -18.5922  -18.5682  -18.2425  -18.2425  -17.5371  -17.5371  -17.4484  -17.3698
  -17.3698  -16.9938  -16.6286  -16.6286  -16.2750  -16.2750  -15.8681  -15.7362  -15.4212  -15.4212
  -15.1605  -15.1605  -14.9841  -14.7571  -14.6861  -14.6861  -14.1642  -13.8814  -13.7768  -13.1640
  -13.1640  -12.7857  -12.5030   -9.5983   -9.1673   -9.1673   -8.9645   -8.6647   -8.6647   -8.2706
   -8.0528   -8.0528   -7.5901   -7.5901   -6.0407   -6.0407   -5.7809   -5.2412   -5.2412   -4.3679
   -3.5771   -2.8476   -2.8476   -2.8042   -2.8042   -1.8434   -1.8434   -1.7606   -1.3753   -0.0484
    0.1029    0.6605    0.8179    0.8179    1.0209    1.4847    1.4847    1.5990    2.0863    2.1193
    3.5254    3.5943    3.9885    3.9885    4.0225    4.0225    4.5622    4.5622    4.9540    5.4344
    5.9108    5.9108    6.0911    6.4792    6.4792    6.8616    7.2210    7.6314    7.6314    7.9785
    7.9785    8.5017    8.5017    9.1053    9.1053    9.1684    9.5605    9.5605    9.7687    9.7687
   10.3271   10.8096   10.8096   11.0672   11.9641   11.9641   12.1776   12.7443   12.7443   12.9377
   15.0686   15.0686   15.1503   15.1503
  16  1  -31.0218  -30.2809  -30.2809  -28.1689  -28.1688  -27.0838  -26.8655  -26.4369  -26.4369  -26.3108
         -26.3108  -25.5223  -24.5825  -24.5825  -24.2216  -24.0779  -24.0779  -23.4474  -22.6731  -22.6731
  -21.9146  -21.6528  -21.3086  -20.8823  -20.8823  -20.6599  -20.6599  -20.6168  -19.1607  -19.0172
  -19.0172  -18.4451  -18.3077  -17.7859  -17.7859  -17.7398  -17.7398  -17.6277  -17.5388  -17.5388
  -17.3193  -17.3193  -16.8226  -16.1856  -16.1856  -15.9980  -15.9980  -15.5838  -15.5838  -15.5261
  -15.5261  -15.3613  -14.8413  -14.8413  -14.7848  -14.3525  -14.0062  -14.0062  -13.9176  -13.9176
  -13.4661  -13.3937  -13.0854  -10.1714  -10.1714  -10.0547   -8.7627   -8.3955   -8.3955   -7.8431
   -7.8249   -7.8249   -7.6239   -6.3934   -6.3631   -6.3631   -5.7351   -5.7351   -3.5856   -3.5856
   -3.5487   -3.5487   -3.1168   -2.4913   -2.1933   -1.9609   -1.9609   -0.8977   -0.8977   -0.2338
    0.4197    0.4197    0.9036    1.8359    1.8359    2.0798    2.3114    2.5572    2.5572    3.2099
    3.2216    3.2216    3.3440    3.9804    3.9805    4.1568    4.1568    4.3876    4.7254    4.7254
    5.1148    5.1278    5.2612    5.2624    5.2624    6.3821    6.3821    6.8517    6.8904    6.8904
    7.7407    7.8084    7.8084    8.0275    8.5791    8.5791    9.3342   10.1781   10.2578   10.2578
   10.9850   10.9850   12.1428   12.1428   12.7801   12.7801   13.5061   13.5061   13.7754   13.7754
   14.0485   14.3308   14.6021   14.6063
  17  1  -31.3984  -29.9169  -29.2029  -29.2029  -27.8360  -27.8360  -27.4118  -27.1932  -26.1182  -25.4918
         -25.4918  -25.4301  -25.4301  -24.3003  -24.3003  -23.8507  -23.2543  -23.2543  -22.9041  -22.1339
  -22.1339  -21.9125  -21.9125  -21.3119  -21.3119  -20.0612  -19.6947  -19.6947  -19.6716  -19.6716
  -19.1053  -19.1053  -18.5922  -18.5682  -18.2425  -18.2425  -17.5371  -17.5371  -17.4484  -17.3698
  -17.3698  -16.9938  -16.6286  -16.6286  -16.2750  -16.2750  -15.8681  -15.7362  -15.4212  -15.4212
  -15.1605  -15.1605  -14.9841  -14.7571  -14.6861  -14.6861  -14.1642  -13.8814  -13.7768  -13.1640
  -13.1640  -12.7857  -12.5030   -9.5983   -9.1673   -9.1673   -8.9645   -8.6647   -8.6647   -8.2706
   -8.0528   -8.0528   -7.5901   -7.5901   -6.0407   -6.0407   -5.7809   -5.2412   -5.2412   -4.3679
   -3.5771   -2.8476   -2.8476   -2.8042   -2.8042   -1.8434   -1.8434   -1.7606   -1.3753   -0.0484
    0.1029    0.6605    0.8179    0.8179    1.0209    1.4847    1.4847    1.5990    2.0863    2.1193
    3.5254    3.5943    3.9885    3.9885    4.0225    4.0225    4.5622    4.5622    4.9540    5.4344
    5.9108    5.9108    6.0911    6.4792    6.4792    6.8616    7.2210    7.6314    7.6314    7.9785
    7.9785    8.5017    8.5017    9.1053    9.1053    9.1684    9.5605    9.5605    9.7687    9.7687
   10.3271   10.8096   10.8096   11.0672   11.9641   11.9641   12.1776   12.7443   12.7443   12.9377
   15.0686   15.0686   15.1503   15.1503
  18  1  -31.5882  -28.6801  -28.6801  -28.6801  -28.6801  -28.6801  -28.6801  -27.5768  -25.0335  -25.0335
         -25.0335  -25.0335  -25.0335  -25.0335  -24.5849  -24.5849  -22.9696  -22.9696  -22.9696  -22.9696
  -21.1356  -21.1356  -20.9067  -20.9067  -20.9067  -20.9067  -20.9067  -20.9067  -19.5233  -19.5233
  -19.5233  -19.5233  -18.7333  -18.1662  -18.1662  -18.1662  -18.1662  -18.1662  -18.1662  -16.5107
  -16.5107  -16.5107  -16.5107  -16.5107  -16.5107  -16.0595  -16.0595  -16.0594  -16.0594  -16.0594
  -16.0594  -14.5495  -14.5495  -14.5495  -14.5495  -14.5495  -14.5495  -13.3008  -13.3008  -12.6297
  -12.6297  -12.3069  -12.3069   -9.0693   -8.6867   -8.6867   -8.6867   -8.6867   -8.2689   -8.2689
   -8.2689   -8.2689   -8.2689   -8.2689   -5.7752   -5.7752   -5.7752   -5.7752   -5.7752   -5.7751
   -2.8677   -2.8677   -2.7045   -2.7044   -2.7044   -2.7044   -2.7044   -2.7044   -0.6440   -0.0598
   -0.0598    0.7827    0.7828    0.7828    0.7828    0.7828    0.7828    0.8690    1.2219    1.2219
    3.6047    3.6047    3.6047    3.6047    3.6047    3.6047    5.0200    5.7598    6.4565    6.4565
    7.0253    7.0253    7.0253    7.0253    8.2271    8.2271    8.2271    8.2271    8.2271    8.2271
    8.9182    8.9182    9.3397    9.3397    9.3397    9.3397    9.3397    9.3397    9.8642    9.8642
    9.8642    9.8642    9.8642    9.8642   11.3240   11.3240   11.3240   11.3240   11.3240   11.3240
   15.4745   15.4745   15.4745   15.4745
  19  1  -31.3984  -29.9169  -29.2029  -29.2029  -27.8360  -27.8360  -27.4118  -27.1932  -26.1182  -25.4918
         -25.4918  -25.4301  -25.4301  -24.3003  -24.3003  -23.8507  -23.2543  -23.2543  -22.9041  -22.1339
  -22.1339  -21.9125  -21.9125  -21.3119  -21.3119  -20.0612  -19.6947  -19.6947  -19.6716  -19.6716
  -19.1053  -19.1053  -18.5922  -18.5682  -18.2425  -18.2425  -17.5371  -17.5371  -17.4484  -17.3698
  -17.3698  -16.9938  -16.6286  -16.6286  -16.2750  -16.2750  -15.8681  -15.7362  -15.4212  -15.4212
  -15.1605  -15.1605  -14.9841  -14.7571  -14.6861  -14.6861  -14.1642  -13.8814  -13.7768  -13.1640
  -13.1640  -12.7857  -12.5030   -9.5983   -9.1673   -9.1673   -8.9645   -8.6647   -8.6647   -8.2706
   -8.0528   -8.0528   -7.5901   -7.5901   -6.0407   -6.0407   -5.7809   -5.2412   -5.2412   -4.3679
   -3.5771   -2.8476   -2.8476   -2.8042   -2.8042   -1.8434   -1.8434   -1.7606   -1.3753   -0.0484
    0.1029    0.6605    0.8179    0.8179    1.0209    1.4847    1.4847    1.5990    2.0863    2.1193
    3.5254    3.5943    3.9885    3.9885    4.0225    4.0225    4.5622    4.5622    4.9540    5.4344
    5.9108    5.9108    6.0911    6.4792    6.4792    6.8616    7.2210    7.6314    7.6314    7.9785
    7.9785    8.5017    8.5017    9.1053    9.1053    9.1684    9.5605    9.5605    9.7687    9.7687
   10.3271   10.8096   10.8096   11.0672   11.9641   11.9641   12.1776   12.7443   12.7443   12.9377
   15.0686   15.0686   15.1503   15.1503
  20  1  -30.8350  -30.8350  -29.3798  -29.3798  -26.9209  -26.9209  -26.7169  -26.7169  -26.7169  -26.7169
         -25.9614  -25.6469  -25.6469  -24.6586  -23.4212  -23.4212  -23.4212  -23.4212  -22.5511  -22.5511
  -22.5511  -22.5511  -22.2921  -21.5251  -20.0695  -20.0695  -20.0695  -20.0695  -18.8037  -18.8037
  -18.8037  -18.8037  -18.7240  -18.7240  -18.1671  -18.1671  -17.9488  -17.9488  -17.1570  -16.8413
  -16.8413  -16.6611  -16.6611  -16.6611  -16.6611  -16.1495  -16.1495  -15.7616  -15.7616  -15.2212
  -15.2212  -15.1334  -14.7530  -14.7529  -14.2489  -14.2489  -14.2489  -14.2489  -14.1232  -14.1232
  -13.8567  -13.1117  -13.1117  -10.6657   -9.0460   -9.0460   -9.0460   -9.0460   -8.6693   -8.6693
   -8.0015   -8.0015   -6.5481   -6.5481   -6.5481   -6.5481   -5.4278   -4.9134   -4.9134   -4.0689
   -2.7761   -2.7760   -2.7760   -2.7760   -2.7012   -2.7012   -1.1052   -1.1052   -0.8322   -0.8322
   -0.1511    1.8650    1.8650    2.2058    2.2059    2.2059    2.2059    2.6722    2.6722    2.7452
    2.7452    3.1693    3.1693    3.1951    3.1951    3.4849    4.2187    4.2187    5.2180    5.2180
    5.2180    5.2180    5.3004    5.3004    5.5262    5.5262    5.8615    5.8615    7.2255    7.2255
    8.3084    8.3084    8.3084    8.3084    9.5549    9.5549    9.5549    9.5549    9.6437    9.6437
   10.7177   10.7177   11.1252   11.6683   13.2990   13.3529   13.8871   13.8872   13.8872   13.8872
   14.1893   14.1893   14.1893   14.1893
  21  1  -31.3984  -29.9169  -29.2029  -29.2029  -27.8360  -27.8360  -27.4118  -27.1932  -26.1182  -25.4918
         -25.4918  -25.4301  -25.4301  -24.3003  -24.3003  -23.8507  -23.2543  -23.2543  -22.9041  -22.1339
  -22.1339  -21.9125  -21.9125  -21.3119  -21.3119  -20.0612  -19.6947  -19.6947  -19.6716  -19.6716
  -19.1053  -19.1053  -18.5922  -18.5682  -18.2425  -18.2425  -17.5371  -17.5371  -17.4484  -17.3698
  -17.3698  -16.9938  -16.6286  -16.6286  -16.2750  -16.2750  -15.8681  -15.7362  -15.4212  -15.4212
  -15.1605  -15.1605  -14.9841  -14.7571  -14.6861  -14.6861  -14.1642  -13.8814  -13.7768  -13.1640
  -13.1640  -12.7857  -12.5030   -9.5983   -9.1673   -9.1673   -8.9645   -8.6647   -8.6647   -8.2706
   -8.0528   -8.0528   -7.5901   -7.5901   -6.0407   -6.0407   -5.7809   -5.2412   -5.2412   -4.3679
   -3.5771   -2.8476   -2.8476   -2.8042   -2.8042   -1.8434   -1.8434   -1.7606   -1.3753   -0.0484
    0.1029    0.6605    0.8179    0.8179    1.0209    1.4847    1.4847    1.5990    2.0863    2.1193
    3.5254    3.5943    3.9885    3.9885    4.0225    4.0225    4.5622    4.5622    4.9540    5.4344
    5.9108    5.9108    6.0911    6.4792    6.4792    6.8616    7.2210    7.6314    7.6314    7.9785
    7.9785    8.5017    8.5017    9.1053    9.1053    9.1684    9.5605    9.5605    9.7687    9.7687
   10.3271   10.8096   10.8096   11.0672   11.9641   11.9641   12.1776   12.7443   12.7443   12.9377
   15.0686   15.0686   15.1503   15.1503
  22  1  -31.3984  -29.9169  -29.2029  -29.2029  -27.8360  -27.8360  -27.4118  -27.1932  -26.1182  -25.4918
         -25.4918  -25.4301  -25.4301  -24.3003  -24.3003  -23.8507  -23.2543  -23.2543  -22.9041  -22.1339
  -22.1339  -21.9125  -21.9125  -21.3119  -21.3119  -20.0612  -19.6947  -19.6947  -19.6716  -19.6716
  -19.1053  -19.1053  -18.5922  -18.5682  -18.2425  -18.2425  -17.5371  -17.5371  -17.4484  -17.3698
  -17.3698  -16.9938  -16.6286  -16.6286  -16.2750  -16.2750  -15.8681  -15.7362  -15.4212  -15.4212
  -15.1605  -15.1605  -14.9841  -14.7571  -14.6861  -14.6861  -14.1642  -13.8814  -13.7768  -13.1640
  -13.1640  -12.7857  -12.5030   -9.5983   -9.1673   -9.1673   -8.9645   -8.6647   -8.6647   -8.2706
   -8.0528   -8.0528   -7.5901   -7.5901   -6.0407   -6.0407   -5.7809   -5.2412   -5.2412   -4.3679
   -3.5771   -2.8476   -2.8476   -2.8042   -2.8042   -1.8434   -1.8434   -1.7606   -1.3753   -0.0484
    0.1029    0.6605    0.8179    0.8179    1.0209    1.4847    1.4847    1.5990    2.0863    2.1193
    3.5254    3.5943    3.9885    3.9885    4.0225    4.0225    4.5622    4.5622    4.9540    5.4344
    5.9108    5.9108    6.0911    6.4792    6.4792    6.8616    7.2210    7.6314    7.6314    7.9785
    7.9785    8.5017    8.5017    9.1053    9.1053    9.1684    9.5605    9.5605    9.7687    9.7687
   10.3271   10.8096   10.8096   11.0672   11.9641   11.9641   12.1776   12.7443   12.7443   12.9377
   15.0686   15.0686   15.1503   15.1503
  23  1  -31.0218  -30.2809  -30.2809  -28.1689  -28.1688  -27.0838  -26.8655  -26.4369  -26.4369  -26.3108
         -26.3108  -25.5223  -24.5825  -24.5825  -24.2216  -24.0779  -24.0779  -23.4474  -22.6731  -22.6731
  -21.9146  -21.6528  -21.3086  -20.8823  -20.8823  -20.6599  -20.6599  -20.6168  -19.1607  -19.0172
  -19.0172  -18.4451  -18.3077  -17.7859  -17.7859  -17.7398  -17.7398  -17.6277  -17.5388  -17.5388
  -17.3193  -17.3193  -16.8226  -16.1856  -16.1856  -15.9980  -15.9980  -15.5838  -15.5838  -15.5261
  -15.5261  -15.3613  -14.8413  -14.8413  -14.7848  -14.3525  -14.0062  -14.0062  -13.9176  -13.9176
  -13.4661  -13.3937  -13.0854  -10.1714  -10.1714  -10.0547   -8.7627   -8.3955   -8.3955   -7.8431
   -7.8249   -7.8249   -7.6239   -6.3934   -6.3631   -6.3631   -5.7351   -5.7351   -3.5856   -3.5856
   -3.5487   -3.5487   -3.1168   -2.4913   -2.1933   -1.9609   -1.9609   -0.8977   -0.8977   -0.2338
    0.4197    0.4197    0.9036    1.8359    1.8359    2.0798    2.3114    2.5572    2.5572    3.2099
    3.2216    3.2216    3.3440    3.9804    3.9805    4.1568    4.1568    4.3876    4.7254    4.7254
    5.1148    5.1278    5.2612    5.2624    5.2624    6.3821    6.3821    6.8517    6.8904    6.8904
    7.7407    7.8084    7.8084    8.0275    8.5791    8.5791    9.3342   10.1781   10.2578   10.2578
   10.9850   10.9850   12.1428   12.1428   12.7801   12.7801   13.5061   13.5061   13.7754   13.7754
   14.0485   14.3308   14.6021   14.6063
  24  1  -31.0218  -30.2809  -30.2809  -28.1689  -28.1688  -27.0838  -26.8655  -26.4369  -26.4369  -26.3108
         -26.3108  -25.5223  -24.5825  -24.5825  -24.2216  -24.0779  -24.0779  -23.4474  -22.6731  -22.6731
  -21.9146  -21.6528  -21.3086  -20.8823  -20.8823  -20.6599  -20.6599  -20.6168  -19.1607  -19.0172
  -19.0172  -18.4451  -18.3077  -17.7859  -17.7859  -17.7398  -17.7398  -17.6277  -17.5388  -17.5388
  -17.3193  -17.3193  -16.8226  -16.1856  -16.1856  -15.9980  -15.9980  -15.5838  -15.5838  -15.5261
  -15.5261  -15.3613  -14.8413  -14.8413  -14.7848  -14.3525  -14.0062  -14.0062  -13.9176  -13.9176
  -13.4661  -13.3937  -13.0854  -10.1714  -10.1714  -10.0547   -8.7627   -8.3955   -8.3955   -7.8431
   -7.8249   -7.8249   -7.6239   -6.3934   -6.3631   -6.3631   -5.7351   -5.7351   -3.5856   -3.5856
   -3.5487   -3.5487   -3.1168   -2.4913   -2.1933   -1.9609   -1.9609   -0.8977   -0.8977   -0.2338
    0.4197    0.4197    0.9036    1.8359    1.8359    2.0798    2.3114    2.5572    2.5572    3.2099
    3.2216    3.2216    3.3440    3.9804    3.9805    4.1568    4.1568    4.3876    4.7254    4.7254
    5.1148    5.1278    5.2612    5.2624    5.2624    6.3821    6.3821    6.8517    6.8904    6.8904
    7.7407    7.8084    7.8084    8.0275    8.5791    8.5791    9.3342   10.1781   10.2578   10.2578
   10.9850   10.9850   12.1428   12.1428   12.7801   12.7801   13.5061   13.5061   13.7754   13.7754
   14.0485   14.3308   14.6021   14.6063
  25  1  -31.0218  -30.2809  -30.2809  -28.1689  -28.1688  -27.0838  -26.8655  -26.4369  -26.4369  -26.3108
         -26.3108  -25.5223  -24.5825  -24.5825  -24.2216  -24.0779  -24.0779  -23.4474  -22.6731  -22.6731
  -21.9146  -21.6528  -21.3086  -20.8823  -20.8823  -20.6599  -20.6599  -20.6168  -19.1607  -19.0172
  -19.0172  -18.4451  -18.3077  -17.7859  -17.7859  -17.7398  -17.7398  -17.6277  -17.5388  -17.5388
  -17.3193  -17.3193  -16.8226  -16.1856  -16.1856  -15.9980  -15.9980  -15.5838  -15.5838  -15.5261
  -15.5261  -15.3613  -14.8413  -14.8413  -14.7848  -14.3525  -14.0062  -14.0062  -13.9176  -13.9176
  -13.4661  -13.3937  -13.0854  -10.1714  -10.1714  -10.0547   -8.7627   -8.3955   -8.3955   -7.8431
   -7.8249   -7.8249   -7.6239   -6.3934   -6.3631   -6.3631   -5.7351   -5.7351   -3.5856   -3.5856
   -3.5487   -3.5487   -3.1168   -2.4913   -2.1933   -1.9609   -1.9609   -0.8977   -0.8977   -0.2338
    0.4197    0.4197    0.9036    1.8359    1.8359    2.0798    2.3114    2.5572    2.5572    3.2099
    3.2216    3.2216    3.3440    3.9804    3.9805    4.1568    4.1568    4.3876    4.7254    4.7254
    5.1148    5.1278    5.2612    5.2624    5.2624    6.3821    6.3821    6.8517    6.8904    6.8904
    7.7407    7.8084    7.8084    8.0275    8.5791    8.5791    9.3342   10.1781   10.2578   10.2578
   10.9850   10.9850   12.1428   12.1428   12.7801   12.7801   13.5061   13.5061   13.7754   13.7754
   14.0485   14.3308   14.6021   14.6063
  26  1  -30.8350  -30.8350  -29.3798  -29.3798  -26.9209  -26.9209  -26.7169  -26.7169  -26.7169  -26.7169
         -25.9614  -25.6469  -25.6469  -24.6586  -23.4212  -23.4212  -23.4212  -23.4212  -22.5511  -22.5511
  -22.5511  -22.5511  -22.2921  -21.5251  -20.0695  -20.0695  -20.0695  -20.0695  -18.8037  -18.8037
  -18.8037  -18.8037  -18.7240  -18.7240  -18.1671  -18.1671  -17.9488  -17.9488  -17.1570  -16.8413
  -16.8413  -16.6611  -16.6611  -16.6611  -16.6611  -16.1495  -16.1495  -15.7616  -15.7616  -15.2212
  -15.2212  -15.1334  -14.7530  -14.7529  -14.2489  -14.2489  -14.2489  -14.2489  -14.1232  -14.1232
  -13.8567  -13.1117  -13.1117  -10.6657   -9.0460   -9.0460   -9.0460   -9.0460   -8.6693   -8.6693
   -8.0015   -8.0015   -6.5481   -6.5481   -6.5481   -6.5481   -5.4278   -4.9134   -4.9134   -4.0689
   -2.7761   -2.7760   -2.7760   -2.7760   -2.7012   -2.7012   -1.1052   -1.1052   -0.8322   -0.8322
   -0.1511    1.8650    1.8650    2.2058    2.2059    2.2059    2.2059    2.6722    2.6722    2.7452
    2.7452    3.1693    3.1693    3.1951    3.1951    3.4849    4.2187    4.2187    5.2180    5.2180
    5.2180    5.2180    5.3004    5.3004    5.5262    5.5262    5.8615    5.8615    7.2255    7.2255
    8.3084    8.3084    8.3084    8.3084    9.5549    9.5549    9.5549    9.5549    9.6437    9.6437
   10.7177   10.7177   11.1252   11.6683   13.2990   13.3529   13.8871   13.8872   13.8872   13.8872
   14.1893   14.1893   14.1893   14.1893
  27  1  -31.0218  -30.2809  -30.2809  -28.1689  -28.1688  -27.0838  -26.8655  -26.4369  -26.4369  -26.3108
         -26.3108  -25.5223  -24.5825  -24.5825  -24.2216  -24.0779  -24.0779  -23.4474  -22.6731  -22.6731
  -21.9146  -21.6528  -21.3086  -20.8823  -20.8823  -20.6599  -20.6599  -20.6168  -19.1607  -19.0172
  -19.0172  -18.4451  -18.3077  -17.7859  -17.7859  -17.7398  -17.7398  -17.6277  -17.5388  -17.5388
  -17.3193  -17.3193  -16.8226  -16.1856  -16.1856  -15.9980  -15.9980  -15.5838  -15.5838  -15.5261
  -15.5261  -15.3613  -14.8413  -14.8413  -14.7848  -14.3525  -14.0062  -14.0062  -13.9176  -13.9176
  -13.4661  -13.3937  -13.0854  -10.1714  -10.1714  -10.0547   -8.7627   -8.3955   -8.3955   -7.8431
   -7.8249   -7.8249   -7.6239   -6.3934   -6.3631   -6.3631   -5.7351   -5.7351   -3.5856   -3.5856
   -3.5487   -3.5487   -3.1168   -2.4913   -2.1933   -1.9609   -1.9609   -0.8977   -0.8977   -0.2338
    0.4197    0.4197    0.9036    1.8359    1.8359    2.0798    2.3114    2.5572    2.5572    3.2099
    3.2216    3.2216    3.3440    3.9804    3.9805    4.1568    4.1568    4.3876    4.7254    4.7254
    5.1148    5.1278    5.2612    5.2624    5.2624    6.3821    6.3821    6.8517    6.8904    6.8904
    7.7407    7.8084    7.8084    8.0275    8.5791    8.5791    9.3342   10.1781   10.2578   10.2578
   10.9850   10.9850   12.1428   12.1428   12.7801   12.7801   13.5061   13.5061   13.7754   13.7754
   14.0485   14.3308   14.6021   14.6063
  28  1  -30.8350  -30.8350  -29.3798  -29.3798  -26.9209  -26.9209  -26.7169  -26.7169  -26.7169  -26.7169
         -25.9614  -25.6469  -25.6469  -24.6586  -23.4212  -23.4212  -23.4212  -23.4212  -22.5511  -22.5511
  -22.5511  -22.5511  -22.2921  -21.5251  -20.0695  -20.0695  -20.0695  -20.0695  -18.8037  -18.8037
  -18.8037  -18.8037  -18.7240  -18.7240  -18.1671  -18.1671  -17.9488  -17.9488  -17.1570  -16.8413
  -16.8413  -16.6611  -16.6611  -16.6611  -16.6611  -16.1495  -16.1495  -15.7616  -15.7616  -15.2212
  -15.2212  -15.1334  -14.7530  -14.7529  -14.2489  -14.2489  -14.2489  -14.2489  -14.1232  -14.1232
  -13.8567  -13.1117  -13.1117  -10.6657   -9.0460   -9.0460   -9.0460   -9.0460   -8.6693   -8.6693
   -8.0015   -8.0015   -6.5481   -6.5481   -6.5481   -6.5481   -5.4278   -4.9134   -4.9134   -4.0689
   -2.7761   -2.7760   -2.7760   -2.7760   -2.7012   -2.7012   -1.1052   -1.1052   -0.8322   -0.8322
   -0.1511    1.8650    1.8650    2.2058    2.2059    2.2059    2.2059    2.6722    2.6722    2.7452
    2.7452    3.1693    3.1693    3.1951    3.1951    3.4849    4.2187    4.2187    5.2180    5.2180
    5.2180    5.2180    5.3004    5.3004    5.5262    5.5262    5.8615    5.8615    7.2255    7.2255
    8.3084    8.3084    8.3084    8.3084    9.5549    9.5549    9.5549    9.5549    9.6437    9.6437
   10.7177   10.7177   11.1252   11.6683   13.2990   13.3529   13.8871   13.8872   13.8872   13.8872
   14.1893   14.1893   14.1893   14.1893
  29  1  -29.4671  -29.4671  -28.7605  -28.7605  -28.7605  -28.7605  -26.7439  -26.7439  -26.7439  -26.7439
         -25.4955  -25.4955  -24.9717  -24.9717  -24.9717  -24.9717  -24.2252  -24.2252  -22.8473  -22.8473
  -22.6459  -22.6459  -22.6459  -22.6459  -20.6538  -20.6538  -19.5986  -19.5986  -19.5986  -19.5986
  -19.0129  -19.0129  -18.2390  -18.2390  -17.4657  -17.4657  -17.4657  -17.4657  -16.7926  -16.7926
  -16.7926  -16.7926  -16.4630  -16.4630  -16.4630  -16.4630  -14.9177  -14.9177  -14.9177  -14.9177
  -14.7105  -14.7105  -13.8681  -13.8681  -13.3049  -13.3049  -12.7846  -12.7846  -12.7846  -12.7846
  -11.0715  -11.0715  -11.0715  -11.0715   -9.9853   -9.9853   -9.8138   -9.8138   -9.8138   -9.8138
   -9.2398   -9.2398   -6.6395   -6.6395   -6.4886   -6.4886   -6.4886   -6.4886   -5.5975   -5.5975
   -4.5215   -4.5215   -4.5215   -4.5215   -2.4798   -2.4798   -2.4798   -2.4798   -1.4751   -1.4751
    1.8717    1.8717    2.3575    2.3575    2.3575    2.3575    2.7571    2.7571    2.7571    2.7571
    2.8926    2.8926    3.8126    3.8126    3.9770    3.9770    3.9770    3.9770    4.5902    4.5902
    4.5902    4.5902    5.2552    5.2552    6.2297    6.2297    7.0470    7.0470    7.0470    7.0470
    7.5582    7.5582    7.8809    7.8809    7.8810    7.8810    9.7641    9.7641   10.6310   10.6310
   10.6310   10.6310   12.4674   12.4674   12.4674   12.4674   13.6472   13.6472   13.6472   13.6472
   14.1876   14.1876   14.6039   14.6039
  30  1  -29.8263  -29.8263  -28.4134  -28.4134  -27.7320  -27.7320  -27.7320  -27.7320  -26.4257  -26.4257
         -26.4257  -26.4257  -25.8114  -25.8114  -24.1163  -24.1163  -24.1163  -24.1163  -22.0465  -22.0465
  -22.0465  -22.0465  -21.8395  -21.8395  -20.7487  -20.7487  -20.7487  -20.7487  -19.7352  -19.7352
  -19.7352  -19.7352  -18.5965  -18.5965  -18.5965  -18.5965  -17.4905  -17.4905  -16.4668  -16.4668
  -16.4668  -16.4668  -16.0823  -16.0823  -15.8283  -15.8283  -15.8283  -15.8283  -14.8785  -14.8785
  -13.8629  -13.8629  -13.3256  -13.3256  -13.1477  -13.1477  -12.5232  -12.5232  -11.9419  -11.9419
  -11.9419  -11.9419  -10.8551  -10.8551  -10.8551  -10.8551  -10.4163  -10.4163   -8.8867   -8.8867
   -8.8867   -8.8867   -6.7301   -6.7301   -6.7301   -6.7301   -6.0822   -6.0822   -5.2573   -5.2573
   -5.2573   -5.2573   -3.8055   -3.8055   -3.8055   -3.8055   -3.2339   -3.2339   -0.8312   -0.8312
    1.2433    1.2433    1.4003    1.4003    1.9423    1.9423    2.5841    2.5841    2.5841    2.5841
    2.6212    2.6212    2.8645    2.8645    2.8645    2.8645    5.6565    5.6565    5.6973    5.6973
    5.6973    5.6973    6.0986    6.0986    6.8623    6.8623    6.8623    6.8623    8.4094    8.4094
    8.4596    8.4596    8.4596    8.4596    9.1763    9.1763    9.1763    9.1763   10.2415   10.2415
   10.2415   10.2415   10.6912   10.6912   12.3765   12.3765   12.3765   12.3765   12.5929   12.5929
   15.1066   15.1066   15.1066   15.1066
  31  1  -29.8263  -29.8263  -28.4134  -28.4134  -27.7320  -27.7320  -27.7320  -27.7320  -26.4257  -26.4257
         -26.4257  -26.4257  -25.8114  -25.8114  -24.1163  -24.1163  -24.1163  -24.1163  -22.0465  -22.0465
  -22.0465  -22.0465  -21.8395  -21.8395  -20.7487  -20.7487  -20.7487  -20.7487  -19.7352  -19.7352
  -19.7352  -19.7352  -18.5965  -18.5965  -18.5965  -18.5965  -17.4905  -17.4905  -16.4668  -16.4668
  -16.4668  -16.4668  -16.0823  -16.0823  -15.8283  -15.8283  -15.8283  -15.8283  -14.8785  -14.8785
  -13.8629  -13.8629  -13.3256  -13.3256  -13.1477  -13.1477  -12.5232  -12.5232  -11.9419  -11.9419
  -11.9419  -11.9419  -10.8551  -10.8551  -10.8551  -10.8551  -10.4163  -10.4163   -8.8867   -8.8867
   -8.8867   -8.8867   -6.7301   -6.7301   -6.7301   -6.7301   -6.0822   -6.0822   -5.2573   -5.2573
   -5.2573   -5.2573   -3.8055   -3.8055   -3.8055   -3.8055   -3.2339   -3.2339   -0.8312   -0.8312
    1.2433    1.2433    1.4003    1.4003    1.9423    1.9423    2.5841    2.5841    2.5841    2.5841
    2.6212    2.6212    2.8645    2.8645    2.8645    2.8645    5.6565    5.6565    5.6973    5.6973
    5.6973    5.6973    6.0986    6.0986    6.8623    6.8623    6.8623    6.8623    8.4094    8.4094
    8.4596    8.4596    8.4596    8.4596    9.1763    9.1763    9.1763    9.1763   10.2415   10.2415
   10.2415   10.2415   10.6912   10.6912   12.3765   12.3765   12.3765   12.3765   12.5929   12.5929
   15.1066   15.1066   15.1066   15.1066
  32  1  -29.4671  -29.4671  -28.7605  -28.7605  -28.7605  -28.7605  -26.7439  -26.7439  -26.7439  -26.7439
         -25.4955  -25.4955  -24.9717  -24.9717  -24.9717  -24.9717  -24.2252  -24.2252  -22.8473  -22.8473
  -22.6459  -22.6459  -22.6459  -22.6459  -20.6538  -20.6538  -19.5986  -19.5986  -19.5986  -19.5986
  -19.0129  -19.0129  -18.2390  -18.2390  -17.4657  -17.4657  -17.4657  -17.4657  -16.7926  -16.7926
  -16.7926  -16.7926  -16.4630  -16.4630  -16.4630  -16.4630  -14.9177  -14.9177  -14.9177  -14.9177
  -14.7105  -14.7105  -13.8681  -13.8681  -13.3049  -13.3049  -12.7846  -12.7846  -12.7846  -12.7846
  -11.0715  -11.0715  -11.0715  -11.0715   -9.9853   -9.9853   -9.8138   -9.8138   -9.8138   -9.8138
   -9.2398   -9.2398   -6.6395   -6.6395   -6.4886   -6.4886   -6.4886   -6.4886   -5.5975   -5.5975
   -4.5215   -4.5215   -4.5215   -4.5215   -2.4798   -2.4798   -2.4798   -2.4798   -1.4751   -1.4751
    1.8717    1.8717    2.3575    2.3575    2.3575    2.3575    2.7571    2.7571    2.7571    2.7571
    2.8926    2.8926    3.8126    3.8126    3.9770    3.9770    3.9770    3.9770    4.5902    4.5902
    4.5902    4.5902    5.2552    5.2552    6.2297    6.2297    7.0470    7.0470    7.0470    7.0470
    7.5582    7.5582    7.8809    7.8809    7.8810    7.8810    9.7641    9.7641   10.6310   10.6310
   10.6310   10.6310   12.4674   12.4674   12.4674   12.4674   13.6472   13.6472   13.6472   13.6472
   14.1876   14.1876   14.6039   14.6039
  33  1  -29.8263  -29.8263  -28.4134  -28.4134  -27.7320  -27.7320  -27.7320  -27.7320  -26.4257  -26.4257
         -26.4257  -26.4257  -25.8114  -25.8114  -24.1163  -24.1163  -24.1163  -24.1163  -22.0465  -22.0465
  -22.0465  -22.0465  -21.8395  -21.8395  -20.7487  -20.7487  -20.7487  -20.7487  -19.7352  -19.7352
  -19.7352  -19.7352  -18.5965  -18.5965  -18.5965  -18.5965  -17.4905  -17.4905  -16.4668  -16.4668
  -16.4668  -16.4668  -16.0823  -16.0823  -15.8283  -15.8283  -15.8283  -15.8283  -14.8785  -14.8785
  -13.8629  -13.8629  -13.3256  -13.3256  -13.1477  -13.1477  -12.5232  -12.5232  -11.9419  -11.9419
  -11.9419  -11.9419  -10.8551  -10.8551  -10.8551  -10.8551  -10.4163  -10.4163   -8.8867   -8.8867
   -8.8867   -8.8867   -6.7301   -6.7301   -6.7301   -6.7301   -6.0822   -6.0822   -5.2573   -5.2573
   -5.2573   -5.2573   -3.8055   -3.8055   -3.8055   -3.8055   -3.2339   -3.2339   -0.8312   -0.8312
    1.2433    1.2433    1.4003    1.4003    1.9423    1.9423    2.5841    2.5841    2.5841    2.5841
    2.6212    2.6212    2.8645    2.8645    2.8645    2.8645    5.6565    5.6565    5.6973    5.6973
    5.6973    5.6973    6.0986    6.0986    6.8623    6.8623    6.8623    6.8623    8.4094    8.4094
    8.4596    8.4596    8.4596    8.4596    9.1763    9.1763    9.1763    9.1763   10.2415   10.2415
   10.2415   10.2415   10.6912   10.6912   12.3765   12.3765   12.3765   12.3765   12.5929   12.5929
   15.1066   15.1066   15.1066   15.1066
  34  1  -30.0073  -30.0073  -27.2328  -27.2328  -27.2328  -27.2328  -27.2328  -27.2328  -27.2328  -27.2328
         -27.2328  -27.2328  -27.2328  -27.2328  -23.2419  -23.2419  -23.2418  -23.2418  -22.3751  -22.3751
  -22.3751  -22.3751  -20.6331  -20.6331  -20.6331  -20.6331  -19.7410  -19.7410  -19.7410  -19.7410
  -19.7410  -19.7410  -19.7410  -19.7410  -19.7410  -19.7410  -19.7410  -19.7410  -15.6153  -15.6153
  -15.6153  -15.6153  -15.6153  -15.6153  -15.6153  -15.6153  -15.6153  -15.6153  -15.6153  -15.6153
  -13.8292  -13.8292  -12.7896  -12.7896  -12.7896  -12.7896  -11.5475  -11.5475  -11.5475  -11.5475
  -11.5475  -11.5475  -11.5475  -11.5475  -11.5475  -11.5475  -11.5475  -11.5475   -7.9329   -7.9329
   -7.9329   -7.9329   -7.6298   -7.6298   -7.6298   -7.6298   -4.6714   -4.6714   -4.6714   -4.6714
   -4.6714   -4.6714   -4.6714   -4.6714   -4.6714   -4.6714   -4.6714   -4.6714   -0.0134   -0.0134
    0.4262    0.4262    0.4262    0.4262    2.3066    2.3066    2.3066    2.3066    2.3066    2.3066
    2.3066    2.3066    2.3066    2.3066    2.3067    2.3067    5.4437    5.4437    6.9444    6.9444
    6.9444    6.9444    7.8204    7.8204    7.8205    7.8205    8.7609    8.7609    8.7609    8.7609
    8.7609    8.7609    8.7610    8.7610    8.7610    8.7610    8.7610    8.7610   10.7019   10.7019
   10.7019   10.7019   10.7019   10.7019   10.7019   10.7019   10.7019   10.7019   10.7019   10.7019
   15.4708   15.4708   15.4708   15.4708
  35  1  -29.8263  -29.8263  -28.4134  -28.4134  -27.7320  -27.7320  -27.7320  -27.7320  -26.4257  -26.4257
         -26.4257  -26.4257  -25.8114  -25.8114  -24.1163  -24.1163  -24.1163  -24.1163  -22.0465  -22.0465
  -22.0465  -22.0465  -21.8395  -21.8395  -20.7487  -20.7487  -20.7487  -20.7487  -19.7352  -19.7352
  -19.7352  -19.7352  -18.5965  -18.5965  -18.5965  -18.5965  -17.4905  -17.4905  -16.4668  -16.4668
  -16.4668  -16.4668  -16.0823  -16.0823  -15.8283  -15.8283  -15.8283  -15.8283  -14.8785  -14.8785
  -13.8629  -13.8629  -13.3256  -13.3256  -13.1477  -13.1477  -12.5232  -12.5232  -11.9419  -11.9419
  -11.9419  -11.9419  -10.8551  -10.8551  -10.8551  -10.8551  -10.4163  -10.4163   -8.8867   -8.8867
   -8.8867   -8.8867   -6.7301   -6.7301   -6.7301   -6.7301   -6.0822   -6.0822   -5.2573   -5.2573
   -5.2573   -5.2573   -3.8055   -3.8055   -3.8055   -3.8055   -3.2339   -3.2339   -0.8312   -0.8312
    1.2433    1.2433    1.4003    1.4003    1.9423    1.9423    2.5841    2.5841    2.5841    2.5841
    2.6212    2.6212    2.8645    2.8645    2.8645    2.8645    5.6565    5.6565    5.6973    5.6973
    5.6973    5.6973    6.0986    6.0986    6.8623    6.8623    6.8623    6.8623    8.4094    8.4094
    8.4596    8.4596    8.4596    8.4596    9.1763    9.1763    9.1763    9.1763   10.2415   10.2415
   10.2415   10.2415   10.6912   10.6912   12.3765   12.3765   12.3765   12.3765   12.5929   12.5929
   15.1066   15.1066   15.1066   15.1066
  36  1  -29.2889  -29.2889  -29.2889  -29.2889  -27.9008  -27.9008  -27.9008  -27.9008  -25.3541  -25.3541
         -25.3541  -25.3541  -25.3541  -25.3541  -25.3541  -25.3541  -24.6555  -24.6555  -23.2241  -23.2241
  -21.5208  -21.5208  -21.5208  -21.5208  -21.5208  -21.5208  -21.5208  -21.5208  -18.0527  -18.0527
  -18.0527  -18.0527  -18.0527  -18.0527  -18.0527  -18.0527  -17.8287  -17.8287  -17.8287  -17.8287
  -16.3645  -16.3645  -16.3645  -16.3645  -16.2411  -16.2411  -15.3244  -15.3244  -15.3244  -15.3244
  -13.9763  -13.9763  -13.9763  -13.9763  -13.1991  -13.1991  -13.1991  -13.1991  -12.0646  -12.0646
  -12.0646  -12.0646   -9.9351   -9.9351   -9.9351   -9.9351   -9.9351   -9.9351   -9.9351   -9.9351
   -9.7343   -9.7343   -6.8570   -6.8570   -5.8666   -5.8666   -5.8666   -5.8666   -5.8666   -5.8666
   -5.8666   -5.8666   -3.2909   -3.2909   -3.2909   -3.2909   -1.9331   -1.9331   -1.9331   -1.9331
    1.7927    1.7927    2.4097    2.4097    2.4097    2.4097    3.3592    3.3592    3.3592    3.3592
    3.6403    3.6403    3.6403    3.6403    3.8778    3.8778    3.8778    3.8778    3.8778    3.8778
    3.8778    3.8778    5.3559    5.3559    5.3559    5.3559    6.5424    6.5424    6.5425    6.5425
    8.9572    8.9572    8.9572    8.9572    8.9572    8.9572    8.9572    8.9572   10.2106   10.2106
   10.2106   10.2106   11.3964   11.3964   13.3354   13.3354   14.0392   14.0392   14.0392   14.0392
   14.0393   14.0393   14.0393   14.0393
  37  1  -29.8263  -29.8263  -28.4134  -28.4134  -27.7320  -27.7320  -27.7320  -27.7320  -26.4257  -26.4257
         -26.4257  -26.4257  -25.8114  -25.8114  -24.1163  -24.1163  -24.1163  -24.1163  -22.0465  -22.0465
  -22.0465  -22.0465  -21.8395  -21.8395  -20.7487  -20.7487  -20.7487  -20.7487  -19.7352  -19.7352
  -19.7352  -19.7352  -18.5965  -18.5965  -18.5965  -18.5965  -17.4905  -17.4905  -16.4668  -16.4668
  -16.4668  -16.4668  -16.0823  -16.0823  -15.8283  -15.8283  -15.8283  -15.8283  -14.8785  -14.8785
  -13.8629  -13.8629  -13.3256  -13.3256  -13.1477  -13.1477  -12.5232  -12.5232  -11.9419  -11.9419
  -11.9419  -11.9419  -10.8551  -10.8551  -10.8551  -10.8551  -10.4163  -10.4163   -8.8867   -8.8867
   -8.8867   -8.8867   -6.7301   -6.7301   -6.7301   -6.7301   -6.0822   -6.0822   -5.2573   -5.2573
   -5.2573   -5.2573   -3.8055   -3.8055   -3.8055   -3.8055   -3.2339   -3.2339   -0.8312   -0.8312
    1.2433    1.2433    1.4003    1.4003    1.9423    1.9423    2.5841    2.5841    2.5841    2.5841
    2.6212    2.6212    2.8645    2.8645    2.8645    2.8645    5.6565    5.6565    5.6973    5.6973
    5.6973    5.6973    6.0986    6.0986    6.8623    6.8623    6.8623    6.8623    8.4094    8.4094
    8.4596    8.4596    8.4596    8.4596    9.1763    9.1763    9.1763    9.1763   10.2415   10.2415
   10.2415   10.2415   10.6912   10.6912   12.3765   12.3765   12.3765   12.3765   12.5929   12.5929
   15.1066   15.1066   15.1066   15.1066
  38  1  -29.8263  -29.8263  -28.4134  -28.4134  -27.7320  -27.7320  -27.7320  -27.7320  -26.4257  -26.4257
         -26.4257  -26.4257  -25.8114  -25.8114  -24.1163  -24.1163  -24.1163  -24.1163  -22.0465  -22.0465
  -22.0465  -22.0465  -21.8395  -21.8395  -20.7487  -20.7487  -20.7487  -20.7487  -19.7352  -19.7352
  -19.7352  -19.7352  -18.5965  -18.5965  -18.5965  -18.5965  -17.4905  -17.4905  -16.4668  -16.4668
  -16.4668  -16.4668  -16.0823  -16.0823  -15.8283  -15.8283  -15.8283  -15.8283  -14.8785  -14.8785
  -13.8629  -13.8629  -13.3256  -13.3256  -13.1477  -13.1477  -12.5232  -12.5232  -11.9419  -11.9419
  -11.9419  -11.9419  -10.8551  -10.8551  -10.8551  -10.8551  -10.4163  -10.4163   -8.8867   -8.8867
   -8.8867   -8.8867   -6.7301   -6.7301   -6.7301   -6.7301   -6.0822   -6.0822   -5.2573   -5.2573
   -5.2573   -5.2573   -3.8055   -3.8055   -3.8055   -3.8055   -3.2339   -3.2339   -0.8312   -0.8312
    1.2433    1.2433    1.4003    1.4003    1.9423    1.9423    2.5841    2.5841    2.5841    2.5841
    2.6212    2.6212    2.8645    2.8645    2.8645    2.8645    5.6565    5.6565    5.6973    5.6973
    5.6973    5.6973    6.0986    6.0986    6.8623    6.8623    6.8623    6.8623    8.4094    8.4094
    8.4596    8.4596    8.4596    8.4596    9.1763    9.1763    9.1763    9.1763   10.2415   10.2415
   10.2415   10.2415   10.6912   10.6912   12.3765   12.3765   12.3765   12.3765   12.5929   12.5929
   15.1066   15.1066   15.1066   15.1066
  39  1  -29.4671  -29.4671  -28.7605  -28.7605  -28.7605  -28.7605  -26.7439  -26.7439  -26.7439  -26.7439
         -25.4955  -25.4955  -24.9717  -24.9717  -24.9717  -24.9717  -24.2252  -24.2252  -22.8473  -22.8473
  -22.6459  -22.6459  -22.6459  -22.6459  -20.6538  -20.6538  -19.5986  -19.5986  -19.5986  -19.5986
  -19.0129  -19.0129  -18.2390  -18.2390  -17.4657  -17.4657  -17.4657  -17.4657  -16.7926  -16.7926
  -16.7926  -16.7926  -16.4630  -16.4630  -16.4630  -16.4630  -14.9177  -14.9177  -14.9177  -14.9177
  -14.7105  -14.7105  -13.8681  -13.8681  -13.3049  -13.3049  -12.7846  -12.7846  -12.7846  -12.7846
  -11.0715  -11.0715  -11.0715  -11.0715   -9.9853   -9.9853   -9.8138   -9.8138   -9.8138   -9.8138
   -9.2398   -9.2398   -6.6395   -6.6395   -6.4886   -6.4886   -6.4886   -6.4886   -5.5975   -5.5975
   -4.5215   -4.5215   -4.5215   -4.5215   -2.4798   -2.4798   -2.4798   -2.4798   -1.4751   -1.4751
    1.8717    1.8717    2.3575    2.3575    2.3575    2.3575    2.7571    2.7571    2.7571    2.7571
    2.8926    2.8926    3.8126    3.8126    3.9770    3.9770    3.9770    3.9770    4.5902    4.5902
    4.5902    4.5902    5.2552    5.2552    6.2297    6.2297    7.0470    7.0470    7.0470    7.0470
    7.5582    7.5582    7.8809    7.8809    7.8810    7.8810    9.7641    9.7641   10.6310   10.6310
   10.6310   10.6310   12.4674   12.4674   12.4674   12.4674   13.6472   13.6472   13.6472   13.6472
   14.1876   14.1876   14.6039   14.6039
  40  1  -29.4671  -29.4671  -28.7605  -28.7605  -28.7605  -28.7605  -26.7439  -26.7439  -26.7439  -26.7439
         -25.4955  -25.4955  -24.9717  -24.9717  -24.9717  -24.9717  -24.2252  -24.2252  -22.8473  -22.8473
  -22.6459  -22.6459  -22.6459  -22.6459  -20.6538  -20.6538  -19.5986  -19.5986  -19.5986  -19.5986
  -19.0129  -19.0129  -18.2390  -18.2390  -17.4657  -17.4657  -17.4657  -17.4657  -16.7926  -16.7926
  -16.7926  -16.7926  -16.4630  -16.4630  -16.4630  -16.4630  -14.9177  -14.9177  -14.9177  -14.9177
  -14.7105  -14.7105  -13.8681  -13.8681  -13.3049  -13.3049  -12.7846  -12.7846  -12.7846  -12.7846
  -11.0715  -11.0715  -11.0715  -11.0715   -9.9853   -9.9853   -9.8138   -9.8138   -9.8138   -9.8138
   -9.2398   -9.2398   -6.6395   -6.6395   -6.4886   -6.4886   -6.4886   -6.4886   -5.5975   -5.5975
   -4.5215   -4.5215   -4.5215   -4.5215   -2.4798   -2.4798   -2.4798   -2.4798   -1.4751   -1.4751
    1.8717    1.8717    2.3575    2.3575    2.3575    2.3575    2.7571    2.7571    2.7571    2.7571
    2.8926    2.8926    3.8126    3.8126    3.9770    3.9770    3.9770    3.9770    4.5902    4.5902
    4.5902    4.5902    5.2552    5.2552    6.2297    6.2297    7.0470    7.0470    7.0470    7.0470
    7.5582    7.5582    7.8809    7.8809    7.8810    7.8810    9.7641    9.7641   10.6310   10.6310
   10.6310   10.6310   12.4674   12.4674   12.4674   12.4674   13.6472   13.6472   13.6472   13.6472
   14.1876   14.1876   14.6039   14.6039
  41  1  -29.4671  -29.4671  -28.7605  -28.7605  -28.7605  -28.7605  -26.7439  -26.7439  -26.7439  -26.7439
         -25.4955  -25.4955  -24.9717  -24.9717  -24.9717  -24.9717  -24.2252  -24.2252  -22.8473  -22.8473
  -22.6459  -22.6459  -22.6459  -22.6459  -20.6538  -20.6538  -19.5986  -19.5986  -19.5986  -19.5986
  -19.0129  -19.0129  -18.2390  -18.2390  -17.4657  -17.4657  -17.4657  -17.4657  -16.7926  -16.7926
  -16.7926  -16.7926  -16.4630  -16.4630  -16.4630  -16.4630  -14.9177  -14.9177  -14.9177  -14.9177
  -14.7105  -14.7105  -13.8681  -13.8681  -13.3049  -13.3049  -12.7846  -12.7846  -12.7846  -12.7846
  -11.0715  -11.0715  -11.0715  -11.0715   -9.9853   -9.9853   -9.8138   -9.8138   -9.8138   -9.8138
   -9.2398   -9.2398   -6.6395   -6.6395   -6.4886   -6.4886   -6.4886   -6.4886   -5.5975   -5.5975
   -4.5215   -4.5215   -4.5215   -4.5215   -2.4798   -2.4798   -2.4798   -2.4798   -1.4751   -1.4751
    1.8717    1.8717    2.3575    2.3575    2.3575    2.3575    2.7571    2.7571    2.7571    2.7571
    2.8926    2.8926    3.8126    3.8126    3.9770    3.9770    3.9770    3.9770    4.5902    4.5902
    4.5902    4.5902    5.2552    5.2552    6.2297    6.2297    7.0470    7.0470    7.0470    7.0470
    7.5582    7.5582    7.8809    7.8809    7.8810    7.8810    9.7641    9.7641   10.6310   10.6310
   10.6310   10.6310   12.4674   12.4674   12.4674   12.4674   13.6472   13.6472   13.6472   13.6472
   14.1876   14.1876   14.6039   14.6039
  42  1  -29.2889  -29.2889  -29.2889  -29.2889  -27.9008  -27.9008  -27.9008  -27.9008  -25.3541  -25.3541
         -25.3541  -25.3541  -25.3541  -25.3541  -25.3541  -25.3541  -24.6555  -24.6555  -23.2241  -23.2241
  -21.5208  -21.5208  -21.5208  -21.5208  -21.5208  -21.5208  -21.5208  -21.5208  -18.0527  -18.0527
  -18.0527  -18.0527  -18.0527  -18.0527  -18.0527  -18.0527  -17.8287  -17.8287  -17.8287  -17.8287
  -16.3645  -16.3645  -16.3645  -16.3645  -16.2411  -16.2411  -15.3244  -15.3244  -15.3244  -15.3244
  -13.9763  -13.9763  -13.9763  -13.9763  -13.1991  -13.1991  -13.1991  -13.1991  -12.0646  -12.0646
  -12.0646  -12.0646   -9.9351   -9.9351   -9.9351   -9.9351   -9.9351   -9.9351   -9.9351   -9.9351
   -9.7343   -9.7343   -6.8570   -6.8570   -5.8666   -5.8666   -5.8666   -5.8666   -5.8666   -5.8666
   -5.8666   -5.8666   -3.2909   -3.2909   -3.2909   -3.2909   -1.9331   -1.9331   -1.9331   -1.9331
    1.7927    1.7927    2.4097    2.4097    2.4097    2.4097    3.3592    3.3592    3.3592    3.3592
    3.6403    3.6403    3.6403    3.6403    3.8778    3.8778    3.8778    3.8778    3.8778    3.8778
    3.8778    3.8778    5.3559    5.3559    5.3559    5.3559    6.5424    6.5424    6.5425    6.5425
    8.9572    8.9572    8.9572    8.9572    8.9572    8.9572    8.9572    8.9572   10.2106   10.2106
   10.2106   10.2106   11.3964   11.3964   13.3354   13.3354   14.0392   14.0392   14.0392   14.0392
   14.0393   14.0393   14.0393   14.0393
  43  1  -29.4671  -29.4671  -28.7605  -28.7605  -28.7605  -28.7605  -26.7439  -26.7439  -26.7439  -26.7439
         -25.4955  -25.4955  -24.9717  -24.9717  -24.9717  -24.9717  -24.2252  -24.2252  -22.8473  -22.8473
  -22.6459  -22.6459  -22.6459  -22.6459  -20.6538  -20.6538  -19.5986  -19.5986  -19.5986  -19.5986
  -19.0129  -19.0129  -18.2390  -18.2390  -17.4657  -17.4657  -17.4657  -17.4657  -16.7926  -16.7926
  -16.7926  -16.7926  -16.4630  -16.4630  -16.4630  -16.4630  -14.9177  -14.9177  -14.9177  -14.9177
  -14.7105  -14.7105  -13.8681  -13.8681  -13.3049  -13.3049  -12.7846  -12.7846  -12.7846  -12.7846
  -11.0715  -11.0715  -11.0715  -11.0715   -9.9853   -9.9853   -9.8138   -9.8138   -9.8138   -9.8138
   -9.2398   -9.2398   -6.6395   -6.6395   -6.4886   -6.4886   -6.4886   -6.4886   -5.5975   -5.5975
   -4.5215   -4.5215   -4.5215   -4.5215   -2.4798   -2.4798   -2.4798   -2.4798   -1.4751   -1.4751
    1.8717    1.8717    2.3575    2.3575    2.3575    2.3575    2.7571    2.7571    2.7571    2.7571
    2.8926    2.8926    3.8126    3.8126    3.9770    3.9770    3.9770    3.9770    4.5902    4.5902
    4.5902    4.5902    5.2552    5.2552    6.2297    6.2297    7.0470    7.0470    7.0470    7.0470
    7.5582    7.5582    7.8809    7.8809    7.8810    7.8810    9.7641    9.7641   10.6310   10.6310
   10.6310   10.6310   12.4674   12.4674   12.4674   12.4674   13.6472   13.6472   13.6472   13.6472
   14.1876   14.1876   14.6039   14.6039
  44  1  -29.2889  -29.2889  -29.2889  -29.2889  -27.9008  -27.9008  -27.9008  -27.9008  -25.3541  -25.3541
         -25.3541  -25.3541  -25.3541  -25.3541  -25.3541  -25.3541  -24.6555  -24.6555  -23.2241  -23.2241
  -21.5208  -21.5208  -21.5208  -21.5208  -21.5208  -21.5208  -21.5208  -21.5208  -18.0527  -18.0527
  -18.0527  -18.0527  -18.0527  -18.0527  -18.0527  -18.0527  -17.8287  -17.8287  -17.8287  -17.8287
  -16.3645  -16.3645  -16.3645  -16.3645  -16.2411  -16.2411  -15.3244  -15.3244  -15.3244  -15.3244
  -13.9763  -13.9763  -13.9763  -13.9763  -13.1991  -13.1991  -13.1991  -13.1991  -12.0646  -12.0646
  -12.0646  -12.0646   -9.9351   -9.9351   -9.9351   -9.9351   -9.9351   -9.9351   -9.9351   -9.9351
   -9.7343   -9.7343   -6.8570   -6.8570   -5.8666   -5.8666   -5.8666   -5.8666   -5.8666   -5.8666
   -5.8666   -5.8666   -3.2909   -3.2909   -3.2909   -3.2909   -1.9331   -1.9331   -1.9331   -1.9331
    1.7927    1.7927    2.4097    2.4097    2.4097    2.4097    3.3592    3.3592    3.3592    3.3592
    3.6403    3.6403    3.6403    3.6403    3.8778    3.8778    3.8778    3.8778    3.8778    3.8778
    3.8778    3.8778    5.3559    5.3559    5.3559    5.3559    6.5424    6.5424    6.5425    6.5425
    8.9572    8.9572    8.9572    8.9572    8.9572    8.9572    8.9572    8.9572   10.2106   10.2106
   10.2106   10.2106   11.3964   11.3964   13.3354   13.3354   14.0392   14.0392   14.0392   14.0392
   14.0393   14.0393   14.0393   14.0393
siesta: Fermi energy =      -7.568752 eV

siesta: Program's energy decomposition (eV):
siesta: Ebs     =     -2673.886640
siesta: Eions   =      9434.507561
siesta: Ena     =      2163.402416
siesta: Ekin    =      4107.579479
siesta: Enl     =      -404.658897
siesta: Eso     =         0.000000
siesta: Edftu   =         0.000000
siesta: DEna    =      -178.690301
siesta: DUscf   =         9.709411
siesta: DUext   =         0.000000
siesta: Exc     =     -1748.903697
siesta: eta*DQ  =         0.000000
siesta: Emadel  =         0.000000
siesta: Emeta   =         0.000000
siesta: Emolmec =        -8.049132
siesta: Ekinion =         0.000000
siesta: Eharris =     -5494.118282
siesta: Etot    =     -5494.118282
siesta: FreeEng =     -5494.134781

siesta: Final energy (eV):
siesta:  Band Struct. =   -2673.886640
siesta:       Kinetic =    4107.579479
siesta:       Hartree =     333.378078
siesta:       Edftu   =       0.000000
siesta:       Eso     =       0.000000
siesta:    Ext. field =       0.000000
siesta:   Exch.-corr. =   -1748.903697
siesta:  Ion-electron =   -5161.493829
siesta:       Ion-ion =   -3016.629180
siesta:       Ekinion =       0.000000
siesta:         Total =   -5494.118282
siesta:         Fermi =      -7.568752

siesta: Stress tensor (static) (eV/Ang**3):
siesta:    -0.268040    0.000000   -0.000000
siesta:     0.000000   -0.268040   -0.000000
siesta:    -0.000000   -0.000000   -1.446121

siesta: Cell volume =        181.015866 Ang**3

siesta: Pressure (static):
siesta:                Solid            Molecule  Units
siesta:           0.00719623          0.00719629  Ry/Bohr**3
siesta:           0.66073339          0.66073911  eV/Ang**3
siesta:        1058.62303904       1058.63221297  kBar
(Free)E+ p_basis*V_orbitals  =       -5475.831734
(Free)Eharris+ p_basis*V_orbitals  =       -5475.831735

cite: Please see "graphite_scf.bib" for an exhaustive BiBTeX file.
cite: Please clearly indicate Siesta version in published work: 4.1.5
cite: This calculation has made use of the following articles
cite: which are encouraged to be cited in a published work.
        Primary SIESTA paper
          DOI: www.doi.org/10.1088/0953-8984/14/11/302

>> End of run:   1-NOV-2022  14:26:54
Job completed
