Siesta Version  : 4.1.5
Architecture    : x86_64-unknown-linux-gnu--unknown
Compiler version: GNU Fortran (GCC) 11.3.0
Compiler flags  : mpif90 -g -O2 -fallow-argument-mismatch
PP flags        : -DMPI -DFC_HAVE_FLUSH -DFC_HAVE_ABORT
Libraries       :  -I/global/software/sl-7.x86_64/modules/intel/2020.4.304/mkl/include  /globall/software/sl-7.x86_64/modules/intel/2020.4.304/mkl/lib/intel64/libmkl_scalapack_lp64.a -Wl,--start-group /global/software/sl-7.x86_64/modules/intel/2020.4.304/mkl/lib/intel64/libmkl_intel_lp64.a /global/software/sl-7.x86_64/modules/intel/2020.4.304/mkl/lib/intel64/libmkl_sequential.a /global/software/sl-7.x86_64/modules/intel/2020.4.304/mkl/lib/intel64/libmkl_core.a /global/software/sl-7.x86_64/modules/intel/2020.4.304/mkl/lib/intel64/libmkl_blacs_openmpi_lp64.a -Wl,--end-group -lpthread -lm -ldl
PARALLEL version

* Running on 20 nodes in parallel
>> Start of run:   1-NOV-2022  14:33:41

                           ***********************       
                           *  WELCOME TO SIESTA  *       
                           ***********************       

reinit: Reading from standard input
reinit: Dumped input in INPUT_TMP.06665
************************** Dump of input data file ****************************
SystemName graphite_scf
SystemLabel graphite_scf
NumberOfAtoms   36
NumberOfSpecies 1
%block ChemicalSpeciesLabel
1  6   C-gga
%endblock ChemicalSpeciesLabel
PAO.BasisSize  SZ
PAO.EnergyShift  10 meV
%block PS.Lmax
C-gga   2
%endblock PS.Lmax
LatticeConstant 1.000000 Ang
%block LatticeVectors
	7.3920000000	0.0000000000	0.0000000000
	-3.6960000000	6.4016597848	0.0000000000
	0.0000000000	0.0000000000	9.1269600000
%endblock LatticeVectors
AtomicCoordinatesFormat Ang
%block AtomicCoordinatesAndAtomicSpecies
	0.00000000	0.00000000	2.28174000	1
	0.00000000	0.00000000	6.84522000	1
	-1.23200000	2.13388659	2.28174000	1
	-2.46400000	4.26777319	6.84522000	1
	2.46400000	4.26777319	2.28174000	1
	1.23200000	2.13388659	6.84522000	1
	2.46400000	0.00000000	2.28174000	1
	4.92800000	0.00000000	6.84522000	1
	2.46400000	0.00000000	6.84522000	1
	4.92800000	0.00000000	2.28174000	1
	2.46400000	4.26777319	6.84522000	1
	1.23200000	2.13388659	2.28174000	1
	-1.23200000	2.13388659	6.84522000	1
	-2.46400000	4.26777319	2.28174000	1
	0.00000000	4.26777319	2.28174000	1
	3.69600000	2.13388659	6.84522000	1
	3.69600000	2.13388659	2.28174000	1
	0.00000000	4.26777319	6.84522000	1
	0.00000000	1.42258964	2.28174000	1
	3.69600000	4.97907014	6.84522000	1
	2.46400123	5.69036496	2.28174000	1
	1.23199877	0.71129482	6.84522000	1
	-2.46400123	5.69036496	2.28174000	1
	6.16000123	0.71129482	6.84522000	1
	-1.23200000	3.55647624	2.28174000	1
	4.92800000	2.84518355	6.84522000	1
	1.23200123	3.55647837	2.28174000	1
	2.46399877	2.84518142	6.84522000	1
	-0.00000123	5.69036496	2.28174000	1
	3.69600123	0.71129482	6.84522000	1
	2.46400000	1.42258964	2.28174000	1
	1.23200000	4.97907014	6.84522000	1
	4.92800123	1.42259177	2.28174000	1
	-1.23200123	4.97906801	6.84522000	1
	3.69599877	3.55647837	2.28174000	1
	0.00000123	2.84518142	6.84522000	1
%endblock AtomicCoordinatesAndAtomicSpecies
Kgrid_NoTRS  T
%block kgrid_MonkhorstPack
4       0       0       0.0
0       4       0       0.0
0       0       4       0.0
%endblock kgrid_MonkhorstPack
AtomCoorFormatOut Ang
BlockSize 1
#ProcessorY 12
Diag.ParallelOverK   T
Diag.DivideAndConquer F
MeshCutoff   300 Ry
SCF.FreeE.Tolerance 1E-3 eV
SCF.EDM.Tolerance   5E-3 eV
DM.Tolerance  1E-3
DM.Require.Energy.Convergence T
DM.NumberPulay 4
#XC.Functional GGA
#CX.Authors    PBE
UseSaveData        F
SolutionMethod     diagon
MD.TypeOfRun       CG
MD.VariableCell    F
MD.NumCGsteps      00
MD.MaxCGDispl      0.200000 Bohr
#MD.MaxStressTol    1.000000 GPa
#MD.MaxForceTol     0.010000 eV/Ang
WriteMDHistory T
WriteCoorStep T
WriteForces T
WriteCoorStep    T
WriteEigenValues T
WriteDM    F
MM.UnitsDistance Ang  # what this program prints out DO NOT CHANGE
MM.UnitsEnergy    eV  # what this program prints out DO NOT CHANGE
MM.Grimme.S6     0.75 # Grimme-paper for PBE (correct for your functional)
MM.Grimme.D     20.   # Grimme-paper (correct for your functional)
%block MM.Potentials
  1   1 Grimme     18.14      2.904 # C, 10.1002/jcc.20495
%endblock MM.Potentials
#%block ProjectedDensityOfStates
# -200.0  120.0  0.4  12800  eV
#%endblock ProjectedDensityOfStates
************************** End of input data file *****************************

reinit: -----------------------------------------------------------------------
reinit: System Name: graphite_scf
reinit: -----------------------------------------------------------------------
reinit: System Label: graphite_scf
reinit: -----------------------------------------------------------------------
Reading two-body potentials
Grimme - two-body potential between 1 and 1

initatom: Reading input for the pseudopotentials and atomic orbitals ----------
Species number:   1 Atomic number:    6 Label: C-gga

Ground state valence configuration:   2s02  2p02
Reading pseudopotential information in formatted form from C-gga.psf

Valence configuration for pseudopotential generation:
2s( 2.00) rc: 1.56
2p( 2.00) rc: 1.56
3d( 0.00) rc: 1.56
4f( 0.00) rc: 1.56
relmxkb: Read Max KB Ang. Momentum=    2 for species C-gga

<basis_specs>
===============================================================================
C-gga                Z=   6    Mass=  12.010        Charge= 0.17977+309
Lmxo=1 Lmxkb= 2    BasisType=split      Semic=F
L=0  Nsemic=0  Cnfigmx=2
          i=1  nzeta=1  polorb=0  (2s)
            splnorm:   0.15000    
               vcte:    0.0000    
               rinn:    0.0000    
               qcoe:    0.0000    
               qyuk:    0.0000    
               qwid:   0.10000E-01
                rcs:    0.0000    
            lambdas:    1.0000    
L=1  Nsemic=0  Cnfigmx=2
          i=1  nzeta=1  polorb=0  (2p)
            splnorm:   0.15000    
               vcte:    0.0000    
               rinn:    0.0000    
               qcoe:    0.0000    
               qyuk:    0.0000    
               qwid:   0.10000E-01
                rcs:    0.0000    
            lambdas:    1.0000    
-------------------------------------------------------------------------------
L=0  Nkbl=1  erefs: 0.17977+309
L=1  Nkbl=1  erefs: 0.17977+309
L=2  Nkbl=1  erefs: 0.17977+309
===============================================================================
</basis_specs>

atom: Called for C-gga                 (Z =   6)

read_vps: Pseudopotential generation method:
read_vps: ATM 3.2.2 Troullier-Martins                       
Valence charge for ps generation:    4.00000

xc_check: Exchange-correlation functional:
xc_check: Ceperley-Alder
xc_check: WARNING: Pseudopotential generated with GGA PBE functional
V l=0 = -2*Zval/r beyond r=  1.5227
V l=1 = -2*Zval/r beyond r=  1.5227
V l=2 = -2*Zval/r beyond r=  1.5227
All V_l potentials equal beyond r=  1.4851
This should be close to max(r_c) in ps generation
All pots = -2*Zval/r beyond r=  1.5227

VLOCAL1: 99.0% of the norm of Vloc inside     19.682 Ry
VLOCAL1: 99.9% of the norm of Vloc inside     44.856 Ry
atom: Maximum radius for 4*pi*r*r*local-pseudopot. charge    1.79142
atom: Maximum radius for r*vlocal+2*Zval:    1.54183
GHOST: No ghost state for L =  0
GHOST: No ghost state for L =  1
GHOST: No ghost state for L =  2

KBgen: Kleinman-Bylander projectors: 
   l= 0   rc=  1.661951   el= -0.994756   Ekb=  5.296364   kbcos=  0.313951
   l= 1   rc=  1.661951   el= -0.376633   Ekb= -4.104879   kbcos= -0.344765
   l= 2   rc=  1.747182   el=  0.002326   Ekb= -1.006421   kbcos= -0.008606

KBgen: Total number of Kleinman-Bylander projectors:    9
atom: -------------------------------------------------------------------------

atom: SANKEY-TYPE ORBITALS:

SPLIT: Orbitals with angular momentum L= 0

SPLIT: Basis orbitals for state 2s

SPLIT: PAO cut-off radius determined from an
SPLIT: energy shift=  0.000735 Ry

   izeta = 1
                 lambda =    1.000000
                     rc =    5.948690
                 energy =   -0.994108
                kinetic =    0.809152
    potential(screened) =   -1.803260
       potential(ionic) =   -5.360717

SPLIT: Orbitals with angular momentum L= 1

SPLIT: Basis orbitals for state 2p

SPLIT: PAO cut-off radius determined from an
SPLIT: energy shift=  0.000735 Ry

   izeta = 1
                 lambda =    1.000000
                     rc =    7.638387
                 energy =   -0.375915
                kinetic =    2.245823
    potential(screened) =   -2.621738
       potential(ionic) =   -5.993382
atom: Total number of Sankey-type orbitals:  4

atm_pop: Valence configuration (for local Pseudopot. screening):
 2s( 2.00)                                                            
 2p( 2.00)                                                            
Vna: chval, zval:    4.00000   4.00000

Vna:  Cut-off radius for the neutral-atom potential:   7.638387

atom: _________________________________________________________________________

prinput: Basis input ----------------------------------------------------------

PAO.BasisType split     

%block ChemicalSpeciesLabel
    1    6 C-gga                   # Species index, atomic number, species label
%endblock ChemicalSpeciesLabel

%block PAO.Basis                 # Define Basis set
C-gga                 2                    # Species label, number of l-shells
 n=2   0   1                         # n, l, Nzeta 
   5.949   
   1.000   
 n=2   1   1                         # n, l, Nzeta 
   7.638   
   1.000   
%endblock PAO.Basis

prinput: ----------------------------------------------------------------------

coor:   Atomic-coordinates input format  =     Cartesian coordinates
coor:                                          (in Angstroms)

siesta: Atomic coordinates (Bohr) and species
siesta:      0.00000   0.00000   4.31187  1        1
siesta:      0.00000   0.00000  12.93560  1        2
siesta:     -2.32814   4.03246   4.31187  1        3
siesta:     -4.65629   8.06493  12.93560  1        4
siesta:      4.65629   8.06493   4.31187  1        5
siesta:      2.32814   4.03246  12.93560  1        6
siesta:      4.65629   0.00000   4.31187  1        7
siesta:      9.31257   0.00000  12.93560  1        8
siesta:      4.65629   0.00000  12.93560  1        9
siesta:      9.31257   0.00000   4.31187  1       10
siesta:      4.65629   8.06493  12.93560  1       11
siesta:      2.32814   4.03246   4.31187  1       12
siesta:     -2.32814   4.03246  12.93560  1       13
siesta:     -4.65629   8.06493   4.31187  1       14
siesta:      0.00000   8.06493   4.31187  1       15
siesta:      6.98443   4.03246  12.93560  1       16
siesta:      6.98443   4.03246   4.31187  1       17
siesta:      0.00000   8.06493  12.93560  1       18
siesta:      0.00000   2.68831   4.31187  1       19
siesta:      6.98443   9.40908  12.93560  1       20
siesta:      4.65629  10.75324   4.31187  1       21
siesta:      2.32814   1.34415  12.93560  1       22
siesta:     -4.65629  10.75324   4.31187  1       23
siesta:     11.64072   1.34415  12.93560  1       24
siesta:     -2.32814   6.72077   4.31187  1       25
siesta:      9.31257   5.37662  12.93560  1       26
siesta:      2.32815   6.72077   4.31187  1       27
siesta:      4.65628   5.37662  12.93560  1       28
siesta:     -0.00000  10.75324   4.31187  1       29
siesta:      6.98443   1.34415  12.93560  1       30
siesta:      4.65629   2.68831   4.31187  1       31
siesta:      2.32814   9.40908  12.93560  1       32
siesta:      9.31258   2.68831   4.31187  1       33
siesta:     -2.32815   9.40908  12.93560  1       34
siesta:      6.98443   6.72077   4.31187  1       35
siesta:      0.00000   5.37662  12.93560  1       36

siesta: System type = bulk      

initatomlists: Number of atoms, orbitals, and projectors:     36   144   324

siesta: ******************** Simulation parameters ****************************
siesta:
siesta: The following are some of the parameters of the simulation.
siesta: A complete list of the parameters used, including default values,
siesta: can be found in file out.fdf
siesta:
redata: Spin configuration                          = none
redata: Number of spin components                   = 1
redata: Time-Reversal Symmetry                      = T
redata: Spin spiral                                 = F
redata: Long output                                 =   F
redata: Number of Atomic Species                    =        1
redata: Charge density info will appear in .RHO file
redata: Write Mulliken Pop.                         = NO
redata: Matel table size (NRTAB)                    =     1024
redata: Mesh Cutoff                                 =   300.0000 Ry
redata: Net charge of the system                    =     0.0000 |e|
redata: Min. number of SCF Iter                     =        0
redata: Max. number of SCF Iter                     =     1000
redata: SCF convergence failure will abort job
redata: SCF mix quantity                            = Hamiltonian
redata: Mix DM or H after convergence               =   F
redata: Recompute H after scf cycle                 =   F
redata: Mix DM in first SCF step                    =   T
redata: Write Pulay info on disk                    =   F
redata: New DM Occupancy tolerance                  = 0.000000000001
redata: No kicks to SCF
redata: DM Mixing Weight for Kicks                  =     0.5000
redata: Require Harris convergence for SCF          =   F
redata: Harris energy tolerance for SCF             =     0.000100 eV
redata: Require DM convergence for SCF              =   T
redata: DM tolerance for SCF                        =     0.001000
redata: Require EDM convergence for SCF             =   F
redata: EDM tolerance for SCF                       =     0.005000 eV
redata: Require H convergence for SCF               =   T
redata: Hamiltonian tolerance for SCF               =     0.001000 eV
redata: Require (free) Energy convergence for SCF   =   T
redata: (free) Energy tolerance for SCF             =     0.001000 eV
redata: Using Saved Data (generic)                  =   F
redata: Use continuation files for DM               =   F
redata: Neglect nonoverlap interactions             =   F
redata: Method of Calculation                       = Diagonalization
redata: Electronic Temperature                      =   299.9869 K
redata: Fix the spin of the system                  =   F
redata: Dynamics option                             = Single-point calculation
mix.SCF: Pulay mixing                            = Pulay
mix.SCF:    Variant                              = stable
mix.SCF:    History steps                        = 4
mix.SCF:    Linear mixing weight                 =     0.250000
mix.SCF:    Mixing weight                        =     0.250000
mix.SCF:    SVD condition                        = 0.1000E-07
redata: ***********************************************************************

%block SCF.Mixers
  Pulay
%endblock SCF.Mixers

%block SCF.Mixer.Pulay
  # Mixing method
  method pulay
  variant stable

  # Mixing options
  weight 0.2500
  weight.linear 0.2500
  history 4
%endblock SCF.Mixer.Pulay

DM_history_depth set to one: no extrapolation allowed by default for geometry relaxation
Size of DM history Fstack: 1
Total number of electrons:   144.000000
Total ionic charge:   144.000000

* ProcessorY, Blocksize:    4   1


* Orbital distribution balance (max,min):     8     7

k-point displ. along   1 input, could be:     0.00    0.50
k-point displ. along   2 input, could be:     0.00    0.50
k-point displ. along   3 input, could be:     0.00    0.50
 Kpoints in:           48 . Kpoints trimmed:           44

siesta: k-grid: Number of k-points =    44
siesta: k-grid: Cutoff (effective) =    14.784 Ang
siesta: k-grid: Supercell and displacements
siesta: k-grid:    4   0   0      0.000
siesta: k-grid:    0   4   0      0.000
siesta: k-grid:    0   0   4      0.000

diag: Algorithm                                     = Expert
diag: Parallel over k                               =   T
diag: Use parallel 2D distribution                  =   T
diag: Parallel block-size                           = 1
diag: Parallel distribution                         =     4 x     5
diag: Used triangular part                          = Lower
diag: Absolute tolerance                            =  0.100E-15
diag: Orthogonalization factor                      =  0.100E-05
diag: Memory factor                                 =  1.0000

superc: Internal auxiliary supercell:     5 x     5 x     3  =      75
superc: Number of atoms, orbitals, and projectors:   2700  10800  24300


ts: **************************************************************
ts: Save H and S matrices                           =    F
ts: Save DM and EDM matrices                        =    F
ts: Only save the overlap matrix S                  =    F
ts: **************************************************************

************************ Begin: TS CHECKS AND WARNINGS ************************
************************ End: TS CHECKS AND WARNINGS **************************


                     ====================================
                        Single-point calculation
                     ====================================

outcoor: Atomic coordinates (Ang):                          
    0.00000000    0.00000000    2.28174000   1       1  C-gga
    0.00000000    0.00000000    6.84522000   1       2  C-gga
   -1.23200000    2.13388659    2.28174000   1       3  C-gga
   -2.46400000    4.26777319    6.84522000   1       4  C-gga
    2.46400000    4.26777319    2.28174000   1       5  C-gga
    1.23200000    2.13388659    6.84522000   1       6  C-gga
    2.46400000    0.00000000    2.28174000   1       7  C-gga
    4.92800000    0.00000000    6.84522000   1       8  C-gga
    2.46400000    0.00000000    6.84522000   1       9  C-gga
    4.92800000    0.00000000    2.28174000   1      10  C-gga
    2.46400000    4.26777319    6.84522000   1      11  C-gga
    1.23200000    2.13388659    2.28174000   1      12  C-gga
   -1.23200000    2.13388659    6.84522000   1      13  C-gga
   -2.46400000    4.26777319    2.28174000   1      14  C-gga
    0.00000000    4.26777319    2.28174000   1      15  C-gga
    3.69600000    2.13388659    6.84522000   1      16  C-gga
    3.69600000    2.13388659    2.28174000   1      17  C-gga
    0.00000000    4.26777319    6.84522000   1      18  C-gga
    0.00000000    1.42258964    2.28174000   1      19  C-gga
    3.69600000    4.97907014    6.84522000   1      20  C-gga
    2.46400123    5.69036496    2.28174000   1      21  C-gga
    1.23199877    0.71129482    6.84522000   1      22  C-gga
   -2.46400123    5.69036496    2.28174000   1      23  C-gga
    6.16000123    0.71129482    6.84522000   1      24  C-gga
   -1.23200000    3.55647624    2.28174000   1      25  C-gga
    4.92800000    2.84518355    6.84522000   1      26  C-gga
    1.23200123    3.55647837    2.28174000   1      27  C-gga
    2.46399877    2.84518142    6.84522000   1      28  C-gga
   -0.00000123    5.69036496    2.28174000   1      29  C-gga
    3.69600123    0.71129482    6.84522000   1      30  C-gga
    2.46400000    1.42258964    2.28174000   1      31  C-gga
    1.23200000    4.97907014    6.84522000   1      32  C-gga
    4.92800123    1.42259177    2.28174000   1      33  C-gga
   -1.23200123    4.97906801    6.84522000   1      34  C-gga
    3.69599877    3.55647837    2.28174000   1      35  C-gga
    0.00000123    2.84518142    6.84522000   1      36  C-gga

superc: Internal auxiliary supercell:     5 x     5 x     3  =      75
superc: Number of atoms, orbitals, and projectors:   2700  10800  24300

outcell: Unit cell vectors (Ang):
        7.392000    0.000000    0.000000
       -3.696000    6.401660    0.000000
        0.000000    0.000000    9.126960

outcell: Cell vector modules (Ang)   :    7.392000    7.392000    9.126960
outcell: Cell angles (23,13,12) (deg):     90.0000     90.0000    120.0000
outcell: Cell volume (Ang**3)        :    431.8975
<dSpData1D:S at geom step 0
  <sparsity:sparsity for geom step 0
    nrows_g=144 nrows=8 sparsity=.2265 nnzs=4696, refcount: 7>
  <dData1D:(new from dSpData1D) n=4696, refcount: 1>
refcount: 1>
new_DM -- step:     1
Initializing Density Matrix...
DM filled with atomic data:
<dSpData2D:DM initialized from atoms
  <sparsity:sparsity for geom step 0
    nrows_g=144 nrows=8 sparsity=.2265 nnzs=4696, refcount: 8>
  <dData2D:DM n=4696 m=1, refcount: 1>
refcount: 1>
No. of atoms with KB's overlaping orbs in proc 0. Max # of overlaps:      79     148
New grid distribution:   1
           1       1:   36    1:    9    1:   10
           2       1:   36    1:    9   11:   20
           3       1:   36    1:    9   21:   30
           4       1:   36    1:    9   31:   39
           5       1:   36    1:    9   40:   48
           6       1:   36   10:   18    1:   10
           7       1:   36   10:   18   11:   20
           8       1:   36   10:   18   21:   30
           9       1:   36   10:   18   31:   39
          10       1:   36   10:   18   40:   48
          11       1:   36   19:   27    1:   10
          12       1:   36   19:   27   11:   20
          13       1:   36   19:   27   21:   30
          14       1:   36   19:   27   31:   39
          15       1:   36   19:   27   40:   48
          16       1:   36   28:   36    1:   10
          17       1:   36   28:   36   11:   20
          18       1:   36   28:   36   21:   30
          19       1:   36   28:   36   31:   39
          20       1:   36   28:   36   40:   48

InitMesh: MESH =    72 x    72 x    96 =      497664
InitMesh: (bp) =    36 x    36 x    48 =       62208
InitMesh: Mesh cutoff (required, used) =   300.000   305.768 Ry
ExtMesh (bp) on 0 =   128 x   101 x    98 =     1266944
New grid distribution:   2
           1       1:   15   19:   36   37:   48
           2       1:   15    1:   18   13:   24
           3       1:   14    1:   18   25:   36
           4       1:   14    1:   18   37:   48
           5      15:   36    1:    9   32:   48
           6       1:   15    1:   18    1:   12
           7      16:   36   10:   18    8:   24
           8      15:   36    1:   18   25:   31
           9      16:   36    1:    9    8:   24
          10      15:   36   10:   18   32:   48
          11      16:   36   19:   36    1:    7
          12      16:   36   19:   27    8:   24
          13       1:   15   19:   36   25:   36
          14      16:   36    1:   18    1:    7
          15      16:   36   19:   27   32:   48
          16       1:   15   19:   36    1:   12
          17       1:   15   19:   36   13:   24
          18      16:   36   28:   36    8:   24
          19      16:   36   19:   36   25:   31
          20      16:   36   28:   36   32:   48
New grid distribution:   3
           1      16:   36   19:   36   25:   32
           2       1:   15    1:   18   13:   24
           3       1:   15    1:   18   25:   36
           4      16:   36   19:   36    1:    8
           5       1:   15   19:   36   37:   48
           6       1:   15    1:   18    1:   12
           7      16:   36   28:   36    9:   24
           8      16:   36   10:   18    9:   24
           9      16:   36    1:   18    1:    8
          10       1:   15    1:   18   37:   48
          11      16:   36   19:   27    9:   24
          12       1:   15   19:   36   13:   24
          13      16:   36    1:    9   33:   48
          14      16:   36    1:   18   25:   32
          15      16:   36   19:   27   33:   48
          16       1:   15   19:   36    1:   12
          17      16:   36   10:   18   33:   48
          18       1:   15   19:   36   25:   36
          19      16:   36    1:    9    9:   24
          20      16:   36   28:   36   33:   48
Setting up quadratic distribution...
ExtMesh (bp) on 0 =   107 x   110 x   100 =     1177000
PhiOnMesh: Number of (b)points on node 0 =                 3240
PhiOnMesh: nlist on node 0 =               274097

stepf: Fermi-Dirac step function

siesta: Program's energy decomposition (eV):
siesta: Ebs     =     -2605.959234
siesta: Eions   =      9434.507561
siesta: Ena     =      2271.206237
siesta: Ekin    =      3580.898455
siesta: Enl     =      -332.168191
siesta: Eso     =         0.000000
siesta: Edftu   =         0.000000
siesta: DEna    =        25.510945
siesta: DUscf   =         2.898510
siesta: DUext   =         0.000000
siesta: Exc     =     -1618.316775
siesta: eta*DQ  =         0.000000
siesta: Emadel  =         0.000000
siesta: Emeta   =         0.000000
siesta: Emolmec =        -2.658499
siesta: Ekinion =         0.000000
siesta: Eharris =     -5356.119819
siesta: Etot    =     -5507.136879
siesta: FreeEng =     -5507.153981

        iscf     Eharris(eV)        E_KS(eV)     FreeEng(eV)     dDmax    Ef(eV) dHmax(eV)
   scf:    1    -5356.119819    -5507.136879    -5507.153981  1.336988 -8.248857  0.341217
timer: Routine,Calls,Time,% = IterSCF        1       0.864  43.69
   scf:    2    -5507.138924    -5507.137903    -5507.155093  0.000534 -8.314411  0.256061
   scf:    3    -5507.140202    -5507.139062    -5507.156496  0.001561 -8.512033  0.000702
   scf:    4    -5507.139062    -5507.139062    -5507.156496  0.000030 -8.512332  0.000422

SCF Convergence by FreeE+DM+H criterion
|FreeE_i-FreeE_(i-1)| (eV) <     0.00100000
max |DM_out - DM_in|         :     0.0000295446
max |H_out - H_in|      (eV) :     0.0004219632
SCF cycle converged after 4 iterations

Using DM_out to compute the final energy and forces
No. of atoms with KB's overlaping orbs in proc 0. Max # of overlaps:      79     148

MM-Stress (kbar):        2.95        2.95       10.68        0.00        0.00        0.00

siesta: E_KS(eV) =            -5507.1391

siesta: E_KS - E_eggbox =     -5507.1391

siesta: Atomic forces (eV/Ang):
     1   -0.000000   -0.000000    0.000000
     2    0.000000   -0.000000   -0.000000
     3    0.000076   -0.000056   -0.000000
     4   -0.000076    0.000057   -0.000000
     5    0.000011    0.000094    0.000000
     6   -0.000011   -0.000094   -0.000000
     7   -0.000087   -0.000038   -0.000000
     8    0.000087    0.000037    0.000000
     9   -0.000015   -0.000013   -0.000000
    10    0.000015    0.000012   -0.000000
    11   -0.000003    0.000020   -0.000000
    12    0.000003   -0.000019   -0.000000
    13    0.000019   -0.000007    0.000000
    14   -0.000019    0.000007   -0.000000
    15    0.000000   -0.000000   -0.000000
    16   -0.000000    0.000000    0.000000
    17    0.000000    0.000000    0.000000
    18   -0.000000    0.000000   -0.000000
    19    0.000006    0.000130   -0.000000
    20   -0.000006   -0.000130   -0.000000
    21   -0.000116   -0.000059    0.000000
    22    0.000116    0.000060   -0.000000
    23    0.000110   -0.000070   -0.000000
    24   -0.000110    0.000070   -0.000000
    25    0.000009    0.000114    0.000000
    26   -0.000009   -0.000115    0.000000
    27   -0.000104   -0.000049    0.000000
    28    0.000104    0.000049   -0.000000
    29    0.000094   -0.000065    0.000000
    30   -0.000094    0.000065   -0.000000
    31    0.000009    0.000114   -0.000000
    32   -0.000009   -0.000114   -0.000000
    33   -0.000104   -0.000049   -0.000000
    34    0.000104    0.000049    0.000000
    35    0.000094   -0.000065    0.000000
    36   -0.000094    0.000065   -0.000000
----------------------------------------
   Tot   -0.000000    0.000000   -0.000000
----------------------------------------
   Max    0.000130
   Res    0.000054    sqrt( Sum f_i^2 / 3N )
----------------------------------------
   Max    0.000130    constrained

Stress tensor Voigt[x,y,z,yz,xz,xy] (kbar):     -313.82     -313.82       48.60       -0.00       -0.00        0.00
(Free)E + p*V (eV/cell)    -5455.1269
Target enthalpy (eV/cell)    -5507.1565

siesta: Eigenvalues (eV):
  ik is       eps
   1  1  -27.8430  -27.8131  -27.1256  -27.1256  -27.1068  -27.1068  -25.1798  -25.1798  -25.1600  -25.1600
         -24.0583  -24.0180  -23.6487  -23.6486  -23.6142  -23.6142  -23.0305  -23.0107  -21.5929  -21.5509
  -21.4009  -21.4009  -21.3460  -21.3460  -20.0051  -19.9860  -19.0111  -19.0111  -18.9880  -18.9880
  -18.1838  -18.1828  -17.7249  -17.7106  -17.0144  -17.0144  -17.0044  -17.0044  -16.6265  -16.6265
  -16.6154  -16.6153  -16.2399  -16.2399  -16.2339  -16.2339  -14.9213  -14.9213  -14.9158  -14.9157
  -14.6713  -14.6682  -14.3395  -14.1729  -14.0124  -14.0108  -13.8123  -13.8123  -13.6478  -13.6478
  -12.1526  -12.1526  -12.0550  -12.0550  -11.0197  -10.9812  -10.8235  -10.8235  -10.7947  -10.7947
  -10.2012  -10.1905   -6.8460   -6.8140   -6.2063   -6.2063   -6.1463   -6.1463   -5.6927   -5.6573
   -4.0312   -4.0312   -3.9932   -3.9932   -0.5816   -0.5816   -0.5619   -0.5619    0.8926    0.9035
    0.9202    1.0297    1.0297    1.0466    1.0466    1.0684    1.3654    1.3654    1.5162    1.5162
    1.7543    1.7549    2.8657    2.8678    3.0771    3.0771    3.1238    3.1238    3.4133    3.4133
    3.4657    3.4657    4.6839    4.7098    4.9605    4.9633    5.8473    5.8473    5.9609    5.9609
    6.4426    6.5066    6.9271    6.9272    6.9442    6.9442    9.0341    9.0513    9.8260    9.8261
    9.8462    9.8462   11.5625   11.5625   11.5762   11.5762   12.7666   12.7666   12.8034   12.8034
   13.2566   13.2599   13.6892   13.6897
   2  1  -28.2120  -28.1775  -26.7783  -26.7656  -26.1070  -26.1070  -26.1066  -26.1066  -24.8937  -24.8937
         -24.8693  -24.8693  -24.3544  -24.3226  -22.8798  -22.8798  -22.8352  -22.8352  -21.1602  -21.1602
  -21.1262  -21.1262  -20.7476  -20.6938  -19.8752  -19.8752  -19.8322  -19.8322  -18.7805  -18.7805
  -18.7646  -18.7646  -18.0705  -18.0705  -18.0505  -18.0505  -17.0891  -17.0751  -16.3267  -16.3267
  -16.3174  -16.3174  -16.0778  -16.0653  -15.7419  -15.7419  -15.7347  -15.7347  -14.9758  -14.9671
  -14.5976  -14.4354  -13.6913  -13.6887  -13.5446  -13.4021  -13.3993  -13.3859  -12.9973  -12.9973
  -12.8580  -12.8580  -11.9087  -11.9087  -11.8246  -11.8246  -11.4427  -11.3845   -9.7973   -9.7973
   -9.7909   -9.7909   -7.1940   -7.1940   -7.1663   -7.1663   -5.3719   -5.2999   -4.5536   -4.5536
   -4.4915   -4.4915   -2.4940   -2.4940   -2.4548   -2.4548   -1.2723   -1.2412    0.3141    0.3535
    0.3753    0.3767    0.6246    0.7500    0.8567    0.8584    1.1550    1.1550    1.1857    1.1857
    1.3112    1.3112    1.4015    1.4015    1.7032    1.7098    4.0614    4.0653    5.0355    5.0355
    5.0638    5.0638    5.4636    5.4641    5.8691    5.8691    5.9496    5.9496    7.2550    7.3605
    7.6812    7.6812    7.7087    7.7087    8.2912    8.2912    8.3525    8.3525    9.2939    9.2939
    9.3461    9.3461    9.8647    9.8663   11.4239   11.4239   11.4944   11.4944   11.6612   11.7743
   14.1590   14.1590   14.1612   14.1612
   3  1  -28.2120  -28.1775  -26.7783  -26.7656  -26.1070  -26.1070  -26.1066  -26.1066  -24.8937  -24.8937
         -24.8693  -24.8693  -24.3544  -24.3226  -22.8798  -22.8798  -22.8352  -22.8352  -21.1602  -21.1602
  -21.1262  -21.1262  -20.7476  -20.6938  -19.8752  -19.8752  -19.8322  -19.8322  -18.7805  -18.7805
  -18.7646  -18.7646  -18.0705  -18.0705  -18.0505  -18.0505  -17.0891  -17.0751  -16.3267  -16.3267
  -16.3174  -16.3174  -16.0778  -16.0653  -15.7419  -15.7419  -15.7347  -15.7347  -14.9758  -14.9671
  -14.5976  -14.4354  -13.6913  -13.6887  -13.5446  -13.4021  -13.3993  -13.3859  -12.9973  -12.9973
  -12.8580  -12.8580  -11.9087  -11.9087  -11.8246  -11.8246  -11.4427  -11.3845   -9.7973   -9.7973
   -9.7909   -9.7909   -7.1940   -7.1940   -7.1663   -7.1663   -5.3719   -5.2999   -4.5536   -4.5536
   -4.4915   -4.4915   -2.4940   -2.4940   -2.4548   -2.4548   -1.2723   -1.2412    0.3141    0.3535
    0.3753    0.3767    0.6246    0.7500    0.8567    0.8584    1.1550    1.1550    1.1857    1.1857
    1.3112    1.3112    1.4015    1.4015    1.7032    1.7098    4.0614    4.0653    5.0355    5.0355
    5.0638    5.0638    5.4636    5.4641    5.8691    5.8691    5.9496    5.9496    7.2550    7.3605
    7.6812    7.6812    7.7087    7.7087    8.2912    8.2912    8.3525    8.3525    9.2939    9.2939
    9.3461    9.3461    9.8647    9.8663   11.4239   11.4239   11.4944   11.4944   11.6612   11.7743
   14.1590   14.1590   14.1612   14.1612
   4  1  -27.8430  -27.8131  -27.1256  -27.1256  -27.1068  -27.1068  -25.1798  -25.1798  -25.1600  -25.1600
         -24.0583  -24.0180  -23.6487  -23.6486  -23.6142  -23.6142  -23.0305  -23.0107  -21.5929  -21.5509
  -21.4009  -21.4009  -21.3460  -21.3460  -20.0051  -19.9860  -19.0111  -19.0111  -18.9880  -18.9880
  -18.1838  -18.1828  -17.7249  -17.7106  -17.0144  -17.0144  -17.0044  -17.0044  -16.6265  -16.6265
  -16.6154  -16.6153  -16.2399  -16.2399  -16.2339  -16.2339  -14.9213  -14.9213  -14.9158  -14.9157
  -14.6713  -14.6682  -14.3395  -14.1729  -14.0124  -14.0108  -13.8123  -13.8123  -13.6478  -13.6478
  -12.1526  -12.1526  -12.0550  -12.0550  -11.0197  -10.9812  -10.8235  -10.8235  -10.7947  -10.7947
  -10.2012  -10.1905   -6.8460   -6.8140   -6.2063   -6.2063   -6.1463   -6.1463   -5.6927   -5.6573
   -4.0312   -4.0312   -3.9932   -3.9932   -0.5816   -0.5816   -0.5619   -0.5619    0.8926    0.9035
    0.9202    1.0297    1.0297    1.0466    1.0466    1.0684    1.3654    1.3654    1.5162    1.5162
    1.7543    1.7549    2.8657    2.8678    3.0771    3.0771    3.1238    3.1238    3.4133    3.4133
    3.4657    3.4657    4.6839    4.7098    4.9605    4.9633    5.8473    5.8473    5.9609    5.9609
    6.4426    6.5066    6.9271    6.9272    6.9442    6.9442    9.0341    9.0513    9.8260    9.8261
    9.8462    9.8462   11.5625   11.5625   11.5762   11.5762   12.7666   12.7666   12.8034   12.8034
   13.2566   13.2599   13.6892   13.6897
   5  1  -28.2120  -28.1775  -26.7783  -26.7656  -26.1070  -26.1070  -26.1066  -26.1066  -24.8937  -24.8937
         -24.8693  -24.8693  -24.3544  -24.3226  -22.8798  -22.8798  -22.8352  -22.8352  -21.1602  -21.1602
  -21.1262  -21.1262  -20.7476  -20.6938  -19.8752  -19.8752  -19.8322  -19.8322  -18.7805  -18.7805
  -18.7646  -18.7646  -18.0705  -18.0705  -18.0505  -18.0505  -17.0891  -17.0751  -16.3267  -16.3267
  -16.3174  -16.3174  -16.0778  -16.0653  -15.7419  -15.7419  -15.7347  -15.7347  -14.9758  -14.9671
  -14.5976  -14.4354  -13.6913  -13.6887  -13.5446  -13.4021  -13.3993  -13.3859  -12.9973  -12.9973
  -12.8580  -12.8580  -11.9087  -11.9087  -11.8246  -11.8246  -11.4427  -11.3845   -9.7973   -9.7973
   -9.7909   -9.7909   -7.1940   -7.1940   -7.1663   -7.1663   -5.3719   -5.2999   -4.5536   -4.5536
   -4.4915   -4.4915   -2.4940   -2.4940   -2.4548   -2.4548   -1.2723   -1.2412    0.3141    0.3535
    0.3753    0.3767    0.6246    0.7500    0.8567    0.8584    1.1550    1.1550    1.1857    1.1857
    1.3112    1.3112    1.4015    1.4015    1.7032    1.7098    4.0614    4.0653    5.0355    5.0355
    5.0638    5.0638    5.4636    5.4641    5.8691    5.8691    5.9496    5.9496    7.2550    7.3605
    7.6812    7.6812    7.7087    7.7087    8.2912    8.2912    8.3525    8.3525    9.2939    9.2939
    9.3461    9.3461    9.8647    9.8663   11.4239   11.4239   11.4944   11.4944   11.6612   11.7743
   14.1590   14.1590   14.1612   14.1612
   6  1  -28.3988  -28.3623  -25.6363  -25.6363  -25.6363  -25.6363  -25.6363  -25.6363  -25.6265  -25.6265
         -25.6265  -25.6265  -25.6265  -25.6265  -21.8806  -21.8806  -21.8563  -21.8563  -21.8563  -21.8563
  -21.8310  -21.8310  -19.3334  -19.3334  -19.3334  -19.3334  -19.0070  -19.0070  -19.0070  -19.0070
  -19.0070  -19.0070  -18.9740  -18.9740  -18.9740  -18.9739  -18.9739  -18.9739  -15.6501  -15.6501
  -15.6501  -15.6501  -15.6501  -15.6501  -15.6392  -15.6392  -15.6391  -15.6391  -15.6391  -15.6391
  -14.7253  -14.5668  -13.0796  -13.0796  -13.0795  -13.0795  -12.5917  -12.5917  -12.5917  -12.5917
  -12.5917  -12.5917  -12.4713  -12.4713  -12.4713  -12.4713  -12.4713  -12.4713   -8.5328   -8.5328
   -8.5123   -8.5123   -8.5123   -8.5123   -8.4916   -8.4916   -3.3634   -3.3634   -3.3633   -3.3633
   -3.3633   -3.3633   -3.3057   -3.3057   -3.3057   -3.3057   -3.3057   -3.3057    0.0911    0.0911
    0.0918    0.0918    0.5064    0.5064    0.5064    0.5065    0.5065    0.5065    0.5634    0.5634
    0.5634    0.5634    0.5634    0.5634    2.1297    2.1338    3.7190    3.7247    6.7008    6.7008
    6.7413    6.7413    6.7413    6.7413    6.7814    6.7814    8.0112    8.0112    8.0112    8.0112
    8.0112    8.0113    8.0127    8.0127    8.0127    8.0127    8.0127    8.0127    9.6077    9.6077
    9.6077    9.6077    9.6077    9.6077    9.7571    9.7571    9.7571    9.7571    9.7571    9.7571
   14.5134   14.5134   14.5134   14.5134
   7  1  -27.6610  -27.6610  -27.6338  -27.6337  -26.2707  -26.2707  -26.2679  -26.2679  -23.9437  -23.9437
         -23.9437  -23.9436  -23.9037  -23.9037  -23.9037  -23.9037  -23.4300  -23.4140  -21.7977  -21.7474
  -20.5820  -20.5820  -20.5820  -20.5820  -20.5356  -20.5356  -20.5356  -20.5356  -17.5513  -17.5513
  -17.5512  -17.5512  -17.5391  -17.5391  -17.5391  -17.5391  -17.4990  -17.4990  -17.4915  -17.4915
  -16.2232  -16.2102  -16.0764  -16.0764  -16.0639  -16.0639  -15.2014  -15.2014  -15.1964  -15.1964
  -14.2092  -14.2092  -14.1527  -14.1526  -14.1468  -14.1468  -14.0418  -14.0418  -13.1313  -13.1313
  -12.9866  -12.9866  -10.9581  -10.9580  -10.9580  -10.9580  -10.9226  -10.9226  -10.9226  -10.9226
  -10.7497  -10.7242   -6.3803   -6.3199   -5.8638   -5.8638   -5.8638   -5.8638   -5.8149   -5.8149
   -5.8149   -5.8149   -2.1687   -2.1687   -2.1438   -2.1438    0.2776    0.3060    0.5036    0.5036
    0.5178    0.5178    0.5918    0.5918    0.7362    0.7362    2.8553    2.8553    2.8570    2.8570
    2.9222    2.9222    2.9222    2.9223    2.9397    2.9397    2.9397    2.9397    3.2564    3.2564
    3.2630    3.2630    3.3412    3.3412    3.5554    3.5554    5.2609    5.2609    5.2911    5.2911
    8.1024    8.1024    8.1024    8.1024    8.1576    8.1576    8.1576    8.1576    9.3545    9.3545
    9.3585    9.3585   10.5436   10.5437   12.5458   12.5510   13.1108   13.1108   13.1108   13.1108
   13.1296   13.1296   13.1296   13.1296
   8  1  -27.8430  -27.8131  -27.1256  -27.1256  -27.1068  -27.1068  -25.1798  -25.1798  -25.1600  -25.1600
         -24.0583  -24.0180  -23.6487  -23.6486  -23.6142  -23.6142  -23.0305  -23.0107  -21.5929  -21.5509
  -21.4009  -21.4009  -21.3460  -21.3460  -20.0051  -19.9860  -19.0111  -19.0111  -18.9880  -18.9880
  -18.1838  -18.1828  -17.7249  -17.7106  -17.0144  -17.0144  -17.0044  -17.0044  -16.6265  -16.6265
  -16.6154  -16.6153  -16.2399  -16.2399  -16.2339  -16.2339  -14.9213  -14.9213  -14.9158  -14.9157
  -14.6713  -14.6682  -14.3395  -14.1729  -14.0124  -14.0108  -13.8123  -13.8123  -13.6478  -13.6478
  -12.1526  -12.1526  -12.0550  -12.0550  -11.0197  -10.9812  -10.8235  -10.8235  -10.7947  -10.7947
  -10.2012  -10.1905   -6.8460   -6.8140   -6.2063   -6.2063   -6.1463   -6.1463   -5.6927   -5.6573
   -4.0312   -4.0312   -3.9932   -3.9932   -0.5816   -0.5816   -0.5619   -0.5619    0.8926    0.9035
    0.9202    1.0297    1.0297    1.0466    1.0466    1.0684    1.3654    1.3654    1.5162    1.5162
    1.7543    1.7549    2.8657    2.8678    3.0771    3.0771    3.1238    3.1238    3.4133    3.4133
    3.4657    3.4657    4.6839    4.7098    4.9605    4.9633    5.8473    5.8473    5.9609    5.9609
    6.4426    6.5066    6.9271    6.9272    6.9442    6.9442    9.0341    9.0513    9.8260    9.8261
    9.8462    9.8462   11.5625   11.5625   11.5762   11.5762   12.7666   12.7666   12.8034   12.8034
   13.2566   13.2599   13.6892   13.6897
   9  1  -27.8430  -27.8131  -27.1256  -27.1256  -27.1068  -27.1068  -25.1798  -25.1798  -25.1600  -25.1600
         -24.0583  -24.0180  -23.6487  -23.6486  -23.6142  -23.6142  -23.0305  -23.0107  -21.5929  -21.5509
  -21.4009  -21.4009  -21.3460  -21.3460  -20.0051  -19.9860  -19.0111  -19.0111  -18.9880  -18.9880
  -18.1838  -18.1828  -17.7249  -17.7106  -17.0144  -17.0144  -17.0044  -17.0044  -16.6265  -16.6265
  -16.6154  -16.6153  -16.2399  -16.2399  -16.2339  -16.2339  -14.9213  -14.9213  -14.9158  -14.9157
  -14.6713  -14.6682  -14.3395  -14.1729  -14.0124  -14.0108  -13.8123  -13.8123  -13.6478  -13.6478
  -12.1526  -12.1526  -12.0550  -12.0550  -11.0197  -10.9812  -10.8235  -10.8235  -10.7947  -10.7947
  -10.2012  -10.1905   -6.8460   -6.8140   -6.2063   -6.2063   -6.1463   -6.1463   -5.6927   -5.6573
   -4.0312   -4.0312   -3.9932   -3.9932   -0.5816   -0.5816   -0.5619   -0.5619    0.8926    0.9035
    0.9202    1.0297    1.0297    1.0466    1.0466    1.0684    1.3654    1.3654    1.5162    1.5162
    1.7543    1.7549    2.8657    2.8678    3.0771    3.0771    3.1238    3.1238    3.4133    3.4133
    3.4657    3.4657    4.6839    4.7098    4.9605    4.9633    5.8473    5.8473    5.9609    5.9609
    6.4426    6.5066    6.9271    6.9272    6.9442    6.9442    9.0341    9.0513    9.8260    9.8261
    9.8462    9.8462   11.5625   11.5625   11.5762   11.5762   12.7666   12.7666   12.8034   12.8034
   13.2566   13.2599   13.6892   13.6897
  10  1  -27.6610  -27.6610  -27.6338  -27.6337  -26.2707  -26.2707  -26.2679  -26.2679  -23.9437  -23.9437
         -23.9437  -23.9436  -23.9037  -23.9037  -23.9037  -23.9037  -23.4300  -23.4140  -21.7977  -21.7474
  -20.5820  -20.5820  -20.5820  -20.5820  -20.5356  -20.5356  -20.5356  -20.5356  -17.5513  -17.5513
  -17.5512  -17.5512  -17.5391  -17.5391  -17.5391  -17.5391  -17.4990  -17.4990  -17.4915  -17.4915
  -16.2232  -16.2102  -16.0764  -16.0764  -16.0639  -16.0639  -15.2014  -15.2014  -15.1964  -15.1964
  -14.2092  -14.2092  -14.1527  -14.1526  -14.1468  -14.1468  -14.0418  -14.0418  -13.1313  -13.1313
  -12.9866  -12.9866  -10.9581  -10.9580  -10.9580  -10.9580  -10.9226  -10.9226  -10.9226  -10.9226
  -10.7497  -10.7242   -6.3803   -6.3199   -5.8638   -5.8638   -5.8638   -5.8638   -5.8149   -5.8149
   -5.8149   -5.8149   -2.1687   -2.1687   -2.1438   -2.1438    0.2776    0.3060    0.5036    0.5036
    0.5178    0.5178    0.5918    0.5918    0.7362    0.7362    2.8553    2.8553    2.8570    2.8570
    2.9222    2.9222    2.9222    2.9223    2.9397    2.9397    2.9397    2.9397    3.2564    3.2564
    3.2630    3.2630    3.3412    3.3412    3.5554    3.5554    5.2609    5.2609    5.2911    5.2911
    8.1024    8.1024    8.1024    8.1024    8.1576    8.1576    8.1576    8.1576    9.3545    9.3545
    9.3585    9.3585   10.5436   10.5437   12.5458   12.5510   13.1108   13.1108   13.1108   13.1108
   13.1296   13.1296   13.1296   13.1296
  11  1  -27.8430  -27.8131  -27.1256  -27.1256  -27.1068  -27.1068  -25.1798  -25.1798  -25.1600  -25.1600
         -24.0583  -24.0180  -23.6487  -23.6486  -23.6142  -23.6142  -23.0305  -23.0107  -21.5929  -21.5509
  -21.4009  -21.4009  -21.3460  -21.3460  -20.0051  -19.9860  -19.0111  -19.0111  -18.9880  -18.9880
  -18.1838  -18.1828  -17.7249  -17.7106  -17.0144  -17.0144  -17.0044  -17.0044  -16.6265  -16.6265
  -16.6154  -16.6153  -16.2399  -16.2399  -16.2339  -16.2339  -14.9213  -14.9213  -14.9158  -14.9157
  -14.6713  -14.6682  -14.3395  -14.1729  -14.0124  -14.0108  -13.8123  -13.8123  -13.6478  -13.6478
  -12.1526  -12.1526  -12.0550  -12.0550  -11.0197  -10.9812  -10.8235  -10.8235  -10.7947  -10.7947
  -10.2012  -10.1905   -6.8460   -6.8140   -6.2063   -6.2063   -6.1463   -6.1463   -5.6927   -5.6573
   -4.0312   -4.0312   -3.9932   -3.9932   -0.5816   -0.5816   -0.5619   -0.5619    0.8926    0.9035
    0.9202    1.0297    1.0297    1.0466    1.0466    1.0684    1.3654    1.3654    1.5162    1.5162
    1.7543    1.7549    2.8657    2.8678    3.0771    3.0771    3.1238    3.1238    3.4133    3.4133
    3.4657    3.4657    4.6839    4.7098    4.9605    4.9633    5.8473    5.8473    5.9609    5.9609
    6.4426    6.5066    6.9271    6.9272    6.9442    6.9442    9.0341    9.0513    9.8260    9.8261
    9.8462    9.8462   11.5625   11.5625   11.5762   11.5762   12.7666   12.7666   12.8034   12.8034
   13.2566   13.2599   13.6892   13.6897
  12  1  -27.6610  -27.6610  -27.6338  -27.6337  -26.2707  -26.2707  -26.2679  -26.2679  -23.9437  -23.9437
         -23.9437  -23.9436  -23.9037  -23.9037  -23.9037  -23.9037  -23.4300  -23.4140  -21.7977  -21.7474
  -20.5820  -20.5820  -20.5820  -20.5820  -20.5356  -20.5356  -20.5356  -20.5356  -17.5513  -17.5513
  -17.5512  -17.5512  -17.5391  -17.5391  -17.5391  -17.5391  -17.4990  -17.4990  -17.4915  -17.4915
  -16.2232  -16.2102  -16.0764  -16.0764  -16.0639  -16.0639  -15.2014  -15.2014  -15.1964  -15.1964
  -14.2092  -14.2092  -14.1527  -14.1526  -14.1468  -14.1468  -14.0418  -14.0418  -13.1313  -13.1313
  -12.9866  -12.9866  -10.9581  -10.9580  -10.9580  -10.9580  -10.9226  -10.9226  -10.9226  -10.9226
  -10.7497  -10.7242   -6.3803   -6.3199   -5.8638   -5.8638   -5.8638   -5.8638   -5.8149   -5.8149
   -5.8149   -5.8149   -2.1687   -2.1687   -2.1438   -2.1438    0.2776    0.3060    0.5036    0.5036
    0.5178    0.5178    0.5918    0.5918    0.7362    0.7362    2.8553    2.8553    2.8570    2.8570
    2.9222    2.9222    2.9222    2.9223    2.9397    2.9397    2.9397    2.9397    3.2564    3.2564
    3.2630    3.2630    3.3412    3.3412    3.5554    3.5554    5.2609    5.2609    5.2911    5.2911
    8.1024    8.1024    8.1024    8.1024    8.1576    8.1576    8.1576    8.1576    9.3545    9.3545
    9.3585    9.3585   10.5436   10.5437   12.5458   12.5510   13.1108   13.1108   13.1108   13.1108
   13.1296   13.1296   13.1296   13.1296
  13  1  -27.8390  -27.8178  -27.1234  -27.1234  -27.1100  -27.1100  -25.1775  -25.1775  -25.1635  -25.1635
         -24.0529  -24.0243  -23.6438  -23.6438  -23.6195  -23.6195  -23.0275  -23.0134  -21.5874  -21.5577
  -21.3934  -21.3934  -21.3546  -21.3545  -20.0022  -19.9887  -19.0078  -19.0077  -18.9914  -18.9914
  -18.1841  -18.1834  -17.7229  -17.7128  -17.0133  -17.0133  -17.0062  -17.0062  -16.6249  -16.6249
  -16.6170  -16.6170  -16.2391  -16.2391  -16.2349  -16.2349  -14.9209  -14.9208  -14.9169  -14.9169
  -14.6708  -14.6687  -14.3113  -14.1941  -14.0115  -14.0106  -13.7844  -13.7844  -13.6685  -13.6685
  -12.1371  -12.1371  -12.0682  -12.0681  -11.0138  -10.9865  -10.8192  -10.8192  -10.7988  -10.7988
  -10.1997  -10.1921   -6.8417   -6.8190   -6.1980   -6.1980   -6.1556   -6.1556   -5.6876   -5.6626
   -4.0257   -4.0257   -3.9988   -3.9988   -0.5787   -0.5787   -0.5648   -0.5648    0.8941    0.9017
    0.9446    1.0323    1.0323    1.0443    1.0443    1.0491    1.3902    1.3902    1.4966    1.4966
    1.7544    1.7548    2.8661    2.8676    3.0845    3.0845    3.1175    3.1175    3.4212    3.4212
    3.4583    3.4583    4.6877    4.7061    4.9609    4.9629    5.8649    5.8649    5.9452    5.9452
    6.4527    6.4980    6.9298    6.9298    6.9418    6.9418    9.0368    9.0489    9.8292    9.8292
    9.8434    9.8435   11.5645   11.5645   11.5743   11.5743   12.7722   12.7722   12.7982   12.7982
   13.2571   13.2594   13.6893   13.6897
  14  1  -28.2072  -28.1828  -26.7770  -26.7680  -26.1075  -26.1075  -26.1073  -26.1073  -24.8907  -24.8907
         -24.8734  -24.8734  -24.3502  -24.3277  -22.8734  -22.8734  -22.8418  -22.8418  -21.1553  -21.1553
  -21.1312  -21.1312  -20.7402  -20.7021  -19.8692  -19.8692  -19.8387  -19.8387  -18.7786  -18.7786
  -18.7673  -18.7673  -18.0678  -18.0678  -18.0537  -18.0537  -17.0873  -17.0774  -16.3254  -16.3254
  -16.3188  -16.3188  -16.0759  -16.0671  -15.7410  -15.7410  -15.7359  -15.7359  -14.9745  -14.9684
  -14.5691  -14.4549  -13.6909  -13.6891  -13.5183  -13.4063  -13.4017  -13.3997  -12.9746  -12.9746
  -12.8763  -12.8763  -11.8955  -11.8955  -11.8361  -11.8361  -11.4337  -11.3926   -9.7964   -9.7964
   -9.7919   -9.7919   -7.1900   -7.1900   -7.1705   -7.1705   -5.3618   -5.3109   -4.5448   -4.5448
   -4.5008   -4.5008   -2.4884   -2.4884   -2.4606   -2.4606   -1.2678   -1.2458    0.3245    0.3569
    0.3686    0.3724    0.6449    0.7335    0.8570    0.8581    1.1600    1.1600    1.1816    1.1816
    1.3258    1.3258    1.3895    1.3895    1.7042    1.7089    4.0620    4.0648    5.0397    5.0397
    5.0597    5.0597    5.4637    5.4640    5.8817    5.8817    5.9386    5.9386    7.2715    7.3460
    7.6853    7.6853    7.7048    7.7048    8.3009    8.3009    8.3441    8.3441    9.3018    9.3018
    9.3387    9.3387    9.8649    9.8660   11.4345   11.4345   11.4844   11.4844   11.6785   11.7584
   14.1593   14.1593   14.1609   14.1609
  15  1  -28.2072  -28.1828  -26.7770  -26.7680  -26.1075  -26.1075  -26.1073  -26.1073  -24.8907  -24.8907
         -24.8734  -24.8734  -24.3502  -24.3277  -22.8734  -22.8734  -22.8418  -22.8418  -21.1553  -21.1553
  -21.1312  -21.1312  -20.7402  -20.7021  -19.8692  -19.8692  -19.8387  -19.8387  -18.7786  -18.7786
  -18.7673  -18.7673  -18.0678  -18.0678  -18.0537  -18.0537  -17.0873  -17.0774  -16.3254  -16.3254
  -16.3188  -16.3188  -16.0759  -16.0671  -15.7410  -15.7410  -15.7359  -15.7359  -14.9745  -14.9684
  -14.5691  -14.4549  -13.6909  -13.6891  -13.5183  -13.4063  -13.4017  -13.3997  -12.9746  -12.9746
  -12.8763  -12.8763  -11.8955  -11.8955  -11.8361  -11.8361  -11.4337  -11.3926   -9.7964   -9.7964
   -9.7919   -9.7919   -7.1900   -7.1900   -7.1705   -7.1705   -5.3618   -5.3109   -4.5448   -4.5448
   -4.5008   -4.5008   -2.4884   -2.4884   -2.4606   -2.4606   -1.2678   -1.2458    0.3245    0.3569
    0.3686    0.3724    0.6449    0.7335    0.8570    0.8581    1.1600    1.1600    1.1816    1.1816
    1.3258    1.3258    1.3895    1.3895    1.7042    1.7089    4.0620    4.0648    5.0397    5.0397
    5.0597    5.0597    5.4637    5.4640    5.8817    5.8817    5.9386    5.9386    7.2715    7.3460
    7.6853    7.6853    7.7048    7.7048    8.3009    8.3009    8.3441    8.3441    9.3018    9.3018
    9.3387    9.3387    9.8649    9.8660   11.4345   11.4345   11.4844   11.4844   11.6785   11.7584
   14.1593   14.1593   14.1609   14.1609
  16  1  -27.8390  -27.8178  -27.1234  -27.1234  -27.1100  -27.1100  -25.1775  -25.1775  -25.1635  -25.1635
         -24.0529  -24.0243  -23.6438  -23.6438  -23.6195  -23.6195  -23.0275  -23.0134  -21.5874  -21.5577
  -21.3934  -21.3934  -21.3546  -21.3545  -20.0022  -19.9887  -19.0078  -19.0077  -18.9914  -18.9914
  -18.1841  -18.1834  -17.7229  -17.7128  -17.0133  -17.0133  -17.0062  -17.0062  -16.6249  -16.6249
  -16.6170  -16.6170  -16.2391  -16.2391  -16.2349  -16.2349  -14.9209  -14.9208  -14.9169  -14.9169
  -14.6708  -14.6687  -14.3113  -14.1941  -14.0115  -14.0106  -13.7844  -13.7844  -13.6685  -13.6685
  -12.1371  -12.1371  -12.0682  -12.0681  -11.0138  -10.9865  -10.8192  -10.8192  -10.7988  -10.7988
  -10.1997  -10.1921   -6.8417   -6.8190   -6.1980   -6.1980   -6.1556   -6.1556   -5.6876   -5.6626
   -4.0257   -4.0257   -3.9988   -3.9988   -0.5787   -0.5787   -0.5648   -0.5648    0.8941    0.9017
    0.9446    1.0323    1.0323    1.0443    1.0443    1.0491    1.3902    1.3902    1.4966    1.4966
    1.7544    1.7548    2.8661    2.8676    3.0845    3.0845    3.1175    3.1175    3.4212    3.4212
    3.4583    3.4583    4.6877    4.7061    4.9609    4.9629    5.8649    5.8649    5.9452    5.9452
    6.4527    6.4980    6.9298    6.9298    6.9418    6.9418    9.0368    9.0489    9.8292    9.8292
    9.8434    9.8435   11.5645   11.5645   11.5743   11.5743   12.7722   12.7722   12.7982   12.7982
   13.2571   13.2594   13.6893   13.6897
  17  1  -28.2072  -28.1828  -26.7770  -26.7680  -26.1075  -26.1075  -26.1073  -26.1073  -24.8907  -24.8907
         -24.8734  -24.8734  -24.3502  -24.3277  -22.8734  -22.8734  -22.8418  -22.8418  -21.1553  -21.1553
  -21.1312  -21.1312  -20.7402  -20.7021  -19.8692  -19.8692  -19.8387  -19.8387  -18.7786  -18.7786
  -18.7673  -18.7673  -18.0678  -18.0678  -18.0537  -18.0537  -17.0873  -17.0774  -16.3254  -16.3254
  -16.3188  -16.3188  -16.0759  -16.0671  -15.7410  -15.7410  -15.7359  -15.7359  -14.9745  -14.9684
  -14.5691  -14.4549  -13.6909  -13.6891  -13.5183  -13.4063  -13.4017  -13.3997  -12.9746  -12.9746
  -12.8763  -12.8763  -11.8955  -11.8955  -11.8361  -11.8361  -11.4337  -11.3926   -9.7964   -9.7964
   -9.7919   -9.7919   -7.1900   -7.1900   -7.1705   -7.1705   -5.3618   -5.3109   -4.5448   -4.5448
   -4.5008   -4.5008   -2.4884   -2.4884   -2.4606   -2.4606   -1.2678   -1.2458    0.3245    0.3569
    0.3686    0.3724    0.6449    0.7335    0.8570    0.8581    1.1600    1.1600    1.1816    1.1816
    1.3258    1.3258    1.3895    1.3895    1.7042    1.7089    4.0620    4.0648    5.0397    5.0397
    5.0597    5.0597    5.4637    5.4640    5.8817    5.8817    5.9386    5.9386    7.2715    7.3460
    7.6853    7.6853    7.7048    7.7048    8.3009    8.3009    8.3441    8.3441    9.3018    9.3018
    9.3387    9.3387    9.8649    9.8660   11.4345   11.4345   11.4844   11.4844   11.6785   11.7584
   14.1593   14.1593   14.1609   14.1609
  18  1  -28.3937  -28.3679  -25.6354  -25.6354  -25.6354  -25.6354  -25.6354  -25.6354  -25.6286  -25.6286
         -25.6286  -25.6286  -25.6286  -25.6286  -21.8735  -21.8735  -21.8559  -21.8559  -21.8559  -21.8559
  -21.8384  -21.8384  -19.3340  -19.3340  -19.3340  -19.3340  -19.0025  -19.0025  -19.0025  -19.0025
  -19.0025  -19.0025  -18.9791  -18.9791  -18.9791  -18.9791  -18.9791  -18.9791  -15.6485  -15.6485
  -15.6485  -15.6485  -15.6485  -15.6485  -15.6408  -15.6408  -15.6407  -15.6407  -15.6407  -15.6407
  -14.6971  -14.5856  -13.0796  -13.0796  -13.0795  -13.0795  -12.5724  -12.5724  -12.5724  -12.5724
  -12.5724  -12.5724  -12.4874  -12.4874  -12.4874  -12.4874  -12.4874  -12.4874   -8.5270   -8.5270
   -8.5123   -8.5123   -8.5123   -8.5123   -8.4978   -8.4978   -3.3551   -3.3551   -3.3551   -3.3551
   -3.3551   -3.3551   -3.3143   -3.3143   -3.3143   -3.3143   -3.3143   -3.3143    0.0912    0.0912
    0.0917    0.0917    0.5157    0.5157    0.5157    0.5157    0.5157    0.5157    0.5559    0.5559
    0.5559    0.5559    0.5559    0.5559    2.1303    2.1332    3.7198    3.7239    6.7126    6.7126
    6.7412    6.7412    6.7412    6.7412    6.7696    6.7696    8.0114    8.0114    8.0114    8.0115
    8.0115    8.0115    8.0125    8.0125    8.0125    8.0125    8.0125    8.0125    9.6308    9.6308
    9.6308    9.6308    9.6308    9.6308    9.7363    9.7363    9.7363    9.7364    9.7364    9.7364
   14.5134   14.5134   14.5134   14.5134
  19  1  -28.2072  -28.1828  -26.7770  -26.7680  -26.1075  -26.1075  -26.1073  -26.1073  -24.8907  -24.8907
         -24.8734  -24.8734  -24.3502  -24.3277  -22.8734  -22.8734  -22.8418  -22.8418  -21.1553  -21.1553
  -21.1312  -21.1312  -20.7402  -20.7021  -19.8692  -19.8692  -19.8387  -19.8387  -18.7786  -18.7786
  -18.7673  -18.7673  -18.0678  -18.0678  -18.0537  -18.0537  -17.0873  -17.0774  -16.3254  -16.3254
  -16.3188  -16.3188  -16.0759  -16.0671  -15.7410  -15.7410  -15.7359  -15.7359  -14.9745  -14.9684
  -14.5691  -14.4549  -13.6909  -13.6891  -13.5183  -13.4063  -13.4017  -13.3997  -12.9746  -12.9746
  -12.8763  -12.8763  -11.8955  -11.8955  -11.8361  -11.8361  -11.4337  -11.3926   -9.7964   -9.7964
   -9.7919   -9.7919   -7.1900   -7.1900   -7.1705   -7.1705   -5.3618   -5.3109   -4.5448   -4.5448
   -4.5008   -4.5008   -2.4884   -2.4884   -2.4606   -2.4606   -1.2678   -1.2458    0.3245    0.3569
    0.3686    0.3724    0.6449    0.7335    0.8570    0.8581    1.1600    1.1600    1.1816    1.1816
    1.3258    1.3258    1.3895    1.3895    1.7042    1.7089    4.0620    4.0648    5.0397    5.0397
    5.0597    5.0597    5.4637    5.4640    5.8817    5.8817    5.9386    5.9386    7.2715    7.3460
    7.6853    7.6853    7.7048    7.7048    8.3009    8.3009    8.3441    8.3441    9.3018    9.3018
    9.3387    9.3387    9.8649    9.8660   11.4345   11.4345   11.4844   11.4844   11.6785   11.7584
   14.1593   14.1593   14.1609   14.1609
  20  1  -27.6574  -27.6574  -27.6381  -27.6381  -26.2709  -26.2709  -26.2689  -26.2689  -23.9382  -23.9382
         -23.9382  -23.9382  -23.9100  -23.9100  -23.9100  -23.9100  -23.4276  -23.4163  -21.7912  -21.7556
  -20.5754  -20.5754  -20.5754  -20.5754  -20.5426  -20.5426  -20.5426  -20.5426  -17.5497  -17.5497
  -17.5497  -17.5497  -17.5411  -17.5411  -17.5411  -17.5411  -17.4979  -17.4979  -17.4926  -17.4926
  -16.2213  -16.2121  -16.0751  -16.0751  -16.0663  -16.0663  -15.2009  -15.2009  -15.1974  -15.1974
  -14.1804  -14.1804  -14.1518  -14.1518  -14.1477  -14.1477  -14.0625  -14.0625  -13.1075  -13.1075
  -13.0054  -13.0054  -10.9526  -10.9526  -10.9526  -10.9526  -10.9275  -10.9275  -10.9275  -10.9275
  -10.7460  -10.7279   -6.3722   -6.3294   -5.8568   -5.8568   -5.8568   -5.8568   -5.8222   -5.8222
   -5.8222   -5.8222   -2.1651   -2.1651   -2.1475   -2.1475    0.2819    0.3020    0.5056    0.5056
    0.5156    0.5156    0.6155    0.6155    0.7174    0.7174    2.8555    2.8555    2.8567    2.8568
    2.9250    2.9250    2.9250    2.9250    2.9373    2.9373    2.9373    2.9373    3.2574    3.2574
    3.2621    3.2621    3.3751    3.3751    3.5265    3.5265    5.2657    5.2657    5.2870    5.2870
    8.1109    8.1109    8.1109    8.1109    8.1499    8.1500    8.1500    8.1500    9.3551    9.3551
    9.3580    9.3580   10.5436   10.5437   12.5470   12.5506   13.1136   13.1136   13.1136   13.1136
   13.1269   13.1269   13.1269   13.1269
  21  1  -28.2072  -28.1828  -26.7770  -26.7680  -26.1075  -26.1075  -26.1073  -26.1073  -24.8907  -24.8907
         -24.8734  -24.8734  -24.3502  -24.3277  -22.8734  -22.8734  -22.8418  -22.8418  -21.1553  -21.1553
  -21.1312  -21.1312  -20.7402  -20.7021  -19.8692  -19.8692  -19.8387  -19.8387  -18.7786  -18.7786
  -18.7673  -18.7673  -18.0678  -18.0678  -18.0537  -18.0537  -17.0873  -17.0774  -16.3254  -16.3254
  -16.3188  -16.3188  -16.0759  -16.0671  -15.7410  -15.7410  -15.7359  -15.7359  -14.9745  -14.9684
  -14.5691  -14.4549  -13.6909  -13.6891  -13.5183  -13.4063  -13.4017  -13.3997  -12.9746  -12.9746
  -12.8763  -12.8763  -11.8955  -11.8955  -11.8361  -11.8361  -11.4337  -11.3926   -9.7964   -9.7964
   -9.7919   -9.7919   -7.1900   -7.1900   -7.1705   -7.1705   -5.3618   -5.3109   -4.5448   -4.5448
   -4.5008   -4.5008   -2.4884   -2.4884   -2.4606   -2.4606   -1.2678   -1.2458    0.3245    0.3569
    0.3686    0.3724    0.6449    0.7335    0.8570    0.8581    1.1600    1.1600    1.1816    1.1816
    1.3258    1.3258    1.3895    1.3895    1.7042    1.7089    4.0620    4.0648    5.0397    5.0397
    5.0597    5.0597    5.4637    5.4640    5.8817    5.8817    5.9386    5.9386    7.2715    7.3460
    7.6853    7.6853    7.7048    7.7048    8.3009    8.3009    8.3441    8.3441    9.3018    9.3018
    9.3387    9.3387    9.8649    9.8660   11.4345   11.4345   11.4844   11.4844   11.6785   11.7584
   14.1593   14.1593   14.1609   14.1609
  22  1  -28.2072  -28.1828  -26.7770  -26.7680  -26.1075  -26.1075  -26.1073  -26.1073  -24.8907  -24.8907
         -24.8734  -24.8734  -24.3502  -24.3277  -22.8734  -22.8734  -22.8418  -22.8418  -21.1553  -21.1553
  -21.1312  -21.1312  -20.7402  -20.7021  -19.8692  -19.8692  -19.8387  -19.8387  -18.7786  -18.7786
  -18.7673  -18.7673  -18.0678  -18.0678  -18.0537  -18.0537  -17.0873  -17.0774  -16.3254  -16.3254
  -16.3188  -16.3188  -16.0759  -16.0671  -15.7410  -15.7410  -15.7359  -15.7359  -14.9745  -14.9684
  -14.5691  -14.4549  -13.6909  -13.6891  -13.5183  -13.4063  -13.4017  -13.3997  -12.9746  -12.9746
  -12.8763  -12.8763  -11.8955  -11.8955  -11.8361  -11.8361  -11.4337  -11.3926   -9.7964   -9.7964
   -9.7919   -9.7919   -7.1900   -7.1900   -7.1705   -7.1705   -5.3618   -5.3109   -4.5448   -4.5448
   -4.5008   -4.5008   -2.4884   -2.4884   -2.4606   -2.4606   -1.2678   -1.2458    0.3245    0.3569
    0.3686    0.3724    0.6449    0.7335    0.8570    0.8581    1.1600    1.1600    1.1816    1.1816
    1.3258    1.3258    1.3895    1.3895    1.7042    1.7089    4.0620    4.0648    5.0397    5.0397
    5.0597    5.0597    5.4637    5.4640    5.8817    5.8817    5.9386    5.9386    7.2715    7.3460
    7.6853    7.6853    7.7048    7.7048    8.3009    8.3009    8.3441    8.3441    9.3018    9.3018
    9.3387    9.3387    9.8649    9.8660   11.4345   11.4345   11.4844   11.4844   11.6785   11.7584
   14.1593   14.1593   14.1609   14.1609
  23  1  -27.8390  -27.8178  -27.1234  -27.1234  -27.1100  -27.1100  -25.1775  -25.1775  -25.1635  -25.1635
         -24.0529  -24.0243  -23.6438  -23.6438  -23.6195  -23.6195  -23.0275  -23.0134  -21.5874  -21.5577
  -21.3934  -21.3934  -21.3546  -21.3545  -20.0022  -19.9887  -19.0078  -19.0077  -18.9914  -18.9914
  -18.1841  -18.1834  -17.7229  -17.7128  -17.0133  -17.0133  -17.0062  -17.0062  -16.6249  -16.6249
  -16.6170  -16.6170  -16.2391  -16.2391  -16.2349  -16.2349  -14.9209  -14.9208  -14.9169  -14.9169
  -14.6708  -14.6687  -14.3113  -14.1941  -14.0115  -14.0106  -13.7844  -13.7844  -13.6685  -13.6685
  -12.1371  -12.1371  -12.0682  -12.0681  -11.0138  -10.9865  -10.8192  -10.8192  -10.7988  -10.7988
  -10.1997  -10.1921   -6.8417   -6.8190   -6.1980   -6.1980   -6.1556   -6.1556   -5.6876   -5.6626
   -4.0257   -4.0257   -3.9988   -3.9988   -0.5787   -0.5787   -0.5648   -0.5648    0.8941    0.9017
    0.9446    1.0323    1.0323    1.0443    1.0443    1.0491    1.3902    1.3902    1.4966    1.4966
    1.7544    1.7548    2.8661    2.8676    3.0845    3.0845    3.1175    3.1175    3.4212    3.4212
    3.4583    3.4583    4.6877    4.7061    4.9609    4.9629    5.8649    5.8649    5.9452    5.9452
    6.4527    6.4980    6.9298    6.9298    6.9418    6.9418    9.0368    9.0489    9.8292    9.8292
    9.8434    9.8435   11.5645   11.5645   11.5743   11.5743   12.7722   12.7722   12.7982   12.7982
   13.2571   13.2594   13.6893   13.6897
  24  1  -27.8390  -27.8178  -27.1234  -27.1234  -27.1100  -27.1100  -25.1775  -25.1775  -25.1635  -25.1635
         -24.0529  -24.0243  -23.6438  -23.6438  -23.6195  -23.6195  -23.0275  -23.0134  -21.5874  -21.5577
  -21.3934  -21.3934  -21.3546  -21.3545  -20.0022  -19.9887  -19.0078  -19.0077  -18.9914  -18.9914
  -18.1841  -18.1834  -17.7229  -17.7128  -17.0133  -17.0133  -17.0062  -17.0062  -16.6249  -16.6249
  -16.6170  -16.6170  -16.2391  -16.2391  -16.2349  -16.2349  -14.9209  -14.9208  -14.9169  -14.9169
  -14.6708  -14.6687  -14.3113  -14.1941  -14.0115  -14.0106  -13.7844  -13.7844  -13.6685  -13.6685
  -12.1371  -12.1371  -12.0682  -12.0681  -11.0138  -10.9865  -10.8192  -10.8192  -10.7988  -10.7988
  -10.1997  -10.1921   -6.8417   -6.8190   -6.1980   -6.1980   -6.1556   -6.1556   -5.6876   -5.6626
   -4.0257   -4.0257   -3.9988   -3.9988   -0.5787   -0.5787   -0.5648   -0.5648    0.8941    0.9017
    0.9446    1.0323    1.0323    1.0443    1.0443    1.0491    1.3902    1.3902    1.4966    1.4966
    1.7544    1.7548    2.8661    2.8676    3.0845    3.0845    3.1175    3.1175    3.4212    3.4212
    3.4583    3.4583    4.6877    4.7061    4.9609    4.9629    5.8649    5.8649    5.9452    5.9452
    6.4527    6.4980    6.9298    6.9298    6.9418    6.9418    9.0368    9.0489    9.8292    9.8292
    9.8434    9.8435   11.5645   11.5645   11.5743   11.5743   12.7722   12.7722   12.7982   12.7982
   13.2571   13.2594   13.6893   13.6897
  25  1  -27.8390  -27.8178  -27.1234  -27.1234  -27.1100  -27.1100  -25.1775  -25.1775  -25.1635  -25.1635
         -24.0529  -24.0243  -23.6438  -23.6438  -23.6195  -23.6195  -23.0275  -23.0134  -21.5874  -21.5577
  -21.3934  -21.3934  -21.3546  -21.3545  -20.0022  -19.9887  -19.0078  -19.0077  -18.9914  -18.9914
  -18.1841  -18.1834  -17.7229  -17.7128  -17.0133  -17.0133  -17.0062  -17.0062  -16.6249  -16.6249
  -16.6170  -16.6170  -16.2391  -16.2391  -16.2349  -16.2349  -14.9209  -14.9208  -14.9169  -14.9169
  -14.6708  -14.6687  -14.3113  -14.1941  -14.0115  -14.0106  -13.7844  -13.7844  -13.6685  -13.6685
  -12.1371  -12.1371  -12.0682  -12.0681  -11.0138  -10.9865  -10.8192  -10.8192  -10.7988  -10.7988
  -10.1997  -10.1921   -6.8417   -6.8190   -6.1980   -6.1980   -6.1556   -6.1556   -5.6876   -5.6626
   -4.0257   -4.0257   -3.9988   -3.9988   -0.5787   -0.5787   -0.5648   -0.5648    0.8941    0.9017
    0.9446    1.0323    1.0323    1.0443    1.0443    1.0491    1.3902    1.3902    1.4966    1.4966
    1.7544    1.7548    2.8661    2.8676    3.0845    3.0845    3.1175    3.1175    3.4212    3.4212
    3.4583    3.4583    4.6877    4.7061    4.9609    4.9629    5.8649    5.8649    5.9452    5.9452
    6.4527    6.4980    6.9298    6.9298    6.9418    6.9418    9.0368    9.0489    9.8292    9.8292
    9.8434    9.8435   11.5645   11.5645   11.5743   11.5743   12.7722   12.7722   12.7982   12.7982
   13.2571   13.2594   13.6893   13.6897
  26  1  -27.6574  -27.6574  -27.6381  -27.6381  -26.2709  -26.2709  -26.2689  -26.2689  -23.9382  -23.9382
         -23.9382  -23.9382  -23.9100  -23.9100  -23.9100  -23.9100  -23.4276  -23.4163  -21.7912  -21.7556
  -20.5754  -20.5754  -20.5754  -20.5754  -20.5426  -20.5426  -20.5426  -20.5426  -17.5497  -17.5497
  -17.5497  -17.5497  -17.5411  -17.5411  -17.5411  -17.5411  -17.4979  -17.4979  -17.4926  -17.4926
  -16.2213  -16.2121  -16.0751  -16.0751  -16.0663  -16.0663  -15.2009  -15.2009  -15.1974  -15.1974
  -14.1804  -14.1804  -14.1518  -14.1518  -14.1477  -14.1477  -14.0625  -14.0625  -13.1075  -13.1075
  -13.0054  -13.0054  -10.9526  -10.9526  -10.9526  -10.9526  -10.9275  -10.9275  -10.9275  -10.9275
  -10.7460  -10.7279   -6.3722   -6.3294   -5.8568   -5.8568   -5.8568   -5.8568   -5.8222   -5.8222
   -5.8222   -5.8222   -2.1651   -2.1651   -2.1475   -2.1475    0.2819    0.3020    0.5056    0.5056
    0.5156    0.5156    0.6155    0.6155    0.7174    0.7174    2.8555    2.8555    2.8567    2.8568
    2.9250    2.9250    2.9250    2.9250    2.9373    2.9373    2.9373    2.9373    3.2574    3.2574
    3.2621    3.2621    3.3751    3.3751    3.5265    3.5265    5.2657    5.2657    5.2870    5.2870
    8.1109    8.1109    8.1109    8.1109    8.1499    8.1500    8.1500    8.1500    9.3551    9.3551
    9.3580    9.3580   10.5436   10.5437   12.5470   12.5506   13.1136   13.1136   13.1136   13.1136
   13.1269   13.1269   13.1269   13.1269
  27  1  -27.8390  -27.8178  -27.1234  -27.1234  -27.1100  -27.1100  -25.1775  -25.1775  -25.1635  -25.1635
         -24.0529  -24.0243  -23.6438  -23.6438  -23.6195  -23.6195  -23.0275  -23.0134  -21.5874  -21.5577
  -21.3934  -21.3934  -21.3546  -21.3545  -20.0022  -19.9887  -19.0078  -19.0077  -18.9914  -18.9914
  -18.1841  -18.1834  -17.7229  -17.7128  -17.0133  -17.0133  -17.0062  -17.0062  -16.6249  -16.6249
  -16.6170  -16.6170  -16.2391  -16.2391  -16.2349  -16.2349  -14.9209  -14.9208  -14.9169  -14.9169
  -14.6708  -14.6687  -14.3113  -14.1941  -14.0115  -14.0106  -13.7844  -13.7844  -13.6685  -13.6685
  -12.1371  -12.1371  -12.0682  -12.0681  -11.0138  -10.9865  -10.8192  -10.8192  -10.7988  -10.7988
  -10.1997  -10.1921   -6.8417   -6.8190   -6.1980   -6.1980   -6.1556   -6.1556   -5.6876   -5.6626
   -4.0257   -4.0257   -3.9988   -3.9988   -0.5787   -0.5787   -0.5648   -0.5648    0.8941    0.9017
    0.9446    1.0323    1.0323    1.0443    1.0443    1.0491    1.3902    1.3902    1.4966    1.4966
    1.7544    1.7548    2.8661    2.8676    3.0845    3.0845    3.1175    3.1175    3.4212    3.4212
    3.4583    3.4583    4.6877    4.7061    4.9609    4.9629    5.8649    5.8649    5.9452    5.9452
    6.4527    6.4980    6.9298    6.9298    6.9418    6.9418    9.0368    9.0489    9.8292    9.8292
    9.8434    9.8435   11.5645   11.5645   11.5743   11.5743   12.7722   12.7722   12.7982   12.7982
   13.2571   13.2594   13.6893   13.6897
  28  1  -27.6574  -27.6574  -27.6381  -27.6381  -26.2709  -26.2709  -26.2689  -26.2689  -23.9382  -23.9382
         -23.9382  -23.9382  -23.9100  -23.9100  -23.9100  -23.9100  -23.4276  -23.4163  -21.7912  -21.7556
  -20.5754  -20.5754  -20.5754  -20.5754  -20.5426  -20.5426  -20.5426  -20.5426  -17.5497  -17.5497
  -17.5497  -17.5497  -17.5411  -17.5411  -17.5411  -17.5411  -17.4979  -17.4979  -17.4926  -17.4926
  -16.2213  -16.2121  -16.0751  -16.0751  -16.0663  -16.0663  -15.2009  -15.2009  -15.1974  -15.1974
  -14.1804  -14.1804  -14.1518  -14.1518  -14.1477  -14.1477  -14.0625  -14.0625  -13.1075  -13.1075
  -13.0054  -13.0054  -10.9526  -10.9526  -10.9526  -10.9526  -10.9275  -10.9275  -10.9275  -10.9275
  -10.7460  -10.7279   -6.3722   -6.3294   -5.8568   -5.8568   -5.8568   -5.8568   -5.8222   -5.8222
   -5.8222   -5.8222   -2.1651   -2.1651   -2.1475   -2.1475    0.2819    0.3020    0.5056    0.5056
    0.5156    0.5156    0.6155    0.6155    0.7174    0.7174    2.8555    2.8555    2.8567    2.8568
    2.9250    2.9250    2.9250    2.9250    2.9373    2.9373    2.9373    2.9373    3.2574    3.2574
    3.2621    3.2621    3.3751    3.3751    3.5265    3.5265    5.2657    5.2657    5.2870    5.2870
    8.1109    8.1109    8.1109    8.1109    8.1499    8.1500    8.1500    8.1500    9.3551    9.3551
    9.3580    9.3580   10.5436   10.5437   12.5470   12.5506   13.1136   13.1136   13.1136   13.1136
   13.1269   13.1269   13.1269   13.1269
  29  1  -27.8287  -27.8287  -27.1172  -27.1172  -27.1172  -27.1172  -25.1711  -25.1711  -25.1711  -25.1711
         -24.0391  -24.0391  -23.6318  -23.6318  -23.6318  -23.6318  -23.0203  -23.0203  -21.5732  -21.5732
  -21.3745  -21.3745  -21.3745  -21.3745  -19.9954  -19.9954  -18.9996  -18.9996  -18.9996  -18.9996
  -18.1842  -18.1842  -17.7180  -17.7180  -17.0101  -17.0101  -17.0101  -17.0101  -16.6210  -16.6210
  -16.6210  -16.6210  -16.2371  -16.2371  -16.2371  -16.2371  -14.9193  -14.9192  -14.9192  -14.9192
  -14.6698  -14.6698  -14.2492  -14.2492  -14.0106  -14.0105  -13.7229  -13.7229  -13.7229  -13.7229
  -12.1014  -12.1014  -12.1014  -12.1014  -10.9999  -10.9999  -10.8090  -10.8090  -10.8090  -10.8090
  -10.1959  -10.1959   -6.8308   -6.8308   -6.1774   -6.1774   -6.1774   -6.1774   -5.6751   -5.6751
   -4.0123   -4.0123   -4.0123   -4.0123   -0.5717   -0.5717   -0.5717   -0.5717    0.8978    0.8978
    0.9993    0.9993    1.0384    1.0384    1.0385    1.0385    1.4460    1.4460    1.4460    1.4460
    1.7546    1.7546    2.8670    2.8670    3.1016    3.1016    3.1016    3.1016    3.4400    3.4400
    3.4400    3.4400    4.6969    4.6969    4.9619    4.9619    5.9060    5.9060    5.9060    5.9060
    6.4760    6.4760    6.9359    6.9359    6.9359    6.9359    9.0429    9.0429    9.8365    9.8365
    9.8365    9.8365   11.5694   11.5694   11.5694   11.5694   12.7854   12.7854   12.7854   12.7855
   13.2583   13.2583   13.6896   13.6896
  30  1  -28.1952  -28.1952  -26.7730  -26.7730  -26.1080  -26.1080  -26.1080  -26.1079  -24.8826  -24.8826
         -24.8826  -24.8826  -24.3394  -24.3394  -22.8577  -22.8577  -22.8577  -22.8577  -21.1433  -21.1433
  -21.1433  -21.1433  -20.7215  -20.7215  -19.8542  -19.8542  -19.8542  -19.8542  -18.7733  -18.7733
  -18.7733  -18.7733  -18.0610  -18.0610  -18.0610  -18.0610  -17.0827  -17.0827  -16.3222  -16.3222
  -16.3222  -16.3222  -16.0715  -16.0715  -15.7387  -15.7386  -15.7386  -15.7386  -14.9715  -14.9715
  -14.5075  -14.5075  -13.6900  -13.6900  -13.4593  -13.4593  -13.4007  -13.4007  -12.9232  -12.9232
  -12.9232  -12.9232  -11.8649  -11.8649  -11.8649  -11.8649  -11.4128  -11.4128   -9.7942   -9.7942
   -9.7942   -9.7942   -7.1804   -7.1804   -7.1804   -7.1804   -5.3368   -5.3368   -4.5231   -4.5231
   -4.5231   -4.5231   -2.4746   -2.4746   -2.4745   -2.4745   -1.2568   -1.2568    0.3477    0.3477
    0.3649    0.3649    0.6911    0.6911    0.8576    0.8576    1.1713    1.1713    1.1713    1.1713
    1.3590    1.3590    1.3590    1.3590    1.7065    1.7065    4.0634    4.0634    5.0498    5.0498
    5.0498    5.0498    5.4638    5.4639    5.9109    5.9109    5.9109    5.9110    7.3097    7.3097
    7.6951    7.6951    7.6951    7.6951    8.3231    8.3231    8.3231    8.3231    9.3205    9.3205
    9.3205    9.3205    9.8655    9.8655   11.4597   11.4597   11.4597   11.4597   11.7192   11.7192
   14.1601   14.1601   14.1601   14.1601
  31  1  -28.1952  -28.1952  -26.7730  -26.7730  -26.1080  -26.1080  -26.1080  -26.1079  -24.8826  -24.8826
         -24.8826  -24.8826  -24.3394  -24.3394  -22.8577  -22.8577  -22.8577  -22.8577  -21.1433  -21.1433
  -21.1433  -21.1433  -20.7215  -20.7215  -19.8542  -19.8542  -19.8542  -19.8542  -18.7733  -18.7733
  -18.7733  -18.7733  -18.0610  -18.0610  -18.0610  -18.0610  -17.0827  -17.0827  -16.3222  -16.3222
  -16.3222  -16.3222  -16.0715  -16.0715  -15.7387  -15.7386  -15.7386  -15.7386  -14.9715  -14.9715
  -14.5075  -14.5075  -13.6900  -13.6900  -13.4593  -13.4593  -13.4007  -13.4007  -12.9232  -12.9232
  -12.9232  -12.9232  -11.8649  -11.8649  -11.8649  -11.8649  -11.4128  -11.4128   -9.7942   -9.7942
   -9.7942   -9.7942   -7.1804   -7.1804   -7.1804   -7.1804   -5.3368   -5.3368   -4.5231   -4.5231
   -4.5231   -4.5231   -2.4746   -2.4746   -2.4745   -2.4745   -1.2568   -1.2568    0.3477    0.3477
    0.3649    0.3649    0.6911    0.6911    0.8576    0.8576    1.1713    1.1713    1.1713    1.1713
    1.3590    1.3590    1.3590    1.3590    1.7065    1.7065    4.0634    4.0634    5.0498    5.0498
    5.0498    5.0498    5.4638    5.4639    5.9109    5.9109    5.9109    5.9110    7.3097    7.3097
    7.6951    7.6951    7.6951    7.6951    8.3231    8.3231    8.3231    8.3231    9.3205    9.3205
    9.3205    9.3205    9.8655    9.8655   11.4597   11.4597   11.4597   11.4597   11.7192   11.7192
   14.1601   14.1601   14.1601   14.1601
  32  1  -27.8287  -27.8287  -27.1172  -27.1172  -27.1172  -27.1172  -25.1711  -25.1711  -25.1711  -25.1711
         -24.0391  -24.0391  -23.6318  -23.6318  -23.6318  -23.6318  -23.0203  -23.0203  -21.5732  -21.5732
  -21.3745  -21.3745  -21.3745  -21.3745  -19.9954  -19.9954  -18.9996  -18.9996  -18.9996  -18.9996
  -18.1842  -18.1842  -17.7180  -17.7180  -17.0101  -17.0101  -17.0101  -17.0101  -16.6210  -16.6210
  -16.6210  -16.6210  -16.2371  -16.2371  -16.2371  -16.2371  -14.9193  -14.9192  -14.9192  -14.9192
  -14.6698  -14.6698  -14.2492  -14.2492  -14.0106  -14.0105  -13.7229  -13.7229  -13.7229  -13.7229
  -12.1014  -12.1014  -12.1014  -12.1014  -10.9999  -10.9999  -10.8090  -10.8090  -10.8090  -10.8090
  -10.1959  -10.1959   -6.8308   -6.8308   -6.1774   -6.1774   -6.1774   -6.1774   -5.6751   -5.6751
   -4.0123   -4.0123   -4.0123   -4.0123   -0.5717   -0.5717   -0.5717   -0.5717    0.8978    0.8978
    0.9993    0.9993    1.0384    1.0384    1.0385    1.0385    1.4460    1.4460    1.4460    1.4460
    1.7546    1.7546    2.8670    2.8670    3.1016    3.1016    3.1016    3.1016    3.4400    3.4400
    3.4400    3.4400    4.6969    4.6969    4.9619    4.9619    5.9060    5.9060    5.9060    5.9060
    6.4760    6.4760    6.9359    6.9359    6.9359    6.9359    9.0429    9.0429    9.8365    9.8365
    9.8365    9.8365   11.5694   11.5694   11.5694   11.5694   12.7854   12.7854   12.7854   12.7855
   13.2583   13.2583   13.6896   13.6896
  33  1  -28.1952  -28.1952  -26.7730  -26.7730  -26.1080  -26.1080  -26.1080  -26.1079  -24.8826  -24.8826
         -24.8826  -24.8826  -24.3394  -24.3394  -22.8577  -22.8577  -22.8577  -22.8577  -21.1433  -21.1433
  -21.1433  -21.1433  -20.7215  -20.7215  -19.8542  -19.8542  -19.8542  -19.8542  -18.7733  -18.7733
  -18.7733  -18.7733  -18.0610  -18.0610  -18.0610  -18.0610  -17.0827  -17.0827  -16.3222  -16.3222
  -16.3222  -16.3222  -16.0715  -16.0715  -15.7387  -15.7386  -15.7386  -15.7386  -14.9715  -14.9715
  -14.5075  -14.5075  -13.6900  -13.6900  -13.4593  -13.4593  -13.4007  -13.4007  -12.9232  -12.9232
  -12.9232  -12.9232  -11.8649  -11.8649  -11.8649  -11.8649  -11.4128  -11.4128   -9.7942   -9.7942
   -9.7942   -9.7942   -7.1804   -7.1804   -7.1804   -7.1804   -5.3368   -5.3368   -4.5231   -4.5231
   -4.5231   -4.5231   -2.4746   -2.4746   -2.4745   -2.4745   -1.2568   -1.2568    0.3477    0.3477
    0.3649    0.3649    0.6911    0.6911    0.8576    0.8576    1.1713    1.1713    1.1713    1.1713
    1.3590    1.3590    1.3590    1.3590    1.7065    1.7065    4.0634    4.0634    5.0498    5.0498
    5.0498    5.0498    5.4638    5.4639    5.9109    5.9109    5.9109    5.9110    7.3097    7.3097
    7.6951    7.6951    7.6951    7.6951    8.3231    8.3231    8.3231    8.3231    9.3205    9.3205
    9.3205    9.3205    9.8655    9.8655   11.4597   11.4597   11.4597   11.4597   11.7192   11.7192
   14.1601   14.1601   14.1601   14.1601
  34  1  -28.3810  -28.3810  -25.6326  -25.6326  -25.6326  -25.6326  -25.6326  -25.6326  -25.6326  -25.6326
         -25.6326  -25.6326  -25.6326  -25.6326  -21.8561  -21.8561  -21.8561  -21.8561  -21.8556  -21.8556
  -21.8556  -21.8556  -19.3346  -19.3346  -19.3346  -19.3346  -18.9911  -18.9911  -18.9911  -18.9911
  -18.9911  -18.9911  -18.9911  -18.9911  -18.9911  -18.9911  -18.9911  -18.9911  -15.6446  -15.6446
  -15.6446  -15.6446  -15.6446  -15.6446  -15.6446  -15.6446  -15.6446  -15.6446  -15.6446  -15.6446
  -14.6366  -14.6366  -13.0796  -13.0796  -13.0796  -13.0796  -12.5283  -12.5283  -12.5283  -12.5283
  -12.5283  -12.5283  -12.5283  -12.5283  -12.5283  -12.5283  -12.5283  -12.5283   -8.5126   -8.5126
   -8.5126   -8.5126   -8.5122   -8.5122   -8.5122   -8.5122   -3.3349   -3.3349   -3.3349   -3.3349
   -3.3349   -3.3349   -3.3349   -3.3349   -3.3349   -3.3349   -3.3349   -3.3349    0.0914    0.0914
    0.0915    0.0915    0.5366    0.5366    0.5366    0.5366    0.5366    0.5366    0.5366    0.5366
    0.5366    0.5366    0.5366    0.5366    2.1317    2.1317    3.7219    3.7219    6.7411    6.7411
    6.7412    6.7412    6.7412    6.7412    6.7412    6.7412    8.0119    8.0119    8.0119    8.0119
    8.0120    8.0120    8.0120    8.0120    8.0120    8.0120    8.0120    8.0120    9.6847    9.6847
    9.6847    9.6847    9.6847    9.6847    9.6847    9.6847    9.6848    9.6848    9.6848    9.6848
   14.5134   14.5134   14.5134   14.5134
  35  1  -28.1952  -28.1952  -26.7730  -26.7730  -26.1080  -26.1080  -26.1080  -26.1079  -24.8826  -24.8826
         -24.8826  -24.8826  -24.3394  -24.3394  -22.8577  -22.8577  -22.8577  -22.8577  -21.1433  -21.1433
  -21.1433  -21.1433  -20.7215  -20.7215  -19.8542  -19.8542  -19.8542  -19.8542  -18.7733  -18.7733
  -18.7733  -18.7733  -18.0610  -18.0610  -18.0610  -18.0610  -17.0827  -17.0827  -16.3222  -16.3222
  -16.3222  -16.3222  -16.0715  -16.0715  -15.7387  -15.7386  -15.7386  -15.7386  -14.9715  -14.9715
  -14.5075  -14.5075  -13.6900  -13.6900  -13.4593  -13.4593  -13.4007  -13.4007  -12.9232  -12.9232
  -12.9232  -12.9232  -11.8649  -11.8649  -11.8649  -11.8649  -11.4128  -11.4128   -9.7942   -9.7942
   -9.7942   -9.7942   -7.1804   -7.1804   -7.1804   -7.1804   -5.3368   -5.3368   -4.5231   -4.5231
   -4.5231   -4.5231   -2.4746   -2.4746   -2.4745   -2.4745   -1.2568   -1.2568    0.3477    0.3477
    0.3649    0.3649    0.6911    0.6911    0.8576    0.8576    1.1713    1.1713    1.1713    1.1713
    1.3590    1.3590    1.3590    1.3590    1.7065    1.7065    4.0634    4.0634    5.0498    5.0498
    5.0498    5.0498    5.4638    5.4639    5.9109    5.9109    5.9109    5.9110    7.3097    7.3097
    7.6951    7.6951    7.6951    7.6951    8.3231    8.3231    8.3231    8.3231    9.3205    9.3205
    9.3205    9.3205    9.8655    9.8655   11.4597   11.4597   11.4597   11.4597   11.7192   11.7192
   14.1601   14.1601   14.1601   14.1601
  36  1  -27.6481  -27.6481  -27.6481  -27.6481  -26.2705  -26.2705  -26.2705  -26.2705  -23.9245  -23.9245
         -23.9245  -23.9245  -23.9245  -23.9245  -23.9245  -23.9245  -23.4219  -23.4219  -21.7743  -21.7743
  -20.5592  -20.5592  -20.5592  -20.5592  -20.5592  -20.5592  -20.5592  -20.5592  -17.5456  -17.5456
  -17.5456  -17.5456  -17.5456  -17.5456  -17.5456  -17.5456  -17.4952  -17.4952  -17.4952  -17.4952
  -16.2167  -16.2167  -16.0712  -16.0712  -16.0712  -16.0712  -15.1994  -15.1994  -15.1994  -15.1994
  -14.1497  -14.1497  -14.1497  -14.1497  -14.1174  -14.1174  -14.1174  -14.1174  -13.0540  -13.0540
  -13.0540  -13.0540  -10.9399  -10.9399  -10.9399  -10.9399  -10.9399  -10.9399  -10.9399  -10.9399
  -10.7369  -10.7369   -6.3515   -6.3515   -5.8397   -5.8397   -5.8397   -5.8397   -5.8397   -5.8397
   -5.8397   -5.8397   -2.1563   -2.1563   -2.1563   -2.1563    0.2921    0.2921    0.5106    0.5106
    0.5106    0.5106    0.6689    0.6689    0.6689    0.6689    2.8561    2.8561    2.8561    2.8561
    2.9313    2.9314    2.9314    2.9314    2.9314    2.9314    2.9314    2.9314    3.2597    3.2597
    3.2598    3.2598    3.4533    3.4533    3.4533    3.4533    5.2767    5.2767    5.2767    5.2767
    8.1308    8.1308    8.1308    8.1308    8.1309    8.1309    8.1309    8.1309    9.3565    9.3565
    9.3565    9.3566   10.5437   10.5437   12.5492   12.5492   13.1203   13.1203   13.1203   13.1203
   13.1203   13.1203   13.1203   13.1203
  37  1  -28.1952  -28.1952  -26.7730  -26.7730  -26.1080  -26.1080  -26.1080  -26.1079  -24.8826  -24.8826
         -24.8826  -24.8826  -24.3394  -24.3394  -22.8577  -22.8577  -22.8577  -22.8577  -21.1433  -21.1433
  -21.1433  -21.1433  -20.7215  -20.7215  -19.8542  -19.8542  -19.8542  -19.8542  -18.7733  -18.7733
  -18.7733  -18.7733  -18.0610  -18.0610  -18.0610  -18.0610  -17.0827  -17.0827  -16.3222  -16.3222
  -16.3222  -16.3222  -16.0715  -16.0715  -15.7387  -15.7386  -15.7386  -15.7386  -14.9715  -14.9715
  -14.5075  -14.5075  -13.6900  -13.6900  -13.4593  -13.4593  -13.4007  -13.4007  -12.9232  -12.9232
  -12.9232  -12.9232  -11.8649  -11.8649  -11.8649  -11.8649  -11.4128  -11.4128   -9.7942   -9.7942
   -9.7942   -9.7942   -7.1804   -7.1804   -7.1804   -7.1804   -5.3368   -5.3368   -4.5231   -4.5231
   -4.5231   -4.5231   -2.4746   -2.4746   -2.4745   -2.4745   -1.2568   -1.2568    0.3477    0.3477
    0.3649    0.3649    0.6911    0.6911    0.8576    0.8576    1.1713    1.1713    1.1713    1.1713
    1.3590    1.3590    1.3590    1.3590    1.7065    1.7065    4.0634    4.0634    5.0498    5.0498
    5.0498    5.0498    5.4638    5.4639    5.9109    5.9109    5.9109    5.9110    7.3097    7.3097
    7.6951    7.6951    7.6951    7.6951    8.3231    8.3231    8.3231    8.3231    9.3205    9.3205
    9.3205    9.3205    9.8655    9.8655   11.4597   11.4597   11.4597   11.4597   11.7192   11.7192
   14.1601   14.1601   14.1601   14.1601
  38  1  -28.1952  -28.1952  -26.7730  -26.7730  -26.1080  -26.1080  -26.1080  -26.1079  -24.8826  -24.8826
         -24.8826  -24.8826  -24.3394  -24.3394  -22.8577  -22.8577  -22.8577  -22.8577  -21.1433  -21.1433
  -21.1433  -21.1433  -20.7215  -20.7215  -19.8542  -19.8542  -19.8542  -19.8542  -18.7733  -18.7733
  -18.7733  -18.7733  -18.0610  -18.0610  -18.0610  -18.0610  -17.0827  -17.0827  -16.3222  -16.3222
  -16.3222  -16.3222  -16.0715  -16.0715  -15.7387  -15.7386  -15.7386  -15.7386  -14.9715  -14.9715
  -14.5075  -14.5075  -13.6900  -13.6900  -13.4593  -13.4593  -13.4007  -13.4007  -12.9232  -12.9232
  -12.9232  -12.9232  -11.8649  -11.8649  -11.8649  -11.8649  -11.4128  -11.4128   -9.7942   -9.7942
   -9.7942   -9.7942   -7.1804   -7.1804   -7.1804   -7.1804   -5.3368   -5.3368   -4.5231   -4.5231
   -4.5231   -4.5231   -2.4746   -2.4746   -2.4745   -2.4745   -1.2568   -1.2568    0.3477    0.3477
    0.3649    0.3649    0.6911    0.6911    0.8576    0.8576    1.1713    1.1713    1.1713    1.1713
    1.3590    1.3590    1.3590    1.3590    1.7065    1.7065    4.0634    4.0634    5.0498    5.0498
    5.0498    5.0498    5.4638    5.4639    5.9109    5.9109    5.9109    5.9110    7.3097    7.3097
    7.6951    7.6951    7.6951    7.6951    8.3231    8.3231    8.3231    8.3231    9.3205    9.3205
    9.3205    9.3205    9.8655    9.8655   11.4597   11.4597   11.4597   11.4597   11.7192   11.7192
   14.1601   14.1601   14.1601   14.1601
  39  1  -27.8287  -27.8287  -27.1172  -27.1172  -27.1172  -27.1172  -25.1711  -25.1711  -25.1711  -25.1711
         -24.0391  -24.0391  -23.6318  -23.6318  -23.6318  -23.6318  -23.0203  -23.0203  -21.5732  -21.5732
  -21.3745  -21.3745  -21.3745  -21.3745  -19.9954  -19.9954  -18.9996  -18.9996  -18.9996  -18.9996
  -18.1842  -18.1842  -17.7180  -17.7180  -17.0101  -17.0101  -17.0101  -17.0101  -16.6210  -16.6210
  -16.6210  -16.6210  -16.2371  -16.2371  -16.2371  -16.2371  -14.9193  -14.9192  -14.9192  -14.9192
  -14.6698  -14.6698  -14.2492  -14.2492  -14.0106  -14.0105  -13.7229  -13.7229  -13.7229  -13.7229
  -12.1014  -12.1014  -12.1014  -12.1014  -10.9999  -10.9999  -10.8090  -10.8090  -10.8090  -10.8090
  -10.1959  -10.1959   -6.8308   -6.8308   -6.1774   -6.1774   -6.1774   -6.1774   -5.6751   -5.6751
   -4.0123   -4.0123   -4.0123   -4.0123   -0.5717   -0.5717   -0.5717   -0.5717    0.8978    0.8978
    0.9993    0.9993    1.0384    1.0384    1.0385    1.0385    1.4460    1.4460    1.4460    1.4460
    1.7546    1.7546    2.8670    2.8670    3.1016    3.1016    3.1016    3.1016    3.4400    3.4400
    3.4400    3.4400    4.6969    4.6969    4.9619    4.9619    5.9060    5.9060    5.9060    5.9060
    6.4760    6.4760    6.9359    6.9359    6.9359    6.9359    9.0429    9.0429    9.8365    9.8365
    9.8365    9.8365   11.5694   11.5694   11.5694   11.5694   12.7854   12.7854   12.7854   12.7855
   13.2583   13.2583   13.6896   13.6896
  40  1  -27.8287  -27.8287  -27.1172  -27.1172  -27.1172  -27.1172  -25.1711  -25.1711  -25.1711  -25.1711
         -24.0391  -24.0391  -23.6318  -23.6318  -23.6318  -23.6318  -23.0203  -23.0203  -21.5732  -21.5732
  -21.3745  -21.3745  -21.3745  -21.3745  -19.9954  -19.9954  -18.9996  -18.9996  -18.9996  -18.9996
  -18.1842  -18.1842  -17.7180  -17.7180  -17.0101  -17.0101  -17.0101  -17.0101  -16.6210  -16.6210
  -16.6210  -16.6210  -16.2371  -16.2371  -16.2371  -16.2371  -14.9193  -14.9192  -14.9192  -14.9192
  -14.6698  -14.6698  -14.2492  -14.2492  -14.0106  -14.0105  -13.7229  -13.7229  -13.7229  -13.7229
  -12.1014  -12.1014  -12.1014  -12.1014  -10.9999  -10.9999  -10.8090  -10.8090  -10.8090  -10.8090
  -10.1959  -10.1959   -6.8308   -6.8308   -6.1774   -6.1774   -6.1774   -6.1774   -5.6751   -5.6751
   -4.0123   -4.0123   -4.0123   -4.0123   -0.5717   -0.5717   -0.5717   -0.5717    0.8978    0.8978
    0.9993    0.9993    1.0384    1.0384    1.0385    1.0385    1.4460    1.4460    1.4460    1.4460
    1.7546    1.7546    2.8670    2.8670    3.1016    3.1016    3.1016    3.1016    3.4400    3.4400
    3.4400    3.4400    4.6969    4.6969    4.9619    4.9619    5.9060    5.9060    5.9060    5.9060
    6.4760    6.4760    6.9359    6.9359    6.9359    6.9359    9.0429    9.0429    9.8365    9.8365
    9.8365    9.8365   11.5694   11.5694   11.5694   11.5694   12.7854   12.7854   12.7854   12.7855
   13.2583   13.2583   13.6896   13.6896
  41  1  -27.8287  -27.8287  -27.1172  -27.1172  -27.1172  -27.1172  -25.1711  -25.1711  -25.1711  -25.1711
         -24.0391  -24.0391  -23.6318  -23.6318  -23.6318  -23.6318  -23.0203  -23.0203  -21.5732  -21.5732
  -21.3745  -21.3745  -21.3745  -21.3745  -19.9954  -19.9954  -18.9996  -18.9996  -18.9996  -18.9996
  -18.1842  -18.1842  -17.7180  -17.7180  -17.0101  -17.0101  -17.0101  -17.0101  -16.6210  -16.6210
  -16.6210  -16.6210  -16.2371  -16.2371  -16.2371  -16.2371  -14.9193  -14.9192  -14.9192  -14.9192
  -14.6698  -14.6698  -14.2492  -14.2492  -14.0106  -14.0105  -13.7229  -13.7229  -13.7229  -13.7229
  -12.1014  -12.1014  -12.1014  -12.1014  -10.9999  -10.9999  -10.8090  -10.8090  -10.8090  -10.8090
  -10.1959  -10.1959   -6.8308   -6.8308   -6.1774   -6.1774   -6.1774   -6.1774   -5.6751   -5.6751
   -4.0123   -4.0123   -4.0123   -4.0123   -0.5717   -0.5717   -0.5717   -0.5717    0.8978    0.8978
    0.9993    0.9993    1.0384    1.0384    1.0385    1.0385    1.4460    1.4460    1.4460    1.4460
    1.7546    1.7546    2.8670    2.8670    3.1016    3.1016    3.1016    3.1016    3.4400    3.4400
    3.4400    3.4400    4.6969    4.6969    4.9619    4.9619    5.9060    5.9060    5.9060    5.9060
    6.4760    6.4760    6.9359    6.9359    6.9359    6.9359    9.0429    9.0429    9.8365    9.8365
    9.8365    9.8365   11.5694   11.5694   11.5694   11.5694   12.7854   12.7854   12.7854   12.7855
   13.2583   13.2583   13.6896   13.6896
  42  1  -27.6481  -27.6481  -27.6481  -27.6481  -26.2705  -26.2705  -26.2705  -26.2705  -23.9245  -23.9245
         -23.9245  -23.9245  -23.9245  -23.9245  -23.9245  -23.9245  -23.4219  -23.4219  -21.7743  -21.7743
  -20.5592  -20.5592  -20.5592  -20.5592  -20.5592  -20.5592  -20.5592  -20.5592  -17.5456  -17.5456
  -17.5456  -17.5456  -17.5456  -17.5456  -17.5456  -17.5456  -17.4952  -17.4952  -17.4952  -17.4952
  -16.2167  -16.2167  -16.0712  -16.0712  -16.0712  -16.0712  -15.1994  -15.1994  -15.1994  -15.1994
  -14.1497  -14.1497  -14.1497  -14.1497  -14.1174  -14.1174  -14.1174  -14.1174  -13.0540  -13.0540
  -13.0540  -13.0540  -10.9399  -10.9399  -10.9399  -10.9399  -10.9399  -10.9399  -10.9399  -10.9399
  -10.7369  -10.7369   -6.3515   -6.3515   -5.8397   -5.8397   -5.8397   -5.8397   -5.8397   -5.8397
   -5.8397   -5.8397   -2.1563   -2.1563   -2.1563   -2.1563    0.2921    0.2921    0.5106    0.5106
    0.5106    0.5106    0.6689    0.6689    0.6689    0.6689    2.8561    2.8561    2.8561    2.8561
    2.9313    2.9314    2.9314    2.9314    2.9314    2.9314    2.9314    2.9314    3.2597    3.2597
    3.2598    3.2598    3.4533    3.4533    3.4533    3.4533    5.2767    5.2767    5.2767    5.2767
    8.1308    8.1308    8.1308    8.1308    8.1309    8.1309    8.1309    8.1309    9.3565    9.3565
    9.3565    9.3566   10.5437   10.5437   12.5492   12.5492   13.1203   13.1203   13.1203   13.1203
   13.1203   13.1203   13.1203   13.1203
  43  1  -27.8287  -27.8287  -27.1172  -27.1172  -27.1172  -27.1172  -25.1711  -25.1711  -25.1711  -25.1711
         -24.0391  -24.0391  -23.6318  -23.6318  -23.6318  -23.6318  -23.0203  -23.0203  -21.5732  -21.5732
  -21.3745  -21.3745  -21.3745  -21.3745  -19.9954  -19.9954  -18.9996  -18.9996  -18.9996  -18.9996
  -18.1842  -18.1842  -17.7180  -17.7180  -17.0101  -17.0101  -17.0101  -17.0101  -16.6210  -16.6210
  -16.6210  -16.6210  -16.2371  -16.2371  -16.2371  -16.2371  -14.9193  -14.9192  -14.9192  -14.9192
  -14.6698  -14.6698  -14.2492  -14.2492  -14.0106  -14.0105  -13.7229  -13.7229  -13.7229  -13.7229
  -12.1014  -12.1014  -12.1014  -12.1014  -10.9999  -10.9999  -10.8090  -10.8090  -10.8090  -10.8090
  -10.1959  -10.1959   -6.8308   -6.8308   -6.1774   -6.1774   -6.1774   -6.1774   -5.6751   -5.6751
   -4.0123   -4.0123   -4.0123   -4.0123   -0.5717   -0.5717   -0.5717   -0.5717    0.8978    0.8978
    0.9993    0.9993    1.0384    1.0384    1.0385    1.0385    1.4460    1.4460    1.4460    1.4460
    1.7546    1.7546    2.8670    2.8670    3.1016    3.1016    3.1016    3.1016    3.4400    3.4400
    3.4400    3.4400    4.6969    4.6969    4.9619    4.9619    5.9060    5.9060    5.9060    5.9060
    6.4760    6.4760    6.9359    6.9359    6.9359    6.9359    9.0429    9.0429    9.8365    9.8365
    9.8365    9.8365   11.5694   11.5694   11.5694   11.5694   12.7854   12.7854   12.7854   12.7855
   13.2583   13.2583   13.6896   13.6896
  44  1  -27.6481  -27.6481  -27.6481  -27.6481  -26.2705  -26.2705  -26.2705  -26.2705  -23.9245  -23.9245
         -23.9245  -23.9245  -23.9245  -23.9245  -23.9245  -23.9245  -23.4219  -23.4219  -21.7743  -21.7743
  -20.5592  -20.5592  -20.5592  -20.5592  -20.5592  -20.5592  -20.5592  -20.5592  -17.5456  -17.5456
  -17.5456  -17.5456  -17.5456  -17.5456  -17.5456  -17.5456  -17.4952  -17.4952  -17.4952  -17.4952
  -16.2167  -16.2167  -16.0712  -16.0712  -16.0712  -16.0712  -15.1994  -15.1994  -15.1994  -15.1994
  -14.1497  -14.1497  -14.1497  -14.1497  -14.1174  -14.1174  -14.1174  -14.1174  -13.0540  -13.0540
  -13.0540  -13.0540  -10.9399  -10.9399  -10.9399  -10.9399  -10.9399  -10.9399  -10.9399  -10.9399
  -10.7369  -10.7369   -6.3515   -6.3515   -5.8397   -5.8397   -5.8397   -5.8397   -5.8397   -5.8397
   -5.8397   -5.8397   -2.1563   -2.1563   -2.1563   -2.1563    0.2921    0.2921    0.5106    0.5106
    0.5106    0.5106    0.6689    0.6689    0.6689    0.6689    2.8561    2.8561    2.8561    2.8561
    2.9313    2.9314    2.9314    2.9314    2.9314    2.9314    2.9314    2.9314    3.2597    3.2597
    3.2598    3.2598    3.4533    3.4533    3.4533    3.4533    5.2767    5.2767    5.2767    5.2767
    8.1308    8.1308    8.1308    8.1308    8.1309    8.1309    8.1309    8.1309    9.3565    9.3565
    9.3565    9.3566   10.5437   10.5437   12.5492   12.5492   13.1203   13.1203   13.1203   13.1203
   13.1203   13.1203   13.1203   13.1203
siesta: Fermi energy =      -8.512332 eV

siesta: Program's energy decomposition (eV):
siesta: Ebs     =     -2606.129162
siesta: Eions   =      9434.507561
siesta: Ena     =      2271.206237
siesta: Ekin    =      3581.149034
siesta: Enl     =      -332.849235
siesta: Eso     =         0.000000
siesta: Edftu   =         0.000000
siesta: DEna    =        25.878643
siesta: DUscf   =         2.888820
siesta: DUext   =         0.000000
siesta: Exc     =     -1618.246501
siesta: eta*DQ  =         0.000000
siesta: Emadel  =         0.000000
siesta: Emeta   =         0.000000
siesta: Emolmec =        -2.658499
siesta: Ekinion =         0.000000
siesta: Eharris =     -5507.139062
siesta: Etot    =     -5507.139062
siesta: FreeEng =     -5507.156496

siesta: Final energy (eV):
siesta:  Band Struct. =   -2606.129162
siesta:       Kinetic =    3581.149034
siesta:       Hartree =    2724.939945
siesta:       Edftu   =       0.000000
siesta:       Eso     =       0.000000
siesta:    Ext. field =       0.000000
siesta:   Exch.-corr. =   -1618.246501
siesta:  Ion-electron =   -9522.176961
siesta:       Ion-ion =    -670.146080
siesta:       Ekinion =       0.000000
siesta:         Total =   -5507.139062
siesta:         Fermi =      -8.512332

siesta: Stress tensor (static) (eV/Ang**3):
siesta:    -0.195867    0.000000   -0.000000
siesta:     0.000000   -0.195867   -0.000000
siesta:    -0.000000   -0.000000    0.030332

siesta: Cell volume =        431.897505 Ang**3

siesta: Pressure (static):
siesta:                Solid            Molecule  Units
siesta:           0.00131204          0.00131207  Ry/Bohr**3
siesta:           0.12046749          0.12046947  eV/Ang**3
siesta:         193.01227885        193.01546185  kBar
(Free)E+ p_basis*V_orbitals  =       -5488.853449
(Free)Eharris+ p_basis*V_orbitals  =       -5488.853450

cite: Please see "graphite_scf.bib" for an exhaustive BiBTeX file.
cite: Please clearly indicate Siesta version in published work: 4.1.5
cite: This calculation has made use of the following articles
cite: which are encouraged to be cited in a published work.
        Primary SIESTA paper
          DOI: www.doi.org/10.1088/0953-8984/14/11/302

>> End of run:   1-NOV-2022  14:33:46
Job completed
