Siesta Version  : 4.1.5
Architecture    : x86_64-unknown-linux-gnu--unknown
Compiler version: GNU Fortran (GCC) 11.3.0
Compiler flags  : mpif90 -g -O2 -fallow-argument-mismatch
PP flags        : -DMPI -DFC_HAVE_FLUSH -DFC_HAVE_ABORT
Libraries       :  -I/global/software/sl-7.x86_64/modules/intel/2020.4.304/mkl/include  /globall/software/sl-7.x86_64/modules/intel/2020.4.304/mkl/lib/intel64/libmkl_scalapack_lp64.a -Wl,--start-group /global/software/sl-7.x86_64/modules/intel/2020.4.304/mkl/lib/intel64/libmkl_intel_lp64.a /global/software/sl-7.x86_64/modules/intel/2020.4.304/mkl/lib/intel64/libmkl_sequential.a /global/software/sl-7.x86_64/modules/intel/2020.4.304/mkl/lib/intel64/libmkl_core.a /global/software/sl-7.x86_64/modules/intel/2020.4.304/mkl/lib/intel64/libmkl_blacs_openmpi_lp64.a -Wl,--end-group -lpthread -lm -ldl
PARALLEL version

* Running on 20 nodes in parallel
>> Start of run:   1-NOV-2022  14:34:16

                           ***********************       
                           *  WELCOME TO SIESTA  *       
                           ***********************       

reinit: Reading from standard input
reinit: Dumped input in INPUT_TMP.41907
************************** Dump of input data file ****************************
SystemName graphite_scf
SystemLabel graphite_scf
NumberOfAtoms   36
NumberOfSpecies 1
%block ChemicalSpeciesLabel
1  6   C-gga
%endblock ChemicalSpeciesLabel
PAO.BasisSize  SZ
PAO.EnergyShift  10 meV
%block PS.Lmax
C-gga   2
%endblock PS.Lmax
LatticeConstant 1.000000 Ang
%block LatticeVectors
	7.3920000000	0.0000000000	0.0000000000
	-3.6960000000	6.4016597848	0.0000000000
	0.0000000000	0.0000000000	9.5296200000
%endblock LatticeVectors
AtomicCoordinatesFormat Ang
%block AtomicCoordinatesAndAtomicSpecies
	0.00000000	0.00000000	2.38240500	1
	0.00000000	0.00000000	7.14721500	1
	-1.23200000	2.13388659	2.38240500	1
	-2.46400000	4.26777319	7.14721500	1
	2.46400000	4.26777319	2.38240500	1
	1.23200000	2.13388659	7.14721500	1
	2.46400000	0.00000000	2.38240500	1
	4.92800000	0.00000000	7.14721500	1
	2.46400000	0.00000000	7.14721500	1
	4.92800000	0.00000000	2.38240500	1
	2.46400000	4.26777319	7.14721500	1
	1.23200000	2.13388659	2.38240500	1
	-1.23200000	2.13388659	7.14721500	1
	-2.46400000	4.26777319	2.38240500	1
	0.00000000	4.26777319	2.38240500	1
	3.69600000	2.13388659	7.14721500	1
	3.69600000	2.13388659	2.38240500	1
	0.00000000	4.26777319	7.14721500	1
	0.00000000	1.42258964	2.38240500	1
	3.69600000	4.97907014	7.14721500	1
	2.46400123	5.69036496	2.38240500	1
	1.23199877	0.71129482	7.14721500	1
	-2.46400123	5.69036496	2.38240500	1
	6.16000123	0.71129482	7.14721500	1
	-1.23200000	3.55647624	2.38240500	1
	4.92800000	2.84518355	7.14721500	1
	1.23200123	3.55647837	2.38240500	1
	2.46399877	2.84518142	7.14721500	1
	-0.00000123	5.69036496	2.38240500	1
	3.69600123	0.71129482	7.14721500	1
	2.46400000	1.42258964	2.38240500	1
	1.23200000	4.97907014	7.14721500	1
	4.92800123	1.42259177	2.38240500	1
	-1.23200123	4.97906801	7.14721500	1
	3.69599877	3.55647837	2.38240500	1
	0.00000123	2.84518142	7.14721500	1
%endblock AtomicCoordinatesAndAtomicSpecies
Kgrid_NoTRS  T
%block kgrid_MonkhorstPack
4       0       0       0.0
0       4       0       0.0
0       0       4       0.0
%endblock kgrid_MonkhorstPack
AtomCoorFormatOut Ang
BlockSize 1
#ProcessorY 12
Diag.ParallelOverK   T
Diag.DivideAndConquer F
MeshCutoff   300 Ry
SCF.FreeE.Tolerance 1E-3 eV
SCF.EDM.Tolerance   5E-3 eV
DM.Tolerance  1E-3
DM.Require.Energy.Convergence T
DM.NumberPulay 4
#XC.Functional GGA
#CX.Authors    PBE
UseSaveData        F
SolutionMethod     diagon
MD.TypeOfRun       CG
MD.VariableCell    F
MD.NumCGsteps      00
MD.MaxCGDispl      0.200000 Bohr
#MD.MaxStressTol    1.000000 GPa
#MD.MaxForceTol     0.010000 eV/Ang
WriteMDHistory T
WriteCoorStep T
WriteForces T
WriteCoorStep    T
WriteEigenValues T
WriteDM    F
MM.UnitsDistance Ang  # what this program prints out DO NOT CHANGE
MM.UnitsEnergy    eV  # what this program prints out DO NOT CHANGE
MM.Grimme.S6     0.75 # Grimme-paper for PBE (correct for your functional)
MM.Grimme.D     20.   # Grimme-paper (correct for your functional)
%block MM.Potentials
  1   1 Grimme     18.14      2.904 # C, 10.1002/jcc.20495
%endblock MM.Potentials
#%block ProjectedDensityOfStates
# -200.0  120.0  0.4  12800  eV
#%endblock ProjectedDensityOfStates
************************** End of input data file *****************************

reinit: -----------------------------------------------------------------------
reinit: System Name: graphite_scf
reinit: -----------------------------------------------------------------------
reinit: System Label: graphite_scf
reinit: -----------------------------------------------------------------------
Reading two-body potentials
Grimme - two-body potential between 1 and 1

initatom: Reading input for the pseudopotentials and atomic orbitals ----------
Species number:   1 Atomic number:    6 Label: C-gga

Ground state valence configuration:   2s02  2p02
Reading pseudopotential information in formatted form from C-gga.psf

Valence configuration for pseudopotential generation:
2s( 2.00) rc: 1.56
2p( 2.00) rc: 1.56
3d( 0.00) rc: 1.56
4f( 0.00) rc: 1.56
relmxkb: Read Max KB Ang. Momentum=    2 for species C-gga

<basis_specs>
===============================================================================
C-gga                Z=   6    Mass=  12.010        Charge= 0.17977+309
Lmxo=1 Lmxkb= 2    BasisType=split      Semic=F
L=0  Nsemic=0  Cnfigmx=2
          i=1  nzeta=1  polorb=0  (2s)
            splnorm:   0.15000    
               vcte:    0.0000    
               rinn:    0.0000    
               qcoe:    0.0000    
               qyuk:    0.0000    
               qwid:   0.10000E-01
                rcs:    0.0000    
            lambdas:    1.0000    
L=1  Nsemic=0  Cnfigmx=2
          i=1  nzeta=1  polorb=0  (2p)
            splnorm:   0.15000    
               vcte:    0.0000    
               rinn:    0.0000    
               qcoe:    0.0000    
               qyuk:    0.0000    
               qwid:   0.10000E-01
                rcs:    0.0000    
            lambdas:    1.0000    
-------------------------------------------------------------------------------
L=0  Nkbl=1  erefs: 0.17977+309
L=1  Nkbl=1  erefs: 0.17977+309
L=2  Nkbl=1  erefs: 0.17977+309
===============================================================================
</basis_specs>

atom: Called for C-gga                 (Z =   6)

read_vps: Pseudopotential generation method:
read_vps: ATM 3.2.2 Troullier-Martins                       
Valence charge for ps generation:    4.00000

xc_check: Exchange-correlation functional:
xc_check: Ceperley-Alder
xc_check: WARNING: Pseudopotential generated with GGA PBE functional
V l=0 = -2*Zval/r beyond r=  1.5227
V l=1 = -2*Zval/r beyond r=  1.5227
V l=2 = -2*Zval/r beyond r=  1.5227
All V_l potentials equal beyond r=  1.4851
This should be close to max(r_c) in ps generation
All pots = -2*Zval/r beyond r=  1.5227

VLOCAL1: 99.0% of the norm of Vloc inside     19.682 Ry
VLOCAL1: 99.9% of the norm of Vloc inside     44.856 Ry
atom: Maximum radius for 4*pi*r*r*local-pseudopot. charge    1.79142
atom: Maximum radius for r*vlocal+2*Zval:    1.54183
GHOST: No ghost state for L =  0
GHOST: No ghost state for L =  1
GHOST: No ghost state for L =  2

KBgen: Kleinman-Bylander projectors: 
   l= 0   rc=  1.661951   el= -0.994756   Ekb=  5.296364   kbcos=  0.313951
   l= 1   rc=  1.661951   el= -0.376633   Ekb= -4.104879   kbcos= -0.344765
   l= 2   rc=  1.747182   el=  0.002326   Ekb= -1.006421   kbcos= -0.008606

KBgen: Total number of Kleinman-Bylander projectors:    9
atom: -------------------------------------------------------------------------

atom: SANKEY-TYPE ORBITALS:

SPLIT: Orbitals with angular momentum L= 0

SPLIT: Basis orbitals for state 2s

SPLIT: PAO cut-off radius determined from an
SPLIT: energy shift=  0.000735 Ry

   izeta = 1
                 lambda =    1.000000
                     rc =    5.948690
                 energy =   -0.994108
                kinetic =    0.809152
    potential(screened) =   -1.803260
       potential(ionic) =   -5.360717

SPLIT: Orbitals with angular momentum L= 1

SPLIT: Basis orbitals for state 2p

SPLIT: PAO cut-off radius determined from an
SPLIT: energy shift=  0.000735 Ry

   izeta = 1
                 lambda =    1.000000
                     rc =    7.638387
                 energy =   -0.375915
                kinetic =    2.245823
    potential(screened) =   -2.621738
       potential(ionic) =   -5.993382
atom: Total number of Sankey-type orbitals:  4

atm_pop: Valence configuration (for local Pseudopot. screening):
 2s( 2.00)                                                            
 2p( 2.00)                                                            
Vna: chval, zval:    4.00000   4.00000

Vna:  Cut-off radius for the neutral-atom potential:   7.638387

atom: _________________________________________________________________________

prinput: Basis input ----------------------------------------------------------

PAO.BasisType split     

%block ChemicalSpeciesLabel
    1    6 C-gga                   # Species index, atomic number, species label
%endblock ChemicalSpeciesLabel

%block PAO.Basis                 # Define Basis set
C-gga                 2                    # Species label, number of l-shells
 n=2   0   1                         # n, l, Nzeta 
   5.949   
   1.000   
 n=2   1   1                         # n, l, Nzeta 
   7.638   
   1.000   
%endblock PAO.Basis

prinput: ----------------------------------------------------------------------

coor:   Atomic-coordinates input format  =     Cartesian coordinates
coor:                                          (in Angstroms)

siesta: Atomic coordinates (Bohr) and species
siesta:      0.00000   0.00000   4.50209  1        1
siesta:      0.00000   0.00000  13.50628  1        2
siesta:     -2.32814   4.03246   4.50209  1        3
siesta:     -4.65629   8.06493  13.50628  1        4
siesta:      4.65629   8.06493   4.50209  1        5
siesta:      2.32814   4.03246  13.50628  1        6
siesta:      4.65629   0.00000   4.50209  1        7
siesta:      9.31257   0.00000  13.50628  1        8
siesta:      4.65629   0.00000  13.50628  1        9
siesta:      9.31257   0.00000   4.50209  1       10
siesta:      4.65629   8.06493  13.50628  1       11
siesta:      2.32814   4.03246   4.50209  1       12
siesta:     -2.32814   4.03246  13.50628  1       13
siesta:     -4.65629   8.06493   4.50209  1       14
siesta:      0.00000   8.06493   4.50209  1       15
siesta:      6.98443   4.03246  13.50628  1       16
siesta:      6.98443   4.03246   4.50209  1       17
siesta:      0.00000   8.06493  13.50628  1       18
siesta:      0.00000   2.68831   4.50209  1       19
siesta:      6.98443   9.40908  13.50628  1       20
siesta:      4.65629  10.75324   4.50209  1       21
siesta:      2.32814   1.34415  13.50628  1       22
siesta:     -4.65629  10.75324   4.50209  1       23
siesta:     11.64072   1.34415  13.50628  1       24
siesta:     -2.32814   6.72077   4.50209  1       25
siesta:      9.31257   5.37662  13.50628  1       26
siesta:      2.32815   6.72077   4.50209  1       27
siesta:      4.65628   5.37662  13.50628  1       28
siesta:     -0.00000  10.75324   4.50209  1       29
siesta:      6.98443   1.34415  13.50628  1       30
siesta:      4.65629   2.68831   4.50209  1       31
siesta:      2.32814   9.40908  13.50628  1       32
siesta:      9.31258   2.68831   4.50209  1       33
siesta:     -2.32815   9.40908  13.50628  1       34
siesta:      6.98443   6.72077   4.50209  1       35
siesta:      0.00000   5.37662  13.50628  1       36

siesta: System type = bulk      

initatomlists: Number of atoms, orbitals, and projectors:     36   144   324

siesta: ******************** Simulation parameters ****************************
siesta:
siesta: The following are some of the parameters of the simulation.
siesta: A complete list of the parameters used, including default values,
siesta: can be found in file out.fdf
siesta:
redata: Spin configuration                          = none
redata: Number of spin components                   = 1
redata: Time-Reversal Symmetry                      = T
redata: Spin spiral                                 = F
redata: Long output                                 =   F
redata: Number of Atomic Species                    =        1
redata: Charge density info will appear in .RHO file
redata: Write Mulliken Pop.                         = NO
redata: Matel table size (NRTAB)                    =     1024
redata: Mesh Cutoff                                 =   300.0000 Ry
redata: Net charge of the system                    =     0.0000 |e|
redata: Min. number of SCF Iter                     =        0
redata: Max. number of SCF Iter                     =     1000
redata: SCF convergence failure will abort job
redata: SCF mix quantity                            = Hamiltonian
redata: Mix DM or H after convergence               =   F
redata: Recompute H after scf cycle                 =   F
redata: Mix DM in first SCF step                    =   T
redata: Write Pulay info on disk                    =   F
redata: New DM Occupancy tolerance                  = 0.000000000001
redata: No kicks to SCF
redata: DM Mixing Weight for Kicks                  =     0.5000
redata: Require Harris convergence for SCF          =   F
redata: Harris energy tolerance for SCF             =     0.000100 eV
redata: Require DM convergence for SCF              =   T
redata: DM tolerance for SCF                        =     0.001000
redata: Require EDM convergence for SCF             =   F
redata: EDM tolerance for SCF                       =     0.005000 eV
redata: Require H convergence for SCF               =   T
redata: Hamiltonian tolerance for SCF               =     0.001000 eV
redata: Require (free) Energy convergence for SCF   =   T
redata: (free) Energy tolerance for SCF             =     0.001000 eV
redata: Using Saved Data (generic)                  =   F
redata: Use continuation files for DM               =   F
redata: Neglect nonoverlap interactions             =   F
redata: Method of Calculation                       = Diagonalization
redata: Electronic Temperature                      =   299.9869 K
redata: Fix the spin of the system                  =   F
redata: Dynamics option                             = Single-point calculation
mix.SCF: Pulay mixing                            = Pulay
mix.SCF:    Variant                              = stable
mix.SCF:    History steps                        = 4
mix.SCF:    Linear mixing weight                 =     0.250000
mix.SCF:    Mixing weight                        =     0.250000
mix.SCF:    SVD condition                        = 0.1000E-07
redata: ***********************************************************************

%block SCF.Mixers
  Pulay
%endblock SCF.Mixers

%block SCF.Mixer.Pulay
  # Mixing method
  method pulay
  variant stable

  # Mixing options
  weight 0.2500
  weight.linear 0.2500
  history 4
%endblock SCF.Mixer.Pulay

DM_history_depth set to one: no extrapolation allowed by default for geometry relaxation
Size of DM history Fstack: 1
Total number of electrons:   144.000000
Total ionic charge:   144.000000

* ProcessorY, Blocksize:    4   1


* Orbital distribution balance (max,min):     8     7

k-point displ. along   1 input, could be:     0.00    0.50
k-point displ. along   2 input, could be:     0.00    0.50
k-point displ. along   3 input, could be:     0.00    0.50
 Kpoints in:           48 . Kpoints trimmed:           44

siesta: k-grid: Number of k-points =    44
siesta: k-grid: Cutoff (effective) =    14.784 Ang
siesta: k-grid: Supercell and displacements
siesta: k-grid:    4   0   0      0.000
siesta: k-grid:    0   4   0      0.000
siesta: k-grid:    0   0   4      0.000

diag: Algorithm                                     = Expert
diag: Parallel over k                               =   T
diag: Use parallel 2D distribution                  =   T
diag: Parallel block-size                           = 1
diag: Parallel distribution                         =     4 x     5
diag: Used triangular part                          = Lower
diag: Absolute tolerance                            =  0.100E-15
diag: Orthogonalization factor                      =  0.100E-05
diag: Memory factor                                 =  1.0000

superc: Internal auxiliary supercell:     5 x     5 x     3  =      75
superc: Number of atoms, orbitals, and projectors:   2700  10800  24300


ts: **************************************************************
ts: Save H and S matrices                           =    F
ts: Save DM and EDM matrices                        =    F
ts: Only save the overlap matrix S                  =    F
ts: **************************************************************

************************ Begin: TS CHECKS AND WARNINGS ************************
************************ End: TS CHECKS AND WARNINGS **************************


                     ====================================
                        Single-point calculation
                     ====================================

outcoor: Atomic coordinates (Ang):                          
    0.00000000    0.00000000    2.38240500   1       1  C-gga
    0.00000000    0.00000000    7.14721500   1       2  C-gga
   -1.23200000    2.13388659    2.38240500   1       3  C-gga
   -2.46400000    4.26777319    7.14721500   1       4  C-gga
    2.46400000    4.26777319    2.38240500   1       5  C-gga
    1.23200000    2.13388659    7.14721500   1       6  C-gga
    2.46400000    0.00000000    2.38240500   1       7  C-gga
    4.92800000    0.00000000    7.14721500   1       8  C-gga
    2.46400000    0.00000000    7.14721500   1       9  C-gga
    4.92800000    0.00000000    2.38240500   1      10  C-gga
    2.46400000    4.26777319    7.14721500   1      11  C-gga
    1.23200000    2.13388659    2.38240500   1      12  C-gga
   -1.23200000    2.13388659    7.14721500   1      13  C-gga
   -2.46400000    4.26777319    2.38240500   1      14  C-gga
    0.00000000    4.26777319    2.38240500   1      15  C-gga
    3.69600000    2.13388659    7.14721500   1      16  C-gga
    3.69600000    2.13388659    2.38240500   1      17  C-gga
    0.00000000    4.26777319    7.14721500   1      18  C-gga
    0.00000000    1.42258964    2.38240500   1      19  C-gga
    3.69600000    4.97907014    7.14721500   1      20  C-gga
    2.46400123    5.69036496    2.38240500   1      21  C-gga
    1.23199877    0.71129482    7.14721500   1      22  C-gga
   -2.46400123    5.69036496    2.38240500   1      23  C-gga
    6.16000123    0.71129482    7.14721500   1      24  C-gga
   -1.23200000    3.55647624    2.38240500   1      25  C-gga
    4.92800000    2.84518355    7.14721500   1      26  C-gga
    1.23200123    3.55647837    2.38240500   1      27  C-gga
    2.46399877    2.84518142    7.14721500   1      28  C-gga
   -0.00000123    5.69036496    2.38240500   1      29  C-gga
    3.69600123    0.71129482    7.14721500   1      30  C-gga
    2.46400000    1.42258964    2.38240500   1      31  C-gga
    1.23200000    4.97907014    7.14721500   1      32  C-gga
    4.92800123    1.42259177    2.38240500   1      33  C-gga
   -1.23200123    4.97906801    7.14721500   1      34  C-gga
    3.69599877    3.55647837    2.38240500   1      35  C-gga
    0.00000123    2.84518142    7.14721500   1      36  C-gga

superc: Internal auxiliary supercell:     5 x     5 x     3  =      75
superc: Number of atoms, orbitals, and projectors:   2700  10800  24300

outcell: Unit cell vectors (Ang):
        7.392000    0.000000    0.000000
       -3.696000    6.401660    0.000000
        0.000000    0.000000    9.529620

outcell: Cell vector modules (Ang)   :    7.392000    7.392000    9.529620
outcell: Cell angles (23,13,12) (deg):     90.0000     90.0000    120.0000
outcell: Cell volume (Ang**3)        :    450.9518
<dSpData1D:S at geom step 0
  <sparsity:sparsity for geom step 0
    nrows_g=144 nrows=8 sparsity=.2242 nnzs=4648, refcount: 7>
  <dData1D:(new from dSpData1D) n=4648, refcount: 1>
refcount: 1>
new_DM -- step:     1
Initializing Density Matrix...
DM filled with atomic data:
<dSpData2D:DM initialized from atoms
  <sparsity:sparsity for geom step 0
    nrows_g=144 nrows=8 sparsity=.2242 nnzs=4648, refcount: 8>
  <dData2D:DM n=4648 m=1, refcount: 1>
refcount: 1>
No. of atoms with KB's overlaping orbs in proc 0. Max # of overlaps:      79     118
New grid distribution:   1
           1       1:   36    1:    9    1:   10
           2       1:   36    1:    9   11:   20
           3       1:   36    1:    9   21:   30
           4       1:   36    1:    9   31:   40
           5       1:   36    1:    9   41:   50
           6       1:   36   10:   18    1:   10
           7       1:   36   10:   18   11:   20
           8       1:   36   10:   18   21:   30
           9       1:   36   10:   18   31:   40
          10       1:   36   10:   18   41:   50
          11       1:   36   19:   27    1:   10
          12       1:   36   19:   27   11:   20
          13       1:   36   19:   27   21:   30
          14       1:   36   19:   27   31:   40
          15       1:   36   19:   27   41:   50
          16       1:   36   28:   36    1:   10
          17       1:   36   28:   36   11:   20
          18       1:   36   28:   36   21:   30
          19       1:   36   28:   36   31:   40
          20       1:   36   28:   36   41:   50

InitMesh: MESH =    72 x    72 x   100 =      518400
InitMesh: (bp) =    36 x    36 x    50 =       64800
InitMesh: Mesh cutoff (required, used) =   300.000   304.334 Ry
ExtMesh (bp) on 0 =   128 x   101 x    98 =     1266944
New grid distribution:   2
           1      16:   36    1:   18    1:    7
           2       1:   15    1:   18   13:   25
           3      16:   36    1:    9    8:   25
           4       1:   14    1:   18   38:   50
           5      15:   36    1:    9   33:   50
           6      16:   36   28:   36   33:   50
           7      16:   36   10:   18    8:   25
           8      15:   36    1:   18   26:   32
           9       1:   14    1:   18   26:   37
          10      15:   36   10:   18   33:   50
          11       1:   15   19:   36    1:   12
          12      16:   36   19:   27    8:   25
          13       1:   15    1:   18    1:   12
          14      16:   36   19:   27   33:   50
          15       1:   15   19:   36   38:   50
          16      16:   36   19:   36    1:    7
          17       1:   15   19:   36   13:   25
          18      16:   36   28:   36    8:   25
          19       1:   15   19:   36   26:   37
          20      16:   36   19:   36   26:   32
New grid distribution:   3
           1      16:   36    1:   18    1:    9
           2      16:   36   10:   18   35:   50
           3      16:   36   19:   27   10:   25
           4       1:   15    1:   18   26:   38
           5      16:   36   19:   27   35:   50
           6       1:   15    1:   18    1:   13
           7      16:   36   10:   18   10:   25
           8      16:   36    1:   18   26:   34
           9       1:   15    1:   18   14:   25
          10      16:   36    1:    9   10:   25
          11       1:   15   19:   36    1:   13
          12       1:   15   19:   36   14:   25
          13      16:   36   19:   36   26:   34
          14       1:   15   19:   36   26:   38
          15       1:   15   19:   36   39:   50
          16      16:   36    1:    9   35:   50
          17      16:   36   19:   36    1:    9
          18       1:   15    1:   18   39:   50
          19      16:   36   28:   36   10:   25
          20      16:   36   28:   36   35:   50
Setting up quadratic distribution...
ExtMesh (bp) on 0 =   113 x   110 x    95 =     1180850
PhiOnMesh: Number of (b)points on node 0 =                 2646
PhiOnMesh: nlist on node 0 =               233665

stepf: Fermi-Dirac step function

siesta: Program's energy decomposition (eV):
siesta: Ebs     =     -2610.553009
siesta: Eions   =      9434.507561
siesta: Ena     =      2271.228755
siesta: Ekin    =      3579.931453
siesta: Enl     =      -331.986561
siesta: Eso     =         0.000000
siesta: Edftu   =         0.000000
siesta: DEna    =        26.122196
siesta: DUscf   =         2.922779
siesta: DUext   =         0.000000
siesta: Exc     =     -1617.822567
siesta: eta*DQ  =         0.000000
siesta: Emadel  =         0.000000
siesta: Emeta   =         0.000000
siesta: Emolmec =        -2.543482
siesta: Ekinion =         0.000000
siesta: Eharris =     -5355.465433
siesta: Etot    =     -5506.654990
siesta: FreeEng =     -5506.672689

        iscf     Eharris(eV)        E_KS(eV)     FreeEng(eV)     dDmax    Ef(eV) dHmax(eV)
   scf:    1    -5355.465433    -5506.654990    -5506.672689  1.336894 -8.246317  0.377320
timer: Routine,Calls,Time,% = IterSCF        1       0.821  44.19
   scf:    2    -5506.657028    -5506.656010    -5506.673751  0.000536 -8.320218  0.283169
   scf:    3    -5506.658467    -5506.657248    -5506.675090  0.001571 -8.542952  0.000663
   scf:    4    -5506.657249    -5506.657248    -5506.675090  0.000024 -8.543272  0.000376

SCF Convergence by FreeE+DM+H criterion
|FreeE_i-FreeE_(i-1)| (eV) <     0.00100000
max |DM_out - DM_in|         :     0.0000239043
max |H_out - H_in|      (eV) :     0.0003760955
SCF cycle converged after 4 iterations

Using DM_out to compute the final energy and forces
No. of atoms with KB's overlaping orbs in proc 0. Max # of overlaps:      79     118

MM-Stress (kbar):        2.42        2.42        8.59        0.00        0.00        0.00

siesta: E_KS(eV) =            -5506.6572

siesta: E_KS - E_eggbox =     -5506.6572

siesta: Atomic forces (eV/Ang):
     1    0.000000   -0.000000    0.000000
     2   -0.000000   -0.000000   -0.000000
     3    0.000076   -0.000056    0.000000
     4   -0.000076    0.000057   -0.000000
     5    0.000011    0.000094    0.000000
     6   -0.000011   -0.000094    0.000000
     7   -0.000087   -0.000038   -0.000000
     8    0.000087    0.000037    0.000000
     9   -0.000016   -0.000013   -0.000000
    10    0.000016    0.000012    0.000000
    11   -0.000003    0.000020    0.000000
    12    0.000003   -0.000019   -0.000000
    13    0.000019   -0.000007    0.000000
    14   -0.000019    0.000007    0.000000
    15   -0.000000   -0.000000    0.000000
    16    0.000000    0.000000    0.000000
    17   -0.000000    0.000000   -0.000000
    18    0.000000    0.000000    0.000000
    19    0.000006    0.000130    0.000000
    20   -0.000006   -0.000130    0.000000
    21   -0.000116   -0.000060    0.000000
    22    0.000116    0.000060   -0.000000
    23    0.000110   -0.000070   -0.000000
    24   -0.000110    0.000071    0.000000
    25    0.000009    0.000114   -0.000000
    26   -0.000009   -0.000115    0.000000
    27   -0.000104   -0.000049   -0.000000
    28    0.000104    0.000049    0.000000
    29    0.000094   -0.000065    0.000000
    30   -0.000094    0.000065    0.000000
    31    0.000009    0.000114    0.000000
    32   -0.000009   -0.000114    0.000000
    33   -0.000104   -0.000049   -0.000000
    34    0.000104    0.000049    0.000000
    35    0.000094   -0.000065    0.000000
    36   -0.000094    0.000065    0.000000
----------------------------------------
   Tot   -0.000000   -0.000000    0.000000
----------------------------------------
   Max    0.000130
   Res    0.000054    sqrt( Sum f_i^2 / 3N )
----------------------------------------
   Max    0.000130    constrained

Stress tensor Voigt[x,y,z,yz,xz,xy] (kbar):     -301.59     -301.59       33.08        0.00       -0.00        0.00
(Free)E + p*V (eV/cell)    -5453.1876
Target enthalpy (eV/cell)    -5506.6751

siesta: Eigenvalues (eV):
  ik is       eps
   1  1  -27.8747  -27.8505  -27.1598  -27.1598  -27.1415  -27.1415  -25.2074  -25.2074  -25.2008  -25.2008
         -24.0835  -24.0616  -23.6759  -23.6759  -23.6563  -23.6563  -23.0615  -23.0494  -21.6206  -21.5927
  -21.4265  -21.4265  -21.3896  -21.3896  -20.0382  -20.0250  -19.0439  -19.0439  -19.0277  -19.0277
  -18.2194  -18.2188  -17.7589  -17.7493  -17.0492  -17.0492  -17.0426  -17.0426  -16.6617  -16.6617
  -16.6543  -16.6542  -16.2757  -16.2757  -16.2723  -16.2723  -14.9576  -14.9576  -14.9540  -14.9539
  -14.7082  -14.7064  -14.3175  -14.2135  -14.0493  -14.0490  -13.7990  -13.7990  -13.6854  -13.6854
  -12.1667  -12.1667  -12.0826  -12.0826  -11.0477  -11.0040  -10.8525  -10.8524  -10.8195  -10.8195
  -10.2325  -10.2161   -6.8730   -6.8509   -6.2280   -6.2280   -6.1891   -6.1891   -5.7188   -5.6981
   -4.0580   -4.0580   -4.0348   -4.0347   -0.6126   -0.6126   -0.6014   -0.6014    0.8592    0.8656
    0.8922    0.9978    0.9978    1.0064    1.0064    1.0245    1.3366    1.3366    1.4745    1.4745
    1.7167    1.7168    2.8277    2.8326    3.0411    3.0411    3.0867    3.0867    3.3786    3.3786
    3.4254    3.4254    4.6517    4.6671    4.9237    4.9256    5.8138    5.8138    5.9216    5.9216
    6.3999    6.4769    6.8907    6.8907    6.9051    6.9051    9.0042    9.0061    9.7887    9.7887
    9.8075    9.8075   11.5258   11.5258   11.5359   11.5359   12.7306   12.7306   12.7634   12.7634
   13.2187   13.2204   13.6495   13.6523
   2  1  -28.2425  -28.2161  -26.8136  -26.7990  -26.1443  -26.1443  -26.1378  -26.1378  -24.9208  -24.9208
         -24.9108  -24.9108  -24.3809  -24.3650  -22.9062  -22.9062  -22.8785  -22.8785  -21.1901  -21.1901
  -21.1671  -21.1671  -20.7743  -20.7371  -19.9044  -19.9044  -19.8741  -19.8741  -18.8136  -18.8136
  -18.8026  -18.8026  -18.1039  -18.1039  -18.0900  -18.0900  -17.1232  -17.1142  -16.3623  -16.3623
  -16.3560  -16.3560  -16.1132  -16.1045  -15.7779  -15.7779  -15.7730  -15.7730  -15.0123  -15.0056
  -14.5717  -14.4772  -13.7288  -13.7266  -13.5360  -13.4399  -13.4369  -13.4219  -12.9981  -12.9981
  -12.8906  -12.8906  -11.9265  -11.9265  -11.8511  -11.8511  -11.4665  -11.4095   -9.8269   -9.8269
   -9.8192   -9.8192   -7.2201   -7.2201   -7.2047   -7.2047   -5.3919   -5.3459   -4.5761   -4.5761
   -4.5366   -4.5366   -2.5212   -2.5212   -2.4972   -2.4972   -1.3010   -1.2828    0.2804    0.3198
    0.3365    0.3377    0.5927    0.7120    0.8192    0.8200    1.1167    1.1167    1.1526    1.1526
    1.2765    1.2765    1.3654    1.3654    1.6684    1.6730    4.0245    4.0283    5.0030    5.0030
    5.0218    5.0218    5.4253    5.4257    5.8360    5.8360    5.9080    5.9080    7.2255    7.3156
    7.6486    7.6486    7.6667    7.6667    8.2564    8.2564    8.3121    8.3121    9.2602    9.2602
    9.3036    9.3036    9.8261    9.8276   11.3914   11.3914   11.4507   11.4507   11.6315   11.7294
   14.1207   14.1207   14.1220   14.1220
   3  1  -28.2425  -28.2161  -26.8136  -26.7990  -26.1443  -26.1443  -26.1378  -26.1378  -24.9208  -24.9208
         -24.9108  -24.9108  -24.3809  -24.3650  -22.9062  -22.9062  -22.8785  -22.8785  -21.1901  -21.1901
  -21.1671  -21.1671  -20.7743  -20.7371  -19.9044  -19.9044  -19.8741  -19.8741  -18.8136  -18.8136
  -18.8026  -18.8026  -18.1039  -18.1039  -18.0900  -18.0900  -17.1232  -17.1142  -16.3623  -16.3623
  -16.3560  -16.3560  -16.1132  -16.1045  -15.7779  -15.7779  -15.7730  -15.7730  -15.0123  -15.0056
  -14.5717  -14.4772  -13.7288  -13.7266  -13.5360  -13.4399  -13.4369  -13.4219  -12.9981  -12.9981
  -12.8906  -12.8906  -11.9265  -11.9265  -11.8511  -11.8511  -11.4665  -11.4095   -9.8269   -9.8269
   -9.8192   -9.8192   -7.2201   -7.2201   -7.2047   -7.2047   -5.3919   -5.3459   -4.5761   -4.5761
   -4.5366   -4.5366   -2.5212   -2.5212   -2.4972   -2.4972   -1.3010   -1.2828    0.2804    0.3198
    0.3365    0.3377    0.5927    0.7120    0.8192    0.8200    1.1167    1.1167    1.1526    1.1526
    1.2765    1.2765    1.3654    1.3654    1.6684    1.6730    4.0245    4.0283    5.0030    5.0030
    5.0218    5.0218    5.4253    5.4257    5.8360    5.8360    5.9080    5.9080    7.2255    7.3156
    7.6486    7.6486    7.6667    7.6667    8.2564    8.2564    8.3121    8.3121    9.2602    9.2602
    9.3036    9.3036    9.8261    9.8276   11.3914   11.3914   11.4507   11.4507   11.6315   11.7294
   14.1207   14.1207   14.1220   14.1220
   4  1  -27.8747  -27.8505  -27.1598  -27.1598  -27.1415  -27.1415  -25.2074  -25.2074  -25.2008  -25.2008
         -24.0835  -24.0616  -23.6759  -23.6759  -23.6563  -23.6563  -23.0615  -23.0494  -21.6206  -21.5927
  -21.4265  -21.4265  -21.3896  -21.3896  -20.0382  -20.0250  -19.0439  -19.0439  -19.0277  -19.0277
  -18.2194  -18.2188  -17.7589  -17.7493  -17.0492  -17.0492  -17.0426  -17.0426  -16.6617  -16.6617
  -16.6543  -16.6542  -16.2757  -16.2757  -16.2723  -16.2723  -14.9576  -14.9576  -14.9540  -14.9539
  -14.7082  -14.7064  -14.3175  -14.2135  -14.0493  -14.0490  -13.7990  -13.7990  -13.6854  -13.6854
  -12.1667  -12.1667  -12.0826  -12.0826  -11.0477  -11.0040  -10.8525  -10.8524  -10.8195  -10.8195
  -10.2325  -10.2161   -6.8730   -6.8509   -6.2280   -6.2280   -6.1891   -6.1891   -5.7188   -5.6981
   -4.0580   -4.0580   -4.0348   -4.0347   -0.6126   -0.6126   -0.6014   -0.6014    0.8592    0.8656
    0.8922    0.9978    0.9978    1.0064    1.0064    1.0245    1.3366    1.3366    1.4745    1.4745
    1.7167    1.7168    2.8277    2.8326    3.0411    3.0411    3.0867    3.0867    3.3786    3.3786
    3.4254    3.4254    4.6517    4.6671    4.9237    4.9256    5.8138    5.8138    5.9216    5.9216
    6.3999    6.4769    6.8907    6.8907    6.9051    6.9051    9.0042    9.0061    9.7887    9.7887
    9.8075    9.8075   11.5258   11.5258   11.5359   11.5359   12.7306   12.7306   12.7634   12.7634
   13.2187   13.2204   13.6495   13.6523
   5  1  -28.2425  -28.2161  -26.8136  -26.7990  -26.1443  -26.1443  -26.1378  -26.1378  -24.9208  -24.9208
         -24.9108  -24.9108  -24.3809  -24.3650  -22.9062  -22.9062  -22.8785  -22.8785  -21.1901  -21.1901
  -21.1671  -21.1671  -20.7743  -20.7371  -19.9044  -19.9044  -19.8741  -19.8741  -18.8136  -18.8136
  -18.8026  -18.8026  -18.1039  -18.1039  -18.0900  -18.0900  -17.1232  -17.1142  -16.3623  -16.3623
  -16.3560  -16.3560  -16.1132  -16.1045  -15.7779  -15.7779  -15.7730  -15.7730  -15.0123  -15.0056
  -14.5717  -14.4772  -13.7288  -13.7266  -13.5360  -13.4399  -13.4369  -13.4219  -12.9981  -12.9981
  -12.8906  -12.8906  -11.9265  -11.9265  -11.8511  -11.8511  -11.4665  -11.4095   -9.8269   -9.8269
   -9.8192   -9.8192   -7.2201   -7.2201   -7.2047   -7.2047   -5.3919   -5.3459   -4.5761   -4.5761
   -4.5366   -4.5366   -2.5212   -2.5212   -2.4972   -2.4972   -1.3010   -1.2828    0.2804    0.3198
    0.3365    0.3377    0.5927    0.7120    0.8192    0.8200    1.1167    1.1167    1.1526    1.1526
    1.2765    1.2765    1.3654    1.3654    1.6684    1.6730    4.0245    4.0283    5.0030    5.0030
    5.0218    5.0218    5.4253    5.4257    5.8360    5.8360    5.9080    5.9080    7.2255    7.3156
    7.6486    7.6486    7.6667    7.6667    8.2564    8.2564    8.3121    8.3121    9.2602    9.2602
    9.3036    9.3036    9.8261    9.8276   11.3914   11.3914   11.4507   11.4507   11.6315   11.7294
   14.1207   14.1207   14.1220   14.1220
   6  1  -28.4288  -28.4015  -25.6658  -25.6658  -25.6658  -25.6658  -25.6658  -25.6658  -25.6655  -25.6655
         -25.6655  -25.6655  -25.6655  -25.6655  -21.9076  -21.9076  -21.8915  -21.8915  -21.8915  -21.8915
  -21.8749  -21.8749  -19.3684  -19.3684  -19.3684  -19.3684  -19.0381  -19.0381  -19.0381  -19.0381
  -19.0381  -19.0381  -19.0147  -19.0147  -19.0147  -19.0146  -19.0146  -19.0146  -15.6860  -15.6860
  -15.6859  -15.6859  -15.6859  -15.6859  -15.6780  -15.6780  -15.6780  -15.6780  -15.6780  -15.6780
  -14.6977  -14.6091  -13.1177  -13.1177  -13.1170  -13.1170  -12.5994  -12.5994  -12.5994  -12.5994
  -12.5994  -12.5994  -12.5014  -12.5014  -12.5014  -12.5014  -12.5014  -12.5014   -8.5513   -8.5513
   -8.5432   -8.5432   -8.5432   -8.5432   -8.5352   -8.5352   -3.3870   -3.3870   -3.3870   -3.3870
   -3.3870   -3.3870   -3.3508   -3.3508   -3.3508   -3.3508   -3.3508   -3.3508    0.0534    0.0534
    0.0538    0.0538    0.4690    0.4690    0.4690    0.4690    0.4690    0.4690    0.5305    0.5305
    0.5305    0.5305    0.5305    0.5305    2.0940    2.0977    3.6817    3.6882    6.6834    6.6834
    6.7038    6.7038    6.7038    6.7038    6.7239    6.7239    7.9728    7.9728    7.9728    7.9728
    7.9728    7.9728    7.9741    7.9741    7.9741    7.9741    7.9741    7.9741    9.5813    9.5813
    9.5813    9.5814    9.5814    9.5814    9.7089    9.7089    9.7089    9.7090    9.7090    9.7090
   14.4745   14.4745   14.4745   14.4745
   7  1  -27.6933  -27.6933  -27.6704  -27.6704  -26.3079  -26.3079  -26.2993  -26.2993  -23.9692  -23.9692
         -23.9692  -23.9692  -23.9471  -23.9471  -23.9471  -23.9471  -23.4614  -23.4522  -21.8234  -21.7902
  -20.6102  -20.6102  -20.6102  -20.6102  -20.5782  -20.5782  -20.5782  -20.5782  -17.5856  -17.5856
  -17.5856  -17.5856  -17.5776  -17.5776  -17.5775  -17.5775  -17.5346  -17.5346  -17.5297  -17.5297
  -16.2585  -16.2495  -16.1109  -16.1109  -16.1028  -16.1028  -15.2375  -15.2375  -15.2348  -15.2348
  -14.1899  -14.1899  -14.1893  -14.1893  -14.1848  -14.1847  -14.0817  -14.0817  -13.1298  -13.1298
  -13.0200  -13.0200  -10.9865  -10.9865  -10.9865  -10.9865  -10.9458  -10.9458  -10.9458  -10.9458
  -10.7783  -10.7505   -6.4020   -6.3618   -5.8876   -5.8876   -5.8876   -5.8876   -5.8571   -5.8571
   -5.8571   -5.8571   -2.1984   -2.1984   -2.1839   -2.1839    0.2495    0.2625    0.4712    0.4712
    0.4791    0.4791    0.5632    0.5632    0.6937    0.6937    2.8174    2.8174    2.8187    2.8187
    2.8845    2.8845    2.8845    2.8846    2.9042    2.9042    2.9042    2.9043    3.2196    3.2196
    3.2249    3.2249    3.3141    3.3141    3.5124    3.5124    5.2256    5.2257    5.2521    5.2521
    8.0659    8.0659    8.0659    8.0659    8.1198    8.1198    8.1198    8.1198    9.3171    9.3171
    9.3194    9.3194   10.5049   10.5050   12.5005   12.5216   13.0742   13.0742   13.0743   13.0743
   13.0890   13.0890   13.0890   13.0890
   8  1  -27.8747  -27.8505  -27.1598  -27.1598  -27.1415  -27.1415  -25.2074  -25.2074  -25.2008  -25.2008
         -24.0835  -24.0616  -23.6759  -23.6759  -23.6563  -23.6563  -23.0615  -23.0494  -21.6206  -21.5927
  -21.4265  -21.4265  -21.3896  -21.3896  -20.0382  -20.0250  -19.0439  -19.0439  -19.0277  -19.0277
  -18.2194  -18.2188  -17.7589  -17.7493  -17.0492  -17.0492  -17.0426  -17.0426  -16.6617  -16.6617
  -16.6543  -16.6542  -16.2757  -16.2757  -16.2723  -16.2723  -14.9576  -14.9576  -14.9540  -14.9539
  -14.7082  -14.7064  -14.3175  -14.2135  -14.0493  -14.0490  -13.7990  -13.7990  -13.6854  -13.6854
  -12.1667  -12.1667  -12.0826  -12.0826  -11.0477  -11.0040  -10.8525  -10.8524  -10.8195  -10.8195
  -10.2325  -10.2161   -6.8730   -6.8509   -6.2280   -6.2280   -6.1891   -6.1891   -5.7188   -5.6981
   -4.0580   -4.0580   -4.0348   -4.0347   -0.6126   -0.6126   -0.6014   -0.6014    0.8592    0.8656
    0.8922    0.9978    0.9978    1.0064    1.0064    1.0245    1.3366    1.3366    1.4745    1.4745
    1.7167    1.7168    2.8277    2.8326    3.0411    3.0411    3.0867    3.0867    3.3786    3.3786
    3.4254    3.4254    4.6517    4.6671    4.9237    4.9256    5.8138    5.8138    5.9216    5.9216
    6.3999    6.4769    6.8907    6.8907    6.9051    6.9051    9.0042    9.0061    9.7887    9.7887
    9.8075    9.8075   11.5258   11.5258   11.5359   11.5359   12.7306   12.7306   12.7634   12.7634
   13.2187   13.2204   13.6495   13.6523
   9  1  -27.8747  -27.8505  -27.1598  -27.1598  -27.1415  -27.1415  -25.2074  -25.2074  -25.2008  -25.2008
         -24.0835  -24.0616  -23.6759  -23.6759  -23.6563  -23.6563  -23.0615  -23.0494  -21.6206  -21.5927
  -21.4265  -21.4265  -21.3896  -21.3896  -20.0382  -20.0250  -19.0439  -19.0439  -19.0277  -19.0277
  -18.2194  -18.2188  -17.7589  -17.7493  -17.0492  -17.0492  -17.0426  -17.0426  -16.6617  -16.6617
  -16.6543  -16.6542  -16.2757  -16.2757  -16.2723  -16.2723  -14.9576  -14.9576  -14.9540  -14.9539
  -14.7082  -14.7064  -14.3175  -14.2135  -14.0493  -14.0490  -13.7990  -13.7990  -13.6854  -13.6854
  -12.1667  -12.1667  -12.0826  -12.0826  -11.0477  -11.0040  -10.8525  -10.8524  -10.8195  -10.8195
  -10.2325  -10.2161   -6.8730   -6.8509   -6.2280   -6.2280   -6.1891   -6.1891   -5.7188   -5.6981
   -4.0580   -4.0580   -4.0348   -4.0347   -0.6126   -0.6126   -0.6014   -0.6014    0.8592    0.8656
    0.8922    0.9978    0.9978    1.0064    1.0064    1.0245    1.3366    1.3366    1.4745    1.4745
    1.7167    1.7168    2.8277    2.8326    3.0411    3.0411    3.0867    3.0867    3.3786    3.3786
    3.4254    3.4254    4.6517    4.6671    4.9237    4.9256    5.8138    5.8138    5.9216    5.9216
    6.3999    6.4769    6.8907    6.8907    6.9051    6.9051    9.0042    9.0061    9.7887    9.7887
    9.8075    9.8075   11.5258   11.5258   11.5359   11.5359   12.7306   12.7306   12.7634   12.7634
   13.2187   13.2204   13.6495   13.6523
  10  1  -27.6933  -27.6933  -27.6704  -27.6704  -26.3079  -26.3079  -26.2993  -26.2993  -23.9692  -23.9692
         -23.9692  -23.9692  -23.9471  -23.9471  -23.9471  -23.9471  -23.4614  -23.4522  -21.8234  -21.7902
  -20.6102  -20.6102  -20.6102  -20.6102  -20.5782  -20.5782  -20.5782  -20.5782  -17.5856  -17.5856
  -17.5856  -17.5856  -17.5776  -17.5776  -17.5775  -17.5775  -17.5346  -17.5346  -17.5297  -17.5297
  -16.2585  -16.2495  -16.1109  -16.1109  -16.1028  -16.1028  -15.2375  -15.2375  -15.2348  -15.2348
  -14.1899  -14.1899  -14.1893  -14.1893  -14.1848  -14.1847  -14.0817  -14.0817  -13.1298  -13.1298
  -13.0200  -13.0200  -10.9865  -10.9865  -10.9865  -10.9865  -10.9458  -10.9458  -10.9458  -10.9458
  -10.7783  -10.7505   -6.4020   -6.3618   -5.8876   -5.8876   -5.8876   -5.8876   -5.8571   -5.8571
   -5.8571   -5.8571   -2.1984   -2.1984   -2.1839   -2.1839    0.2495    0.2625    0.4712    0.4712
    0.4791    0.4791    0.5632    0.5632    0.6937    0.6937    2.8174    2.8174    2.8187    2.8187
    2.8845    2.8845    2.8845    2.8846    2.9042    2.9042    2.9042    2.9043    3.2196    3.2196
    3.2249    3.2249    3.3141    3.3141    3.5124    3.5124    5.2256    5.2257    5.2521    5.2521
    8.0659    8.0659    8.0659    8.0659    8.1198    8.1198    8.1198    8.1198    9.3171    9.3171
    9.3194    9.3194   10.5049   10.5050   12.5005   12.5216   13.0742   13.0742   13.0743   13.0743
   13.0890   13.0890   13.0890   13.0890
  11  1  -27.8747  -27.8505  -27.1598  -27.1598  -27.1415  -27.1415  -25.2074  -25.2074  -25.2008  -25.2008
         -24.0835  -24.0616  -23.6759  -23.6759  -23.6563  -23.6563  -23.0615  -23.0494  -21.6206  -21.5927
  -21.4265  -21.4265  -21.3896  -21.3896  -20.0382  -20.0250  -19.0439  -19.0439  -19.0277  -19.0277
  -18.2194  -18.2188  -17.7589  -17.7493  -17.0492  -17.0492  -17.0426  -17.0426  -16.6617  -16.6617
  -16.6543  -16.6542  -16.2757  -16.2757  -16.2723  -16.2723  -14.9576  -14.9576  -14.9540  -14.9539
  -14.7082  -14.7064  -14.3175  -14.2135  -14.0493  -14.0490  -13.7990  -13.7990  -13.6854  -13.6854
  -12.1667  -12.1667  -12.0826  -12.0826  -11.0477  -11.0040  -10.8525  -10.8524  -10.8195  -10.8195
  -10.2325  -10.2161   -6.8730   -6.8509   -6.2280   -6.2280   -6.1891   -6.1891   -5.7188   -5.6981
   -4.0580   -4.0580   -4.0348   -4.0347   -0.6126   -0.6126   -0.6014   -0.6014    0.8592    0.8656
    0.8922    0.9978    0.9978    1.0064    1.0064    1.0245    1.3366    1.3366    1.4745    1.4745
    1.7167    1.7168    2.8277    2.8326    3.0411    3.0411    3.0867    3.0867    3.3786    3.3786
    3.4254    3.4254    4.6517    4.6671    4.9237    4.9256    5.8138    5.8138    5.9216    5.9216
    6.3999    6.4769    6.8907    6.8907    6.9051    6.9051    9.0042    9.0061    9.7887    9.7887
    9.8075    9.8075   11.5258   11.5258   11.5359   11.5359   12.7306   12.7306   12.7634   12.7634
   13.2187   13.2204   13.6495   13.6523
  12  1  -27.6933  -27.6933  -27.6704  -27.6704  -26.3079  -26.3079  -26.2993  -26.2993  -23.9692  -23.9692
         -23.9692  -23.9692  -23.9471  -23.9471  -23.9471  -23.9471  -23.4614  -23.4522  -21.8234  -21.7902
  -20.6102  -20.6102  -20.6102  -20.6102  -20.5782  -20.5782  -20.5782  -20.5782  -17.5856  -17.5856
  -17.5856  -17.5856  -17.5776  -17.5776  -17.5775  -17.5775  -17.5346  -17.5346  -17.5297  -17.5297
  -16.2585  -16.2495  -16.1109  -16.1109  -16.1028  -16.1028  -15.2375  -15.2375  -15.2348  -15.2348
  -14.1899  -14.1899  -14.1893  -14.1893  -14.1848  -14.1847  -14.0817  -14.0817  -13.1298  -13.1298
  -13.0200  -13.0200  -10.9865  -10.9865  -10.9865  -10.9865  -10.9458  -10.9458  -10.9458  -10.9458
  -10.7783  -10.7505   -6.4020   -6.3618   -5.8876   -5.8876   -5.8876   -5.8876   -5.8571   -5.8571
   -5.8571   -5.8571   -2.1984   -2.1984   -2.1839   -2.1839    0.2495    0.2625    0.4712    0.4712
    0.4791    0.4791    0.5632    0.5632    0.6937    0.6937    2.8174    2.8174    2.8187    2.8187
    2.8845    2.8845    2.8845    2.8846    2.9042    2.9042    2.9042    2.9043    3.2196    3.2196
    3.2249    3.2249    3.3141    3.3141    3.5124    3.5124    5.2256    5.2257    5.2521    5.2521
    8.0659    8.0659    8.0659    8.0659    8.1198    8.1198    8.1198    8.1198    9.3171    9.3171
    9.3194    9.3194   10.5049   10.5050   12.5005   12.5216   13.0742   13.0742   13.0743   13.0743
   13.0890   13.0890   13.0890   13.0890
  13  1  -27.8713  -27.8541  -27.1573  -27.1573  -27.1443  -27.1443  -25.2067  -25.2067  -25.2021  -25.2020
         -24.0805  -24.0650  -23.6731  -23.6731  -23.6593  -23.6593  -23.0597  -23.0511  -21.6168  -21.5971
  -21.4214  -21.4214  -21.3953  -21.3953  -20.0362  -20.0269  -19.0416  -19.0416  -19.0301  -19.0301
  -18.2195  -18.2191  -17.7575  -17.7508  -17.0484  -17.0484  -17.0437  -17.0437  -16.6606  -16.6606
  -16.6554  -16.6554  -16.2753  -16.2752  -16.2728  -16.2728  -14.9572  -14.9572  -14.9547  -14.9546
  -14.7079  -14.7066  -14.3005  -14.2271  -14.0490  -14.0488  -13.7805  -13.7805  -13.7004  -13.7003
  -12.1537  -12.1537  -12.0942  -12.0942  -11.0411  -11.0102  -10.8475  -10.8475  -10.8242  -10.8242
  -10.2301  -10.2185   -6.8699   -6.8543   -6.2226   -6.2226   -6.1950   -6.1950   -5.7158   -5.7011
   -4.0546   -4.0546   -4.0382   -4.0382   -0.6110   -0.6110   -0.6031   -0.6031    0.8601    0.8646
    0.9132    0.9991    0.9991    1.0052    1.0053    1.0066    1.3585    1.3585    1.4559    1.4559
    1.7167    1.7168    2.8284    2.8319    3.0482    3.0482    3.0804    3.0804    3.3855    3.3855
    3.4186    3.4186    4.6540    4.6649    4.9239    4.9253    5.8301    5.8301    5.9063    5.9063
    6.4116    6.4660    6.8929    6.8929    6.9030    6.9030    9.0046    9.0059    9.7916    9.7916
    9.8049    9.8049   11.5273   11.5273   11.5344   11.5344   12.7355   12.7356   12.7587   12.7588
   13.2189   13.2201   13.6500   13.6520
  14  1  -28.2387  -28.2200  -26.8117  -26.8013  -26.1436  -26.1436  -26.1389  -26.1389  -24.9196  -24.9196
         -24.9125  -24.9125  -24.3788  -24.3675  -22.9022  -22.9022  -22.8826  -22.8826  -21.1868  -21.1868
  -21.1705  -21.1705  -20.7691  -20.7428  -19.9001  -19.9001  -19.8787  -19.8787  -18.8122  -18.8122
  -18.8044  -18.8044  -18.1019  -18.1019  -18.0921  -18.0921  -17.1220  -17.1157  -16.3614  -16.3614
  -16.3569  -16.3569  -16.1119  -16.1058  -15.7773  -15.7773  -15.7738  -15.7738  -15.0113  -15.0066
  -14.5558  -14.4891  -13.7284  -13.7269  -13.5177  -13.4394  -13.4373  -13.4371  -12.9811  -12.9811
  -12.9051  -12.9051  -11.9149  -11.9149  -11.8616  -11.8616  -11.4578  -11.4176   -9.8258   -9.8258
   -9.8203   -9.8203   -7.2179   -7.2179   -7.2070   -7.2070   -5.3854   -5.3529   -4.5704   -4.5704
   -4.5425   -4.5425   -2.5177   -2.5177   -2.5007   -2.5007   -1.2983   -1.2855    0.2894    0.3226
    0.3290    0.3353    0.6114    0.6957    0.8193    0.8199    1.1222    1.1222    1.1476    1.1476
    1.2904    1.2904    1.3533    1.3533    1.6691    1.6723    4.0251    4.0278    5.0058    5.0058
    5.0191    5.0191    5.4254    5.4257    5.8470    5.8470    5.8979    5.8979    7.2392    7.3029
    7.6513    7.6513    7.6641    7.6641    8.2649    8.2649    8.3043    8.3043    9.2666    9.2666
    9.2974    9.2974    9.8263    9.8274   11.4002   11.4002   11.4422   11.4422   11.6462   11.7155
   14.1209   14.1209   14.1218   14.1218
  15  1  -28.2387  -28.2200  -26.8117  -26.8013  -26.1436  -26.1436  -26.1389  -26.1389  -24.9196  -24.9196
         -24.9125  -24.9125  -24.3788  -24.3675  -22.9022  -22.9022  -22.8826  -22.8826  -21.1868  -21.1868
  -21.1705  -21.1705  -20.7691  -20.7428  -19.9001  -19.9001  -19.8787  -19.8787  -18.8122  -18.8122
  -18.8044  -18.8044  -18.1019  -18.1019  -18.0921  -18.0921  -17.1220  -17.1157  -16.3614  -16.3614
  -16.3569  -16.3569  -16.1119  -16.1058  -15.7773  -15.7773  -15.7738  -15.7738  -15.0113  -15.0066
  -14.5558  -14.4891  -13.7284  -13.7269  -13.5177  -13.4394  -13.4373  -13.4371  -12.9811  -12.9811
  -12.9051  -12.9051  -11.9149  -11.9149  -11.8616  -11.8616  -11.4578  -11.4176   -9.8258   -9.8258
   -9.8203   -9.8203   -7.2179   -7.2179   -7.2070   -7.2070   -5.3854   -5.3529   -4.5704   -4.5704
   -4.5425   -4.5425   -2.5177   -2.5177   -2.5007   -2.5007   -1.2983   -1.2855    0.2894    0.3226
    0.3290    0.3353    0.6114    0.6957    0.8193    0.8199    1.1222    1.1222    1.1476    1.1476
    1.2904    1.2904    1.3533    1.3533    1.6691    1.6723    4.0251    4.0278    5.0058    5.0058
    5.0191    5.0191    5.4254    5.4257    5.8470    5.8470    5.8979    5.8979    7.2392    7.3029
    7.6513    7.6513    7.6641    7.6641    8.2649    8.2649    8.3043    8.3043    9.2666    9.2666
    9.2974    9.2974    9.8263    9.8274   11.4002   11.4002   11.4422   11.4422   11.6462   11.7155
   14.1209   14.1209   14.1218   14.1218
  16  1  -27.8713  -27.8541  -27.1573  -27.1573  -27.1443  -27.1443  -25.2067  -25.2067  -25.2021  -25.2020
         -24.0805  -24.0650  -23.6731  -23.6731  -23.6593  -23.6593  -23.0597  -23.0511  -21.6168  -21.5971
  -21.4214  -21.4214  -21.3953  -21.3953  -20.0362  -20.0269  -19.0416  -19.0416  -19.0301  -19.0301
  -18.2195  -18.2191  -17.7575  -17.7508  -17.0484  -17.0484  -17.0437  -17.0437  -16.6606  -16.6606
  -16.6554  -16.6554  -16.2753  -16.2752  -16.2728  -16.2728  -14.9572  -14.9572  -14.9547  -14.9546
  -14.7079  -14.7066  -14.3005  -14.2271  -14.0490  -14.0488  -13.7805  -13.7805  -13.7004  -13.7003
  -12.1537  -12.1537  -12.0942  -12.0942  -11.0411  -11.0102  -10.8475  -10.8475  -10.8242  -10.8242
  -10.2301  -10.2185   -6.8699   -6.8543   -6.2226   -6.2226   -6.1950   -6.1950   -5.7158   -5.7011
   -4.0546   -4.0546   -4.0382   -4.0382   -0.6110   -0.6110   -0.6031   -0.6031    0.8601    0.8646
    0.9132    0.9991    0.9991    1.0052    1.0053    1.0066    1.3585    1.3585    1.4559    1.4559
    1.7167    1.7168    2.8284    2.8319    3.0482    3.0482    3.0804    3.0804    3.3855    3.3855
    3.4186    3.4186    4.6540    4.6649    4.9239    4.9253    5.8301    5.8301    5.9063    5.9063
    6.4116    6.4660    6.8929    6.8929    6.9030    6.9030    9.0046    9.0059    9.7916    9.7916
    9.8049    9.8049   11.5273   11.5273   11.5344   11.5344   12.7355   12.7356   12.7587   12.7588
   13.2189   13.2201   13.6500   13.6520
  17  1  -28.2387  -28.2200  -26.8117  -26.8013  -26.1436  -26.1436  -26.1389  -26.1389  -24.9196  -24.9196
         -24.9125  -24.9125  -24.3788  -24.3675  -22.9022  -22.9022  -22.8826  -22.8826  -21.1868  -21.1868
  -21.1705  -21.1705  -20.7691  -20.7428  -19.9001  -19.9001  -19.8787  -19.8787  -18.8122  -18.8122
  -18.8044  -18.8044  -18.1019  -18.1019  -18.0921  -18.0921  -17.1220  -17.1157  -16.3614  -16.3614
  -16.3569  -16.3569  -16.1119  -16.1058  -15.7773  -15.7773  -15.7738  -15.7738  -15.0113  -15.0066
  -14.5558  -14.4891  -13.7284  -13.7269  -13.5177  -13.4394  -13.4373  -13.4371  -12.9811  -12.9811
  -12.9051  -12.9051  -11.9149  -11.9149  -11.8616  -11.8616  -11.4578  -11.4176   -9.8258   -9.8258
   -9.8203   -9.8203   -7.2179   -7.2179   -7.2070   -7.2070   -5.3854   -5.3529   -4.5704   -4.5704
   -4.5425   -4.5425   -2.5177   -2.5177   -2.5007   -2.5007   -1.2983   -1.2855    0.2894    0.3226
    0.3290    0.3353    0.6114    0.6957    0.8193    0.8199    1.1222    1.1222    1.1476    1.1476
    1.2904    1.2904    1.3533    1.3533    1.6691    1.6723    4.0251    4.0278    5.0058    5.0058
    5.0191    5.0191    5.4254    5.4257    5.8470    5.8470    5.8979    5.8979    7.2392    7.3029
    7.6513    7.6513    7.6641    7.6641    8.2649    8.2649    8.3043    8.3043    9.2666    9.2666
    9.2974    9.2974    9.8263    9.8274   11.4002   11.4002   11.4422   11.4422   11.6462   11.7155
   14.1209   14.1209   14.1218   14.1218
  18  1  -28.4249  -28.4056  -25.6660  -25.6660  -25.6660  -25.6660  -25.6660  -25.6660  -25.6658  -25.6658
         -25.6658  -25.6658  -25.6658  -25.6658  -21.9029  -21.9029  -21.8913  -21.8913  -21.8913  -21.8913
  -21.8798  -21.8798  -19.3687  -19.3687  -19.3687  -19.3687  -19.0348  -19.0348  -19.0348  -19.0348
  -19.0348  -19.0348  -19.0182  -19.0182  -19.0182  -19.0182  -19.0182  -19.0182  -15.6848  -15.6848
  -15.6848  -15.6848  -15.6848  -15.6848  -15.6792  -15.6792  -15.6792  -15.6792  -15.6792  -15.6792
  -14.6826  -14.6201  -13.1176  -13.1176  -13.1171  -13.1171  -12.5841  -12.5840  -12.5840  -12.5840
  -12.5840  -12.5840  -12.5148  -12.5148  -12.5148  -12.5148  -12.5148  -12.5148   -8.5490   -8.5490
   -8.5432   -8.5432   -8.5432   -8.5432   -8.5377   -8.5377   -3.3818   -3.3818   -3.3818   -3.3818
   -3.3818   -3.3818   -3.3562   -3.3562   -3.3562   -3.3562   -3.3562   -3.3562    0.0534    0.0534
    0.0537    0.0537    0.4785    0.4785    0.4785    0.4785    0.4785    0.4785    0.5220    0.5220
    0.5220    0.5221    0.5221    0.5221    2.0946    2.0971    3.6827    3.6873    6.6894    6.6894
    6.7038    6.7038    6.7038    6.7038    6.7180    6.7180    7.9730    7.9730    7.9730    7.9730
    7.9730    7.9730    7.9739    7.9739    7.9739    7.9739    7.9739    7.9739    9.6007    9.6007
    9.6007    9.6007    9.6007    9.6007    9.6909    9.6909    9.6909    9.6909    9.6909    9.6909
   14.4745   14.4745   14.4745   14.4745
  19  1  -28.2387  -28.2200  -26.8117  -26.8013  -26.1436  -26.1436  -26.1389  -26.1389  -24.9196  -24.9196
         -24.9125  -24.9125  -24.3788  -24.3675  -22.9022  -22.9022  -22.8826  -22.8826  -21.1868  -21.1868
  -21.1705  -21.1705  -20.7691  -20.7428  -19.9001  -19.9001  -19.8787  -19.8787  -18.8122  -18.8122
  -18.8044  -18.8044  -18.1019  -18.1019  -18.0921  -18.0921  -17.1220  -17.1157  -16.3614  -16.3614
  -16.3569  -16.3569  -16.1119  -16.1058  -15.7773  -15.7773  -15.7738  -15.7738  -15.0113  -15.0066
  -14.5558  -14.4891  -13.7284  -13.7269  -13.5177  -13.4394  -13.4373  -13.4371  -12.9811  -12.9811
  -12.9051  -12.9051  -11.9149  -11.9149  -11.8616  -11.8616  -11.4578  -11.4176   -9.8258   -9.8258
   -9.8203   -9.8203   -7.2179   -7.2179   -7.2070   -7.2070   -5.3854   -5.3529   -4.5704   -4.5704
   -4.5425   -4.5425   -2.5177   -2.5177   -2.5007   -2.5007   -1.2983   -1.2855    0.2894    0.3226
    0.3290    0.3353    0.6114    0.6957    0.8193    0.8199    1.1222    1.1222    1.1476    1.1476
    1.2904    1.2904    1.3533    1.3533    1.6691    1.6723    4.0251    4.0278    5.0058    5.0058
    5.0191    5.0191    5.4254    5.4257    5.8470    5.8470    5.8979    5.8979    7.2392    7.3029
    7.6513    7.6513    7.6641    7.6641    8.2649    8.2649    8.3043    8.3043    9.2666    9.2666
    9.2974    9.2974    9.8263    9.8274   11.4002   11.4002   11.4422   11.4422   11.6462   11.7155
   14.1209   14.1209   14.1218   14.1218
  20  1  -27.6901  -27.6901  -27.6739  -27.6739  -26.3069  -26.3069  -26.3008  -26.3008  -23.9661  -23.9661
         -23.9661  -23.9661  -23.9506  -23.9506  -23.9506  -23.9506  -23.4600  -23.4536  -21.8190  -21.7955
  -20.6056  -20.6056  -20.6056  -20.6056  -20.5830  -20.5830  -20.5830  -20.5830  -17.5845  -17.5845
  -17.5845  -17.5845  -17.5788  -17.5788  -17.5788  -17.5788  -17.5339  -17.5339  -17.5304  -17.5304
  -16.2571  -16.2508  -16.1100  -16.1100  -16.1042  -16.1042  -15.2372  -15.2372  -15.2353  -15.2353
  -14.1892  -14.1891  -14.1855  -14.1855  -14.1715  -14.1715  -14.0956  -14.0956  -13.1123  -13.1123
  -13.0348  -13.0348  -10.9804  -10.9804  -10.9804  -10.9804  -10.9516  -10.9516  -10.9516  -10.9516
  -10.7742  -10.7545   -6.3964   -6.3680   -5.8832   -5.8832   -5.8832   -5.8832   -5.8617   -5.8617
   -5.8617   -5.8617   -2.1963   -2.1963   -2.1861   -2.1861    0.2514    0.2607    0.4723    0.4723
    0.4779    0.4779    0.5839    0.5839    0.6761    0.6761    2.8175    2.8176    2.8185    2.8185
    2.8875    2.8876    2.8876    2.8876    2.9015    2.9015    2.9015    2.9015    3.2204    3.2204
    3.2242    3.2242    3.3446    3.3446    3.4848    3.4848    5.2297    5.2297    5.2484    5.2484
    8.0740    8.0740    8.0740    8.0740    8.1121    8.1121    8.1121    8.1121    9.3174    9.3174
    9.3191    9.3191   10.5050   10.5050   12.5039   12.5187   13.0764   13.0764   13.0764   13.0764
   13.0869   13.0869   13.0869   13.0869
  21  1  -28.2387  -28.2200  -26.8117  -26.8013  -26.1436  -26.1436  -26.1389  -26.1389  -24.9196  -24.9196
         -24.9125  -24.9125  -24.3788  -24.3675  -22.9022  -22.9022  -22.8826  -22.8826  -21.1868  -21.1868
  -21.1705  -21.1705  -20.7691  -20.7428  -19.9001  -19.9001  -19.8787  -19.8787  -18.8122  -18.8122
  -18.8044  -18.8044  -18.1019  -18.1019  -18.0921  -18.0921  -17.1220  -17.1157  -16.3614  -16.3614
  -16.3569  -16.3569  -16.1119  -16.1058  -15.7773  -15.7773  -15.7738  -15.7738  -15.0113  -15.0066
  -14.5558  -14.4891  -13.7284  -13.7269  -13.5177  -13.4394  -13.4373  -13.4371  -12.9811  -12.9811
  -12.9051  -12.9051  -11.9149  -11.9149  -11.8616  -11.8616  -11.4578  -11.4176   -9.8258   -9.8258
   -9.8203   -9.8203   -7.2179   -7.2179   -7.2070   -7.2070   -5.3854   -5.3529   -4.5704   -4.5704
   -4.5425   -4.5425   -2.5177   -2.5177   -2.5007   -2.5007   -1.2983   -1.2855    0.2894    0.3226
    0.3290    0.3353    0.6114    0.6957    0.8193    0.8199    1.1222    1.1222    1.1476    1.1476
    1.2904    1.2904    1.3533    1.3533    1.6691    1.6723    4.0251    4.0278    5.0058    5.0058
    5.0191    5.0191    5.4254    5.4257    5.8470    5.8470    5.8979    5.8979    7.2392    7.3029
    7.6513    7.6513    7.6641    7.6641    8.2649    8.2649    8.3043    8.3043    9.2666    9.2666
    9.2974    9.2974    9.8263    9.8274   11.4002   11.4002   11.4422   11.4422   11.6462   11.7155
   14.1209   14.1209   14.1218   14.1218
  22  1  -28.2387  -28.2200  -26.8117  -26.8013  -26.1436  -26.1436  -26.1389  -26.1389  -24.9196  -24.9196
         -24.9125  -24.9125  -24.3788  -24.3675  -22.9022  -22.9022  -22.8826  -22.8826  -21.1868  -21.1868
  -21.1705  -21.1705  -20.7691  -20.7428  -19.9001  -19.9001  -19.8787  -19.8787  -18.8122  -18.8122
  -18.8044  -18.8044  -18.1019  -18.1019  -18.0921  -18.0921  -17.1220  -17.1157  -16.3614  -16.3614
  -16.3569  -16.3569  -16.1119  -16.1058  -15.7773  -15.7773  -15.7738  -15.7738  -15.0113  -15.0066
  -14.5558  -14.4891  -13.7284  -13.7269  -13.5177  -13.4394  -13.4373  -13.4371  -12.9811  -12.9811
  -12.9051  -12.9051  -11.9149  -11.9149  -11.8616  -11.8616  -11.4578  -11.4176   -9.8258   -9.8258
   -9.8203   -9.8203   -7.2179   -7.2179   -7.2070   -7.2070   -5.3854   -5.3529   -4.5704   -4.5704
   -4.5425   -4.5425   -2.5177   -2.5177   -2.5007   -2.5007   -1.2983   -1.2855    0.2894    0.3226
    0.3290    0.3353    0.6114    0.6957    0.8193    0.8199    1.1222    1.1222    1.1476    1.1476
    1.2904    1.2904    1.3533    1.3533    1.6691    1.6723    4.0251    4.0278    5.0058    5.0058
    5.0191    5.0191    5.4254    5.4257    5.8470    5.8470    5.8979    5.8979    7.2392    7.3029
    7.6513    7.6513    7.6641    7.6641    8.2649    8.2649    8.3043    8.3043    9.2666    9.2666
    9.2974    9.2974    9.8263    9.8274   11.4002   11.4002   11.4422   11.4422   11.6462   11.7155
   14.1209   14.1209   14.1218   14.1218
  23  1  -27.8713  -27.8541  -27.1573  -27.1573  -27.1443  -27.1443  -25.2067  -25.2067  -25.2021  -25.2020
         -24.0805  -24.0650  -23.6731  -23.6731  -23.6593  -23.6593  -23.0597  -23.0511  -21.6168  -21.5971
  -21.4214  -21.4214  -21.3953  -21.3953  -20.0362  -20.0269  -19.0416  -19.0416  -19.0301  -19.0301
  -18.2195  -18.2191  -17.7575  -17.7508  -17.0484  -17.0484  -17.0437  -17.0437  -16.6606  -16.6606
  -16.6554  -16.6554  -16.2753  -16.2752  -16.2728  -16.2728  -14.9572  -14.9572  -14.9547  -14.9546
  -14.7079  -14.7066  -14.3005  -14.2271  -14.0490  -14.0488  -13.7805  -13.7805  -13.7004  -13.7003
  -12.1537  -12.1537  -12.0942  -12.0942  -11.0411  -11.0102  -10.8475  -10.8475  -10.8242  -10.8242
  -10.2301  -10.2185   -6.8699   -6.8543   -6.2226   -6.2226   -6.1950   -6.1950   -5.7158   -5.7011
   -4.0546   -4.0546   -4.0382   -4.0382   -0.6110   -0.6110   -0.6031   -0.6031    0.8601    0.8646
    0.9132    0.9991    0.9991    1.0052    1.0053    1.0066    1.3585    1.3585    1.4559    1.4559
    1.7167    1.7168    2.8284    2.8319    3.0482    3.0482    3.0804    3.0804    3.3855    3.3855
    3.4186    3.4186    4.6540    4.6649    4.9239    4.9253    5.8301    5.8301    5.9063    5.9063
    6.4116    6.4660    6.8929    6.8929    6.9030    6.9030    9.0046    9.0059    9.7916    9.7916
    9.8049    9.8049   11.5273   11.5273   11.5344   11.5344   12.7355   12.7356   12.7587   12.7588
   13.2189   13.2201   13.6500   13.6520
  24  1  -27.8713  -27.8541  -27.1573  -27.1573  -27.1443  -27.1443  -25.2067  -25.2067  -25.2021  -25.2020
         -24.0805  -24.0650  -23.6731  -23.6731  -23.6593  -23.6593  -23.0597  -23.0511  -21.6168  -21.5971
  -21.4214  -21.4214  -21.3953  -21.3953  -20.0362  -20.0269  -19.0416  -19.0416  -19.0301  -19.0301
  -18.2195  -18.2191  -17.7575  -17.7508  -17.0484  -17.0484  -17.0437  -17.0437  -16.6606  -16.6606
  -16.6554  -16.6554  -16.2753  -16.2752  -16.2728  -16.2728  -14.9572  -14.9572  -14.9547  -14.9546
  -14.7079  -14.7066  -14.3005  -14.2271  -14.0490  -14.0488  -13.7805  -13.7805  -13.7004  -13.7003
  -12.1537  -12.1537  -12.0942  -12.0942  -11.0411  -11.0102  -10.8475  -10.8475  -10.8242  -10.8242
  -10.2301  -10.2185   -6.8699   -6.8543   -6.2226   -6.2226   -6.1950   -6.1950   -5.7158   -5.7011
   -4.0546   -4.0546   -4.0382   -4.0382   -0.6110   -0.6110   -0.6031   -0.6031    0.8601    0.8646
    0.9132    0.9991    0.9991    1.0052    1.0053    1.0066    1.3585    1.3585    1.4559    1.4559
    1.7167    1.7168    2.8284    2.8319    3.0482    3.0482    3.0804    3.0804    3.3855    3.3855
    3.4186    3.4186    4.6540    4.6649    4.9239    4.9253    5.8301    5.8301    5.9063    5.9063
    6.4116    6.4660    6.8929    6.8929    6.9030    6.9030    9.0046    9.0059    9.7916    9.7916
    9.8049    9.8049   11.5273   11.5273   11.5344   11.5344   12.7355   12.7356   12.7587   12.7588
   13.2189   13.2201   13.6500   13.6520
  25  1  -27.8713  -27.8541  -27.1573  -27.1573  -27.1443  -27.1443  -25.2067  -25.2067  -25.2021  -25.2020
         -24.0805  -24.0650  -23.6731  -23.6731  -23.6593  -23.6593  -23.0597  -23.0511  -21.6168  -21.5971
  -21.4214  -21.4214  -21.3953  -21.3953  -20.0362  -20.0269  -19.0416  -19.0416  -19.0301  -19.0301
  -18.2195  -18.2191  -17.7575  -17.7508  -17.0484  -17.0484  -17.0437  -17.0437  -16.6606  -16.6606
  -16.6554  -16.6554  -16.2753  -16.2752  -16.2728  -16.2728  -14.9572  -14.9572  -14.9547  -14.9546
  -14.7079  -14.7066  -14.3005  -14.2271  -14.0490  -14.0488  -13.7805  -13.7805  -13.7004  -13.7003
  -12.1537  -12.1537  -12.0942  -12.0942  -11.0411  -11.0102  -10.8475  -10.8475  -10.8242  -10.8242
  -10.2301  -10.2185   -6.8699   -6.8543   -6.2226   -6.2226   -6.1950   -6.1950   -5.7158   -5.7011
   -4.0546   -4.0546   -4.0382   -4.0382   -0.6110   -0.6110   -0.6031   -0.6031    0.8601    0.8646
    0.9132    0.9991    0.9991    1.0052    1.0053    1.0066    1.3585    1.3585    1.4559    1.4559
    1.7167    1.7168    2.8284    2.8319    3.0482    3.0482    3.0804    3.0804    3.3855    3.3855
    3.4186    3.4186    4.6540    4.6649    4.9239    4.9253    5.8301    5.8301    5.9063    5.9063
    6.4116    6.4660    6.8929    6.8929    6.9030    6.9030    9.0046    9.0059    9.7916    9.7916
    9.8049    9.8049   11.5273   11.5273   11.5344   11.5344   12.7355   12.7356   12.7587   12.7588
   13.2189   13.2201   13.6500   13.6520
  26  1  -27.6901  -27.6901  -27.6739  -27.6739  -26.3069  -26.3069  -26.3008  -26.3008  -23.9661  -23.9661
         -23.9661  -23.9661  -23.9506  -23.9506  -23.9506  -23.9506  -23.4600  -23.4536  -21.8190  -21.7955
  -20.6056  -20.6056  -20.6056  -20.6056  -20.5830  -20.5830  -20.5830  -20.5830  -17.5845  -17.5845
  -17.5845  -17.5845  -17.5788  -17.5788  -17.5788  -17.5788  -17.5339  -17.5339  -17.5304  -17.5304
  -16.2571  -16.2508  -16.1100  -16.1100  -16.1042  -16.1042  -15.2372  -15.2372  -15.2353  -15.2353
  -14.1892  -14.1891  -14.1855  -14.1855  -14.1715  -14.1715  -14.0956  -14.0956  -13.1123  -13.1123
  -13.0348  -13.0348  -10.9804  -10.9804  -10.9804  -10.9804  -10.9516  -10.9516  -10.9516  -10.9516
  -10.7742  -10.7545   -6.3964   -6.3680   -5.8832   -5.8832   -5.8832   -5.8832   -5.8617   -5.8617
   -5.8617   -5.8617   -2.1963   -2.1963   -2.1861   -2.1861    0.2514    0.2607    0.4723    0.4723
    0.4779    0.4779    0.5839    0.5839    0.6761    0.6761    2.8175    2.8176    2.8185    2.8185
    2.8875    2.8876    2.8876    2.8876    2.9015    2.9015    2.9015    2.9015    3.2204    3.2204
    3.2242    3.2242    3.3446    3.3446    3.4848    3.4848    5.2297    5.2297    5.2484    5.2484
    8.0740    8.0740    8.0740    8.0740    8.1121    8.1121    8.1121    8.1121    9.3174    9.3174
    9.3191    9.3191   10.5050   10.5050   12.5039   12.5187   13.0764   13.0764   13.0764   13.0764
   13.0869   13.0869   13.0869   13.0869
  27  1  -27.8713  -27.8541  -27.1573  -27.1573  -27.1443  -27.1443  -25.2067  -25.2067  -25.2021  -25.2020
         -24.0805  -24.0650  -23.6731  -23.6731  -23.6593  -23.6593  -23.0597  -23.0511  -21.6168  -21.5971
  -21.4214  -21.4214  -21.3953  -21.3953  -20.0362  -20.0269  -19.0416  -19.0416  -19.0301  -19.0301
  -18.2195  -18.2191  -17.7575  -17.7508  -17.0484  -17.0484  -17.0437  -17.0437  -16.6606  -16.6606
  -16.6554  -16.6554  -16.2753  -16.2752  -16.2728  -16.2728  -14.9572  -14.9572  -14.9547  -14.9546
  -14.7079  -14.7066  -14.3005  -14.2271  -14.0490  -14.0488  -13.7805  -13.7805  -13.7004  -13.7003
  -12.1537  -12.1537  -12.0942  -12.0942  -11.0411  -11.0102  -10.8475  -10.8475  -10.8242  -10.8242
  -10.2301  -10.2185   -6.8699   -6.8543   -6.2226   -6.2226   -6.1950   -6.1950   -5.7158   -5.7011
   -4.0546   -4.0546   -4.0382   -4.0382   -0.6110   -0.6110   -0.6031   -0.6031    0.8601    0.8646
    0.9132    0.9991    0.9991    1.0052    1.0053    1.0066    1.3585    1.3585    1.4559    1.4559
    1.7167    1.7168    2.8284    2.8319    3.0482    3.0482    3.0804    3.0804    3.3855    3.3855
    3.4186    3.4186    4.6540    4.6649    4.9239    4.9253    5.8301    5.8301    5.9063    5.9063
    6.4116    6.4660    6.8929    6.8929    6.9030    6.9030    9.0046    9.0059    9.7916    9.7916
    9.8049    9.8049   11.5273   11.5273   11.5344   11.5344   12.7355   12.7356   12.7587   12.7588
   13.2189   13.2201   13.6500   13.6520
  28  1  -27.6901  -27.6901  -27.6739  -27.6739  -26.3069  -26.3069  -26.3008  -26.3008  -23.9661  -23.9661
         -23.9661  -23.9661  -23.9506  -23.9506  -23.9506  -23.9506  -23.4600  -23.4536  -21.8190  -21.7955
  -20.6056  -20.6056  -20.6056  -20.6056  -20.5830  -20.5830  -20.5830  -20.5830  -17.5845  -17.5845
  -17.5845  -17.5845  -17.5788  -17.5788  -17.5788  -17.5788  -17.5339  -17.5339  -17.5304  -17.5304
  -16.2571  -16.2508  -16.1100  -16.1100  -16.1042  -16.1042  -15.2372  -15.2372  -15.2353  -15.2353
  -14.1892  -14.1891  -14.1855  -14.1855  -14.1715  -14.1715  -14.0956  -14.0956  -13.1123  -13.1123
  -13.0348  -13.0348  -10.9804  -10.9804  -10.9804  -10.9804  -10.9516  -10.9516  -10.9516  -10.9516
  -10.7742  -10.7545   -6.3964   -6.3680   -5.8832   -5.8832   -5.8832   -5.8832   -5.8617   -5.8617
   -5.8617   -5.8617   -2.1963   -2.1963   -2.1861   -2.1861    0.2514    0.2607    0.4723    0.4723
    0.4779    0.4779    0.5839    0.5839    0.6761    0.6761    2.8175    2.8176    2.8185    2.8185
    2.8875    2.8876    2.8876    2.8876    2.9015    2.9015    2.9015    2.9015    3.2204    3.2204
    3.2242    3.2242    3.3446    3.3446    3.4848    3.4848    5.2297    5.2297    5.2484    5.2484
    8.0740    8.0740    8.0740    8.0740    8.1121    8.1121    8.1121    8.1121    9.3174    9.3174
    9.3191    9.3191   10.5050   10.5050   12.5039   12.5187   13.0764   13.0764   13.0764   13.0764
   13.0869   13.0869   13.0869   13.0869
  29  1  -27.8628  -27.8628  -27.1510  -27.1510  -27.1509  -27.1509  -25.2047  -25.2047  -25.2046  -25.2046
         -24.0730  -24.0730  -23.6663  -23.6663  -23.6663  -23.6663  -23.0553  -23.0553  -21.6073  -21.6073
  -21.4086  -21.4086  -21.4086  -21.4086  -20.0315  -20.0315  -19.0359  -19.0359  -19.0359  -19.0359
  -18.2195  -18.2195  -17.7542  -17.7542  -17.0462  -17.0462  -17.0462  -17.0462  -16.6580  -16.6580
  -16.6580  -16.6580  -16.2741  -16.2741  -16.2741  -16.2741  -14.9561  -14.9561  -14.9561  -14.9561
  -14.7073  -14.7073  -14.2622  -14.2622  -14.0487  -14.0487  -13.7387  -13.7387  -13.7387  -13.7387
  -12.1232  -12.1232  -12.1232  -12.1232  -11.0254  -11.0254  -10.8358  -10.8358  -10.8358  -10.8358
  -10.2243  -10.2243   -6.8623   -6.8623   -6.2090   -6.2090   -6.2090   -6.2090   -5.7085   -5.7085
   -4.0464   -4.0464   -4.0464   -4.0464   -0.6070   -0.6070   -0.6070   -0.6070    0.8623    0.8623
    0.9615    0.9615    1.0023    1.0023    1.0023    1.0023    1.4089    1.4089    1.4089    1.4089
    1.7168    1.7168    2.8303    2.8303    3.0648    3.0648    3.0648    3.0648    3.4021    3.4021
    3.4021    3.4021    4.6594    4.6594    4.9246    4.9246    5.8687    5.8687    5.8687    5.8687
    6.4392    6.4392    6.8980    6.8980    6.8980    6.8980    9.0053    9.0053    9.7983    9.7983
    9.7983    9.7983   11.5309   11.5309   11.5309   11.5309   12.7473   12.7473   12.7473   12.7473
   13.2195   13.2195   13.6510   13.6510
  30  1  -28.2294  -28.2294  -26.8067  -26.8067  -26.1415  -26.1415  -26.1415  -26.1415  -24.9163  -24.9163
         -24.9163  -24.9163  -24.3734  -24.3734  -22.8925  -22.8925  -22.8925  -22.8925  -21.1787  -21.1787
  -21.1787  -21.1787  -20.7561  -20.7561  -19.8895  -19.8895  -19.8895  -19.8895  -18.8084  -18.8084
  -18.8084  -18.8084  -18.0971  -18.0971  -18.0971  -18.0971  -17.1190  -17.1190  -16.3592  -16.3592
  -16.3592  -16.3592  -16.1089  -16.1089  -15.7756  -15.7756  -15.7756  -15.7756  -15.0090  -15.0089
  -14.5205  -14.5205  -13.7276  -13.7276  -13.4759  -13.4759  -13.4384  -13.4384  -12.9419  -12.9419
  -12.9419  -12.9419  -11.8877  -11.8877  -11.8877  -11.8877  -11.4374  -11.4374   -9.8231   -9.8231
   -9.8230   -9.8230   -7.2125   -7.2125   -7.2125   -7.2125   -5.3693   -5.3693   -4.5566   -4.5566
   -4.5566   -4.5566   -2.5092   -2.5092   -2.5092   -2.5092   -1.2919   -1.2919    0.3099    0.3099
    0.3291    0.3291    0.6548    0.6548    0.8196    0.8196    1.1352    1.1352    1.1352    1.1352
    1.3227    1.3227    1.3227    1.3227    1.6707    1.6707    4.0264    4.0264    5.0125    5.0125
    5.0125    5.0125    5.4255    5.4255    5.8729    5.8729    5.8729    5.8729    7.2716    7.2716
    7.6578    7.6578    7.6578    7.6578    8.2850    8.2850    8.2850    8.2850    9.2821    9.2821
    9.2821    9.2821    9.8268    9.8268   11.4213   11.4213   11.4213   11.4213   11.6813   11.6813
   14.1213   14.1213   14.1213   14.1213
  31  1  -28.2294  -28.2294  -26.8067  -26.8067  -26.1415  -26.1415  -26.1415  -26.1415  -24.9163  -24.9163
         -24.9163  -24.9163  -24.3734  -24.3734  -22.8925  -22.8925  -22.8925  -22.8925  -21.1787  -21.1787
  -21.1787  -21.1787  -20.7561  -20.7561  -19.8895  -19.8895  -19.8895  -19.8895  -18.8084  -18.8084
  -18.8084  -18.8084  -18.0971  -18.0971  -18.0971  -18.0971  -17.1190  -17.1190  -16.3592  -16.3592
  -16.3592  -16.3592  -16.1089  -16.1089  -15.7756  -15.7756  -15.7756  -15.7756  -15.0090  -15.0089
  -14.5205  -14.5205  -13.7276  -13.7276  -13.4759  -13.4759  -13.4384  -13.4384  -12.9419  -12.9419
  -12.9419  -12.9419  -11.8877  -11.8877  -11.8877  -11.8877  -11.4374  -11.4374   -9.8231   -9.8231
   -9.8230   -9.8230   -7.2125   -7.2125   -7.2125   -7.2125   -5.3693   -5.3693   -4.5566   -4.5566
   -4.5566   -4.5566   -2.5092   -2.5092   -2.5092   -2.5092   -1.2919   -1.2919    0.3099    0.3099
    0.3291    0.3291    0.6548    0.6548    0.8196    0.8196    1.1352    1.1352    1.1352    1.1352
    1.3227    1.3227    1.3227    1.3227    1.6707    1.6707    4.0264    4.0264    5.0125    5.0125
    5.0125    5.0125    5.4255    5.4255    5.8729    5.8729    5.8729    5.8729    7.2716    7.2716
    7.6578    7.6578    7.6578    7.6578    8.2850    8.2850    8.2850    8.2850    9.2821    9.2821
    9.2821    9.2821    9.8268    9.8269   11.4213   11.4213   11.4213   11.4213   11.6813   11.6813
   14.1213   14.1213   14.1213   14.1213
  32  1  -27.8628  -27.8628  -27.1510  -27.1510  -27.1509  -27.1509  -25.2047  -25.2047  -25.2046  -25.2046
         -24.0730  -24.0730  -23.6663  -23.6663  -23.6663  -23.6663  -23.0553  -23.0553  -21.6073  -21.6073
  -21.4086  -21.4086  -21.4086  -21.4086  -20.0315  -20.0315  -19.0359  -19.0359  -19.0359  -19.0359
  -18.2195  -18.2195  -17.7542  -17.7542  -17.0462  -17.0462  -17.0462  -17.0462  -16.6580  -16.6580
  -16.6580  -16.6580  -16.2741  -16.2741  -16.2741  -16.2741  -14.9561  -14.9561  -14.9561  -14.9561
  -14.7073  -14.7073  -14.2622  -14.2622  -14.0487  -14.0487  -13.7387  -13.7387  -13.7387  -13.7387
  -12.1232  -12.1232  -12.1232  -12.1232  -11.0254  -11.0254  -10.8358  -10.8358  -10.8358  -10.8358
  -10.2243  -10.2243   -6.8623   -6.8623   -6.2090   -6.2090   -6.2090   -6.2090   -5.7085   -5.7085
   -4.0464   -4.0464   -4.0464   -4.0464   -0.6070   -0.6070   -0.6070   -0.6070    0.8623    0.8623
    0.9615    0.9615    1.0023    1.0023    1.0023    1.0023    1.4089    1.4089    1.4089    1.4089
    1.7168    1.7168    2.8303    2.8303    3.0648    3.0648    3.0648    3.0648    3.4021    3.4021
    3.4021    3.4021    4.6594    4.6594    4.9246    4.9246    5.8687    5.8687    5.8687    5.8687
    6.4392    6.4392    6.8980    6.8980    6.8980    6.8980    9.0053    9.0053    9.7983    9.7983
    9.7983    9.7983   11.5309   11.5309   11.5309   11.5309   12.7473   12.7473   12.7473   12.7473
   13.2195   13.2195   13.6510   13.6510
  33  1  -28.2294  -28.2294  -26.8067  -26.8067  -26.1415  -26.1415  -26.1415  -26.1415  -24.9163  -24.9163
         -24.9163  -24.9163  -24.3734  -24.3734  -22.8925  -22.8925  -22.8925  -22.8925  -21.1787  -21.1787
  -21.1787  -21.1787  -20.7561  -20.7561  -19.8895  -19.8895  -19.8895  -19.8895  -18.8084  -18.8084
  -18.8084  -18.8084  -18.0971  -18.0971  -18.0971  -18.0971  -17.1190  -17.1190  -16.3592  -16.3592
  -16.3592  -16.3592  -16.1089  -16.1089  -15.7756  -15.7756  -15.7756  -15.7756  -15.0090  -15.0089
  -14.5205  -14.5205  -13.7276  -13.7276  -13.4759  -13.4759  -13.4384  -13.4384  -12.9419  -12.9419
  -12.9419  -12.9419  -11.8877  -11.8877  -11.8877  -11.8877  -11.4374  -11.4374   -9.8231   -9.8231
   -9.8230   -9.8230   -7.2125   -7.2125   -7.2125   -7.2125   -5.3693   -5.3693   -4.5566   -4.5566
   -4.5566   -4.5566   -2.5092   -2.5092   -2.5092   -2.5092   -1.2919   -1.2919    0.3099    0.3099
    0.3291    0.3291    0.6548    0.6548    0.8196    0.8196    1.1352    1.1352    1.1352    1.1352
    1.3227    1.3227    1.3227    1.3227    1.6707    1.6707    4.0264    4.0264    5.0125    5.0125
    5.0125    5.0125    5.4255    5.4255    5.8729    5.8729    5.8729    5.8729    7.2716    7.2716
    7.6578    7.6578    7.6578    7.6578    8.2850    8.2850    8.2850    8.2850    9.2821    9.2821
    9.2821    9.2821    9.8268    9.8269   11.4213   11.4213   11.4213   11.4213   11.6813   11.6813
   14.1213   14.1213   14.1213   14.1213
  34  1  -28.4153  -28.4153  -25.6662  -25.6662  -25.6662  -25.6662  -25.6662  -25.6662  -25.6662  -25.6662
         -25.6662  -25.6662  -25.6662  -25.6662  -21.8914  -21.8914  -21.8914  -21.8914  -21.8912  -21.8912
  -21.8912  -21.8912  -19.3690  -19.3690  -19.3690  -19.3690  -19.0267  -19.0267  -19.0267  -19.0267
  -19.0267  -19.0267  -19.0267  -19.0267  -19.0267  -19.0267  -19.0267  -19.0267  -15.6820  -15.6820
  -15.6820  -15.6820  -15.6820  -15.6820  -15.6820  -15.6820  -15.6820  -15.6820  -15.6820  -15.6820
  -14.6494  -14.6494  -13.1173  -13.1173  -13.1173  -13.1173  -12.5485  -12.5485  -12.5485  -12.5485
  -12.5485  -12.5485  -12.5485  -12.5485  -12.5485  -12.5485  -12.5485  -12.5485   -8.5434   -8.5434
   -8.5434   -8.5434   -8.5432   -8.5432   -8.5432   -8.5432   -3.3691   -3.3691   -3.3691   -3.3691
   -3.3691   -3.3691   -3.3691   -3.3691   -3.3691   -3.3691   -3.3691   -3.3691    0.0536    0.0536
    0.0536    0.0536    0.5008    0.5008    0.5008    0.5008    0.5008    0.5008    0.5008    0.5008
    0.5008    0.5008    0.5008    0.5008    2.0959    2.0959    3.6850    3.6850    6.7037    6.7037
    6.7037    6.7037    6.7038    6.7038    6.7038    6.7038    7.9734    7.9734    7.9734    7.9734
    7.9734    7.9734    7.9735    7.9735    7.9735    7.9735    7.9735    7.9735    9.6464    9.6464
    9.6464    9.6464    9.6464    9.6464    9.6465    9.6465    9.6465    9.6465    9.6465    9.6465
   14.4745   14.4745   14.4745   14.4745
  35  1  -28.2294  -28.2294  -26.8067  -26.8067  -26.1415  -26.1415  -26.1415  -26.1415  -24.9163  -24.9163
         -24.9163  -24.9163  -24.3734  -24.3734  -22.8925  -22.8925  -22.8925  -22.8925  -21.1787  -21.1787
  -21.1787  -21.1787  -20.7561  -20.7561  -19.8895  -19.8895  -19.8895  -19.8895  -18.8084  -18.8084
  -18.8084  -18.8084  -18.0971  -18.0971  -18.0971  -18.0971  -17.1190  -17.1190  -16.3592  -16.3592
  -16.3592  -16.3592  -16.1089  -16.1089  -15.7756  -15.7756  -15.7756  -15.7756  -15.0090  -15.0089
  -14.5205  -14.5205  -13.7276  -13.7276  -13.4759  -13.4759  -13.4384  -13.4384  -12.9419  -12.9419
  -12.9419  -12.9419  -11.8877  -11.8877  -11.8877  -11.8877  -11.4374  -11.4374   -9.8231   -9.8231
   -9.8230   -9.8230   -7.2125   -7.2125   -7.2125   -7.2125   -5.3693   -5.3693   -4.5566   -4.5566
   -4.5566   -4.5566   -2.5092   -2.5092   -2.5092   -2.5092   -1.2919   -1.2919    0.3099    0.3099
    0.3291    0.3291    0.6548    0.6548    0.8196    0.8196    1.1352    1.1352    1.1352    1.1352
    1.3227    1.3227    1.3227    1.3227    1.6707    1.6707    4.0264    4.0264    5.0125    5.0125
    5.0125    5.0125    5.4255    5.4255    5.8729    5.8729    5.8729    5.8729    7.2716    7.2716
    7.6578    7.6578    7.6578    7.6578    8.2850    8.2850    8.2850    8.2850    9.2821    9.2821
    9.2821    9.2821    9.8268    9.8269   11.4213   11.4213   11.4213   11.4213   11.6813   11.6813
   14.1213   14.1213   14.1213   14.1213
  36  1  -27.6821  -27.6821  -27.6821  -27.6821  -26.3041  -26.3041  -26.3041  -26.3041  -23.9586  -23.9586
         -23.9586  -23.9586  -23.9586  -23.9586  -23.9585  -23.9585  -23.4568  -23.4568  -21.8077  -21.8077
  -20.5944  -20.5944  -20.5944  -20.5944  -20.5944  -20.5944  -20.5944  -20.5944  -17.5818  -17.5818
  -17.5818  -17.5818  -17.5818  -17.5818  -17.5818  -17.5818  -17.5321  -17.5321  -17.5321  -17.5321
  -16.2540  -16.2540  -16.1073  -16.1073  -16.1073  -16.1073  -15.2364  -15.2364  -15.2363  -15.2363
  -14.1873  -14.1873  -14.1873  -14.1873  -14.1317  -14.1317  -14.1317  -14.1317  -13.0722  -13.0722
  -13.0722  -13.0722  -10.9658  -10.9658  -10.9658  -10.9658  -10.9658  -10.9658  -10.9658  -10.9658
  -10.7643  -10.7643   -6.3825   -6.3825   -5.8726   -5.8726   -5.8726   -5.8726   -5.8725   -5.8725
   -5.8725   -5.8725   -2.1912   -2.1912   -2.1912   -2.1912    0.2561    0.2561    0.4751    0.4751
    0.4751    0.4751    0.6315    0.6315    0.6315    0.6315    2.8180    2.8180    2.8180    2.8180
    2.8946    2.8946    2.8946    2.8946    2.8946    2.8946    2.8947    2.8947    3.2223    3.2223
    3.2223    3.2223    3.4162    3.4162    3.4162    3.4162    5.2393    5.2393    5.2393    5.2393
    8.0933    8.0933    8.0933    8.0933    8.0933    8.0933    8.0933    8.0933    9.3182    9.3182
    9.3183    9.3183   10.5050   10.5050   12.5115   12.5115   13.0817   13.0817   13.0817   13.0817
   13.0817   13.0817   13.0817   13.0817
  37  1  -28.2294  -28.2294  -26.8067  -26.8067  -26.1415  -26.1415  -26.1415  -26.1415  -24.9163  -24.9163
         -24.9163  -24.9163  -24.3734  -24.3734  -22.8925  -22.8925  -22.8925  -22.8925  -21.1787  -21.1787
  -21.1787  -21.1787  -20.7561  -20.7561  -19.8895  -19.8895  -19.8895  -19.8895  -18.8084  -18.8084
  -18.8084  -18.8084  -18.0971  -18.0971  -18.0971  -18.0971  -17.1190  -17.1190  -16.3592  -16.3592
  -16.3592  -16.3592  -16.1089  -16.1089  -15.7756  -15.7756  -15.7756  -15.7756  -15.0090  -15.0089
  -14.5205  -14.5205  -13.7276  -13.7276  -13.4759  -13.4759  -13.4384  -13.4384  -12.9419  -12.9419
  -12.9419  -12.9419  -11.8877  -11.8877  -11.8877  -11.8877  -11.4374  -11.4374   -9.8231   -9.8231
   -9.8230   -9.8230   -7.2125   -7.2125   -7.2125   -7.2125   -5.3693   -5.3693   -4.5566   -4.5566
   -4.5566   -4.5566   -2.5092   -2.5092   -2.5092   -2.5092   -1.2919   -1.2919    0.3099    0.3099
    0.3291    0.3291    0.6548    0.6548    0.8196    0.8196    1.1352    1.1352    1.1352    1.1352
    1.3227    1.3227    1.3227    1.3227    1.6707    1.6707    4.0264    4.0264    5.0125    5.0125
    5.0125    5.0125    5.4255    5.4255    5.8729    5.8729    5.8729    5.8729    7.2716    7.2716
    7.6578    7.6578    7.6578    7.6578    8.2850    8.2850    8.2850    8.2850    9.2821    9.2821
    9.2821    9.2821    9.8268    9.8269   11.4213   11.4213   11.4213   11.4213   11.6813   11.6813
   14.1213   14.1213   14.1213   14.1213
  38  1  -28.2294  -28.2294  -26.8067  -26.8067  -26.1415  -26.1415  -26.1415  -26.1415  -24.9163  -24.9163
         -24.9163  -24.9163  -24.3734  -24.3734  -22.8925  -22.8925  -22.8925  -22.8925  -21.1787  -21.1787
  -21.1787  -21.1787  -20.7561  -20.7561  -19.8895  -19.8895  -19.8895  -19.8895  -18.8084  -18.8084
  -18.8084  -18.8084  -18.0971  -18.0971  -18.0971  -18.0971  -17.1190  -17.1190  -16.3592  -16.3592
  -16.3592  -16.3592  -16.1089  -16.1089  -15.7756  -15.7756  -15.7756  -15.7756  -15.0090  -15.0089
  -14.5205  -14.5205  -13.7276  -13.7276  -13.4759  -13.4759  -13.4384  -13.4384  -12.9419  -12.9419
  -12.9419  -12.9419  -11.8877  -11.8877  -11.8877  -11.8877  -11.4374  -11.4374   -9.8231   -9.8231
   -9.8230   -9.8230   -7.2125   -7.2125   -7.2125   -7.2125   -5.3693   -5.3693   -4.5566   -4.5566
   -4.5566   -4.5566   -2.5092   -2.5092   -2.5092   -2.5092   -1.2919   -1.2919    0.3099    0.3099
    0.3291    0.3291    0.6548    0.6548    0.8196    0.8196    1.1352    1.1352    1.1352    1.1352
    1.3227    1.3227    1.3227    1.3227    1.6707    1.6707    4.0264    4.0264    5.0125    5.0125
    5.0125    5.0125    5.4255    5.4255    5.8729    5.8729    5.8729    5.8729    7.2716    7.2716
    7.6578    7.6578    7.6578    7.6578    8.2850    8.2850    8.2850    8.2850    9.2821    9.2821
    9.2821    9.2821    9.8268    9.8268   11.4213   11.4213   11.4213   11.4213   11.6813   11.6813
   14.1213   14.1213   14.1213   14.1213
  39  1  -27.8628  -27.8628  -27.1510  -27.1510  -27.1509  -27.1509  -25.2047  -25.2047  -25.2046  -25.2046
         -24.0730  -24.0730  -23.6663  -23.6663  -23.6663  -23.6663  -23.0553  -23.0553  -21.6073  -21.6073
  -21.4086  -21.4086  -21.4086  -21.4086  -20.0315  -20.0315  -19.0359  -19.0359  -19.0359  -19.0359
  -18.2195  -18.2195  -17.7542  -17.7542  -17.0462  -17.0462  -17.0462  -17.0462  -16.6580  -16.6580
  -16.6580  -16.6580  -16.2741  -16.2741  -16.2741  -16.2741  -14.9561  -14.9561  -14.9561  -14.9561
  -14.7073  -14.7073  -14.2622  -14.2622  -14.0487  -14.0487  -13.7387  -13.7387  -13.7387  -13.7387
  -12.1232  -12.1232  -12.1232  -12.1232  -11.0254  -11.0254  -10.8358  -10.8358  -10.8358  -10.8358
  -10.2243  -10.2243   -6.8623   -6.8623   -6.2090   -6.2090   -6.2090   -6.2090   -5.7085   -5.7085
   -4.0464   -4.0464   -4.0464   -4.0464   -0.6070   -0.6070   -0.6070   -0.6070    0.8623    0.8623
    0.9615    0.9615    1.0023    1.0023    1.0023    1.0023    1.4089    1.4089    1.4089    1.4089
    1.7168    1.7168    2.8303    2.8303    3.0648    3.0648    3.0648    3.0648    3.4021    3.4021
    3.4021    3.4021    4.6594    4.6594    4.9246    4.9246    5.8687    5.8687    5.8687    5.8687
    6.4392    6.4392    6.8980    6.8980    6.8980    6.8980    9.0053    9.0053    9.7983    9.7983
    9.7983    9.7983   11.5309   11.5309   11.5309   11.5309   12.7473   12.7473   12.7473   12.7473
   13.2195   13.2195   13.6510   13.6510
  40  1  -27.8628  -27.8628  -27.1510  -27.1510  -27.1509  -27.1509  -25.2047  -25.2047  -25.2046  -25.2046
         -24.0730  -24.0730  -23.6663  -23.6663  -23.6663  -23.6663  -23.0553  -23.0553  -21.6073  -21.6073
  -21.4086  -21.4086  -21.4086  -21.4086  -20.0315  -20.0315  -19.0359  -19.0359  -19.0359  -19.0359
  -18.2195  -18.2195  -17.7542  -17.7542  -17.0462  -17.0462  -17.0462  -17.0462  -16.6580  -16.6580
  -16.6580  -16.6580  -16.2741  -16.2741  -16.2741  -16.2741  -14.9561  -14.9561  -14.9561  -14.9561
  -14.7073  -14.7073  -14.2622  -14.2622  -14.0487  -14.0487  -13.7387  -13.7387  -13.7387  -13.7387
  -12.1232  -12.1232  -12.1232  -12.1232  -11.0254  -11.0254  -10.8358  -10.8358  -10.8358  -10.8358
  -10.2243  -10.2243   -6.8623   -6.8623   -6.2090   -6.2090   -6.2090   -6.2090   -5.7085   -5.7085
   -4.0464   -4.0464   -4.0464   -4.0464   -0.6070   -0.6070   -0.6070   -0.6070    0.8623    0.8623
    0.9615    0.9615    1.0023    1.0023    1.0023    1.0023    1.4089    1.4089    1.4089    1.4089
    1.7168    1.7168    2.8303    2.8303    3.0648    3.0648    3.0648    3.0648    3.4021    3.4021
    3.4021    3.4021    4.6594    4.6594    4.9246    4.9246    5.8687    5.8687    5.8687    5.8687
    6.4392    6.4392    6.8980    6.8980    6.8980    6.8980    9.0053    9.0053    9.7983    9.7983
    9.7983    9.7983   11.5309   11.5309   11.5309   11.5309   12.7473   12.7473   12.7473   12.7473
   13.2195   13.2195   13.6510   13.6510
  41  1  -27.8628  -27.8628  -27.1510  -27.1510  -27.1509  -27.1509  -25.2047  -25.2047  -25.2046  -25.2046
         -24.0730  -24.0730  -23.6663  -23.6663  -23.6663  -23.6663  -23.0553  -23.0553  -21.6073  -21.6073
  -21.4086  -21.4086  -21.4086  -21.4086  -20.0315  -20.0315  -19.0359  -19.0359  -19.0359  -19.0359
  -18.2195  -18.2195  -17.7542  -17.7542  -17.0462  -17.0462  -17.0462  -17.0462  -16.6580  -16.6580
  -16.6580  -16.6580  -16.2741  -16.2741  -16.2741  -16.2741  -14.9561  -14.9561  -14.9561  -14.9561
  -14.7073  -14.7073  -14.2622  -14.2622  -14.0487  -14.0487  -13.7387  -13.7387  -13.7387  -13.7387
  -12.1232  -12.1232  -12.1232  -12.1232  -11.0254  -11.0254  -10.8358  -10.8358  -10.8358  -10.8358
  -10.2243  -10.2243   -6.8623   -6.8623   -6.2090   -6.2090   -6.2090   -6.2090   -5.7085   -5.7085
   -4.0464   -4.0464   -4.0464   -4.0464   -0.6070   -0.6070   -0.6070   -0.6070    0.8623    0.8623
    0.9615    0.9615    1.0023    1.0023    1.0023    1.0023    1.4089    1.4089    1.4089    1.4089
    1.7168    1.7168    2.8303    2.8303    3.0648    3.0648    3.0648    3.0648    3.4021    3.4021
    3.4021    3.4021    4.6594    4.6594    4.9246    4.9246    5.8687    5.8687    5.8687    5.8687
    6.4392    6.4392    6.8980    6.8980    6.8980    6.8980    9.0053    9.0053    9.7983    9.7983
    9.7983    9.7983   11.5309   11.5309   11.5309   11.5309   12.7473   12.7473   12.7473   12.7473
   13.2195   13.2195   13.6510   13.6510
  42  1  -27.6821  -27.6821  -27.6821  -27.6821  -26.3041  -26.3041  -26.3041  -26.3041  -23.9586  -23.9586
         -23.9586  -23.9586  -23.9586  -23.9586  -23.9585  -23.9585  -23.4568  -23.4568  -21.8077  -21.8077
  -20.5944  -20.5944  -20.5944  -20.5944  -20.5944  -20.5944  -20.5944  -20.5944  -17.5818  -17.5818
  -17.5818  -17.5818  -17.5818  -17.5818  -17.5818  -17.5818  -17.5321  -17.5321  -17.5321  -17.5321
  -16.2540  -16.2540  -16.1073  -16.1073  -16.1073  -16.1073  -15.2364  -15.2364  -15.2363  -15.2363
  -14.1873  -14.1873  -14.1873  -14.1873  -14.1317  -14.1317  -14.1317  -14.1317  -13.0722  -13.0722
  -13.0722  -13.0722  -10.9658  -10.9658  -10.9658  -10.9658  -10.9658  -10.9658  -10.9658  -10.9658
  -10.7643  -10.7643   -6.3825   -6.3825   -5.8726   -5.8726   -5.8726   -5.8726   -5.8725   -5.8725
   -5.8725   -5.8725   -2.1912   -2.1912   -2.1912   -2.1912    0.2561    0.2561    0.4751    0.4751
    0.4751    0.4751    0.6315    0.6315    0.6315    0.6315    2.8180    2.8180    2.8180    2.8180
    2.8946    2.8946    2.8946    2.8946    2.8946    2.8946    2.8947    2.8947    3.2223    3.2223
    3.2223    3.2223    3.4162    3.4162    3.4162    3.4162    5.2393    5.2393    5.2393    5.2393
    8.0933    8.0933    8.0933    8.0933    8.0933    8.0933    8.0933    8.0933    9.3182    9.3182
    9.3183    9.3183   10.5050   10.5050   12.5115   12.5115   13.0817   13.0817   13.0817   13.0817
   13.0817   13.0817   13.0817   13.0817
  43  1  -27.8628  -27.8628  -27.1510  -27.1510  -27.1509  -27.1509  -25.2047  -25.2047  -25.2046  -25.2046
         -24.0730  -24.0730  -23.6663  -23.6663  -23.6663  -23.6663  -23.0553  -23.0553  -21.6073  -21.6073
  -21.4086  -21.4086  -21.4086  -21.4086  -20.0315  -20.0315  -19.0359  -19.0359  -19.0359  -19.0359
  -18.2195  -18.2195  -17.7542  -17.7542  -17.0462  -17.0462  -17.0462  -17.0462  -16.6580  -16.6580
  -16.6580  -16.6580  -16.2741  -16.2741  -16.2741  -16.2741  -14.9561  -14.9561  -14.9561  -14.9561
  -14.7073  -14.7073  -14.2622  -14.2622  -14.0487  -14.0487  -13.7387  -13.7387  -13.7387  -13.7387
  -12.1232  -12.1232  -12.1232  -12.1232  -11.0254  -11.0254  -10.8358  -10.8358  -10.8358  -10.8358
  -10.2243  -10.2243   -6.8623   -6.8623   -6.2090   -6.2090   -6.2090   -6.2090   -5.7085   -5.7085
   -4.0464   -4.0464   -4.0464   -4.0464   -0.6070   -0.6070   -0.6070   -0.6070    0.8623    0.8623
    0.9615    0.9615    1.0023    1.0023    1.0023    1.0023    1.4089    1.4089    1.4089    1.4089
    1.7168    1.7168    2.8303    2.8303    3.0648    3.0648    3.0648    3.0648    3.4021    3.4021
    3.4021    3.4021    4.6594    4.6594    4.9246    4.9246    5.8687    5.8687    5.8687    5.8687
    6.4392    6.4392    6.8980    6.8980    6.8980    6.8980    9.0053    9.0053    9.7983    9.7983
    9.7983    9.7983   11.5309   11.5309   11.5309   11.5309   12.7473   12.7473   12.7473   12.7473
   13.2195   13.2195   13.6510   13.6510
  44  1  -27.6821  -27.6821  -27.6821  -27.6821  -26.3041  -26.3041  -26.3041  -26.3041  -23.9586  -23.9586
         -23.9586  -23.9586  -23.9586  -23.9586  -23.9585  -23.9585  -23.4568  -23.4568  -21.8077  -21.8077
  -20.5944  -20.5944  -20.5944  -20.5944  -20.5944  -20.5944  -20.5944  -20.5944  -17.5818  -17.5818
  -17.5818  -17.5818  -17.5818  -17.5818  -17.5818  -17.5818  -17.5321  -17.5321  -17.5321  -17.5321
  -16.2540  -16.2540  -16.1073  -16.1073  -16.1073  -16.1073  -15.2364  -15.2364  -15.2363  -15.2363
  -14.1873  -14.1873  -14.1873  -14.1873  -14.1317  -14.1317  -14.1317  -14.1317  -13.0722  -13.0722
  -13.0722  -13.0722  -10.9658  -10.9658  -10.9658  -10.9658  -10.9658  -10.9658  -10.9658  -10.9658
  -10.7643  -10.7643   -6.3825   -6.3825   -5.8726   -5.8726   -5.8726   -5.8726   -5.8725   -5.8725
   -5.8725   -5.8725   -2.1912   -2.1912   -2.1912   -2.1912    0.2561    0.2561    0.4751    0.4751
    0.4751    0.4751    0.6315    0.6315    0.6315    0.6315    2.8180    2.8180    2.8180    2.8180
    2.8946    2.8946    2.8946    2.8946    2.8946    2.8946    2.8947    2.8947    3.2223    3.2223
    3.2223    3.2223    3.4162    3.4162    3.4162    3.4162    5.2393    5.2393    5.2393    5.2393
    8.0933    8.0933    8.0933    8.0933    8.0933    8.0933    8.0933    8.0933    9.3182    9.3182
    9.3183    9.3183   10.5050   10.5050   12.5115   12.5115   13.0817   13.0817   13.0817   13.0817
   13.0817   13.0817   13.0817   13.0817
siesta: Fermi energy =      -8.543272 eV

siesta: Program's energy decomposition (eV):
siesta: Ebs     =     -2610.731016
siesta: Eions   =      9434.507561
siesta: Ena     =      2271.228755
siesta: Ekin    =      3580.186826
siesta: Enl     =      -332.669502
siesta: Eso     =         0.000000
siesta: Edftu   =         0.000000
siesta: DEna    =        26.486334
siesta: DUscf   =         2.913638
siesta: DUext   =         0.000000
siesta: Exc     =     -1617.752255
siesta: eta*DQ  =         0.000000
siesta: Emadel  =         0.000000
siesta: Emeta   =         0.000000
siesta: Emolmec =        -2.543482
siesta: Ekinion =         0.000000
siesta: Eharris =     -5506.657249
siesta: Etot    =     -5506.657248
siesta: FreeEng =     -5506.675090

siesta: Final energy (eV):
siesta:  Band Struct. =   -2610.731016
siesta:       Kinetic =    3580.186826
siesta:       Hartree =    2989.934772
siesta:       Edftu   =       0.000000
siesta:       Eso     =       0.000000
siesta:    Ext. field =       0.000000
siesta:   Exch.-corr. =   -1617.752255
siesta:  Ion-electron =  -10056.452335
siesta:       Ion-ion =    -400.030774
siesta:       Ekinion =       0.000000
siesta:         Total =   -5506.657248
siesta:         Fermi =      -8.543272

siesta: Stress tensor (static) (eV/Ang**3):
siesta:    -0.188239    0.000000   -0.000000
siesta:     0.000000   -0.188239   -0.000000
siesta:    -0.000000    0.000000    0.020647

siesta: Cell volume =        450.951807 Ang**3

siesta: Pressure (static):
siesta:                Solid            Molecule  Units
siesta:           0.00129182          0.00129184  Ry/Bohr**3
siesta:           0.11861017          0.11861208  eV/Ang**3
siesta:         190.03650398        190.03955633  kBar
(Free)E+ p_basis*V_orbitals  =       -5488.372044
(Free)Eharris+ p_basis*V_orbitals  =       -5488.372044

cite: Please see "graphite_scf.bib" for an exhaustive BiBTeX file.
cite: Please clearly indicate Siesta version in published work: 4.1.5
cite: This calculation has made use of the following articles
cite: which are encouraged to be cited in a published work.
        Primary SIESTA paper
          DOI: www.doi.org/10.1088/0953-8984/14/11/302

>> End of run:   1-NOV-2022  14:34:21
Job completed
