Siesta Version  : 4.1.5
Architecture    : x86_64-unknown-linux-gnu--unknown
Compiler version: GNU Fortran (GCC) 11.3.0
Compiler flags  : mpif90 -g -O2 -fallow-argument-mismatch
PP flags        : -DMPI -DFC_HAVE_FLUSH -DFC_HAVE_ABORT
Libraries       :  -I/global/software/sl-7.x86_64/modules/intel/2020.4.304/mkl/include  /globall/software/sl-7.x86_64/modules/intel/2020.4.304/mkl/lib/intel64/libmkl_scalapack_lp64.a -Wl,--start-group /global/software/sl-7.x86_64/modules/intel/2020.4.304/mkl/lib/intel64/libmkl_intel_lp64.a /global/software/sl-7.x86_64/modules/intel/2020.4.304/mkl/lib/intel64/libmkl_sequential.a /global/software/sl-7.x86_64/modules/intel/2020.4.304/mkl/lib/intel64/libmkl_core.a /global/software/sl-7.x86_64/modules/intel/2020.4.304/mkl/lib/intel64/libmkl_blacs_openmpi_lp64.a -Wl,--end-group -lpthread -lm -ldl
PARALLEL version

* Running on 4 nodes in parallel
>> Start of run:   9-NOV-2022   9:24:50

                           ***********************       
                           *  WELCOME TO SIESTA  *       
                           ***********************       

reinit: Reading from standard input
reinit: Dumped input in INPUT_TMP.57250
************************** Dump of input data file ****************************
SystemName LiC6_scf
SystemLabel LiC6_scf
NumberOfAtoms   7
NumberOfSpecies 2
%block ChemicalSpeciesLabel
1  3   Li-gga
2  6   C-gga
%endblock ChemicalSpeciesLabel
PAO.BasisSize  DZP
PAO.EnergyShift  10 meV
%block PS.Lmax
C-gga   2
Li-gga  2
%endblock PS.Lmax
LatticeConstant 1.000000 Ang
%block LatticeVectors
	4.3161300000	0.0000000000	0.0000000000
	-2.1580650000	3.7378782260	0.0000000000
	0.0000000000	0.0000000000	5.1058068000
%endblock LatticeVectors
AtomicCoordinatesFormat Ang
%block AtomicCoordinatesAndAtomicSpecies
	0.00000000	0.00000000	0.00000000	2
	-0.70288177	1.21742694	2.55290340	1
	-1.45518323	2.52045129	2.55290340	1
	1.45518323	2.52045129	2.55290340	1
	0.70288177	1.21742694	2.55290340	1
	1.40576354	0.00000000	2.55290340	1
	2.91036646	0.00000000	2.55290340	1
%endblock AtomicCoordinatesAndAtomicSpecies
Kgrid_NoTRS  T
%block kgrid_MonkhorstPack
4       0       0       0.0
0       4       0       0.0
0       0       4       0.0
%endblock kgrid_MonkhorstPack
AtomCoorFormatOut Ang
BlockSize 1
#ProcessorY 12
Diag.ParallelOverK   T
Diag.DivideAndConquer F
MeshCutoff   300 Ry
SCF.FreeE.Tolerance 1E-3 eV
SCF.EDM.Tolerance   5E-3 eV
DM.Tolerance  1E-3
DM.Require.Energy.Convergence T
DM.NumberPulay 4
XC.Functional GGA
XC.Authors    PBE
UseSaveData        F
MD.TypeOfRun       CG
MD.VariableCell    F
MD.NumCGsteps      00
MD.MaxCGDispl      0.200000 Bohr
MD.MaxStressTol    1.000000 GPa
MD.MaxForceTol     0.010000 eV/Ang
WriteMDHistory T
WriteCoorStep T
WriteForces T
WriteCoorStep    T
WriteEigenValues T
WriteDM    F
MM.UnitsDistance Ang  # what this program prints out DO NOT CHANGE
MM.UnitsEnergy    eV  # what this program prints out DO NOT CHANGE
MM.Grimme.S6     0.75 # Grimme-paper for PBE (correct for your functional)
MM.Grimme.D     20.   # Grimme-paper (correct for your functional)
%block MM.Potentials
  1   1 Grimme     16.69      1.650 # Li, 10.1002/jcc.20495
  1   2 Grimme     17.40      2.277 # Li / C
  2   2 Grimme     18.14      2.904 # C, 10.1002/jcc.20495
%endblock MM.Potentials
#%block ProjectedDensityOfStates
# -200.0  120.0  0.4  12800  eV
#%endblock ProjectedDensityOfStates
************************** End of input data file *****************************

reinit: -----------------------------------------------------------------------
reinit: System Name: LiC6_scf
reinit: -----------------------------------------------------------------------
reinit: System Label: LiC6_scf
reinit: -----------------------------------------------------------------------
Reading two-body potentials
Grimme - two-body potential between 1 and 1
Grimme - two-body potential between 1 and 2
Grimme - two-body potential between 2 and 2

initatom: Reading input for the pseudopotentials and atomic orbitals ----------
Species number:   1 Atomic number:    3 Label: Li-gga
Species number:   2 Atomic number:    6 Label: C-gga

Ground state valence configuration:   2s01
Reading pseudopotential information in formatted form from Li-gga.psf

Valence configuration for pseudopotential generation:
2s( 1.00) rc: 2.28
2p( 0.00) rc: 2.28
3d( 0.00) rc: 2.59
4f( 0.00) rc: 2.59
Ground state valence configuration:   2s02  2p02
Reading pseudopotential information in formatted form from C-gga.psf

Valence configuration for pseudopotential generation:
2s( 2.00) rc: 1.56
2p( 2.00) rc: 1.56
3d( 0.00) rc: 1.56
4f( 0.00) rc: 1.56
relmxkb: Read Max KB Ang. Momentum=    2 for species C-gga
relmxkb: Read Max KB Ang. Momentum=    2 for species Li-gga

<basis_specs>
===============================================================================
Li-gga               Z=   3    Mass=  6.9400        Charge= 0.17977+309
Lmxo=0 Lmxkb= 2    BasisType=split      Semic=F
L=0  Nsemic=0  Cnfigmx=2
          i=1  nzeta=2  polorb=1  (2s)
            splnorm:   0.15000    
               vcte:    0.0000    
               rinn:    0.0000    
               qcoe:    0.0000    
               qyuk:    0.0000    
               qwid:   0.10000E-01
                rcs:    0.0000      0.0000    
            lambdas:    1.0000      1.0000    
-------------------------------------------------------------------------------
L=0  Nkbl=1  erefs: 0.17977+309
L=1  Nkbl=1  erefs: 0.17977+309
L=2  Nkbl=1  erefs: 0.17977+309
===============================================================================
</basis_specs>

atom: Called for Li-gga                (Z =   3)

read_vps: Pseudopotential generation method:
read_vps: ATM 3.2.2 Troullier-Martins                       
Valence charge for ps generation:    1.00000

read_vps: Pseudopotential includes a core correction:
read_vps: Pseudo-core for xc-correction

xc_check: Exchange-correlation functional:
xc_check: GGA Perdew, Burke & Ernzerhof 1996
V l=0 = -2*Zval/r beyond r=  2.2278
V l=1 = -2*Zval/r beyond r=  2.2278
V l=2 = -2*Zval/r beyond r=  2.5245
All V_l potentials equal beyond r=  2.4622
This should be close to max(r_c) in ps generation
All pots = -2*Zval/r beyond r=  2.5245

VLOCAL1: 99.0% of the norm of Vloc inside      7.160 Ry
VLOCAL1: 99.9% of the norm of Vloc inside     16.318 Ry
atom: Maximum radius for 4*pi*r*r*local-pseudopot. charge    2.86079
atom: Maximum radius for r*vlocal+2*Zval:    2.43160
GHOST: No ghost state for L =  0
GHOST: No ghost state for L =  1
GHOST: No ghost state for L =  2

KBgen: Kleinman-Bylander projectors: 
   l= 0   rc=  2.654023   el= -0.211234   Ekb=  1.742119   kbcos=  0.228463
   l= 1   rc=  2.721230   el= -0.080095   Ekb= -1.122375   kbcos= -0.147941
   l= 2   rc=  2.825246   el=  0.002001   Ekb= -0.207076   kbcos= -0.031965

KBgen: Total number of Kleinman-Bylander projectors:    9
atom: -------------------------------------------------------------------------

atom: SANKEY-TYPE ORBITALS:
atom: Selected multiple-zeta basis: split     

SPLIT: Orbitals with angular momentum L= 0

SPLIT: Basis orbitals for state 2s

SPLIT: PAO cut-off radius determined from an
SPLIT: energy shift=  0.000735 Ry

   izeta = 1
                 lambda =    1.000000
                     rc =   11.897381
                 energy =   -0.210580
                kinetic =    0.143382
    potential(screened) =   -0.353962
       potential(ionic) =   -0.533453

   izeta = 2
                 rmatch =    8.489163
              splitnorm =    0.150000
                 energy =   -0.186081
                kinetic =    0.225882
    potential(screened) =   -0.411964
       potential(ionic) =   -0.593024

POLgen: Perturbative polarization orbital with L=  1

POLgen: Polarization orbital for state 2s

   izeta = 1
                     rc =   11.897381
                 energy =   -0.027011
                kinetic =    0.282985
    potential(screened) =   -0.309997
       potential(ionic) =   -0.490997
atom: Total number of Sankey-type orbitals:  5

atm_pop: Valence configuration (for local Pseudopot. screening):
 2s( 1.00)                                                            
Vna: chval, zval:    1.00000   1.00000

Vna:  Cut-off radius for the neutral-atom potential:  11.897381
comcore: Pseudo-core radius Rcore=  3.450946

atom: _________________________________________________________________________

<basis_specs>
===============================================================================
C-gga                Z=   6    Mass=  12.010        Charge= 0.17977+309
Lmxo=1 Lmxkb= 2    BasisType=split      Semic=F
L=0  Nsemic=0  Cnfigmx=2
          i=1  nzeta=2  polorb=0  (2s)
            splnorm:   0.15000    
               vcte:    0.0000    
               rinn:    0.0000    
               qcoe:    0.0000    
               qyuk:    0.0000    
               qwid:   0.10000E-01
                rcs:    0.0000      0.0000    
            lambdas:    1.0000      1.0000    
L=1  Nsemic=0  Cnfigmx=2
          i=1  nzeta=2  polorb=1  (2p)
            splnorm:   0.15000    
               vcte:    0.0000    
               rinn:    0.0000    
               qcoe:    0.0000    
               qyuk:    0.0000    
               qwid:   0.10000E-01
                rcs:    0.0000      0.0000    
            lambdas:    1.0000      1.0000    
-------------------------------------------------------------------------------
L=0  Nkbl=1  erefs: 0.17977+309
L=1  Nkbl=1  erefs: 0.17977+309
L=2  Nkbl=1  erefs: 0.17977+309
===============================================================================
</basis_specs>

atom: Called for C-gga                 (Z =   6)

read_vps: Pseudopotential generation method:
read_vps: ATM 3.2.2 Troullier-Martins                       
Valence charge for ps generation:    4.00000

xc_check: Exchange-correlation functional:
xc_check: GGA Perdew, Burke & Ernzerhof 1996
V l=0 = -2*Zval/r beyond r=  1.5227
V l=1 = -2*Zval/r beyond r=  1.5227
V l=2 = -2*Zval/r beyond r=  1.5227
All V_l potentials equal beyond r=  1.4851
This should be close to max(r_c) in ps generation
All pots = -2*Zval/r beyond r=  1.5227

VLOCAL1: 99.0% of the norm of Vloc inside     19.682 Ry
VLOCAL1: 99.9% of the norm of Vloc inside     44.856 Ry
atom: Maximum radius for 4*pi*r*r*local-pseudopot. charge    1.79142
atom: Maximum radius for r*vlocal+2*Zval:    1.54183
GHOST: No ghost state for L =  0
GHOST: No ghost state for L =  1
GHOST: No ghost state for L =  2

KBgen: Kleinman-Bylander projectors: 
   l= 0   rc=  1.661951   el= -1.010689   Ekb=  5.289847   kbcos=  0.316429
   l= 1   rc=  1.661951   el= -0.388490   Ekb= -4.102504   kbcos= -0.351025
   l= 2   rc=  1.747182   el=  0.001971   Ekb= -1.006005   kbcos= -0.008530

KBgen: Total number of Kleinman-Bylander projectors:    9
atom: -------------------------------------------------------------------------

atom: SANKEY-TYPE ORBITALS:
atom: Selected multiple-zeta basis: split     

SPLIT: Orbitals with angular momentum L= 0

SPLIT: Basis orbitals for state 2s

SPLIT: PAO cut-off radius determined from an
SPLIT: energy shift=  0.000735 Ry

   izeta = 1
                 lambda =    1.000000
                     rc =    5.948690
                 energy =   -1.010099
                kinetic =    0.827121
    potential(screened) =   -1.837220
       potential(ionic) =   -5.392783

   izeta = 2
                 rmatch =    3.518811
              splitnorm =    0.150000
                 energy =   -0.877891
                kinetic =    1.289227
    potential(screened) =   -2.167118
       potential(ionic) =   -5.982073

SPLIT: Orbitals with angular momentum L= 1

SPLIT: Basis orbitals for state 2p

SPLIT: PAO cut-off radius determined from an
SPLIT: energy shift=  0.000735 Ry

   izeta = 1
                 lambda =    1.000000
                     rc =    7.638387
                 energy =   -0.387843
                kinetic =    2.314739
    potential(screened) =   -2.702582
       potential(ionic) =   -6.092371

   izeta = 2
                 rmatch =    3.840617
              splitnorm =    0.150000
                 energy =   -0.270479
                kinetic =    3.438347
    potential(screened) =   -3.708826
       potential(ionic) =   -7.497707

POLgen: Perturbative polarization orbital with L=  2

POLgen: Polarization orbital for state 2p

   izeta = 1
                     rc =    7.638387
                 energy =    0.921402
                kinetic =    1.955040
    potential(screened) =   -1.033637
       potential(ionic) =   -3.679558
atom: Total number of Sankey-type orbitals: 13

atm_pop: Valence configuration (for local Pseudopot. screening):
 2s( 2.00)                                                            
 2p( 2.00)                                                            
Vna: chval, zval:    4.00000   4.00000

Vna:  Cut-off radius for the neutral-atom potential:   7.638387

atom: _________________________________________________________________________

prinput: Basis input ----------------------------------------------------------

PAO.BasisType split     

%block ChemicalSpeciesLabel
    1    3 Li-gga                  # Species index, atomic number, species label
    2    6 C-gga                   # Species index, atomic number, species label
%endblock ChemicalSpeciesLabel

%block PAO.Basis                 # Define Basis set
Li-gga                1                    # Species label, number of l-shells
 n=2   0   2 P   1                   # n, l, Nzeta, Polarization, NzetaPol
  11.897      8.489   
   1.000      1.000   
C-gga                 2                    # Species label, number of l-shells
 n=2   0   2                         # n, l, Nzeta 
   5.949      3.519   
   1.000      1.000   
 n=2   1   2 P   1                   # n, l, Nzeta, Polarization, NzetaPol
   7.638      3.841   
   1.000      1.000   
%endblock PAO.Basis

prinput: ----------------------------------------------------------------------

coor:   Atomic-coordinates input format  =     Cartesian coordinates
coor:                                          (in Angstroms)

siesta: Atomic coordinates (Bohr) and species
siesta:      0.00000   0.00000   0.00000  2        1
siesta:     -1.32825   2.30060   4.82429  1        2
siesta:     -2.74990   4.76296   4.82429  1        3
siesta:      2.74990   4.76296   4.82429  1        4
siesta:      1.32825   2.30060   4.82429  1        5
siesta:      2.65651   0.00000   4.82429  1        6
siesta:      5.49980   0.00000   4.82429  1        7

siesta: System type = bulk      

initatomlists: Number of atoms, orbitals, and projectors:      7    43    63

siesta: ******************** Simulation parameters ****************************
siesta:
siesta: The following are some of the parameters of the simulation.
siesta: A complete list of the parameters used, including default values,
siesta: can be found in file out.fdf
siesta:
redata: Spin configuration                          = none
redata: Number of spin components                   = 1
redata: Time-Reversal Symmetry                      = T
redata: Spin spiral                                 = F
redata: Long output                                 =   F
redata: Number of Atomic Species                    =        2
redata: Charge density info will appear in .RHO file
redata: Write Mulliken Pop.                         = NO
redata: Matel table size (NRTAB)                    =     1024
redata: Mesh Cutoff                                 =   300.0000 Ry
redata: Net charge of the system                    =     0.0000 |e|
redata: Min. number of SCF Iter                     =        0
redata: Max. number of SCF Iter                     =     1000
redata: SCF convergence failure will abort job
redata: SCF mix quantity                            = Hamiltonian
redata: Mix DM or H after convergence               =   F
redata: Recompute H after scf cycle                 =   F
redata: Mix DM in first SCF step                    =   T
redata: Write Pulay info on disk                    =   F
redata: New DM Occupancy tolerance                  = 0.000000000001
redata: No kicks to SCF
redata: DM Mixing Weight for Kicks                  =     0.5000
redata: Require Harris convergence for SCF          =   F
redata: Harris energy tolerance for SCF             =     0.000100 eV
redata: Require DM convergence for SCF              =   T
redata: DM tolerance for SCF                        =     0.001000
redata: Require EDM convergence for SCF             =   F
redata: EDM tolerance for SCF                       =     0.005000 eV
redata: Require H convergence for SCF               =   T
redata: Hamiltonian tolerance for SCF               =     0.001000 eV
redata: Require (free) Energy convergence for SCF   =   T
redata: (free) Energy tolerance for SCF             =     0.001000 eV
redata: Using Saved Data (generic)                  =   F
redata: Use continuation files for DM               =   F
redata: Neglect nonoverlap interactions             =   F
redata: Method of Calculation                       = Diagonalization
redata: Electronic Temperature                      =   299.9869 K
redata: Fix the spin of the system                  =   F
redata: Dynamics option                             = Single-point calculation
mix.SCF: Pulay mixing                            = Pulay
mix.SCF:    Variant                              = stable
mix.SCF:    History steps                        = 4
mix.SCF:    Linear mixing weight                 =     0.250000
mix.SCF:    Mixing weight                        =     0.250000
mix.SCF:    SVD condition                        = 0.1000E-07
redata: ***********************************************************************

%block SCF.Mixers
  Pulay
%endblock SCF.Mixers

%block SCF.Mixer.Pulay
  # Mixing method
  method pulay
  variant stable

  # Mixing options
  weight 0.2500
  weight.linear 0.2500
  history 4
%endblock SCF.Mixer.Pulay

DM_history_depth set to one: no extrapolation allowed by default for geometry relaxation
Size of DM history Fstack: 1
Total number of electrons:    10.000000
Total ionic charge:    10.000000

* ProcessorY, Blocksize:    2   1


* Orbital distribution balance (max,min):    11    10

k-point displ. along   1 input, could be:     0.00    0.50
k-point displ. along   2 input, could be:     0.00    0.50
k-point displ. along   3 input, could be:     0.00    0.50
 Kpoints in:           48 . Kpoints trimmed:           44

siesta: k-grid: Number of k-points =    44
siesta: k-grid: Cutoff (effective) =     8.632 Ang
siesta: k-grid: Supercell and displacements
siesta: k-grid:    4   0   0      0.000
siesta: k-grid:    0   4   0      0.000
siesta: k-grid:    0   0   4      0.000

diag: Algorithm                                     = Expert
diag: Parallel over k                               =   T
diag: Use parallel 2D distribution                  =   T
diag: Parallel block-size                           = 1
diag: Parallel distribution                         =     2 x     2
diag: Used triangular part                          = Lower
diag: Absolute tolerance                            =  0.100E-15
diag: Orthogonalization factor                      =  0.100E-05
diag: Memory factor                                 =  1.0000

superc: Internal auxiliary supercell:     9 x     9 x     5  =     405
superc: Number of atoms, orbitals, and projectors:   2835  17415  25515


ts: **************************************************************
ts: Save H and S matrices                           =    F
ts: Save DM and EDM matrices                        =    F
ts: Only save the overlap matrix S                  =    F
ts: **************************************************************

************************ Begin: TS CHECKS AND WARNINGS ************************
************************ End: TS CHECKS AND WARNINGS **************************


                     ====================================
                        Single-point calculation
                     ====================================

outcoor: Atomic coordinates (Ang):                          
    0.00000000    0.00000000    0.00000000   2       1  C-gga
   -0.70288177    1.21742694    2.55290340   1       2  Li-gga
   -1.45518323    2.52045129    2.55290340   1       3  Li-gga
    1.45518323    2.52045129    2.55290340   1       4  Li-gga
    0.70288177    1.21742694    2.55290340   1       5  Li-gga
    1.40576354    0.00000000    2.55290340   1       6  Li-gga
    2.91036646    0.00000000    2.55290340   1       7  Li-gga

superc: Internal auxiliary supercell:     9 x     9 x     5  =     405
superc: Number of atoms, orbitals, and projectors:   2835  17415  25515

outcell: Unit cell vectors (Ang):
        4.316130    0.000000    0.000000
       -2.158065    3.737878    0.000000
        0.000000    0.000000    5.105807

outcell: Cell vector modules (Ang)   :    4.316130    4.316130    5.105807
outcell: Cell angles (23,13,12) (deg):     90.0000     90.0000    120.0000
outcell: Cell volume (Ang**3)        :     82.3728
<dSpData1D:S at geom step 0
  <sparsity:sparsity for geom step 0
    nrows_g=43 nrows=11 sparsity=25.8670 nnzs=47828, refcount: 7>
  <dData1D:(new from dSpData1D) n=47828, refcount: 1>
refcount: 1>
new_DM -- step:     1
Initializing Density Matrix...
DM filled with atomic data:
<dSpData2D:DM initialized from atoms
  <sparsity:sparsity for geom step 0
    nrows_g=43 nrows=11 sparsity=25.8670 nnzs=47828, refcount: 8>
  <dData2D:DM n=47828 m=1, refcount: 1>
refcount: 1>
No. of atoms with KB's overlaping orbs in proc 0. Max # of overlaps:     255     758
New grid distribution:   1
           1       1:   20    1:   10    1:   14
           2       1:   20    1:   10   15:   27
           3       1:   20   11:   20    1:   14
           4       1:   20   11:   20   15:   27

InitMesh: MESH =    40 x    40 x    54 =       86400
InitMesh: (bp) =    20 x    20 x    27 =       10800
InitMesh: Mesh cutoff (required, used) =   300.000   309.144 Ry
ExtMesh (bp) on 0 =   156 x   146 x   150 =     3416400
New grid distribution:   2
           1       1:   20    1:   10    1:   13
           2       1:   20    1:   10   14:   27
           3       1:   20   11:   20    1:   13
           4       1:   20   11:   20   14:   27
New grid distribution:   3
           1       1:   20    1:   10    1:   14
           2       1:   20    1:   10   15:   27
           3       1:   20   11:   20    1:   14
           4       1:   20   11:   20   15:   27
Setting up quadratic distribution...
ExtMesh (bp) on 0 =   156 x   146 x   149 =     3393624
PhiOnMesh: Number of (b)points on node 0 =                 2600
PhiOnMesh: nlist on node 0 =               979295

stepf: Fermi-Dirac step function

siesta: Program's energy decomposition (eV):
siesta: Ebs     =      -136.297179
siesta: Eions   =       321.344870
siesta: Ena     =        94.950732
siesta: Ekin    =        93.987640
siesta: Enl     =        25.398641
siesta: Eso     =         0.000000
siesta: Edftu   =         0.000000
siesta: DEna    =         9.221502
siesta: DUscf   =        16.795983
siesta: DUext   =         0.000000
siesta: Exc     =       -90.840211
siesta: eta*DQ  =         0.000000
siesta: Emadel  =         0.000000
siesta: Emeta   =         0.000000
siesta: Emolmec =        -2.689328
siesta: Ekinion =         0.000000
siesta: Eharris =      -150.645470
siesta: Etot    =      -174.519912
siesta: FreeEng =      -174.522108

        iscf     Eharris(eV)        E_KS(eV)     FreeEng(eV)     dDmax    Ef(eV) dHmax(eV)
   scf:    1     -150.645470     -174.519912     -174.522108 40.356167 -9.490028 13.496477
timer: Routine,Calls,Time,% = IterSCF        1      10.352  60.23
   scf:    2     -150.209941     -177.132156     -177.147232 23.361382-10.591867 11.476644
   scf:    3     -169.457975     -181.614973     -181.620691 13.910731-10.148794  6.625436
   scf:    4     -144.699776     -173.910689     -173.924827 16.934224-10.489184 13.384972
   scf:    5     -177.689767     -183.507725     -183.511230 12.189600-10.130220  3.682386
   scf:    6     -184.305590     -183.953572     -183.957825  1.166852-10.129688  2.208751
   scf:    7     -182.892731     -183.475354     -183.478906  1.380209-10.133441  3.755931
   scf:    8     -176.838550     -182.427036     -182.445670  6.968268-10.297475  5.445239
   scf:    9     -181.802580     -182.120470     -182.140690  0.433167-10.310656  5.893254
   scf:   10     -184.504690     -184.220385     -184.232302  4.744348-10.201576  0.269437
   scf:   11     -179.780258     -182.732712     -182.738591  5.428605-10.210854  5.058589
   scf:   12     -184.247486     -184.220858     -184.232851  5.506996-10.191047  0.221721
   scf:   13     -183.539002     -184.008519     -184.014177  1.344727-10.158503  1.922068
   scf:   14     -177.392954     -182.311555     -182.330705  5.794750-10.300383  5.604662
   scf:   15     -184.149357     -184.219365     -184.230808  4.777757-10.181568  0.307592
   scf:   16     -184.218946     -184.219157     -184.230601  0.008425-10.182042  0.312516
   scf:   17     -184.220804     -184.219999     -184.231485  0.008568-10.183289  0.285649
   scf:   18     -184.223696     -184.223983     -184.235920  0.079507-10.199094  0.015188
   scf:   19     -184.223998     -184.223991     -184.235931  0.005238-10.199678  0.003773
   scf:   20     -184.223973     -184.223982     -184.235932  0.001613-10.200320  0.000156
   scf:   21     -184.223978     -184.223980     -184.235932  0.000501-10.200354  0.000180

SCF Convergence by FreeE+DM+H criterion
|FreeE_i-FreeE_(i-1)| (eV) <     0.00100000
max |DM_out - DM_in|         :     0.0005006019
max |H_out - H_in|      (eV) :     0.0001800278
SCF cycle converged after 21 iterations

Using DM_out to compute the final energy and forces
No. of atoms with KB's overlaping orbs in proc 0. Max # of overlaps:     255     758

MM-Stress (kbar):       -6.72       -6.72       32.23        0.00        0.00       -0.00

siesta: E_KS(eV) =             -184.2240

siesta: E_KS - E_eggbox =      -184.2240

siesta: Atomic forces (eV/Ang):
     1    0.000000    0.000000   -0.000000
     2    0.041436   -0.071767    0.000000
     3   -0.041436    0.071767    0.000000
     4    0.041410    0.071725    0.000000
     5   -0.041410   -0.071725    0.000000
     6   -0.082870    0.000001    0.000000
     7    0.082870   -0.000001    0.000000
----------------------------------------
   Tot   -0.000000   -0.000000    0.000000
----------------------------------------
   Max    0.082870
   Res    0.044287    sqrt( Sum f_i^2 / 3N )
----------------------------------------
   Max    0.082870    constrained

Stress tensor Voigt[x,y,z,yz,xz,xy] (kbar):     -722.03     -722.04      294.17       -0.00       -0.00       -0.01
(Free)E + p*V (eV/cell)     -164.5295
Target enthalpy (eV/cell)     -184.2359

siesta: Eigenvalues (eV):
  ik is       eps
   1  1  -18.8336  -12.4144  -12.0315  -11.4539  -10.6894   -9.5321   -9.5208   -7.7992   -6.2490   -3.8434
          -3.4044   -2.1202   -0.7892    1.8680    2.1424    2.8734    3.5814    4.8701    5.3057    8.0579
    8.4805   13.2135   13.5532   16.6253   17.4071   20.3241   21.8464   22.7295   24.0973   24.3687
   25.4161   26.6058   27.5022   28.1271   30.4434   42.0792   46.7957   49.0568   53.9645   59.3170
   66.7770   67.0408   81.3252
   2  1  -18.9509  -12.4596  -12.3671  -10.8196  -10.6720  -10.0530   -9.6642   -7.5550   -4.1885   -3.6951
          -3.0470   -2.9728   -1.8813   -0.9089   -0.4570   -0.0238    3.2903    4.0647    7.7600    9.7143
   11.0115   11.8279   12.4963   13.9472   15.1214   21.7265   23.6106   24.1731   24.5498   24.9981
   25.5614   26.0251   27.6524   28.3320   31.1473   35.4811   39.2775   47.9031   51.9389   53.9636
   73.6498   74.2849   85.0302
   3  1  -18.9509  -12.4596  -12.3671  -10.8196  -10.6720  -10.0531   -9.6641   -7.5550   -4.1885   -3.6951
          -3.0470   -2.9727   -1.8813   -0.9089   -0.4570   -0.0239    3.2903    4.0647    7.7599    9.7143
   11.0115   11.8279   12.4963   13.9471   15.1214   21.7266   23.6108   24.1731   24.5498   24.9982
   25.5615   26.0249   27.6524   28.3320   31.1473   35.4811   39.2774   47.9031   51.9388   53.9636
   73.6498   74.2849   85.0302
   4  1  -18.8336  -12.4144  -12.0315  -11.4540  -10.6894   -9.5322   -9.5207   -7.7992   -6.2490   -3.8434
          -3.4043   -2.1202   -0.7891    1.8680    2.1425    2.8734    3.5814    4.8701    5.3057    8.0580
    8.4805   13.2135   13.5532   16.6252   17.4071   20.3242   21.8464   22.7295   24.0973   24.3686
   25.4160   26.6058   27.5022   28.1271   30.4435   42.0792   46.7958   49.0569   53.9646   59.3169
   66.7770   67.0408   81.3252
   5  1  -18.9509  -12.4596  -12.3671  -10.8196  -10.6720  -10.0530   -9.6642   -7.5550   -4.1885   -3.6951
          -3.0470   -2.9728   -1.8813   -0.9089   -0.4570   -0.0238    3.2903    4.0647    7.7600    9.7143
   11.0115   11.8279   12.4963   13.9472   15.1214   21.7265   23.6106   24.1731   24.5498   24.9981
   25.5614   26.0251   27.6524   28.3320   31.1473   35.4811   39.2775   47.9031   51.9389   53.9636
   73.6498   74.2849   85.0302
   6  1  -19.0105  -12.7515  -11.9411  -10.5132   -9.9649   -9.9101   -9.9099   -7.1774   -3.7273   -3.7273
          -2.6172   -1.8847   -1.8847   -1.3638   -1.3638   -0.2844   -0.2844    8.4589    8.4591    8.7890
   11.7751   11.7752   15.4562   18.0849   18.0850   24.8425   24.9174   24.9174   25.7147   27.0913
   27.0915   28.7311   28.7312   36.4227   36.4228   46.1372   48.2634   53.7747   57.8777   57.8781
   60.6856   78.5999   78.6000
   7  1  -18.8357  -12.6137  -12.0205  -11.0556  -10.6976  -10.1844   -9.3561   -8.1849   -5.5050   -3.7038
          -3.6920   -1.2707   -0.2324   -0.0181    1.1822    1.8105    2.4902    2.5619    4.6459    7.5554
   10.0920   15.5287   16.3760   16.6644   18.0193   19.1514   20.4277   21.0542   21.9231   24.9044
   26.1019   27.4359   28.1274   28.6784   29.5072   29.9081   40.1165   49.4679   56.3411   58.1787
   63.2724   77.1173   82.6794
   8  1  -18.8336  -12.4144  -12.0315  -11.4540  -10.6894   -9.5322   -9.5207   -7.7992   -6.2490   -3.8434
          -3.4043   -2.1202   -0.7891    1.8680    2.1425    2.8734    3.5814    4.8701    5.3057    8.0580
    8.4805   13.2135   13.5532   16.6252   17.4071   20.3242   21.8464   22.7295   24.0973   24.3686
   25.4160   26.6058   27.5022   28.1271   30.4435   42.0792   46.7958   49.0569   53.9646   59.3169
   66.7770   67.0408   81.3252
   9  1  -18.8336  -12.4144  -12.0315  -11.4540  -10.6894   -9.5322   -9.5207   -7.7992   -6.2490   -3.8434
          -3.4043   -2.1202   -0.7891    1.8680    2.1425    2.8734    3.5814    4.8701    5.3057    8.0580
    8.4805   13.2135   13.5532   16.6252   17.4071   20.3242   21.8464   22.7295   24.0973   24.3686
   25.4160   26.6058   27.5022   28.1271   30.4435   42.0792   46.7958   49.0569   53.9646   59.3169
   66.7770   67.0408   81.3252
  10  1  -18.8357  -12.6137  -12.0205  -11.0556  -10.6976  -10.1844   -9.3561   -8.1849   -5.5050   -3.7038
          -3.6920   -1.2707   -0.2324   -0.0181    1.1822    1.8105    2.4902    2.5619    4.6459    7.5554
   10.0920   15.5287   16.3760   16.6644   18.0193   19.1514   20.4277   21.0542   21.9231   24.9044
   26.1019   27.4359   28.1274   28.6784   29.5072   29.9081   40.1165   49.4679   56.3411   58.1787
   63.2724   77.1173   82.6793
  11  1  -18.8336  -12.4144  -12.0315  -11.4540  -10.6894   -9.5322   -9.5207   -7.7992   -6.2490   -3.8434
          -3.4043   -2.1202   -0.7891    1.8680    2.1425    2.8734    3.5814    4.8701    5.3057    8.0580
    8.4805   13.2135   13.5532   16.6252   17.4071   20.3242   21.8464   22.7295   24.0973   24.3686
   25.4160   26.6058   27.5022   28.1271   30.4435   42.0792   46.7958   49.0569   53.9646   59.3169
   66.7770   67.0408   81.3252
  12  1  -18.8357  -12.6137  -12.0205  -11.0556  -10.6976  -10.1845   -9.3560   -8.1849   -5.5050   -3.7038
          -3.6920   -1.2707   -0.2323   -0.0181    1.1823    1.8105    2.4901    2.5619    4.6459    7.5552
   10.0920   15.5287   16.3757   16.6643   18.0193   19.1514   20.4277   21.0542   21.9231   24.9044
   26.1022   27.4359   28.1273   28.6784   29.5072   29.9081   40.1165   49.4679   56.3411   58.1789
   63.2724   77.1172   82.6793
  13  1  -18.8096  -12.8700  -12.1623  -11.2450  -10.3288  -10.0014   -9.2749   -7.3304   -5.9754   -4.4639
          -3.2764   -2.6205   -0.3903    1.7539    2.4168    2.4633    2.5085    4.0608    6.5764    7.8367
    9.1186   12.2162   13.4020   15.2602   15.5421   16.7489   20.0037   22.2749   22.9838   24.5537
   25.4658   27.1061   28.8477   29.8067   30.1556   38.3398   43.8533   46.6286   49.4707   58.2366
   62.2935   65.8329   69.8107
  14  1  -18.9347  -13.1164  -12.1558  -10.5139  -10.2908  -10.0548   -9.5814   -7.4845   -4.3611   -3.9750
          -2.9695   -2.5134   -1.4705   -0.8693   -0.5688   -0.1315    3.4592    7.0879   10.1893   10.2251
   11.0834   12.6145   12.7065   13.9885   16.2300   19.2699   20.8069   24.1607   24.8296   25.2021
   25.5109   27.1842   27.4984   30.7440   31.1755   34.7379   44.2550   49.3757   52.7515   55.4212
   57.1414   69.5330   83.9399
  15  1  -18.9347  -13.1164  -12.1557  -10.5139  -10.2908  -10.0549   -9.5814   -7.4845   -4.3611   -3.9750
          -2.9694   -2.5135   -1.4704   -0.8693   -0.5688   -0.1316    3.4592    7.0880   10.1892   10.2251
   11.0834   12.6145   12.7065   13.9885   16.2298   19.2699   20.8068   24.1608   24.8296   25.2020
   25.5111   27.1842   27.4985   30.7439   31.1755   34.7379   44.2550   49.3757   52.7515   55.4213
   57.1414   69.5329   83.9399
  16  1  -18.8096  -12.8700  -12.1623  -11.2450  -10.3288  -10.0015   -9.2749   -7.3303   -5.9754   -4.4639
          -3.2764   -2.6205   -0.3902    1.7539    2.4168    2.4633    2.5085    4.0608    6.5763    7.8367
    9.1186   12.2162   13.4020   15.2604   15.5420   16.7489   20.0036   22.2748   22.9839   24.5535
   25.4658   27.1061   28.8477   29.8067   30.1556   38.3399   43.8533   46.6286   49.4708   58.2366
   62.2935   65.8329   69.8108
  17  1  -18.9347  -13.1164  -12.1558  -10.5139  -10.2908  -10.0548   -9.5814   -7.4845   -4.3611   -3.9750
          -2.9695   -2.5134   -1.4705   -0.8693   -0.5688   -0.1315    3.4592    7.0879   10.1893   10.2251
   11.0834   12.6145   12.7065   13.9885   16.2300   19.2699   20.8069   24.1607   24.8296   25.2021
   25.5109   27.1842   27.4984   30.7440   31.1755   34.7379   44.2550   49.3757   52.7515   55.4213
   57.1414   69.5330   83.9399
  18  1  -19.0344  -13.0205  -11.9108  -10.2170   -9.9050   -9.9049   -9.7980   -7.1292   -3.4613   -3.4613
          -2.6091   -2.6091   -1.5567   -0.8291   -0.8290   -0.0733   -0.0732   10.4145   12.4186   12.4187
   12.4910   12.6689   12.6691   20.2547   20.2547   21.2255   21.2255   25.3015   25.4724   25.4726
   26.0301   29.9641   29.9641   37.9595   37.9595   38.5087   47.3850   49.5073   72.2959   72.2960
   76.0682   76.0682   85.0509
  19  1  -18.9347  -13.1164  -12.1558  -10.5139  -10.2908  -10.0548   -9.5814   -7.4845   -4.3611   -3.9750
          -2.9695   -2.5134   -1.4705   -0.8693   -0.5688   -0.1315    3.4592    7.0879   10.1893   10.2251
   11.0834   12.6145   12.7065   13.9885   16.2300   19.2699   20.8069   24.1607   24.8296   25.2021
   25.5109   27.1842   27.4984   30.7440   31.1755   34.7379   44.2550   49.3757   52.7515   55.4213
   57.1414   69.5330   83.9399
  20  1  -18.8095  -12.9018  -12.3478  -10.7562  -10.3469  -10.1932   -9.4250   -7.3183   -6.2851   -4.3181
          -2.7816   -1.7890   -0.4283    0.2091    2.2071    2.3179    2.5260    3.5291    3.8485    8.3416
   10.6749   11.0631   13.4430   13.9451   14.7720   19.7055   20.8445   22.4679   22.7501   22.8791
   25.5538   27.1906   27.6750   29.5371   30.0322   31.4703   48.7569   49.8879   55.3084   57.5658
   58.4947   61.6838   61.7245
  21  1  -18.9347  -13.1164  -12.1557  -10.5139  -10.2908  -10.0549   -9.5814   -7.4845   -4.3611   -3.9750
          -2.9694   -2.5135   -1.4704   -0.8693   -0.5688   -0.1316    3.4592    7.0880   10.1892   10.2251
   11.0834   12.6145   12.7065   13.9885   16.2298   19.2699   20.8068   24.1608   24.8296   25.2020
   25.5111   27.1842   27.4985   30.7439   31.1755   34.7379   44.2550   49.3757   52.7515   55.4213
   57.1414   69.5329   83.9399
  22  1  -18.9347  -13.1164  -12.1558  -10.5139  -10.2908  -10.0548   -9.5814   -7.4845   -4.3611   -3.9750
          -2.9695   -2.5134   -1.4705   -0.8693   -0.5688   -0.1315    3.4592    7.0879   10.1893   10.2251
   11.0834   12.6145   12.7065   13.9885   16.2300   19.2699   20.8069   24.1607   24.8296   25.2021
   25.5109   27.1842   27.4984   30.7440   31.1755   34.7379   44.2550   49.3757   52.7515   55.4212
   57.1414   69.5330   83.9399
  23  1  -18.8096  -12.8700  -12.1623  -11.2450  -10.3288  -10.0014   -9.2749   -7.3304   -5.9754   -4.4639
          -3.2764   -2.6205   -0.3903    1.7539    2.4168    2.4633    2.5085    4.0608    6.5764    7.8367
    9.1186   12.2162   13.4020   15.2602   15.5421   16.7489   20.0037   22.2749   22.9838   24.5537
   25.4658   27.1061   28.8477   29.8067   30.1556   38.3398   43.8533   46.6286   49.4707   58.2366
   62.2935   65.8329   69.8107
  24  1  -18.8096  -12.8700  -12.1623  -11.2450  -10.3288  -10.0015   -9.2749   -7.3303   -5.9754   -4.4639
          -3.2764   -2.6205   -0.3902    1.7539    2.4168    2.4633    2.5085    4.0608    6.5763    7.8367
    9.1186   12.2162   13.4020   15.2604   15.5420   16.7489   20.0036   22.2748   22.9839   24.5535
   25.4658   27.1061   28.8477   29.8067   30.1556   38.3399   43.8533   46.6286   49.4708   58.2366
   62.2935   65.8329   69.8108
  25  1  -18.8096  -12.8700  -12.1623  -11.2450  -10.3288  -10.0015   -9.2749   -7.3303   -5.9754   -4.4639
          -3.2764   -2.6205   -0.3902    1.7539    2.4168    2.4633    2.5085    4.0608    6.5763    7.8367
    9.1186   12.2162   13.4020   15.2604   15.5420   16.7489   20.0036   22.2748   22.9839   24.5535
   25.4658   27.1061   28.8477   29.8067   30.1556   38.3399   43.8532   46.6286   49.4708   58.2366
   62.2935   65.8329   69.8108
  26  1  -18.8095  -12.9018  -12.3478  -10.7562  -10.3469  -10.1932   -9.4250   -7.3183   -6.2851   -4.3181
          -2.7816   -1.7890   -0.4283    0.2091    2.2071    2.3179    2.5260    3.5291    3.8485    8.3416
   10.6749   11.0631   13.4430   13.9451   14.7720   19.7055   20.8445   22.4679   22.7501   22.8791
   25.5538   27.1906   27.6750   29.5371   30.0323   31.4703   48.7569   49.8879   55.3084   57.5658
   58.4947   61.6838   61.7245
  27  1  -18.8096  -12.8700  -12.1623  -11.2450  -10.3288  -10.0015   -9.2749   -7.3303   -5.9754   -4.4639
          -3.2764   -2.6205   -0.3902    1.7539    2.4168    2.4633    2.5085    4.0608    6.5763    7.8367
    9.1186   12.2162   13.4020   15.2604   15.5420   16.7489   20.0036   22.2748   22.9839   24.5535
   25.4658   27.1061   28.8477   29.8067   30.1556   38.3399   43.8532   46.6286   49.4708   58.2366
   62.2935   65.8329   69.8108
  28  1  -18.8095  -12.9018  -12.3478  -10.7562  -10.3469  -10.1933   -9.4250   -7.3183   -6.2851   -4.3181
          -2.7817   -1.7890   -0.4283    0.2091    2.2071    2.3179    2.5260    3.5291    3.8485    8.3415
   10.6749   11.0631   13.4430   13.9451   14.7720   19.7056   20.8444   22.4680   22.7499   22.8792
   25.5538   27.1909   27.6748   29.5372   30.0323   31.4703   48.7569   49.8879   55.3084   57.5660
   58.4946   61.6838   61.7244
  29  1  -18.7721  -13.3451  -11.3493  -11.3234  -10.8069  -10.6513   -7.4885   -7.2191   -5.6353   -5.0271
          -3.3212   -3.1661    0.3515    1.9508    2.1118    2.2265    2.9299    6.9662    8.0579    8.5581
    9.0639    9.6938    9.9577   10.9064   13.7149   20.4492   20.7810   22.8384   23.2309   24.0627
   24.5499   29.3610   29.9082   30.0775   36.2509   43.4620   45.7736   47.5513   50.2161   67.2699
   70.4104   74.6095   82.4157
  30  1  -18.8744  -13.5969  -11.3964  -10.9815  -10.1563  -10.0473   -8.1826   -7.4682   -4.3848   -4.2145
          -3.1372   -1.6423   -1.1952   -1.0102   -0.5762    3.7433    5.4078    8.3409   10.5112   11.1202
   12.3409   13.1984   14.0426   14.1992   15.5010   18.8786   20.1019   20.4467   23.5173   26.6448
   26.7296   30.7425   32.5370   34.9607   42.0221   45.5435   50.2561   51.5304   52.6225   62.5011
   69.0852   69.8105   85.4292
  31  1  -18.8744  -13.5969  -11.3964  -10.9814  -10.1563  -10.0474   -8.1825   -7.4682   -4.3848   -4.2145
          -3.1372   -1.6424   -1.1952   -1.0102   -0.5762    3.7433    5.4078    8.3409   10.5112   11.1203
   12.3409   13.1984   14.0426   14.1991   15.5010   18.8788   20.1016   20.4468   23.5172   26.6448
   26.7296   30.7425   32.5369   34.9606   42.0222   45.5435   50.2561   51.5304   52.6226   62.5011
   69.0851   69.8105   85.4292
  32  1  -18.7721  -13.3451  -11.3492  -11.3234  -10.8069  -10.6513   -7.4885   -7.2190   -5.6354   -5.0271
          -3.3212   -3.1661    0.3515    1.9508    2.1118    2.2265    2.9299    6.9662    8.0579    8.5581
    9.0639    9.6938    9.9576   10.9064   13.7149   20.4492   20.7813   22.8384   23.2306   24.0626
   24.5499   29.3610   29.9083   30.0775   36.2510   43.4620   45.7735   47.5513   50.2161   67.2699
   70.4103   74.6095   82.4157
  33  1  -18.8744  -13.5969  -11.3964  -10.9815  -10.1563  -10.0473   -8.1826   -7.4682   -4.3848   -4.2145
          -3.1372   -1.6423   -1.1952   -1.0102   -0.5762    3.7433    5.4078    8.3409   10.5112   11.1202
   12.3409   13.1984   14.0426   14.1992   15.5010   18.8786   20.1019   20.4467   23.5173   26.6448
   26.7296   30.7425   32.5370   34.9607   42.0221   45.5435   50.2561   51.5304   52.6225   62.5011
   69.0851   69.8105   85.4292
  34  1  -18.9816  -13.7977  -11.2173   -9.8852   -9.8851   -9.6195   -9.2425   -7.3632   -3.0670   -3.0670
          -2.9313   -2.9313   -1.1165   -1.1165    1.9270    1.9271    5.4302    7.3253   12.7661   14.5632
   14.5632   16.8740   16.8741   19.0255   19.0259   20.0930   20.0931   21.5337   21.5337   24.6937
   26.4578   29.4264   29.4264   34.7140   38.7315   38.7316   47.9925   50.3552   61.9380   64.3665
   64.3665   99.8363   99.8364
  35  1  -18.8744  -13.5969  -11.3964  -10.9815  -10.1563  -10.0473   -8.1826   -7.4682   -4.3848   -4.2145
          -3.1372   -1.6423   -1.1952   -1.0102   -0.5762    3.7433    5.4078    8.3409   10.5112   11.1202
   12.3409   13.1984   14.0426   14.1992   15.5010   18.8786   20.1019   20.4467   23.5173   26.6448
   26.7296   30.7425   32.5370   34.9607   42.0221   45.5435   50.2561   51.5304   52.6225   62.5011
   69.0851   69.8105   85.4292
  36  1  -18.7700  -13.3858  -11.6002  -11.5202  -10.4972  -10.2002   -7.5599   -7.3642   -6.3313   -4.5744
          -2.8069   -2.0348   -0.4407   -0.1329    1.8959    2.3313    2.4963    7.4590    8.6624    8.9101
   10.4075   10.7492   11.7306   13.1043   13.5169   16.3980   18.9765   22.8900   25.2909   25.4259
   26.5490   27.4555   28.2075   32.3352   40.1717   44.4433   50.5939   52.2057   55.6951   59.0506
   64.3156   88.5489  106.2875
  37  1  -18.8744  -13.5969  -11.3964  -10.9814  -10.1563  -10.0474   -8.1825   -7.4682   -4.3848   -4.2145
          -3.1372   -1.6424   -1.1952   -1.0102   -0.5762    3.7433    5.4078    8.3409   10.5112   11.1203
   12.3409   13.1984   14.0426   14.1991   15.5010   18.8788   20.1016   20.4468   23.5172   26.6448
   26.7296   30.7425   32.5369   34.9606   42.0222   45.5435   50.2561   51.5304   52.6226   62.5011
   69.0851   69.8105   85.4292
  38  1  -18.8744  -13.5969  -11.3964  -10.9815  -10.1563  -10.0473   -8.1826   -7.4682   -4.3848   -4.2145
          -3.1372   -1.6423   -1.1952   -1.0102   -0.5762    3.7433    5.4078    8.3409   10.5112   11.1202
   12.3409   13.1984   14.0426   14.1992   15.5010   18.8786   20.1019   20.4467   23.5173   26.6448
   26.7296   30.7425   32.5370   34.9607   42.0221   45.5435   50.2561   51.5304   52.6225   62.5011
   69.0852   69.8105   85.4292
  39  1  -18.7721  -13.3451  -11.3493  -11.3234  -10.8069  -10.6513   -7.4885   -7.2191   -5.6353   -5.0271
          -3.3212   -3.1661    0.3515    1.9508    2.1118    2.2265    2.9299    6.9662    8.0579    8.5581
    9.0639    9.6938    9.9577   10.9064   13.7149   20.4492   20.7810   22.8384   23.2309   24.0627
   24.5499   29.3610   29.9082   30.0775   36.2509   43.4620   45.7736   47.5513   50.2161   67.2699
   70.4104   74.6095   82.4157
  40  1  -18.7721  -13.3451  -11.3492  -11.3234  -10.8069  -10.6513   -7.4885   -7.2190   -5.6354   -5.0271
          -3.3212   -3.1661    0.3515    1.9508    2.1118    2.2265    2.9299    6.9662    8.0579    8.5581
    9.0639    9.6938    9.9576   10.9064   13.7149   20.4492   20.7813   22.8384   23.2306   24.0626
   24.5499   29.3610   29.9083   30.0775   36.2510   43.4620   45.7735   47.5513   50.2161   67.2699
   70.4103   74.6095   82.4157
  41  1  -18.7721  -13.3451  -11.3492  -11.3234  -10.8069  -10.6513   -7.4885   -7.2190   -5.6354   -5.0271
          -3.3212   -3.1661    0.3515    1.9508    2.1118    2.2265    2.9299    6.9662    8.0579    8.5581
    9.0639    9.6938    9.9576   10.9064   13.7149   20.4492   20.7813   22.8384   23.2306   24.0626
   24.5499   29.3610   29.9083   30.0775   36.2509   43.4620   45.7735   47.5513   50.2161   67.2699
   70.4103   74.6095   82.4157
  42  1  -18.7700  -13.3858  -11.6002  -11.5202  -10.4972  -10.2002   -7.5599   -7.3642   -6.3313   -4.5744
          -2.8069   -2.0348   -0.4407   -0.1329    1.8959    2.3313    2.4963    7.4590    8.6624    8.9101
   10.4075   10.7492   11.7306   13.1043   13.5169   16.3980   18.9765   22.8900   25.2909   25.4259
   26.5490   27.4555   28.2075   32.3352   40.1717   44.4433   50.5939   52.2056   55.6951   59.0506
   64.3156   88.5489  106.2875
  43  1  -18.7721  -13.3451  -11.3492  -11.3234  -10.8069  -10.6513   -7.4885   -7.2190   -5.6354   -5.0271
          -3.3212   -3.1661    0.3515    1.9508    2.1118    2.2265    2.9299    6.9662    8.0579    8.5581
    9.0639    9.6938    9.9576   10.9064   13.7149   20.4492   20.7813   22.8384   23.2306   24.0626
   24.5499   29.3610   29.9083   30.0775   36.2509   43.4620   45.7735   47.5513   50.2161   67.2699
   70.4103   74.6095   82.4157
  44  1  -18.7700  -13.3858  -11.6001  -11.5202  -10.4972  -10.2003   -7.5599   -7.3641   -6.3313   -4.5744
          -2.8069   -2.0349   -0.4407   -0.1329    1.8959    2.3313    2.4963    7.4591    8.6623    8.9101
   10.4075   10.7492   11.7306   13.1043   13.5168   16.3982   18.9765   22.8901   25.2906   25.4258
   26.5490   27.4555   28.2075   32.3352   40.1717   44.4433   50.5938   52.2056   55.6952   59.0506
   64.3157   88.5488  106.2875
siesta: Fermi energy =     -10.200354 eV

siesta: Program's energy decomposition (eV):
siesta: Ebs     =      -130.539522
siesta: Eions   =       321.344870
siesta: Ena     =        94.950732
siesta: Ekin    =       121.769467
siesta: Enl     =        14.067702
siesta: Eso     =         0.000000
siesta: Edftu   =         0.000000
siesta: DEna    =         1.599486
siesta: DUscf   =         1.841220
siesta: DUext   =         0.000000
siesta: Exc     =       -94.418389
siesta: eta*DQ  =         0.000000
siesta: Emadel  =         0.000000
siesta: Emeta   =         0.000000
siesta: Emolmec =        -2.689328
siesta: Ekinion =         0.000000
siesta: Eharris =      -184.223978
siesta: Etot    =      -184.223980
siesta: FreeEng =      -184.235932

siesta: Final energy (eV):
siesta:  Band Struct. =    -130.539522
siesta:       Kinetic =     121.769467
siesta:       Hartree =      36.632025
siesta:       Edftu   =       0.000000
siesta:       Eso     =       0.000000
siesta:    Ext. field =       0.000000
siesta:   Exch.-corr. =     -94.418389
siesta:  Ion-electron =    -222.858672
siesta:       Ion-ion =     -22.659083
siesta:       Ekinion =       0.000000
siesta:         Total =    -184.223980
siesta:         Fermi =     -10.200354

siesta: Atomic forces (eV/Ang):
siesta:      1    0.000000    0.000000   -0.000000
siesta:      2    0.041436   -0.071767    0.000000
siesta:      3   -0.041436    0.071767    0.000000
siesta:      4    0.041410    0.071725    0.000000
siesta:      5   -0.041410   -0.071725    0.000000
siesta:      6   -0.082870    0.000001    0.000000
siesta:      7    0.082870   -0.000001    0.000000
siesta: ----------------------------------------
siesta:    Tot   -0.000000   -0.000000    0.000000

siesta: Stress tensor (static) (eV/Ang**3):
siesta:    -0.450650   -0.000006    0.000000
siesta:    -0.000006   -0.450657   -0.000000
siesta:    -0.000000   -0.000000    0.183605

siesta: Cell volume =         82.372841 Ang**3

siesta: Pressure (static):
siesta:                Solid            Molecule  Units
siesta:           0.00260557          0.00258908  Ry/Bohr**3
siesta:           0.23923437          0.23772098  eV/Ang**3
siesta:         383.29985335        380.87511373  kBar
(Free)E+ p_basis*V_orbitals  =        -164.802204
(Free)Eharris+ p_basis*V_orbitals  =        -164.802202

cite: Please see "LiC6_scf.bib" for an exhaustive BiBTeX file.
cite: Please clearly indicate Siesta version in published work: 4.1.5
cite: This calculation has made use of the following articles
cite: which are encouraged to be cited in a published work.
        Primary SIESTA paper
          DOI: www.doi.org/10.1088/0953-8984/14/11/302

>> End of run:   9-NOV-2022   9:27:38
Job completed
