Siesta Version  : 4.1.5
Architecture    : x86_64-unknown-linux-gnu--unknown
Compiler version: GNU Fortran (GCC) 11.3.0
Compiler flags  : mpif90 -g -O2 -fallow-argument-mismatch
PP flags        : -DMPI -DFC_HAVE_FLUSH -DFC_HAVE_ABORT
Libraries       :  -I/global/software/sl-7.x86_64/modules/intel/2020.4.304/mkl/include  /globall/software/sl-7.x86_64/modules/intel/2020.4.304/mkl/lib/intel64/libmkl_scalapack_lp64.a -Wl,--start-group /global/software/sl-7.x86_64/modules/intel/2020.4.304/mkl/lib/intel64/libmkl_intel_lp64.a /global/software/sl-7.x86_64/modules/intel/2020.4.304/mkl/lib/intel64/libmkl_sequential.a /global/software/sl-7.x86_64/modules/intel/2020.4.304/mkl/lib/intel64/libmkl_core.a /global/software/sl-7.x86_64/modules/intel/2020.4.304/mkl/lib/intel64/libmkl_blacs_openmpi_lp64.a -Wl,--end-group -lpthread -lm -ldl
PARALLEL version

* Running on 4 nodes in parallel
>> Start of run:   9-NOV-2022   8:01:09

                           ***********************       
                           *  WELCOME TO SIESTA  *       
                           ***********************       

reinit: Reading from standard input
reinit: Dumped input in INPUT_TMP.36582
************************** Dump of input data file ****************************
SystemName LiC6_scf
SystemLabel LiC6_scf
NumberOfAtoms   7
NumberOfSpecies 2
%block ChemicalSpeciesLabel
1  3   Li-gga
2  6   C-gga
%endblock ChemicalSpeciesLabel
PAO.BasisSize  DZP
PAO.EnergyShift  10 meV
%block PS.Lmax
C-gga   2
Li-gga  2
%endblock PS.Lmax
LatticeConstant 1.000000 Ang
%block LatticeVectors
	4.3161300000	0.0000000000	0.0000000000
	-2.1580650000	3.7378782260	0.0000000000
	0.0000000000	0.0000000000	2.3679104000
%endblock LatticeVectors
AtomicCoordinatesFormat Ang
%block AtomicCoordinatesAndAtomicSpecies
	0.00000000	0.00000000	0.00000000	2
	-0.70288177	1.21742694	1.18395520	1
	-1.45518323	2.52045129	1.18395520	1
	1.45518323	2.52045129	1.18395520	1
	0.70288177	1.21742694	1.18395520	1
	1.40576354	0.00000000	1.18395520	1
	2.91036646	0.00000000	1.18395520	1
%endblock AtomicCoordinatesAndAtomicSpecies
Kgrid_NoTRS  T
%block kgrid_MonkhorstPack
4       0       0       0.0
0       4       0       0.0
0       0       4       0.0
%endblock kgrid_MonkhorstPack
AtomCoorFormatOut Ang
BlockSize 1
#ProcessorY 12
Diag.ParallelOverK   T
Diag.DivideAndConquer F
MeshCutoff   300 Ry
SCF.FreeE.Tolerance 1E-3 eV
SCF.EDM.Tolerance   5E-3 eV
DM.Tolerance  1E-3
DM.Require.Energy.Convergence T
DM.NumberPulay 4
XC.Functional GGA
XC.Authors    PBE
UseSaveData        F
MD.TypeOfRun       CG
MD.VariableCell    F
MD.NumCGsteps      00
MD.MaxCGDispl      0.200000 Bohr
MD.MaxStressTol    1.000000 GPa
MD.MaxForceTol     0.010000 eV/Ang
WriteMDHistory T
WriteCoorStep T
WriteForces T
WriteCoorStep    T
WriteEigenValues T
WriteDM    F
MM.UnitsDistance Ang  # what this program prints out DO NOT CHANGE
MM.UnitsEnergy    eV  # what this program prints out DO NOT CHANGE
MM.Grimme.S6     0.75 # Grimme-paper for PBE (correct for your functional)
MM.Grimme.D     20.   # Grimme-paper (correct for your functional)
%block MM.Potentials
  1   1 Grimme     16.69      1.650 # Li, 10.1002/jcc.20495
  1   2 Grimme     17.40      2.277 # Li / C
  2   2 Grimme     18.14      2.904 # C, 10.1002/jcc.20495
%endblock MM.Potentials
#%block ProjectedDensityOfStates
# -200.0  120.0  0.4  12800  eV
#%endblock ProjectedDensityOfStates
************************** End of input data file *****************************

reinit: -----------------------------------------------------------------------
reinit: System Name: LiC6_scf
reinit: -----------------------------------------------------------------------
reinit: System Label: LiC6_scf
reinit: -----------------------------------------------------------------------
Reading two-body potentials
Grimme - two-body potential between 1 and 1
Grimme - two-body potential between 1 and 2
Grimme - two-body potential between 2 and 2

initatom: Reading input for the pseudopotentials and atomic orbitals ----------
Species number:   1 Atomic number:    3 Label: Li-gga
Species number:   2 Atomic number:    6 Label: C-gga

Ground state valence configuration:   2s01
Reading pseudopotential information in formatted form from Li-gga.psf

Valence configuration for pseudopotential generation:
2s( 1.00) rc: 2.28
2p( 0.00) rc: 2.28
3d( 0.00) rc: 2.59
4f( 0.00) rc: 2.59
Ground state valence configuration:   2s02  2p02
Reading pseudopotential information in formatted form from C-gga.psf

Valence configuration for pseudopotential generation:
2s( 2.00) rc: 1.56
2p( 2.00) rc: 1.56
3d( 0.00) rc: 1.56
4f( 0.00) rc: 1.56
relmxkb: Read Max KB Ang. Momentum=    2 for species C-gga
relmxkb: Read Max KB Ang. Momentum=    2 for species Li-gga

<basis_specs>
===============================================================================
Li-gga               Z=   3    Mass=  6.9400        Charge= 0.17977+309
Lmxo=0 Lmxkb= 2    BasisType=split      Semic=F
L=0  Nsemic=0  Cnfigmx=2
          i=1  nzeta=2  polorb=1  (2s)
            splnorm:   0.15000    
               vcte:    0.0000    
               rinn:    0.0000    
               qcoe:    0.0000    
               qyuk:    0.0000    
               qwid:   0.10000E-01
                rcs:    0.0000      0.0000    
            lambdas:    1.0000      1.0000    
-------------------------------------------------------------------------------
L=0  Nkbl=1  erefs: 0.17977+309
L=1  Nkbl=1  erefs: 0.17977+309
L=2  Nkbl=1  erefs: 0.17977+309
===============================================================================
</basis_specs>

atom: Called for Li-gga                (Z =   3)

read_vps: Pseudopotential generation method:
read_vps: ATM 3.2.2 Troullier-Martins                       
Valence charge for ps generation:    1.00000

read_vps: Pseudopotential includes a core correction:
read_vps: Pseudo-core for xc-correction

xc_check: Exchange-correlation functional:
xc_check: GGA Perdew, Burke & Ernzerhof 1996
V l=0 = -2*Zval/r beyond r=  2.2278
V l=1 = -2*Zval/r beyond r=  2.2278
V l=2 = -2*Zval/r beyond r=  2.5245
All V_l potentials equal beyond r=  2.4622
This should be close to max(r_c) in ps generation
All pots = -2*Zval/r beyond r=  2.5245

VLOCAL1: 99.0% of the norm of Vloc inside      7.160 Ry
VLOCAL1: 99.9% of the norm of Vloc inside     16.318 Ry
atom: Maximum radius for 4*pi*r*r*local-pseudopot. charge    2.86079
atom: Maximum radius for r*vlocal+2*Zval:    2.43160
GHOST: No ghost state for L =  0
GHOST: No ghost state for L =  1
GHOST: No ghost state for L =  2

KBgen: Kleinman-Bylander projectors: 
   l= 0   rc=  2.654023   el= -0.211234   Ekb=  1.742119   kbcos=  0.228463
   l= 1   rc=  2.721230   el= -0.080095   Ekb= -1.122375   kbcos= -0.147941
   l= 2   rc=  2.825246   el=  0.002001   Ekb= -0.207076   kbcos= -0.031965

KBgen: Total number of Kleinman-Bylander projectors:    9
atom: -------------------------------------------------------------------------

atom: SANKEY-TYPE ORBITALS:
atom: Selected multiple-zeta basis: split     

SPLIT: Orbitals with angular momentum L= 0

SPLIT: Basis orbitals for state 2s

SPLIT: PAO cut-off radius determined from an
SPLIT: energy shift=  0.000735 Ry

   izeta = 1
                 lambda =    1.000000
                     rc =   11.897381
                 energy =   -0.210580
                kinetic =    0.143382
    potential(screened) =   -0.353962
       potential(ionic) =   -0.533453

   izeta = 2
                 rmatch =    8.489163
              splitnorm =    0.150000
                 energy =   -0.186081
                kinetic =    0.225882
    potential(screened) =   -0.411964
       potential(ionic) =   -0.593024

POLgen: Perturbative polarization orbital with L=  1

POLgen: Polarization orbital for state 2s

   izeta = 1
                     rc =   11.897381
                 energy =   -0.027011
                kinetic =    0.282985
    potential(screened) =   -0.309997
       potential(ionic) =   -0.490997
atom: Total number of Sankey-type orbitals:  5

atm_pop: Valence configuration (for local Pseudopot. screening):
 2s( 1.00)                                                            
Vna: chval, zval:    1.00000   1.00000

Vna:  Cut-off radius for the neutral-atom potential:  11.897381
comcore: Pseudo-core radius Rcore=  3.450946

atom: _________________________________________________________________________

<basis_specs>
===============================================================================
C-gga                Z=   6    Mass=  12.010        Charge= 0.17977+309
Lmxo=1 Lmxkb= 2    BasisType=split      Semic=F
L=0  Nsemic=0  Cnfigmx=2
          i=1  nzeta=2  polorb=0  (2s)
            splnorm:   0.15000    
               vcte:    0.0000    
               rinn:    0.0000    
               qcoe:    0.0000    
               qyuk:    0.0000    
               qwid:   0.10000E-01
                rcs:    0.0000      0.0000    
            lambdas:    1.0000      1.0000    
L=1  Nsemic=0  Cnfigmx=2
          i=1  nzeta=2  polorb=1  (2p)
            splnorm:   0.15000    
               vcte:    0.0000    
               rinn:    0.0000    
               qcoe:    0.0000    
               qyuk:    0.0000    
               qwid:   0.10000E-01
                rcs:    0.0000      0.0000    
            lambdas:    1.0000      1.0000    
-------------------------------------------------------------------------------
L=0  Nkbl=1  erefs: 0.17977+309
L=1  Nkbl=1  erefs: 0.17977+309
L=2  Nkbl=1  erefs: 0.17977+309
===============================================================================
</basis_specs>

atom: Called for C-gga                 (Z =   6)

read_vps: Pseudopotential generation method:
read_vps: ATM 3.2.2 Troullier-Martins                       
Valence charge for ps generation:    4.00000

xc_check: Exchange-correlation functional:
xc_check: GGA Perdew, Burke & Ernzerhof 1996
V l=0 = -2*Zval/r beyond r=  1.5227
V l=1 = -2*Zval/r beyond r=  1.5227
V l=2 = -2*Zval/r beyond r=  1.5227
All V_l potentials equal beyond r=  1.4851
This should be close to max(r_c) in ps generation
All pots = -2*Zval/r beyond r=  1.5227

VLOCAL1: 99.0% of the norm of Vloc inside     19.682 Ry
VLOCAL1: 99.9% of the norm of Vloc inside     44.856 Ry
atom: Maximum radius for 4*pi*r*r*local-pseudopot. charge    1.79142
atom: Maximum radius for r*vlocal+2*Zval:    1.54183
GHOST: No ghost state for L =  0
GHOST: No ghost state for L =  1
GHOST: No ghost state for L =  2

KBgen: Kleinman-Bylander projectors: 
   l= 0   rc=  1.661951   el= -1.010689   Ekb=  5.289847   kbcos=  0.316429
   l= 1   rc=  1.661951   el= -0.388490   Ekb= -4.102504   kbcos= -0.351025
   l= 2   rc=  1.747182   el=  0.001971   Ekb= -1.006005   kbcos= -0.008530

KBgen: Total number of Kleinman-Bylander projectors:    9
atom: -------------------------------------------------------------------------

atom: SANKEY-TYPE ORBITALS:
atom: Selected multiple-zeta basis: split     

SPLIT: Orbitals with angular momentum L= 0

SPLIT: Basis orbitals for state 2s

SPLIT: PAO cut-off radius determined from an
SPLIT: energy shift=  0.000735 Ry

   izeta = 1
                 lambda =    1.000000
                     rc =    5.948690
                 energy =   -1.010099
                kinetic =    0.827121
    potential(screened) =   -1.837220
       potential(ionic) =   -5.392783

   izeta = 2
                 rmatch =    3.518811
              splitnorm =    0.150000
                 energy =   -0.877891
                kinetic =    1.289227
    potential(screened) =   -2.167118
       potential(ionic) =   -5.982073

SPLIT: Orbitals with angular momentum L= 1

SPLIT: Basis orbitals for state 2p

SPLIT: PAO cut-off radius determined from an
SPLIT: energy shift=  0.000735 Ry

   izeta = 1
                 lambda =    1.000000
                     rc =    7.638387
                 energy =   -0.387843
                kinetic =    2.314739
    potential(screened) =   -2.702582
       potential(ionic) =   -6.092371

   izeta = 2
                 rmatch =    3.840617
              splitnorm =    0.150000
                 energy =   -0.270479
                kinetic =    3.438347
    potential(screened) =   -3.708826
       potential(ionic) =   -7.497707

POLgen: Perturbative polarization orbital with L=  2

POLgen: Polarization orbital for state 2p

   izeta = 1
                     rc =    7.638387
                 energy =    0.921402
                kinetic =    1.955040
    potential(screened) =   -1.033637
       potential(ionic) =   -3.679558
atom: Total number of Sankey-type orbitals: 13

atm_pop: Valence configuration (for local Pseudopot. screening):
 2s( 2.00)                                                            
 2p( 2.00)                                                            
Vna: chval, zval:    4.00000   4.00000

Vna:  Cut-off radius for the neutral-atom potential:   7.638387

atom: _________________________________________________________________________

prinput: Basis input ----------------------------------------------------------

PAO.BasisType split     

%block ChemicalSpeciesLabel
    1    3 Li-gga                  # Species index, atomic number, species label
    2    6 C-gga                   # Species index, atomic number, species label
%endblock ChemicalSpeciesLabel

%block PAO.Basis                 # Define Basis set
Li-gga                1                    # Species label, number of l-shells
 n=2   0   2 P   1                   # n, l, Nzeta, Polarization, NzetaPol
  11.897      8.489   
   1.000      1.000   
C-gga                 2                    # Species label, number of l-shells
 n=2   0   2                         # n, l, Nzeta 
   5.949      3.519   
   1.000      1.000   
 n=2   1   2 P   1                   # n, l, Nzeta, Polarization, NzetaPol
   7.638      3.841   
   1.000      1.000   
%endblock PAO.Basis

prinput: ----------------------------------------------------------------------

coor:   Atomic-coordinates input format  =     Cartesian coordinates
coor:                                          (in Angstroms)

siesta: Atomic coordinates (Bohr) and species
siesta:      0.00000   0.00000   0.00000  2        1
siesta:     -1.32825   2.30060   2.23735  1        2
siesta:     -2.74990   4.76296   2.23735  1        3
siesta:      2.74990   4.76296   2.23735  1        4
siesta:      1.32825   2.30060   2.23735  1        5
siesta:      2.65651   0.00000   2.23735  1        6
siesta:      5.49980   0.00000   2.23735  1        7

siesta: System type = bulk      

initatomlists: Number of atoms, orbitals, and projectors:      7    43    63

siesta: ******************** Simulation parameters ****************************
siesta:
siesta: The following are some of the parameters of the simulation.
siesta: A complete list of the parameters used, including default values,
siesta: can be found in file out.fdf
siesta:
redata: Spin configuration                          = none
redata: Number of spin components                   = 1
redata: Time-Reversal Symmetry                      = T
redata: Spin spiral                                 = F
redata: Long output                                 =   F
redata: Number of Atomic Species                    =        2
redata: Charge density info will appear in .RHO file
redata: Write Mulliken Pop.                         = NO
redata: Matel table size (NRTAB)                    =     1024
redata: Mesh Cutoff                                 =   300.0000 Ry
redata: Net charge of the system                    =     0.0000 |e|
redata: Min. number of SCF Iter                     =        0
redata: Max. number of SCF Iter                     =     1000
redata: SCF convergence failure will abort job
redata: SCF mix quantity                            = Hamiltonian
redata: Mix DM or H after convergence               =   F
redata: Recompute H after scf cycle                 =   F
redata: Mix DM in first SCF step                    =   T
redata: Write Pulay info on disk                    =   F
redata: New DM Occupancy tolerance                  = 0.000000000001
redata: No kicks to SCF
redata: DM Mixing Weight for Kicks                  =     0.5000
redata: Require Harris convergence for SCF          =   F
redata: Harris energy tolerance for SCF             =     0.000100 eV
redata: Require DM convergence for SCF              =   T
redata: DM tolerance for SCF                        =     0.001000
redata: Require EDM convergence for SCF             =   F
redata: EDM tolerance for SCF                       =     0.005000 eV
redata: Require H convergence for SCF               =   T
redata: Hamiltonian tolerance for SCF               =     0.001000 eV
redata: Require (free) Energy convergence for SCF   =   T
redata: (free) Energy tolerance for SCF             =     0.001000 eV
redata: Using Saved Data (generic)                  =   F
redata: Use continuation files for DM               =   F
redata: Neglect nonoverlap interactions             =   F
redata: Method of Calculation                       = Diagonalization
redata: Electronic Temperature                      =   299.9869 K
redata: Fix the spin of the system                  =   F
redata: Dynamics option                             = Single-point calculation
mix.SCF: Pulay mixing                            = Pulay
mix.SCF:    Variant                              = stable
mix.SCF:    History steps                        = 4
mix.SCF:    Linear mixing weight                 =     0.250000
mix.SCF:    Mixing weight                        =     0.250000
mix.SCF:    SVD condition                        = 0.1000E-07
redata: ***********************************************************************

%block SCF.Mixers
  Pulay
%endblock SCF.Mixers

%block SCF.Mixer.Pulay
  # Mixing method
  method pulay
  variant stable

  # Mixing options
  weight 0.2500
  weight.linear 0.2500
  history 4
%endblock SCF.Mixer.Pulay

DM_history_depth set to one: no extrapolation allowed by default for geometry relaxation
Size of DM history Fstack: 1
Total number of electrons:    10.000000
Total ionic charge:    10.000000

* ProcessorY, Blocksize:    2   1


* Orbital distribution balance (max,min):    11    10

k-point displ. along   1 input, could be:     0.00    0.50
k-point displ. along   2 input, could be:     0.00    0.50
k-point displ. along   3 input, could be:     0.00    0.50
 Kpoints in:           48 . Kpoints trimmed:           44

siesta: k-grid: Number of k-points =    44
siesta: k-grid: Cutoff (effective) =     4.736 Ang
siesta: k-grid: Supercell and displacements
siesta: k-grid:    4   0   0      0.000
siesta: k-grid:    0   4   0      0.000
siesta: k-grid:    0   0   4      0.000

diag: Algorithm                                     = Expert
diag: Parallel over k                               =   T
diag: Use parallel 2D distribution                  =   T
diag: Parallel block-size                           = 1
diag: Parallel distribution                         =     2 x     2
diag: Used triangular part                          = Lower
diag: Absolute tolerance                            =  0.100E-15
diag: Orthogonalization factor                      =  0.100E-05
diag: Memory factor                                 =  1.0000

superc: Internal auxiliary supercell:     9 x     9 x    13  =    1053
superc: Number of atoms, orbitals, and projectors:   7371  45279  66339


ts: **************************************************************
ts: Save H and S matrices                           =    F
ts: Save DM and EDM matrices                        =    F
ts: Only save the overlap matrix S                  =    F
ts: **************************************************************

************************ Begin: TS CHECKS AND WARNINGS ************************
************************ End: TS CHECKS AND WARNINGS **************************


                     ====================================
                        Single-point calculation
                     ====================================

outcoor: Atomic coordinates (Ang):                          
    0.00000000    0.00000000    0.00000000   2       1  C-gga
   -0.70288177    1.21742694    1.18395520   1       2  Li-gga
   -1.45518323    2.52045129    1.18395520   1       3  Li-gga
    1.45518323    2.52045129    1.18395520   1       4  Li-gga
    0.70288177    1.21742694    1.18395520   1       5  Li-gga
    1.40576354    0.00000000    1.18395520   1       6  Li-gga
    2.91036646    0.00000000    1.18395520   1       7  Li-gga

superc: Internal auxiliary supercell:     9 x     9 x    13  =    1053
superc: Number of atoms, orbitals, and projectors:   7371  45279  66339

outcell: Unit cell vectors (Ang):
        4.316130    0.000000    0.000000
       -2.158065    3.737878    0.000000
        0.000000    0.000000    2.367910

outcell: Cell vector modules (Ang)   :    4.316130    4.316130    2.367910
outcell: Cell angles (23,13,12) (deg):     90.0000     90.0000    120.0000
outcell: Cell volume (Ang**3)        :     38.2019
<dSpData1D:S at geom step 0
  <sparsity:sparsity for geom step 0
    nrows_g=43 nrows=11 sparsity=59.4354 nnzs=109896, refcount: 7>
  <dData1D:(new from dSpData1D) n=109896, refcount: 1>
refcount: 1>
new_DM -- step:     1
Initializing Density Matrix...
DM filled with atomic data:
<dSpData2D:DM initialized from atoms
  <sparsity:sparsity for geom step 0
    nrows_g=43 nrows=11 sparsity=59.4354 nnzs=109896, refcount: 8>
  <dData2D:DM n=109896 m=1, refcount: 1>
refcount: 1>
No. of atoms with KB's overlaping orbs in proc 0. Max # of overlaps:     521    1532
New grid distribution:   1
           1       1:   20    1:   10    1:    8
           2       1:   20    1:   10    9:   15
           3       1:   20   11:   20    1:    8
           4       1:   20   11:   20    9:   15

InitMesh: MESH =    40 x    40 x    30 =       48000
InitMesh: (bp) =    20 x    20 x    15 =        6000
InitMesh: Mesh cutoff (required, used) =   300.000   316.498 Ry
ExtMesh (bp) on 0 =   156 x   146 x   168 =     3826368
New grid distribution:   2
           1       1:   10    1:   10    1:   15
           2      11:   20    1:   10    1:   15
           3       1:   10   11:   20    1:   15
           4      11:   20   11:   20    1:   15
New grid distribution:   3
           1       1:   10    1:   10    1:   15
           2      11:   20    1:   10    1:   15
           3       1:   10   11:   20    1:   15
           4      11:   20   11:   20    1:   15
Setting up quadratic distribution...
ExtMesh (bp) on 0 =   146 x   146 x   175 =     3730300
PhiOnMesh: Number of (b)points on node 0 =                 1500
PhiOnMesh: nlist on node 0 =              1211053

stepf: Fermi-Dirac step function

siesta: Program's energy decomposition (eV):
siesta: Ebs     =      -139.525827
siesta: Eions   =       321.344870
siesta: Ena     =        70.816117
siesta: Ekin    =       234.693042
siesta: Enl     =       -18.677191
siesta: Eso     =         0.000000
siesta: Edftu   =         0.000000
siesta: DEna    =       -41.608814
siesta: DUscf   =        26.359527
siesta: DUext   =         0.000000
siesta: Exc     =      -125.417278
siesta: eta*DQ  =         0.000000
siesta: Emadel  =         0.000000
siesta: Emeta   =         0.000000
siesta: Emolmec =        -4.276416
siesta: Ekinion =         0.000000
siesta: Eharris =      -136.487628
siesta: Etot    =      -179.455882
siesta: FreeEng =      -179.469221

        iscf     Eharris(eV)        E_KS(eV)     FreeEng(eV)     dDmax    Ef(eV) dHmax(eV)
   scf:    1     -136.487628     -179.455882     -179.469221 14.730012-18.209584 19.772629
timer: Routine,Calls,Time,% = IterSCF        1      27.336  62.74
   scf:    2     -201.531318     -195.903773     -195.914142  4.039419-17.538609  1.068480
   scf:    3     -195.978778     -195.949220     -195.958073  0.804649-17.445486  0.305936
   scf:    4     -195.952768     -195.954814     -195.964439  1.308705-17.377618  0.303939
   scf:    5     -195.956337     -195.955598     -195.965374  0.020985-17.382288  0.262079
   scf:    6     -195.957625     -195.957558     -195.968196  0.139942-17.413749  0.002767
   scf:    7     -195.957567     -195.957563     -195.968197  0.005393-17.413314  0.000472
   scf:    8     -195.957563     -195.957563     -195.968197  0.001524-17.413292  0.000309
   scf:    9     -195.957561     -195.957562     -195.968197  0.000690-17.413293  0.000132

SCF Convergence by FreeE+DM+H criterion
|FreeE_i-FreeE_(i-1)| (eV) <     0.00100000
max |DM_out - DM_in|         :     0.0006900239
max |H_out - H_in|      (eV) :     0.0001324464
SCF cycle converged after 9 iterations

Using DM_out to compute the final energy and forces
No. of atoms with KB's overlaping orbs in proc 0. Max # of overlaps:     521    1532

MM-Stress (kbar):       52.23       52.23      279.24        0.00        0.00       -0.00

siesta: E_KS(eV) =             -195.9576

siesta: E_KS - E_eggbox =      -195.9576

siesta: Atomic forces (eV/Ang):
     1   -0.000000   -0.000000    0.000000
     2   -1.135077    1.966137   -0.000000
     3    1.135077   -1.966137   -0.000000
     4   -1.135054   -1.965972   -0.000000
     5    1.135054    1.965972   -0.000000
     6    2.270263    0.000063   -0.000000
     7   -2.270263   -0.000063   -0.000000
----------------------------------------
   Tot    0.000000   -0.000000   -0.000000
----------------------------------------
   Max    2.270263
   Res    1.213479    sqrt( Sum f_i^2 / 3N )
----------------------------------------
   Max    2.270263    constrained

Stress tensor Voigt[x,y,z,yz,xz,xy] (kbar):    -1673.77    -1673.83       35.73       -0.00        0.00       -0.05
(Free)E + p*V (eV/cell)     -169.6460
Target enthalpy (eV/cell)     -195.9682

siesta: Eigenvalues (eV):
  ik is       eps
   1  1  -29.9514  -22.4800  -21.6515  -19.2191  -18.8248  -14.7078  -13.0908   -9.5869   -9.5727   -5.8973
           0.8338    1.9800    2.5103    4.8016    5.1223    5.5027    8.2634    9.7492    9.9551   13.7886
   16.1662   18.9079   20.2885   22.7386   24.5933   24.9775   25.2989   26.2128   32.8333   35.1246
   35.5278   38.2385   39.3950   40.8564   46.2496   49.3434   57.1178   59.4491   68.1014   73.6339
   77.8961   85.8109  111.8975
   2  1  -30.0292  -22.5459  -20.5431  -20.4106  -19.3214  -14.8344  -13.1776  -12.2065   -6.7938   -5.9649
           0.1065    0.6557    3.0022    4.2270    5.4605    9.8160   11.2196   13.7663   15.5550   17.9098
   18.6679   19.9137   21.1002   23.7548   24.6870   25.9597   27.1750   29.8260   34.5369   35.6052
   36.6725   42.5004   48.6686   49.0745   55.6729   57.3877   57.8359   61.5450   67.0999   79.0692
   82.4906   91.3831   93.4645
   3  1  -30.0292  -22.5459  -20.5430  -20.4108  -19.3212  -14.8344  -13.1776  -12.2065   -6.7938   -5.9650
           0.1065    0.6557    3.0017    4.2274    5.4606    9.8160   11.2195   13.7666   15.5552   17.9094
   18.6679   19.9139   21.0999   23.7548   24.6871   25.9601   27.1746   29.8259   34.5369   35.6056
   36.6725   42.5002   48.6686   49.0745   55.6729   57.3880   57.8357   61.5444   67.1001   79.0687
   82.4907   91.3829   93.4644
   4  1  -29.9514  -22.4800  -21.6515  -19.2192  -18.8247  -14.7078  -13.0907   -9.5870   -9.5727   -5.8973
           0.8338    1.9800    2.5105    4.8012    5.1223    5.5029    8.2639    9.7492    9.9547   13.7886
   16.1662   18.9080   20.2885   22.7385   24.5933   24.9773   25.2989   26.2126   32.8333   35.1246
   35.5284   38.2385   39.3952   40.8564   46.2498   49.3430   57.1179   59.4491   68.1015   73.6336
   77.8961   85.8107  111.8973
   5  1  -30.0292  -22.5459  -20.5431  -20.4106  -19.3214  -14.8344  -13.1776  -12.2065   -6.7938   -5.9649
           0.1065    0.6557    3.0022    4.2270    5.4605    9.8160   11.2196   13.7663   15.5550   17.9098
   18.6679   19.9137   21.1002   23.7548   24.6870   25.9597   27.1750   29.8260   34.5369   35.6052
   36.6725   42.5004   48.6686   49.0745   55.6729   57.3877   57.8359   61.5450   67.0999   79.0692
   82.4906   91.3832   93.4645
   6  1  -30.0564  -22.3047  -20.3022  -20.3019  -19.6078  -14.9165  -13.8360  -13.8360   -2.2053   -2.2048
          -1.2886    1.0322    1.0685    1.0685    5.7583   13.7723   13.7724   15.3377   17.1446   17.1447
   18.2821   19.6232   19.6233   29.5922   29.5937   31.8692   31.8699   36.6660   39.4206   41.4557
   41.4557   41.7724   59.4191   62.7951   62.7964   74.7801   74.7802   88.6000  125.2236  125.2248
  127.7065  127.7079  183.5185
   7  1  -29.9493  -22.6587  -20.9604  -20.4710  -18.2906  -14.7089  -11.8916  -11.5502   -8.3115   -7.6459
           0.6946    2.1079    2.2331    3.9471    5.2292    6.4791    8.1284    9.5949   13.0057   13.3314
   15.3962   19.1574   20.6693   20.7952   21.0569   24.1946   25.1066   26.8348   26.8991   32.9576
   35.0640   39.3584   40.9564   44.4177   45.5775   46.1035   46.8330   52.5060   53.5734   65.8646
   67.5799   71.3936   84.2045
   8  1  -29.9514  -22.4800  -21.6515  -19.2192  -18.8247  -14.7078  -13.0907   -9.5870   -9.5727   -5.8973
           0.8338    1.9800    2.5105    4.8012    5.1223    5.5029    8.2639    9.7492    9.9547   13.7886
   16.1662   18.9080   20.2885   22.7385   24.5933   24.9773   25.2989   26.2126   32.8333   35.1246
   35.5284   38.2385   39.3952   40.8564   46.2498   49.3430   57.1179   59.4491   68.1015   73.6336
   77.8961   85.8107  111.8973
   9  1  -29.9514  -22.4800  -21.6515  -19.2192  -18.8247  -14.7078  -13.0907   -9.5870   -9.5727   -5.8973
           0.8338    1.9800    2.5105    4.8012    5.1223    5.5029    8.2639    9.7492    9.9547   13.7886
   16.1662   18.9080   20.2885   22.7385   24.5933   24.9773   25.2989   26.2126   32.8333   35.1246
   35.5284   38.2385   39.3952   40.8564   46.2498   49.3430   57.1179   59.4491   68.1015   73.6336
   77.8961   85.8107  111.8973
  10  1  -29.9493  -22.6587  -20.9604  -20.4710  -18.2906  -14.7089  -11.8916  -11.5502   -8.3115   -7.6459
           0.6946    2.1079    2.2331    3.9471    5.2292    6.4791    8.1284    9.5949   13.0057   13.3314
   15.3962   19.1574   20.6693   20.7952   21.0569   24.1946   25.1066   26.8348   26.8991   32.9576
   35.0640   39.3584   40.9564   44.4177   45.5775   46.1035   46.8330   52.5060   53.5734   65.8646
   67.5799   71.3935   84.2045
  11  1  -29.9514  -22.4800  -21.6515  -19.2192  -18.8247  -14.7078  -13.0907   -9.5870   -9.5727   -5.8973
           0.8338    1.9800    2.5105    4.8012    5.1223    5.5029    8.2639    9.7492    9.9547   13.7886
   16.1662   18.9080   20.2885   22.7385   24.5933   24.9773   25.2989   26.2126   32.8333   35.1246
   35.5284   38.2385   39.3952   40.8564   46.2498   49.3430   57.1179   59.4491   68.1015   73.6336
   77.8961   85.8107  111.8973
  12  1  -29.9493  -22.6586  -20.9605  -20.4711  -18.2905  -14.7089  -11.8917  -11.5502   -8.3115   -7.6459
           0.6946    2.1075    2.2331    3.9471    5.2297    6.4791    8.1289    9.5948   13.0058   13.3309
   15.3961   19.1574   20.6693   20.7953   21.0569   24.1945   25.1069   26.8345   26.8991   32.9574
   35.0647   39.3584   40.9563   44.4175   45.5774   46.1036   46.8330   52.5059   53.5734   65.8638
   67.5799   71.3926   84.2041
  13  1  -29.1674  -22.5287  -21.5005  -20.1490  -18.2842  -17.4542  -11.7569   -9.2516   -9.2445   -7.0995
          -5.3301   -3.4723   -0.9167    1.1796    1.3968    3.6376    5.7367    6.4206   10.0965   13.0562
   15.8909   19.2025   20.5918   21.2297   25.9478   28.5140   32.0846   35.2336   39.6745   40.7844
   42.5701   43.4789   47.7592   48.3903   54.0891   55.8395   66.5044   67.6852   69.8802   76.6603
   89.3676  110.0216  128.8301
  14  1  -29.2654  -22.7080  -20.4591  -20.4315  -18.5987  -17.3959  -12.4904  -11.5177   -9.1984   -4.0747
          -3.7973   -2.3645   -0.8609    1.1047    2.7646    4.0890    6.5643    7.3876   14.1354   16.1639
   18.1442   20.1133   20.5629   22.3065   24.1404   30.6096   31.6322   34.4007   37.8514   39.4811
   42.1100   42.9537   46.5412   47.0248   50.7706   55.2985   55.9002   60.5589   63.1080   67.3138
   73.2082   82.3405   84.6731
  15  1  -29.2654  -22.7079  -20.4592  -20.4314  -18.5987  -17.3958  -12.4904  -11.5176   -9.1984   -4.0749
          -3.7971   -2.3645   -0.8609    1.1048    2.7643    4.0890    6.5645    7.3875   14.1358   16.1639
   18.1437   20.1135   20.5628   22.3064   24.1406   30.6099   31.6320   34.4004   37.8516   39.4811
   42.1098   42.9543   46.5419   47.0243   50.7700   55.2985   55.8997   60.5587   63.1080   67.3139
   73.2082   82.3406   84.6727
  16  1  -29.1674  -22.5286  -21.5006  -20.1490  -18.2842  -17.4541  -11.7569   -9.2517   -9.2444   -7.0995
          -5.3301   -3.4723   -0.9167    1.1799    1.3968    3.6376    5.7365    6.4206   10.0964   13.0564
   15.8909   19.2026   20.5920   21.2297   25.9476   28.5141   32.0843   35.2335   39.6739   40.7847
   42.5701   43.4789   47.7594   48.3906   54.0889   55.8396   66.5044   67.6853   69.8805   76.6604
   89.3665  110.0218  128.8301
  17  1  -29.2654  -22.7080  -20.4591  -20.4315  -18.5987  -17.3959  -12.4904  -11.5177   -9.1984   -4.0747
          -3.7973   -2.3645   -0.8609    1.1047    2.7646    4.0890    6.5643    7.3876   14.1354   16.1639
   18.1442   20.1133   20.5629   22.3065   24.1404   30.6096   31.6322   34.4007   37.8514   39.4811
   42.1099   42.9539   46.5412   47.0246   50.7705   55.2985   55.9000   60.5589   63.1081   67.3138
   73.2082   82.3405   84.6731
  18  1  -29.3799  -22.6916  -20.2741  -20.2739  -18.0698  -17.6416  -13.3892  -13.3892   -8.9505   -2.1815
          -2.1811    1.2996    1.2997    3.3406    3.3407    4.0452    8.7067    8.7068   14.6404   19.0620
   22.3931   23.0025   24.4029   24.4030   25.8349   25.8352   27.3647   27.3648   38.2805   40.2645
   42.7190   43.2512   43.2529   45.1162   45.1175   52.6394   52.6400   53.9065   60.8563   79.3843
   79.3844  105.0485  105.0486
  19  1  -29.2654  -22.7080  -20.4591  -20.4315  -18.5987  -17.3959  -12.4904  -11.5177   -9.1984   -4.0747
          -3.7973   -2.3645   -0.8609    1.1047    2.7646    4.0890    6.5643    7.3876   14.1354   16.1639
   18.1442   20.1133   20.5629   22.3065   24.1404   30.6096   31.6322   34.4007   37.8514   39.4811
   42.1099   42.9539   46.5412   47.0246   50.7705   55.2985   55.9000   60.5589   63.1081   67.3138
   73.2082   82.3405   84.6731
  20  1  -29.1661  -22.6772  -20.8598  -20.6207  -18.6678  -17.1507  -10.9077  -10.1377   -9.1065   -7.5701
          -5.1936   -4.6839   -1.6594    1.2186    1.4824    2.0799    3.8571   11.4428   12.9849   13.4211
   16.7394   18.7223   21.0442   22.6936   23.6982   28.3669   29.1125   32.3360   35.2349   42.3953
   42.8496   43.7961   46.8465   48.6145   49.9347   61.7493   64.5631   65.7892   69.0382   72.9085
   80.4829   99.4010  104.0732
  21  1  -29.2654  -22.7079  -20.4592  -20.4314  -18.5987  -17.3958  -12.4904  -11.5176   -9.1984   -4.0749
          -3.7971   -2.3645   -0.8609    1.1048    2.7643    4.0890    6.5645    7.3875   14.1358   16.1639
   18.1437   20.1135   20.5628   22.3064   24.1406   30.6099   31.6320   34.4004   37.8516   39.4811
   42.1098   42.9543   46.5419   47.0243   50.7700   55.2985   55.8997   60.5587   63.1080   67.3139
   73.2082   82.3406   84.6727
  22  1  -29.2654  -22.7080  -20.4591  -20.4315  -18.5987  -17.3959  -12.4904  -11.5177   -9.1984   -4.0747
          -3.7973   -2.3645   -0.8609    1.1047    2.7646    4.0890    6.5643    7.3876   14.1354   16.1639
   18.1442   20.1133   20.5629   22.3065   24.1404   30.6096   31.6322   34.4007   37.8514   39.4811
   42.1100   42.9537   46.5412   47.0248   50.7706   55.2985   55.9002   60.5589   63.1080   67.3138
   73.2082   82.3405   84.6731
  23  1  -29.1674  -22.5287  -21.5005  -20.1490  -18.2842  -17.4542  -11.7569   -9.2516   -9.2445   -7.0995
          -5.3301   -3.4723   -0.9167    1.1796    1.3968    3.6376    5.7367    6.4206   10.0965   13.0562
   15.8909   19.2025   20.5918   21.2297   25.9478   28.5140   32.0846   35.2336   39.6745   40.7844
   42.5701   43.4789   47.7592   48.3903   54.0891   55.8395   66.5044   67.6852   69.8802   76.6603
   89.3676  110.0216  128.8301
  24  1  -29.1674  -22.5286  -21.5006  -20.1490  -18.2842  -17.4541  -11.7569   -9.2517   -9.2444   -7.0995
          -5.3301   -3.4723   -0.9167    1.1799    1.3968    3.6376    5.7365    6.4206   10.0964   13.0564
   15.8909   19.2026   20.5920   21.2297   25.9476   28.5141   32.0843   35.2335   39.6739   40.7847
   42.5701   43.4789   47.7594   48.3906   54.0889   55.8396   66.5044   67.6853   69.8805   76.6604
   89.3665  110.0218  128.8301
  25  1  -29.1674  -22.5286  -21.5006  -20.1490  -18.2842  -17.4541  -11.7569   -9.2517   -9.2444   -7.0995
          -5.3301   -3.4723   -0.9167    1.1799    1.3968    3.6376    5.7365    6.4206   10.0964   13.0564
   15.8909   19.2026   20.5920   21.2297   25.9476   28.5141   32.0843   35.2335   39.6740   40.7848
   42.5700   43.4789   47.7593   48.3904   54.0890   55.8396   66.5044   67.6853   69.8802   76.6603
   89.3674  110.0217  128.8301
  26  1  -29.1661  -22.6772  -20.8598  -20.6207  -18.6678  -17.1507  -10.9077  -10.1377   -9.1065   -7.5701
          -5.1936   -4.6839   -1.6594    1.2186    1.4824    2.0799    3.8571   11.4428   12.9849   13.4211
   16.7394   18.7223   21.0441   22.6936   23.6982   28.3669   29.1125   32.3360   35.2349   42.3951
   42.8496   43.7964   46.8465   48.6147   49.9347   61.7493   64.5631   65.7892   69.0382   72.9085
   80.4829   99.4013  104.0732
  27  1  -29.1674  -22.5286  -21.5006  -20.1490  -18.2842  -17.4541  -11.7569   -9.2517   -9.2444   -7.0995
          -5.3301   -3.4723   -0.9167    1.1799    1.3968    3.6376    5.7365    6.4206   10.0964   13.0564
   15.8909   19.2026   20.5920   21.2297   25.9476   28.5141   32.0843   35.2335   39.6740   40.7848
   42.5700   43.4789   47.7593   48.3904   54.0890   55.8396   66.5044   67.6853   69.8802   76.6603
   89.3674  110.0217  128.8301
  28  1  -29.1661  -22.6772  -20.8598  -20.6208  -18.6678  -17.1505  -10.9078  -10.1377   -9.1065   -7.5701
          -5.1936   -4.6839   -1.6595    1.2186    1.4820    2.0803    3.8571   11.4432   12.9846   13.4210
   16.7397   18.7222   21.0444   22.6935   23.6983   28.3671   29.1121   32.3359   35.2349   42.3960
   42.8496   43.7959   46.8468   48.6140   49.9348   61.7488   64.5631   65.7893   69.0373   72.9084
   80.4826   99.4009  104.0736
  29  1  -27.6642  -23.9389  -22.5175  -21.5876  -14.9614  -14.5548  -13.7912  -13.5900   -9.2403   -4.8285
          -4.6607   -3.0505   -2.8786   -2.0815   -1.5594    0.7073    1.7698    5.0924    5.9070   15.2749
   15.6507   17.6871   19.4022   19.6444   26.8954   30.8249   31.6918   31.7640   37.7829   41.0006
   42.5981   43.8223   48.5841   50.4582   63.2301   63.3895   63.9653   68.0382   82.1071   83.8528
   96.6849  101.4220  106.1773
  30  1  -28.0402  -23.9702  -21.7742  -20.5296  -15.6580  -15.0250  -14.6847  -13.3230  -10.6748   -5.2419
          -4.6416   -3.4335   -3.0958   -2.8799   -1.6139    4.0233    7.8686    8.6184   12.0284   13.2886
   15.7704   16.7940   19.5012   22.0817   27.3254   28.5944   30.3630   33.3336   37.2532   39.0254
   39.0693   41.7893   42.1901   45.3254   46.2337   71.4860   74.6061   76.2364   88.8161   90.6504
   97.9069  103.0305  139.7545
  31  1  -28.0401  -23.9702  -21.7741  -20.5298  -15.6579  -15.0250  -14.6847  -13.3229  -10.6749   -5.2419
          -4.6416   -3.4335   -3.0955   -2.8799   -1.6143    4.0233    7.8686    8.6184   12.0281   13.2888
   15.7703   16.7947   19.5013   22.0816   27.3254   28.5944   30.3630   33.3336   37.2521   39.0254
   39.0692   41.7894   42.1902   45.3261   46.2327   71.4860   74.6063   76.2361   88.8162   90.6505
   97.9069  103.0307  139.7542
  32  1  -27.6642  -23.9389  -22.5174  -21.5877  -14.9614  -14.5548  -13.7913  -13.5899   -9.2401   -4.8285
          -4.6607   -3.0505   -2.8786   -2.0818   -1.5594    0.7073    1.7697    5.0924    5.9070   15.2748
   15.6508   17.6878   19.4022   19.6443   26.8954   30.8250   31.6918   31.7640   37.7821   41.0006
   42.5976   43.8224   48.5837   50.4584   63.2302   63.3899   63.9653   68.0382   82.1066   83.8527
   96.6850  101.4220  106.1778
  33  1  -28.0402  -23.9702  -21.7742  -20.5296  -15.6580  -15.0250  -14.6847  -13.3230  -10.6748   -5.2419
          -4.6416   -3.4335   -3.0958   -2.8799   -1.6139    4.0233    7.8686    8.6184   12.0284   13.2886
   15.7704   16.7940   19.5012   22.0817   27.3254   28.5944   30.3630   33.3336   37.2531   39.0254
   39.0693   41.7893   42.1901   45.3258   46.2334   71.4860   74.6061   76.2363   88.8161   90.6504
   97.9070  103.0304  139.7548
  34  1  -28.3419  -24.1073  -20.1670  -20.1667  -16.9158  -14.9831  -14.7416  -12.6425  -12.6425   -5.2689
          -5.2689   -4.7871   -4.7871   -1.3303   -1.3296    6.4791    9.6096   18.5200   18.5212   20.5804
   20.6582   20.6583   28.1801   28.2169   28.2170   32.9156   32.9158   38.9939   41.0451   41.6859
   41.6869   42.4779   43.4128   51.2620   51.2621   66.1937   67.7252   67.7252   70.5515   70.5516
   84.2905   84.2911  137.0895
  35  1  -28.0402  -23.9702  -21.7742  -20.5296  -15.6580  -15.0250  -14.6847  -13.3230  -10.6748   -5.2419
          -4.6416   -3.4335   -3.0958   -2.8799   -1.6139    4.0233    7.8686    8.6184   12.0284   13.2886
   15.7704   16.7940   19.5012   22.0817   27.3254   28.5944   30.3630   33.3336   37.2531   39.0254
   39.0693   41.7893   42.1901   45.3258   46.2334   71.4860   74.6061   76.2363   88.8161   90.6504
   97.9070  103.0304  139.7548
  36  1  -27.6578  -23.9055  -22.9412  -20.8326  -16.0415  -14.9390  -14.5065  -11.6484   -7.7099   -5.2622
          -4.7328   -3.7927   -0.8324   -0.8176   -0.3020   -0.0222    2.1667    7.3313    7.7974   15.7054
   15.8324   18.6993   21.4525   23.5161   29.0348   32.0737   34.6970   36.1833   37.4473   49.5078
   50.1373   51.1794   51.8739   54.7541   56.1327   76.1341   89.5890   90.4238  107.8545  115.1936
  123.5311  157.7771  226.0897
  37  1  -28.0401  -23.9702  -21.7741  -20.5298  -15.6579  -15.0250  -14.6847  -13.3229  -10.6749   -5.2419
          -4.6416   -3.4335   -3.0955   -2.8799   -1.6143    4.0233    7.8686    8.6184   12.0281   13.2888
   15.7703   16.7947   19.5013   22.0816   27.3254   28.5944   30.3630   33.3336   37.2521   39.0254
   39.0692   41.7894   42.1902   45.3261   46.2327   71.4860   74.6063   76.2361   88.8162   90.6505
   97.9069  103.0307  139.7542
  38  1  -28.0402  -23.9702  -21.7742  -20.5296  -15.6580  -15.0250  -14.6847  -13.3230  -10.6748   -5.2419
          -4.6416   -3.4335   -3.0958   -2.8799   -1.6139    4.0233    7.8686    8.6184   12.0284   13.2886
   15.7704   16.7940   19.5012   22.0817   27.3254   28.5944   30.3630   33.3336   37.2532   39.0254
   39.0693   41.7893   42.1901   45.3254   46.2337   71.4860   74.6061   76.2364   88.8161   90.6504
   97.9069  103.0305  139.7545
  39  1  -27.6642  -23.9389  -22.5175  -21.5876  -14.9614  -14.5548  -13.7912  -13.5900   -9.2403   -4.8285
          -4.6607   -3.0505   -2.8786   -2.0815   -1.5594    0.7073    1.7698    5.0924    5.9070   15.2749
   15.6507   17.6871   19.4022   19.6444   26.8954   30.8249   31.6918   31.7640   37.7829   41.0006
   42.5981   43.8223   48.5841   50.4582   63.2301   63.3895   63.9653   68.0382   82.1071   83.8528
   96.6849  101.4220  106.1773
  40  1  -27.6642  -23.9389  -22.5174  -21.5877  -14.9614  -14.5548  -13.7913  -13.5899   -9.2401   -4.8285
          -4.6607   -3.0505   -2.8786   -2.0818   -1.5594    0.7073    1.7697    5.0924    5.9070   15.2748
   15.6508   17.6878   19.4022   19.6443   26.8954   30.8250   31.6918   31.7640   37.7821   41.0006
   42.5976   43.8224   48.5837   50.4584   63.2302   63.3899   63.9653   68.0382   82.1066   83.8527
   96.6850  101.4220  106.1778
  41  1  -27.6642  -23.9389  -22.5174  -21.5877  -14.9614  -14.5548  -13.7913  -13.5899   -9.2401   -4.8285
          -4.6607   -3.0505   -2.8786   -2.0818   -1.5594    0.7073    1.7697    5.0924    5.9070   15.2748
   15.6508   17.6878   19.4022   19.6442   26.8954   30.8250   31.6918   31.7640   37.7821   41.0006
   42.5975   43.8224   48.5842   50.4584   63.2302   63.3897   63.9653   68.0382   82.1065   83.8527
   96.6850  101.4220  106.1778
  42  1  -27.6578  -23.9055  -22.9412  -20.8326  -16.0415  -14.9390  -14.5065  -11.6484   -7.7099   -5.2622
          -4.7328   -3.7927   -0.8324   -0.8176   -0.3020   -0.0222    2.1667    7.3313    7.7974   15.7054
   15.8324   18.6993   21.4524   23.5161   29.0348   32.0737   34.6970   36.1833   37.4473   49.5082
   50.1373   51.1794   51.8739   54.7541   56.1327   76.1342   89.5890   90.4238  107.8545  115.1936
  123.5311  157.7771  226.0894
  43  1  -27.6642  -23.9389  -22.5174  -21.5877  -14.9614  -14.5548  -13.7913  -13.5899   -9.2401   -4.8285
          -4.6607   -3.0505   -2.8786   -2.0818   -1.5594    0.7073    1.7697    5.0924    5.9070   15.2748
   15.6508   17.6878   19.4022   19.6442   26.8954   30.8250   31.6918   31.7640   37.7821   41.0006
   42.5975   43.8224   48.5842   50.4584   63.2302   63.3897   63.9653   68.0382   82.1065   83.8527
   96.6850  101.4220  106.1778
  44  1  -27.6578  -23.9055  -22.9412  -20.8328  -16.0415  -14.9390  -14.5065  -11.6479   -7.7102   -5.2622
          -4.7328   -3.7927   -0.8325   -0.8176   -0.3020   -0.0222    2.1667    7.3313    7.7973   15.7062
   15.8324   18.6992   21.4526   23.5161   29.0349   32.0737   34.6957   36.1832   37.4470   49.5072
   50.1376   51.1796   51.8739   54.7542   56.1328   76.1339   89.5890   90.4244  107.8546  115.1938
  123.5309  157.7770  226.0895
siesta: Fermi energy =     -17.413293 eV

siesta: Program's energy decomposition (eV):
siesta: Ebs     =      -224.006373
siesta: Eions   =       321.344870
siesta: Ena     =        70.816117
siesta: Ekin    =       175.673253
siesta: Enl     =        -2.497466
siesta: Eso     =         0.000000
siesta: Edftu   =         0.000000
siesta: DEna    =        -3.885362
siesta: DUscf   =         2.979558
siesta: DUext   =         0.000000
siesta: Exc     =      -113.422377
siesta: eta*DQ  =         0.000000
siesta: Emadel  =         0.000000
siesta: Emeta   =         0.000000
siesta: Emolmec =        -4.276416
siesta: Ekinion =         0.000000
siesta: Eharris =      -195.957561
siesta: Etot    =      -195.957562
siesta: FreeEng =      -195.968197

siesta: Final energy (eV):
siesta:  Band Struct. =    -224.006373
siesta:       Kinetic =     175.673253
siesta:       Hartree =      65.862372
siesta:       Edftu   =       0.000000
siesta:       Eso     =       0.000000
siesta:    Ext. field =       0.000000
siesta:   Exch.-corr. =    -113.422377
siesta:  Ion-electron =    -404.086028
siesta:       Ion-ion =      84.291634
siesta:       Ekinion =       0.000000
siesta:         Total =    -195.957562
siesta:         Fermi =     -17.413293

siesta: Atomic forces (eV/Ang):
siesta:      1   -0.000000   -0.000000    0.000000
siesta:      2   -1.135077    1.966137   -0.000000
siesta:      3    1.135077   -1.966137   -0.000000
siesta:      4   -1.135054   -1.965972   -0.000000
siesta:      5    1.135054    1.965972   -0.000000
siesta:      6    2.270263    0.000063   -0.000000
siesta:      7   -2.270263   -0.000063   -0.000000
siesta: ----------------------------------------
siesta:    Tot    0.000000   -0.000000   -0.000000

siesta: Stress tensor (static) (eV/Ang**3):
siesta:    -1.044676   -0.000031    0.000000
siesta:    -0.000031   -1.044711   -0.000000
siesta:     0.000000   -0.000000    0.022300

siesta: Cell volume =         38.201897 Ang**3

siesta: Pressure (static):
siesta:                Solid            Molecule  Units
siesta:           0.00750440          0.00847823  Ry/Bohr**3
siesta:           0.68902888          0.77844243  eV/Ang**3
siesta:        1103.95790098       1247.21575262  kBar
(Free)E+ p_basis*V_orbitals  =        -176.534470
(Free)Eharris+ p_basis*V_orbitals  =        -176.534469

cite: Please see "LiC6_scf.bib" for an exhaustive BiBTeX file.
cite: Please clearly indicate Siesta version in published work: 4.1.5
cite: This calculation has made use of the following articles
cite: which are encouraged to be cited in a published work.
        Primary SIESTA paper
          DOI: www.doi.org/10.1088/0953-8984/14/11/302

>> End of run:   9-NOV-2022   8:05:27
Job completed
