Siesta Version  : 4.1.5
Architecture    : x86_64-unknown-linux-gnu--unknown
Compiler version: GNU Fortran (GCC) 11.3.0
Compiler flags  : mpif90 -g -O2 -fallow-argument-mismatch
PP flags        : -DMPI -DFC_HAVE_FLUSH -DFC_HAVE_ABORT
Libraries       :  -I/global/software/sl-7.x86_64/modules/intel/2020.4.304/mkl/include  /globall/software/sl-7.x86_64/modules/intel/2020.4.304/mkl/lib/intel64/libmkl_scalapack_lp64.a -Wl,--start-group /global/software/sl-7.x86_64/modules/intel/2020.4.304/mkl/lib/intel64/libmkl_intel_lp64.a /global/software/sl-7.x86_64/modules/intel/2020.4.304/mkl/lib/intel64/libmkl_sequential.a /global/software/sl-7.x86_64/modules/intel/2020.4.304/mkl/lib/intel64/libmkl_core.a /global/software/sl-7.x86_64/modules/intel/2020.4.304/mkl/lib/intel64/libmkl_blacs_openmpi_lp64.a -Wl,--end-group -lpthread -lm -ldl
PARALLEL version

* Running on 4 nodes in parallel
>> Start of run:   9-NOV-2022   9:00:38

                           ***********************       
                           *  WELCOME TO SIESTA  *       
                           ***********************       

reinit: Reading from standard input
reinit: Dumped input in INPUT_TMP.05857
************************** Dump of input data file ****************************
SystemName LiC6_scf
SystemLabel LiC6_scf
NumberOfAtoms   7
NumberOfSpecies 2
%block ChemicalSpeciesLabel
1  3   Li-gga
2  6   C-gga
%endblock ChemicalSpeciesLabel
PAO.BasisSize  DZP
PAO.EnergyShift  10 meV
%block PS.Lmax
C-gga   2
Li-gga  2
%endblock PS.Lmax
LatticeConstant 1.000000 Ang
%block LatticeVectors
	4.3161300000	0.0000000000	0.0000000000
	-2.1580650000	3.7378782260	0.0000000000
	0.0000000000	0.0000000000	4.3658348000
%endblock LatticeVectors
AtomicCoordinatesFormat Ang
%block AtomicCoordinatesAndAtomicSpecies
	0.00000000	0.00000000	0.00000000	2
	-0.70288177	1.21742694	2.18291740	1
	-1.45518323	2.52045129	2.18291740	1
	1.45518323	2.52045129	2.18291740	1
	0.70288177	1.21742694	2.18291740	1
	1.40576354	0.00000000	2.18291740	1
	2.91036646	0.00000000	2.18291740	1
%endblock AtomicCoordinatesAndAtomicSpecies
Kgrid_NoTRS  T
%block kgrid_MonkhorstPack
4       0       0       0.0
0       4       0       0.0
0       0       4       0.0
%endblock kgrid_MonkhorstPack
AtomCoorFormatOut Ang
BlockSize 1
#ProcessorY 12
Diag.ParallelOverK   T
Diag.DivideAndConquer F
MeshCutoff   300 Ry
SCF.FreeE.Tolerance 1E-3 eV
SCF.EDM.Tolerance   5E-3 eV
DM.Tolerance  1E-3
DM.Require.Energy.Convergence T
DM.NumberPulay 4
XC.Functional GGA
XC.Authors    PBE
UseSaveData        F
MD.TypeOfRun       CG
MD.VariableCell    F
MD.NumCGsteps      00
MD.MaxCGDispl      0.200000 Bohr
MD.MaxStressTol    1.000000 GPa
MD.MaxForceTol     0.010000 eV/Ang
WriteMDHistory T
WriteCoorStep T
WriteForces T
WriteCoorStep    T
WriteEigenValues T
WriteDM    F
MM.UnitsDistance Ang  # what this program prints out DO NOT CHANGE
MM.UnitsEnergy    eV  # what this program prints out DO NOT CHANGE
MM.Grimme.S6     0.75 # Grimme-paper for PBE (correct for your functional)
MM.Grimme.D     20.   # Grimme-paper (correct for your functional)
%block MM.Potentials
  1   1 Grimme     16.69      1.650 # Li, 10.1002/jcc.20495
  1   2 Grimme     17.40      2.277 # Li / C
  2   2 Grimme     18.14      2.904 # C, 10.1002/jcc.20495
%endblock MM.Potentials
#%block ProjectedDensityOfStates
# -200.0  120.0  0.4  12800  eV
#%endblock ProjectedDensityOfStates
************************** End of input data file *****************************

reinit: -----------------------------------------------------------------------
reinit: System Name: LiC6_scf
reinit: -----------------------------------------------------------------------
reinit: System Label: LiC6_scf
reinit: -----------------------------------------------------------------------
Reading two-body potentials
Grimme - two-body potential between 1 and 1
Grimme - two-body potential between 1 and 2
Grimme - two-body potential between 2 and 2

initatom: Reading input for the pseudopotentials and atomic orbitals ----------
Species number:   1 Atomic number:    3 Label: Li-gga
Species number:   2 Atomic number:    6 Label: C-gga

Ground state valence configuration:   2s01
Reading pseudopotential information in formatted form from Li-gga.psf

Valence configuration for pseudopotential generation:
2s( 1.00) rc: 2.28
2p( 0.00) rc: 2.28
3d( 0.00) rc: 2.59
4f( 0.00) rc: 2.59
Ground state valence configuration:   2s02  2p02
Reading pseudopotential information in formatted form from C-gga.psf

Valence configuration for pseudopotential generation:
2s( 2.00) rc: 1.56
2p( 2.00) rc: 1.56
3d( 0.00) rc: 1.56
4f( 0.00) rc: 1.56
relmxkb: Read Max KB Ang. Momentum=    2 for species C-gga
relmxkb: Read Max KB Ang. Momentum=    2 for species Li-gga

<basis_specs>
===============================================================================
Li-gga               Z=   3    Mass=  6.9400        Charge= 0.17977+309
Lmxo=0 Lmxkb= 2    BasisType=split      Semic=F
L=0  Nsemic=0  Cnfigmx=2
          i=1  nzeta=2  polorb=1  (2s)
            splnorm:   0.15000    
               vcte:    0.0000    
               rinn:    0.0000    
               qcoe:    0.0000    
               qyuk:    0.0000    
               qwid:   0.10000E-01
                rcs:    0.0000      0.0000    
            lambdas:    1.0000      1.0000    
-------------------------------------------------------------------------------
L=0  Nkbl=1  erefs: 0.17977+309
L=1  Nkbl=1  erefs: 0.17977+309
L=2  Nkbl=1  erefs: 0.17977+309
===============================================================================
</basis_specs>

atom: Called for Li-gga                (Z =   3)

read_vps: Pseudopotential generation method:
read_vps: ATM 3.2.2 Troullier-Martins                       
Valence charge for ps generation:    1.00000

read_vps: Pseudopotential includes a core correction:
read_vps: Pseudo-core for xc-correction

xc_check: Exchange-correlation functional:
xc_check: GGA Perdew, Burke & Ernzerhof 1996
V l=0 = -2*Zval/r beyond r=  2.2278
V l=1 = -2*Zval/r beyond r=  2.2278
V l=2 = -2*Zval/r beyond r=  2.5245
All V_l potentials equal beyond r=  2.4622
This should be close to max(r_c) in ps generation
All pots = -2*Zval/r beyond r=  2.5245

VLOCAL1: 99.0% of the norm of Vloc inside      7.160 Ry
VLOCAL1: 99.9% of the norm of Vloc inside     16.318 Ry
atom: Maximum radius for 4*pi*r*r*local-pseudopot. charge    2.86079
atom: Maximum radius for r*vlocal+2*Zval:    2.43160
GHOST: No ghost state for L =  0
GHOST: No ghost state for L =  1
GHOST: No ghost state for L =  2

KBgen: Kleinman-Bylander projectors: 
   l= 0   rc=  2.654023   el= -0.211234   Ekb=  1.742119   kbcos=  0.228463
   l= 1   rc=  2.721230   el= -0.080095   Ekb= -1.122375   kbcos= -0.147941
   l= 2   rc=  2.825246   el=  0.002001   Ekb= -0.207076   kbcos= -0.031965

KBgen: Total number of Kleinman-Bylander projectors:    9
atom: -------------------------------------------------------------------------

atom: SANKEY-TYPE ORBITALS:
atom: Selected multiple-zeta basis: split     

SPLIT: Orbitals with angular momentum L= 0

SPLIT: Basis orbitals for state 2s

SPLIT: PAO cut-off radius determined from an
SPLIT: energy shift=  0.000735 Ry

   izeta = 1
                 lambda =    1.000000
                     rc =   11.897381
                 energy =   -0.210580
                kinetic =    0.143382
    potential(screened) =   -0.353962
       potential(ionic) =   -0.533453

   izeta = 2
                 rmatch =    8.489163
              splitnorm =    0.150000
                 energy =   -0.186081
                kinetic =    0.225882
    potential(screened) =   -0.411964
       potential(ionic) =   -0.593024

POLgen: Perturbative polarization orbital with L=  1

POLgen: Polarization orbital for state 2s

   izeta = 1
                     rc =   11.897381
                 energy =   -0.027011
                kinetic =    0.282985
    potential(screened) =   -0.309997
       potential(ionic) =   -0.490997
atom: Total number of Sankey-type orbitals:  5

atm_pop: Valence configuration (for local Pseudopot. screening):
 2s( 1.00)                                                            
Vna: chval, zval:    1.00000   1.00000

Vna:  Cut-off radius for the neutral-atom potential:  11.897381
comcore: Pseudo-core radius Rcore=  3.450946

atom: _________________________________________________________________________

<basis_specs>
===============================================================================
C-gga                Z=   6    Mass=  12.010        Charge= 0.17977+309
Lmxo=1 Lmxkb= 2    BasisType=split      Semic=F
L=0  Nsemic=0  Cnfigmx=2
          i=1  nzeta=2  polorb=0  (2s)
            splnorm:   0.15000    
               vcte:    0.0000    
               rinn:    0.0000    
               qcoe:    0.0000    
               qyuk:    0.0000    
               qwid:   0.10000E-01
                rcs:    0.0000      0.0000    
            lambdas:    1.0000      1.0000    
L=1  Nsemic=0  Cnfigmx=2
          i=1  nzeta=2  polorb=1  (2p)
            splnorm:   0.15000    
               vcte:    0.0000    
               rinn:    0.0000    
               qcoe:    0.0000    
               qyuk:    0.0000    
               qwid:   0.10000E-01
                rcs:    0.0000      0.0000    
            lambdas:    1.0000      1.0000    
-------------------------------------------------------------------------------
L=0  Nkbl=1  erefs: 0.17977+309
L=1  Nkbl=1  erefs: 0.17977+309
L=2  Nkbl=1  erefs: 0.17977+309
===============================================================================
</basis_specs>

atom: Called for C-gga                 (Z =   6)

read_vps: Pseudopotential generation method:
read_vps: ATM 3.2.2 Troullier-Martins                       
Valence charge for ps generation:    4.00000

xc_check: Exchange-correlation functional:
xc_check: GGA Perdew, Burke & Ernzerhof 1996
V l=0 = -2*Zval/r beyond r=  1.5227
V l=1 = -2*Zval/r beyond r=  1.5227
V l=2 = -2*Zval/r beyond r=  1.5227
All V_l potentials equal beyond r=  1.4851
This should be close to max(r_c) in ps generation
All pots = -2*Zval/r beyond r=  1.5227

VLOCAL1: 99.0% of the norm of Vloc inside     19.682 Ry
VLOCAL1: 99.9% of the norm of Vloc inside     44.856 Ry
atom: Maximum radius for 4*pi*r*r*local-pseudopot. charge    1.79142
atom: Maximum radius for r*vlocal+2*Zval:    1.54183
GHOST: No ghost state for L =  0
GHOST: No ghost state for L =  1
GHOST: No ghost state for L =  2

KBgen: Kleinman-Bylander projectors: 
   l= 0   rc=  1.661951   el= -1.010689   Ekb=  5.289847   kbcos=  0.316429
   l= 1   rc=  1.661951   el= -0.388490   Ekb= -4.102504   kbcos= -0.351025
   l= 2   rc=  1.747182   el=  0.001971   Ekb= -1.006005   kbcos= -0.008530

KBgen: Total number of Kleinman-Bylander projectors:    9
atom: -------------------------------------------------------------------------

atom: SANKEY-TYPE ORBITALS:
atom: Selected multiple-zeta basis: split     

SPLIT: Orbitals with angular momentum L= 0

SPLIT: Basis orbitals for state 2s

SPLIT: PAO cut-off radius determined from an
SPLIT: energy shift=  0.000735 Ry

   izeta = 1
                 lambda =    1.000000
                     rc =    5.948690
                 energy =   -1.010099
                kinetic =    0.827121
    potential(screened) =   -1.837220
       potential(ionic) =   -5.392783

   izeta = 2
                 rmatch =    3.518811
              splitnorm =    0.150000
                 energy =   -0.877891
                kinetic =    1.289227
    potential(screened) =   -2.167118
       potential(ionic) =   -5.982073

SPLIT: Orbitals with angular momentum L= 1

SPLIT: Basis orbitals for state 2p

SPLIT: PAO cut-off radius determined from an
SPLIT: energy shift=  0.000735 Ry

   izeta = 1
                 lambda =    1.000000
                     rc =    7.638387
                 energy =   -0.387843
                kinetic =    2.314739
    potential(screened) =   -2.702582
       potential(ionic) =   -6.092371

   izeta = 2
                 rmatch =    3.840617
              splitnorm =    0.150000
                 energy =   -0.270479
                kinetic =    3.438347
    potential(screened) =   -3.708826
       potential(ionic) =   -7.497707

POLgen: Perturbative polarization orbital with L=  2

POLgen: Polarization orbital for state 2p

   izeta = 1
                     rc =    7.638387
                 energy =    0.921402
                kinetic =    1.955040
    potential(screened) =   -1.033637
       potential(ionic) =   -3.679558
atom: Total number of Sankey-type orbitals: 13

atm_pop: Valence configuration (for local Pseudopot. screening):
 2s( 2.00)                                                            
 2p( 2.00)                                                            
Vna: chval, zval:    4.00000   4.00000

Vna:  Cut-off radius for the neutral-atom potential:   7.638387

atom: _________________________________________________________________________

prinput: Basis input ----------------------------------------------------------

PAO.BasisType split     

%block ChemicalSpeciesLabel
    1    3 Li-gga                  # Species index, atomic number, species label
    2    6 C-gga                   # Species index, atomic number, species label
%endblock ChemicalSpeciesLabel

%block PAO.Basis                 # Define Basis set
Li-gga                1                    # Species label, number of l-shells
 n=2   0   2 P   1                   # n, l, Nzeta, Polarization, NzetaPol
  11.897      8.489   
   1.000      1.000   
C-gga                 2                    # Species label, number of l-shells
 n=2   0   2                         # n, l, Nzeta 
   5.949      3.519   
   1.000      1.000   
 n=2   1   2 P   1                   # n, l, Nzeta, Polarization, NzetaPol
   7.638      3.841   
   1.000      1.000   
%endblock PAO.Basis

prinput: ----------------------------------------------------------------------

coor:   Atomic-coordinates input format  =     Cartesian coordinates
coor:                                          (in Angstroms)

siesta: Atomic coordinates (Bohr) and species
siesta:      0.00000   0.00000   0.00000  2        1
siesta:     -1.32825   2.30060   4.12512  1        2
siesta:     -2.74990   4.76296   4.12512  1        3
siesta:      2.74990   4.76296   4.12512  1        4
siesta:      1.32825   2.30060   4.12512  1        5
siesta:      2.65651   0.00000   4.12512  1        6
siesta:      5.49980   0.00000   4.12512  1        7

siesta: System type = bulk      

initatomlists: Number of atoms, orbitals, and projectors:      7    43    63

siesta: ******************** Simulation parameters ****************************
siesta:
siesta: The following are some of the parameters of the simulation.
siesta: A complete list of the parameters used, including default values,
siesta: can be found in file out.fdf
siesta:
redata: Spin configuration                          = none
redata: Number of spin components                   = 1
redata: Time-Reversal Symmetry                      = T
redata: Spin spiral                                 = F
redata: Long output                                 =   F
redata: Number of Atomic Species                    =        2
redata: Charge density info will appear in .RHO file
redata: Write Mulliken Pop.                         = NO
redata: Matel table size (NRTAB)                    =     1024
redata: Mesh Cutoff                                 =   300.0000 Ry
redata: Net charge of the system                    =     0.0000 |e|
redata: Min. number of SCF Iter                     =        0
redata: Max. number of SCF Iter                     =     1000
redata: SCF convergence failure will abort job
redata: SCF mix quantity                            = Hamiltonian
redata: Mix DM or H after convergence               =   F
redata: Recompute H after scf cycle                 =   F
redata: Mix DM in first SCF step                    =   T
redata: Write Pulay info on disk                    =   F
redata: New DM Occupancy tolerance                  = 0.000000000001
redata: No kicks to SCF
redata: DM Mixing Weight for Kicks                  =     0.5000
redata: Require Harris convergence for SCF          =   F
redata: Harris energy tolerance for SCF             =     0.000100 eV
redata: Require DM convergence for SCF              =   T
redata: DM tolerance for SCF                        =     0.001000
redata: Require EDM convergence for SCF             =   F
redata: EDM tolerance for SCF                       =     0.005000 eV
redata: Require H convergence for SCF               =   T
redata: Hamiltonian tolerance for SCF               =     0.001000 eV
redata: Require (free) Energy convergence for SCF   =   T
redata: (free) Energy tolerance for SCF             =     0.001000 eV
redata: Using Saved Data (generic)                  =   F
redata: Use continuation files for DM               =   F
redata: Neglect nonoverlap interactions             =   F
redata: Method of Calculation                       = Diagonalization
redata: Electronic Temperature                      =   299.9869 K
redata: Fix the spin of the system                  =   F
redata: Dynamics option                             = Single-point calculation
mix.SCF: Pulay mixing                            = Pulay
mix.SCF:    Variant                              = stable
mix.SCF:    History steps                        = 4
mix.SCF:    Linear mixing weight                 =     0.250000
mix.SCF:    Mixing weight                        =     0.250000
mix.SCF:    SVD condition                        = 0.1000E-07
redata: ***********************************************************************

%block SCF.Mixers
  Pulay
%endblock SCF.Mixers

%block SCF.Mixer.Pulay
  # Mixing method
  method pulay
  variant stable

  # Mixing options
  weight 0.2500
  weight.linear 0.2500
  history 4
%endblock SCF.Mixer.Pulay

DM_history_depth set to one: no extrapolation allowed by default for geometry relaxation
Size of DM history Fstack: 1
Total number of electrons:    10.000000
Total ionic charge:    10.000000

* ProcessorY, Blocksize:    2   1


* Orbital distribution balance (max,min):    11    10

k-point displ. along   1 input, could be:     0.00    0.50
k-point displ. along   2 input, could be:     0.00    0.50
k-point displ. along   3 input, could be:     0.00    0.50
 Kpoints in:           48 . Kpoints trimmed:           44

siesta: k-grid: Number of k-points =    44
siesta: k-grid: Cutoff (effective) =     8.632 Ang
siesta: k-grid: Supercell and displacements
siesta: k-grid:    4   0   0      0.000
siesta: k-grid:    0   4   0      0.000
siesta: k-grid:    0   0   4      0.000

diag: Algorithm                                     = Expert
diag: Parallel over k                               =   T
diag: Use parallel 2D distribution                  =   T
diag: Parallel block-size                           = 1
diag: Parallel distribution                         =     2 x     2
diag: Used triangular part                          = Lower
diag: Absolute tolerance                            =  0.100E-15
diag: Orthogonalization factor                      =  0.100E-05
diag: Memory factor                                 =  1.0000

superc: Internal auxiliary supercell:     9 x     9 x     7  =     567
superc: Number of atoms, orbitals, and projectors:   3969  24381  35721


ts: **************************************************************
ts: Save H and S matrices                           =    F
ts: Save DM and EDM matrices                        =    F
ts: Only save the overlap matrix S                  =    F
ts: **************************************************************

************************ Begin: TS CHECKS AND WARNINGS ************************
************************ End: TS CHECKS AND WARNINGS **************************


                     ====================================
                        Single-point calculation
                     ====================================

outcoor: Atomic coordinates (Ang):                          
    0.00000000    0.00000000    0.00000000   2       1  C-gga
   -0.70288177    1.21742694    2.18291740   1       2  Li-gga
   -1.45518323    2.52045129    2.18291740   1       3  Li-gga
    1.45518323    2.52045129    2.18291740   1       4  Li-gga
    0.70288177    1.21742694    2.18291740   1       5  Li-gga
    1.40576354    0.00000000    2.18291740   1       6  Li-gga
    2.91036646    0.00000000    2.18291740   1       7  Li-gga

superc: Internal auxiliary supercell:     9 x     9 x     7  =     567
superc: Number of atoms, orbitals, and projectors:   3969  24381  35721

outcell: Unit cell vectors (Ang):
        4.316130    0.000000    0.000000
       -2.158065    3.737878    0.000000
        0.000000    0.000000    4.365835

outcell: Cell vector modules (Ang)   :    4.316130    4.316130    4.365835
outcell: Cell angles (23,13,12) (deg):     90.0000     90.0000    120.0000
outcell: Cell volume (Ang**3)        :     70.4347
<dSpData1D:S at geom step 0
  <sparsity:sparsity for geom step 0
    nrows_g=43 nrows=11 sparsity=28.8415 nnzs=53328, refcount: 7>
  <dData1D:(new from dSpData1D) n=53328, refcount: 1>
refcount: 1>
new_DM -- step:     1
Initializing Density Matrix...
DM filled with atomic data:
<dSpData2D:DM initialized from atoms
  <sparsity:sparsity for geom step 0
    nrows_g=43 nrows=11 sparsity=28.8415 nnzs=53328, refcount: 8>
  <dData2D:DM n=53328 m=1, refcount: 1>
refcount: 1>
No. of atoms with KB's overlaping orbs in proc 0. Max # of overlaps:     279     818
New grid distribution:   1
           1       1:   20    1:   10    1:   12
           2       1:   20    1:   10   13:   24
           3       1:   20   11:   20    1:   12
           4       1:   20   11:   20   13:   24

InitMesh: MESH =    40 x    40 x    48 =       76800
InitMesh: (bp) =    20 x    20 x    24 =        9600
InitMesh: Mesh cutoff (required, used) =   300.000   316.498 Ry
ExtMesh (bp) on 0 =   156 x   146 x   152 =     3461952
New grid distribution:   2
           1       1:   20    1:   10    1:   12
           2       1:   20    1:   10   13:   24
           3       1:   20   11:   20    1:   12
           4       1:   20   11:   20   13:   24
New grid distribution:   3
           1       1:   20    1:   10    1:   12
           2       1:   20    1:   10   13:   24
           3       1:   20   11:   20    1:   12
           4       1:   20   11:   20   13:   24
Setting up quadratic distribution...
ExtMesh (bp) on 0 =   156 x   146 x   152 =     3461952
PhiOnMesh: Number of (b)points on node 0 =                 2400
PhiOnMesh: nlist on node 0 =              1054312

stepf: Fermi-Dirac step function

siesta: Program's energy decomposition (eV):
siesta: Ebs     =      -151.773419
siesta: Eions   =       321.344870
siesta: Ena     =        91.652357
siesta: Ekin    =       111.319303
siesta: Enl     =        16.720710
siesta: Eso     =         0.000000
siesta: Edftu   =         0.000000
siesta: DEna    =         9.283012
siesta: DUscf   =         6.088397
siesta: DUext   =         0.000000
siesta: Exc     =       -94.297725
siesta: eta*DQ  =         0.000000
siesta: Emadel  =         0.000000
siesta: Emeta   =         0.000000
siesta: Emolmec =        -3.017310
siesta: Ekinion =         0.000000
siesta: Eharris =      -173.260066
siesta: Etot    =      -183.596125
siesta: FreeEng =      -183.602172

        iscf     Eharris(eV)        E_KS(eV)     FreeEng(eV)     dDmax    Ef(eV) dHmax(eV)
   scf:    1     -173.260066     -183.596125     -183.602172 30.951238-10.728084  7.063916
timer: Routine,Calls,Time,% = IterSCF        1      12.033  61.63
   scf:    2     -171.526128     -183.427775     -183.440242 12.011616-11.149496  8.031674
   scf:    3     -186.230492     -186.742165     -186.767811  6.108466-10.977917  0.725903
   scf:    4     -186.630599     -186.771850     -186.795756  1.469051-10.991366  1.029562
   scf:    5     -186.592207     -186.765855     -186.792392  0.710679-10.916924  0.884152
   scf:    6     -186.796547     -186.781934     -186.808728  0.114737-10.920279  0.728771
   scf:    7     -186.820395     -186.817264     -186.843142  0.532290-10.935928  0.014736
   scf:    8     -186.817324     -186.817294     -186.843150  0.004739-10.935668  0.004733
   scf:    9     -186.817312     -186.817303     -186.843152  0.006404-10.935632  0.001336
   scf:   10     -186.817304     -186.817304     -186.843152  0.007538-10.935720  0.001324
   scf:   11     -186.817309     -186.817306     -186.843152  0.000618-10.935806  0.000655

SCF Convergence by FreeE+DM+H criterion
|FreeE_i-FreeE_(i-1)| (eV) <     0.00100000
max |DM_out - DM_in|         :     0.0006178344
max |H_out - H_in|      (eV) :     0.0006546219
SCF cycle converged after 11 iterations

Using DM_out to compute the final energy and forces
No. of atoms with KB's overlaping orbs in proc 0. Max # of overlaps:     279     818

MM-Stress (kbar):       -0.77       -0.77       54.57        0.00        0.00        0.00

siesta: E_KS(eV) =             -186.8173

siesta: E_KS - E_eggbox =      -186.8173

siesta: Atomic forces (eV/Ang):
     1    0.000000    0.000000    0.000000
     2    0.128416   -0.222305   -0.000000
     3   -0.128416    0.222305   -0.000000
     4    0.128321    0.222259   -0.000000
     5   -0.128321   -0.222259   -0.000000
     6   -0.256730    0.000059   -0.000000
     7    0.256730   -0.000059   -0.000000
----------------------------------------
   Tot   -0.000000   -0.000000    0.000000
----------------------------------------
   Max    0.256730
   Res    0.137212    sqrt( Sum f_i^2 / 3N )
----------------------------------------
   Max    0.256730    constrained

Stress tensor Voigt[x,y,z,yz,xz,xy] (kbar):     -860.53     -860.56      471.50       -0.00       -0.00       -0.03
(Free)E + p*V (eV/cell)     -168.5319
Target enthalpy (eV/cell)     -186.8432

siesta: Eigenvalues (eV):
  ik is       eps
   1  1  -19.9219  -13.7037  -13.2187  -12.7167  -10.7440  -10.1380   -9.7938   -8.1578   -6.5545   -4.0240
          -1.9074   -1.8550   -0.7676    0.1816    0.8039    1.4930    2.7795    4.6389    4.6624    6.7556
    8.6043   13.5289   15.5336   17.7683   19.6620   21.7704   21.8937   21.8958   24.4456   27.0587
   29.2628   30.5613   32.0257   32.8434   32.9371   37.2847   41.8917   45.3588   48.0842   57.7395
   63.3249   66.7819   84.4024
   2  1  -20.0410  -13.6436  -13.6405  -11.5615  -10.9780  -10.7660   -9.9966   -7.6278   -4.2242   -3.5878
          -3.3409   -2.9435   -1.9587   -1.0484   -0.4931    1.8457    4.1415    6.4378    8.4372    8.5454
    9.0682   10.2719   12.4578   15.3529   20.0959   23.2498   25.0470   25.6630   26.0982   27.1576
   28.7742   29.1465   30.9076   31.5487   33.9882   39.2963   41.3083   43.8590   50.5440   59.2209
   66.1058   68.4857   74.5288
   3  1  -20.0410  -13.6436  -13.6405  -11.5615  -10.9781  -10.7660   -9.9966   -7.6279   -4.2242   -3.5877
          -3.3408   -2.9434   -1.9588   -1.0485   -0.4930    1.8457    4.1415    6.4378    8.4371    8.5454
    9.0680   10.2719   12.4578   15.3527   20.0959   23.2498   25.0470   25.6630   26.0986   27.1572
   28.7742   29.1468   30.9076   31.5487   33.9882   39.2963   41.3082   43.8589   50.5440   59.2208
   66.1057   68.4858   74.5288
   4  1  -19.9219  -13.7037  -13.2186  -12.7167  -10.7440  -10.1381   -9.7937   -8.1578   -6.5544   -4.0240
          -1.9074   -1.8551   -0.7675    0.1816    0.8040    1.4930    2.7795    4.6389    4.6624    6.7556
    8.6043   13.5290   15.5334   17.7683   19.6619   21.7704   21.8937   21.8960   24.4456   27.0585
   29.2630   30.5613   32.0257   32.8435   32.9371   37.2847   41.8916   45.3588   48.0842   57.7394
   63.3249   66.7819   84.4024
   5  1  -20.0410  -13.6436  -13.6405  -11.5615  -10.9780  -10.7660   -9.9966   -7.6278   -4.2242   -3.5878
          -3.3409   -2.9435   -1.9587   -1.0484   -0.4931    1.8457    4.1415    6.4378    8.4372    8.5454
    9.0682   10.2719   12.4578   15.3529   20.0959   23.2498   25.0470   25.6630   26.0982   27.1576
   28.7742   29.1465   30.9076   31.5487   33.9882   39.2963   41.3083   43.8589   50.5440   59.2209
   66.1058   68.4857   74.5288
   6  1  -20.0467  -13.9860  -13.2432  -10.7875  -10.7873  -10.5720  -10.2144   -6.7988   -4.8444   -4.8443
          -2.1899   -1.3773   -1.3772   -0.7574   -0.7573    1.0514    1.0515    7.1195   10.3121   10.3123
   12.5835   12.5836   17.2580   17.2580   20.1266   24.7922   27.0243   30.3851   30.3851   30.9817
   30.9823   33.4181   33.4181   35.0647   35.0648   44.8441   46.8651   57.8742   83.7812   83.7814
   90.9746   90.9747  129.5076
   7  1  -19.9283  -13.9150  -13.2007  -12.1292  -11.1431  -10.8224   -9.4882   -8.6163   -4.7774   -3.8386
          -3.6515   -2.2614   -0.2990    1.1002    1.2747    1.7736    1.9758    2.0978    2.4829    8.4683
   11.2954   15.7541   18.1530   18.1782   18.7669   20.4949   21.3950   23.8370   25.2771   25.2862
   27.6169   27.8339   31.5203   32.5685   35.8548   39.5960   45.6575   50.1844   56.7956   58.6881
   59.6806   71.9363   71.9840
   8  1  -19.9219  -13.7037  -13.2186  -12.7167  -10.7440  -10.1381   -9.7937   -8.1578   -6.5544   -4.0240
          -1.9074   -1.8551   -0.7675    0.1816    0.8040    1.4930    2.7795    4.6389    4.6624    6.7556
    8.6043   13.5290   15.5334   17.7683   19.6619   21.7704   21.8937   21.8960   24.4456   27.0585
   29.2630   30.5613   32.0257   32.8435   32.9371   37.2847   41.8916   45.3588   48.0842   57.7394
   63.3249   66.7819   84.4024
   9  1  -19.9219  -13.7037  -13.2186  -12.7167  -10.7440  -10.1381   -9.7937   -8.1578   -6.5544   -4.0240
          -1.9074   -1.8551   -0.7675    0.1816    0.8040    1.4930    2.7795    4.6389    4.6624    6.7556
    8.6043   13.5290   15.5334   17.7683   19.6619   21.7704   21.8937   21.8960   24.4456   27.0585
   29.2630   30.5613   32.0257   32.8435   32.9371   37.2847   41.8916   45.3588   48.0842   57.7394
   63.3249   66.7819   84.4024
  10  1  -19.9283  -13.9150  -13.2007  -12.1292  -11.1431  -10.8224   -9.4882   -8.6163   -4.7774   -3.8386
          -3.6515   -2.2614   -0.2990    1.1002    1.2747    1.7736    1.9758    2.0978    2.4829    8.4683
   11.2954   15.7541   18.1530   18.1782   18.7669   20.4949   21.3950   23.8370   25.2771   25.2862
   27.6169   27.8339   31.5203   32.5685   35.8548   39.5960   45.6575   50.1844   56.7956   58.6881
   59.6806   71.9363   71.9840
  11  1  -19.9219  -13.7037  -13.2186  -12.7167  -10.7440  -10.1381   -9.7937   -8.1578   -6.5544   -4.0240
          -1.9074   -1.8551   -0.7675    0.1816    0.8040    1.4930    2.7795    4.6389    4.6624    6.7556
    8.6043   13.5290   15.5334   17.7683   19.6619   21.7704   21.8937   21.8960   24.4456   27.0585
   29.2630   30.5613   32.0257   32.8435   32.9371   37.2847   41.8916   45.3588   48.0842   57.7394
   63.3249   66.7819   84.4024
  12  1  -19.9283  -13.9150  -13.2007  -12.1292  -11.1432  -10.8224   -9.4881   -8.6163   -4.7773   -3.8386
          -3.6516   -2.2613   -0.2989    1.1002    1.2748    1.7736    1.9758    2.0978    2.4829    8.4681
   11.2954   15.7542   18.1526   18.1782   18.7669   20.4948   21.3952   23.8370   25.2771   25.2862
   27.6173   27.8337   31.5202   32.5686   35.8548   39.5960   45.6575   50.1843   56.7955   58.6883
   59.6806   71.9361   71.9841
  13  1  -19.8083  -14.3825  -13.3405  -12.4306  -10.9539  -10.6192   -8.8506   -7.0869   -6.2883   -3.7698
          -2.9724   -2.9664    0.2002    1.1890    1.3410    2.1131    2.4206    5.4701    6.5825    8.4921
   10.1622   14.0619   17.3444   18.3657   19.1075   21.9410   22.0164   23.6556   25.6859   25.8782
   28.4296   30.8398   35.0707   35.3368   37.0435   42.3024   46.2435   48.0068   49.3584   59.4429
   68.1896   68.6377   78.0855
  14  1  -19.9586  -14.5772  -13.2538  -11.4594  -10.9657  -10.9224   -9.2662   -7.1307   -4.6565   -4.6549
          -3.4795   -3.2343   -0.9960   -0.7576   -0.1121    0.6066    3.2037    9.2613    9.5688   11.1444
   11.5250   12.1357   15.7071   18.4982   18.5826   22.3126   24.3905   24.5518   25.1665   25.7988
   27.1831   28.8503   31.9483   35.0442   35.8689   37.3771   43.8958   49.5700   51.9469   57.2985
   65.6833   70.5950   71.8175
  15  1  -19.9586  -14.5772  -13.2538  -11.4594  -10.9658  -10.9224   -9.2661   -7.1307   -4.6565   -4.6549
          -3.4795   -3.2343   -0.9959   -0.7576   -0.1120    0.6066    3.2037    9.2614    9.5687   11.1445
   11.5251   12.1355   15.7072   18.4982   18.5824   22.3126   24.3905   24.5518   25.1664   25.7993
   27.1830   28.8503   31.9483   35.0440   35.8690   37.3771   43.8958   49.5700   51.9468   57.2984
   65.6833   70.5951   71.8175
  16  1  -19.8083  -14.3825  -13.3405  -12.4306  -10.9539  -10.6192   -8.8506   -7.0869   -6.2884   -3.7698
          -2.9725   -2.9664    0.2003    1.1891    1.3410    2.1131    2.4206    5.4702    6.5825    8.4920
   10.1621   14.0618   17.3443   18.3659   19.1076   21.9412   22.0164   23.6555   25.6859   25.8784
   28.4293   30.8398   35.0706   35.3367   37.0435   42.3023   46.2435   48.0069   49.3585   59.4428
   68.1897   68.6376   78.0855
  17  1  -19.9586  -14.5772  -13.2538  -11.4594  -10.9657  -10.9224   -9.2662   -7.1307   -4.6565   -4.6549
          -3.4795   -3.2343   -0.9960   -0.7576   -0.1121    0.6066    3.2037    9.2613    9.5688   11.1444
   11.5250   12.1357   15.7071   18.4982   18.5826   22.3126   24.3905   24.5518   25.1665   25.7988
   27.1831   28.8502   31.9483   35.0442   35.8689   37.3771   43.8958   49.5700   51.9469   57.2985
   65.6833   70.5950   71.8175
  18  1  -20.0682  -14.4852  -12.9213  -10.7579  -10.7577  -10.6720  -10.0560   -6.6484   -4.4642   -4.4641
          -3.4529   -3.4529   -1.5939   -1.5938    0.1085    1.1193    1.1195   10.6454   14.4196   14.4197
   15.8329   15.8332   18.7085   19.2554   19.2554   24.6002   25.0241   25.0241   27.6815   27.6900
   27.6905   30.7435   30.7435   40.5103   41.9954   41.9955   46.3432   48.3243   58.3368   58.3368
   65.7794   67.3450   67.3450
  19  1  -19.9586  -14.5772  -13.2538  -11.4594  -10.9657  -10.9224   -9.2662   -7.1307   -4.6565   -4.6549
          -3.4795   -3.2343   -0.9960   -0.7576   -0.1121    0.6066    3.2037    9.2613    9.5688   11.1444
   11.5250   12.1357   15.7071   18.4982   18.5826   22.3126   24.3905   24.5518   25.1665   25.7988
   27.1831   28.8502   31.9483   35.0442   35.8689   37.3771   43.8958   49.5700   51.9469   57.2985
   65.6833   70.5950   71.8175
  20  1  -19.8071  -14.4180  -13.5020  -11.6615  -11.1488  -10.9803   -8.9786   -6.6930   -6.0418   -4.9053
          -2.5159   -0.9530   -0.0254    0.3509    1.1847    1.7208    2.2978    4.7547    8.7358    9.8448
   11.1929   13.4690   14.5489   18.7138   19.1266   20.0110   24.0070   24.5073   24.8038   26.4852
   28.0471   29.0042   29.0067   34.4081   37.5848   39.6454   48.9921   50.9811   56.1698   64.9639
   66.4291   66.6045   82.0130
  21  1  -19.9586  -14.5772  -13.2538  -11.4594  -10.9658  -10.9224   -9.2661   -7.1307   -4.6565   -4.6549
          -3.4795   -3.2343   -0.9959   -0.7576   -0.1120    0.6066    3.2037    9.2614    9.5687   11.1445
   11.5251   12.1355   15.7072   18.4982   18.5824   22.3126   24.3905   24.5518   25.1664   25.7993
   27.1830   28.8503   31.9483   35.0440   35.8690   37.3771   43.8958   49.5700   51.9468   57.2984
   65.6833   70.5951   71.8175
  22  1  -19.9586  -14.5772  -13.2538  -11.4594  -10.9657  -10.9224   -9.2662   -7.1307   -4.6565   -4.6549
          -3.4795   -3.2343   -0.9960   -0.7576   -0.1121    0.6066    3.2037    9.2613    9.5688   11.1444
   11.5250   12.1357   15.7071   18.4982   18.5826   22.3126   24.3905   24.5518   25.1665   25.7988
   27.1831   28.8503   31.9483   35.0442   35.8689   37.3771   43.8958   49.5700   51.9469   57.2985
   65.6833   70.5950   71.8175
  23  1  -19.8083  -14.3825  -13.3405  -12.4306  -10.9539  -10.6192   -8.8506   -7.0869   -6.2883   -3.7698
          -2.9724   -2.9664    0.2002    1.1890    1.3410    2.1131    2.4206    5.4701    6.5825    8.4921
   10.1622   14.0619   17.3444   18.3657   19.1075   21.9410   22.0164   23.6556   25.6859   25.8782
   28.4296   30.8398   35.0707   35.3368   37.0435   42.3024   46.2435   48.0068   49.3584   59.4429
   68.1896   68.6377   78.0855
  24  1  -19.8083  -14.3825  -13.3405  -12.4306  -10.9539  -10.6192   -8.8506   -7.0869   -6.2884   -3.7698
          -2.9725   -2.9664    0.2003    1.1891    1.3410    2.1131    2.4206    5.4702    6.5825    8.4920
   10.1621   14.0618   17.3443   18.3659   19.1076   21.9412   22.0164   23.6555   25.6859   25.8784
   28.4293   30.8398   35.0706   35.3367   37.0435   42.3023   46.2435   48.0069   49.3585   59.4428
   68.1897   68.6376   78.0855
  25  1  -19.8083  -14.3825  -13.3405  -12.4306  -10.9539  -10.6192   -8.8506   -7.0869   -6.2884   -3.7698
          -2.9725   -2.9664    0.2003    1.1891    1.3410    2.1131    2.4206    5.4702    6.5825    8.4920
   10.1621   14.0618   17.3443   18.3659   19.1076   21.9412   22.0164   23.6555   25.6859   25.8784
   28.4293   30.8398   35.0706   35.3367   37.0435   42.3023   46.2435   48.0069   49.3585   59.4428
   68.1897   68.6376   78.0854
  26  1  -19.8071  -14.4180  -13.5020  -11.6615  -11.1488  -10.9803   -8.9786   -6.6930   -6.0418   -4.9053
          -2.5159   -0.9530   -0.0254    0.3509    1.1847    1.7208    2.2978    4.7547    8.7358    9.8448
   11.1929   13.4690   14.5489   18.7138   19.1266   20.0110   24.0070   24.5073   24.8038   26.4852
   28.0471   29.0042   29.0067   34.4081   37.5848   39.6455   48.9921   50.9811   56.1698   64.9639
   66.4290   66.6045   82.0130
  27  1  -19.8083  -14.3825  -13.3405  -12.4306  -10.9539  -10.6192   -8.8506   -7.0869   -6.2884   -3.7698
          -2.9725   -2.9664    0.2003    1.1891    1.3410    2.1131    2.4206    5.4702    6.5825    8.4920
   10.1621   14.0618   17.3443   18.3659   19.1076   21.9412   22.0164   23.6555   25.6859   25.8784
   28.4293   30.8398   35.0706   35.3367   37.0435   42.3023   46.2435   48.0069   49.3585   59.4428
   68.1897   68.6376   78.0854
  28  1  -19.8071  -14.4180  -13.5020  -11.6615  -11.1489  -10.9803   -8.9786   -6.6929   -6.0417   -4.9053
          -2.5160   -0.9530   -0.0254    0.3510    1.1847    1.7207    2.2978    4.7548    8.7359    9.8447
   11.1928   13.4691   14.5488   18.7138   19.1266   20.0111   24.0070   24.5071   24.8038   26.4854
   28.0470   29.0043   29.0063   34.4083   37.5848   39.6454   48.9920   50.9810   56.1699   64.9640
   66.4290   66.6044   82.0129
  29  1  -19.6292  -15.2553  -12.4285  -12.0697  -11.6914  -11.5441   -6.5843   -6.2457   -5.6872   -4.0734
          -4.0271   -3.7078   -0.4743    1.7251    1.9478    2.0055    3.0137    8.7061    9.5145   12.8452
   14.3986   15.0469   15.3647   15.5405   16.8673   21.4129   22.6913   23.1284   24.9011   30.3296
   30.4378   32.3050   33.9510   37.8519   42.4826   46.4503   48.1185   64.3972   67.8598   71.1895
   72.1291   76.2415   84.5715
  30  1  -19.7584  -15.3920  -12.3932  -11.9810  -11.1848  -10.9393   -7.9790   -6.1924   -4.9276   -4.9145
          -4.0561   -2.2217   -2.1738   -1.6625    0.0488    3.1429    9.4140    9.5992   10.3964   13.4651
   15.7382   16.4537   17.3514   18.6871   19.7639   21.6466   22.3782   23.5317   24.3459   26.0477
   26.6276   36.0161   38.1249   39.3942   45.4563   51.1482   51.7312   54.5919   61.3535   74.5480
   87.0095   87.0412   92.3794
  31  1  -19.7584  -15.3920  -12.3932  -11.9810  -11.1848  -10.9394   -7.9789   -6.1924   -4.9276   -4.9145
          -4.0561   -2.2218   -2.1738   -1.6625    0.0489    3.1428    9.4140    9.5992   10.3964   13.4652
   15.7383   16.4537   17.3514   18.6872   19.7637   21.6464   22.3783   23.5322   24.3458   26.0477
   26.6277   36.0161   38.1248   39.3939   45.4563   51.1481   51.7313   54.5920   61.3535   74.5480
   87.0095   87.0412   92.3793
  32  1  -19.6292  -15.2553  -12.4285  -12.0697  -11.6915  -11.5441   -6.5842   -6.2457   -5.6873   -4.0734
          -4.0271   -3.7077   -0.4743    1.7251    1.9478    2.0055    3.0136    8.7061    9.5144   12.8452
   14.3987   15.0469   15.3647   15.5406   16.8673   21.4129   22.6912   23.1284   24.9017   30.3292
   30.4379   32.3048   33.9511   37.8518   42.4826   46.4504   48.1186   64.3972   67.8598   71.1895
   72.1292   76.2416   84.5714
  33  1  -19.7584  -15.3920  -12.3932  -11.9810  -11.1848  -10.9393   -7.9790   -6.1924   -4.9276   -4.9145
          -4.0561   -2.2217   -2.1738   -1.6625    0.0488    3.1429    9.4140    9.5992   10.3964   13.4651
   15.7382   16.4537   17.3514   18.6871   19.7639   21.6466   22.3782   23.5317   24.3459   26.0477
   26.6276   36.0161   38.1249   39.3942   45.4563   51.1482   51.7312   54.5919   61.3535   74.5480
   87.0095   87.0412   92.3794
  34  1  -19.8995  -15.4796  -12.4487  -10.8098  -10.7365  -10.7364   -9.3271   -6.0630   -4.0041   -4.0040
          -3.7999   -3.7998   -2.9211   -2.9210    2.1191    2.1194    5.9259   12.1919   15.9734   17.6428
   17.6428   20.0138   20.0138   21.7562   21.7563   22.8565   22.8572   23.2573   23.4817   23.4818
   25.1717   29.9351   29.9351   36.2532   43.6536   47.7828   48.6077   48.6078   49.3825  122.1662
  122.1662  134.2255  134.2255
  35  1  -19.7584  -15.3920  -12.3932  -11.9810  -11.1848  -10.9393   -7.9790   -6.1924   -4.9276   -4.9145
          -4.0561   -2.2217   -2.1738   -1.6625    0.0488    3.1429    9.4140    9.5992   10.3964   13.4651
   15.7382   16.4537   17.3514   18.6871   19.7639   21.6466   22.3782   23.5317   24.3459   26.0477
   26.6276   36.0161   38.1249   39.3942   45.4563   51.1482   51.7312   54.5919   61.3535   74.5480
   87.0095   87.0412   92.3794
  36  1  -19.6249  -15.3611  -12.6819  -12.2101  -11.3778  -11.1247   -7.3514   -6.4178   -5.6519   -5.2534
          -1.6701   -1.6280   -1.4702   -1.0878    0.6427    1.2208    4.1511    7.1610   12.0018   13.1192
   13.2227   13.9688   14.0122   16.4736   19.7724   19.9117   20.3210   25.0094   25.5056   27.6440
   29.2469   33.1756   33.9901   36.5723   45.7811   50.7037   52.9031   55.6228   60.3476   61.4341
   61.8967  126.3982  138.4569
  37  1  -19.7584  -15.3920  -12.3932  -11.9810  -11.1848  -10.9394   -7.9789   -6.1924   -4.9276   -4.9145
          -4.0561   -2.2218   -2.1738   -1.6625    0.0489    3.1428    9.4140    9.5992   10.3964   13.4652
   15.7383   16.4537   17.3514   18.6872   19.7637   21.6464   22.3783   23.5322   24.3458   26.0477
   26.6277   36.0161   38.1248   39.3939   45.4563   51.1481   51.7313   54.5920   61.3535   74.5480
   87.0095   87.0412   92.3793
  38  1  -19.7584  -15.3920  -12.3932  -11.9810  -11.1848  -10.9393   -7.9790   -6.1924   -4.9276   -4.9145
          -4.0561   -2.2217   -2.1738   -1.6625    0.0488    3.1429    9.4140    9.5992   10.3964   13.4651
   15.7382   16.4537   17.3514   18.6871   19.7639   21.6466   22.3782   23.5317   24.3459   26.0477
   26.6276   36.0161   38.1249   39.3942   45.4563   51.1482   51.7312   54.5919   61.3535   74.5480
   87.0095   87.0412   92.3794
  39  1  -19.6292  -15.2553  -12.4285  -12.0697  -11.6914  -11.5441   -6.5843   -6.2457   -5.6872   -4.0734
          -4.0271   -3.7078   -0.4743    1.7251    1.9478    2.0055    3.0137    8.7061    9.5145   12.8452
   14.3986   15.0469   15.3647   15.5405   16.8673   21.4129   22.6913   23.1284   24.9011   30.3296
   30.4378   32.3050   33.9510   37.8519   42.4826   46.4503   48.1185   64.3972   67.8598   71.1895
   72.1291   76.2415   84.5715
  40  1  -19.6292  -15.2553  -12.4285  -12.0697  -11.6915  -11.5441   -6.5842   -6.2457   -5.6873   -4.0734
          -4.0271   -3.7077   -0.4743    1.7251    1.9478    2.0055    3.0136    8.7061    9.5144   12.8452
   14.3987   15.0469   15.3647   15.5406   16.8673   21.4129   22.6912   23.1284   24.9017   30.3292
   30.4379   32.3048   33.9511   37.8518   42.4826   46.4504   48.1186   64.3972   67.8598   71.1895
   72.1292   76.2416   84.5714
  41  1  -19.6292  -15.2553  -12.4285  -12.0697  -11.6915  -11.5441   -6.5842   -6.2457   -5.6873   -4.0734
          -4.0271   -3.7077   -0.4743    1.7251    1.9478    2.0055    3.0136    8.7061    9.5144   12.8452
   14.3987   15.0469   15.3647   15.5405   16.8673   21.4129   22.6912   23.1284   24.9017   30.3291
   30.4379   32.3048   33.9511   37.8518   42.4826   46.4504   48.1186   64.3972   67.8598   71.1895
   72.1292   76.2416   84.5714
  42  1  -19.6249  -15.3611  -12.6819  -12.2101  -11.3778  -11.1247   -7.3514   -6.4178   -5.6519   -5.2534
          -1.6701   -1.6280   -1.4702   -1.0878    0.6427    1.2208    4.1511    7.1610   12.0018   13.1192
   13.2227   13.9688   14.0122   16.4736   19.7724   19.9118   20.3210   25.0094   25.5056   27.6440
   29.2469   33.1755   33.9901   36.5723   45.7811   50.7037   52.9031   55.6228   60.3476   61.4341
   61.8967  126.3982  138.4569
  43  1  -19.6292  -15.2553  -12.4285  -12.0697  -11.6915  -11.5441   -6.5842   -6.2457   -5.6873   -4.0734
          -4.0271   -3.7077   -0.4743    1.7251    1.9478    2.0055    3.0136    8.7061    9.5144   12.8452
   14.3987   15.0469   15.3647   15.5405   16.8673   21.4129   22.6912   23.1284   24.9017   30.3291
   30.4379   32.3048   33.9511   37.8518   42.4826   46.4504   48.1186   64.3972   67.8598   71.1895
   72.1292   76.2416   84.5714
  44  1  -19.6249  -15.3611  -12.6819  -12.2101  -11.3778  -11.1248   -7.3513   -6.4178   -5.6517   -5.2534
          -1.6702   -1.6282   -1.4703   -1.0878    0.6427    1.2208    4.1511    7.1609   12.0017   13.1191
   13.2227   13.9689   14.0122   16.4736   19.7727   19.9117   20.3210   25.0093   25.5055   27.6441
   29.2473   33.1756   33.9894   36.5723   45.7811   50.7037   52.9033   55.6227   60.3476   61.4341
   61.8967  126.3982  138.4568
siesta: Fermi energy =     -10.935806 eV

siesta: Program's energy decomposition (eV):
siesta: Ebs     =      -141.126282
siesta: Eions   =       321.344870
siesta: Ena     =        91.652357
siesta: Ekin    =       128.628403
siesta: Enl     =         8.159481
siesta: Eso     =         0.000000
siesta: Edftu   =         0.000000
siesta: DEna    =         4.791835
siesta: DUscf   =         1.121406
siesta: DUext   =         0.000000
siesta: Exc     =       -96.808611
siesta: eta*DQ  =         0.000000
siesta: Emadel  =         0.000000
siesta: Emeta   =         0.000000
siesta: Emolmec =        -3.017310
siesta: Ekinion =         0.000000
siesta: Eharris =      -186.817309
siesta: Etot    =      -186.817306
siesta: FreeEng =      -186.843152

siesta: Final energy (eV):
siesta:  Band Struct. =    -141.126282
siesta:       Kinetic =     128.628403
siesta:       Hartree =      40.461288
siesta:       Edftu   =       0.000000
siesta:       Eso     =       0.000000
siesta:    Ext. field =       0.000000
siesta:   Exch.-corr. =     -96.808611
siesta:  Ion-electron =    -244.623175
siesta:       Ion-ion =     -11.457902
siesta:       Ekinion =       0.000000
siesta:         Total =    -186.817306
siesta:         Fermi =     -10.935806

siesta: Atomic forces (eV/Ang):
siesta:      1    0.000000    0.000000    0.000000
siesta:      2    0.128416   -0.222305   -0.000000
siesta:      3   -0.128416    0.222305   -0.000000
siesta:      4    0.128321    0.222259   -0.000000
siesta:      5   -0.128321   -0.222259   -0.000000
siesta:      6   -0.256730    0.000059   -0.000000
siesta:      7    0.256730   -0.000059   -0.000000
siesta: ----------------------------------------
siesta:    Tot   -0.000000   -0.000000    0.000000

siesta: Stress tensor (static) (eV/Ang**3):
siesta:    -0.537097   -0.000016    0.000000
siesta:    -0.000016   -0.537115   -0.000000
siesta:    -0.000000   -0.000000    0.294286

siesta: Cell volume =         70.434748 Ang**3

siesta: Pressure (static):
siesta:                Solid            Molecule  Units
siesta:           0.00283146          0.00277174  Ry/Bohr**3
siesta:           0.25997529          0.25449174  eV/Ang**3
siesta:         416.53083770        407.74512088  kBar
(Free)E+ p_basis*V_orbitals  =        -167.409425
(Free)Eharris+ p_basis*V_orbitals  =        -167.409427

cite: Please see "LiC6_scf.bib" for an exhaustive BiBTeX file.
cite: Please clearly indicate Siesta version in published work: 4.1.5
cite: This calculation has made use of the following articles
cite: which are encouraged to be cited in a published work.
        Primary SIESTA paper
          DOI: www.doi.org/10.1088/0953-8984/14/11/302

>> End of run:   9-NOV-2022   9:02:47
Job completed
