Siesta Version  : 4.1.5
Architecture    : x86_64-unknown-linux-gnu--unknown
Compiler version: GNU Fortran (GCC) 11.3.0
Compiler flags  : mpif90 -g -O2 -fallow-argument-mismatch
PP flags        : -DMPI -DFC_HAVE_FLUSH -DFC_HAVE_ABORT
Libraries       :  -I/global/software/sl-7.x86_64/modules/intel/2020.4.304/mkl/include  /globall/software/sl-7.x86_64/modules/intel/2020.4.304/mkl/lib/intel64/libmkl_scalapack_lp64.a -Wl,--start-group /global/software/sl-7.x86_64/modules/intel/2020.4.304/mkl/lib/intel64/libmkl_intel_lp64.a /global/software/sl-7.x86_64/modules/intel/2020.4.304/mkl/lib/intel64/libmkl_sequential.a /global/software/sl-7.x86_64/modules/intel/2020.4.304/mkl/lib/intel64/libmkl_core.a /global/software/sl-7.x86_64/modules/intel/2020.4.304/mkl/lib/intel64/libmkl_blacs_openmpi_lp64.a -Wl,--end-group -lpthread -lm -ldl
PARALLEL version

* Running on 4 nodes in parallel
>> Start of run:   9-NOV-2022   7:46:30

                           ***********************       
                           *  WELCOME TO SIESTA  *       
                           ***********************       

reinit: Reading from standard input
reinit: Dumped input in INPUT_TMP.57980
************************** Dump of input data file ****************************
SystemName LiC6_scf
SystemLabel LiC6_scf
NumberOfAtoms   7
NumberOfSpecies 2
%block ChemicalSpeciesLabel
1  3   Li-gga
2  6   C-gga
%endblock ChemicalSpeciesLabel
PAO.BasisSize  DZP
PAO.EnergyShift  10 meV
%block PS.Lmax
C-gga   2
Li-gga  2
%endblock PS.Lmax
LatticeConstant 1.000000 Ang
%block LatticeVectors
	4.3161300000	0.0000000000	0.0000000000
	-2.1580650000	3.7378782260	0.0000000000
	0.0000000000	0.0000000000	2.6638992000
%endblock LatticeVectors
AtomicCoordinatesFormat Ang
%block AtomicCoordinatesAndAtomicSpecies
	0.00000000	0.00000000	0.00000000	2
	-0.70288177	1.21742694	1.33194960	1
	-1.45518323	2.52045129	1.33194960	1
	1.45518323	2.52045129	1.33194960	1
	0.70288177	1.21742694	1.33194960	1
	1.40576354	0.00000000	1.33194960	1
	2.91036646	0.00000000	1.33194960	1
%endblock AtomicCoordinatesAndAtomicSpecies
Kgrid_NoTRS  T
%block kgrid_MonkhorstPack
4       0       0       0.0
0       4       0       0.0
0       0       4       0.0
%endblock kgrid_MonkhorstPack
AtomCoorFormatOut Ang
BlockSize 1
#ProcessorY 12
Diag.ParallelOverK   T
Diag.DivideAndConquer F
MeshCutoff   300 Ry
SCF.FreeE.Tolerance 1E-3 eV
SCF.EDM.Tolerance   5E-3 eV
DM.Tolerance  1E-3
DM.Require.Energy.Convergence T
DM.NumberPulay 4
XC.Functional GGA
XC.Authors    PBE
UseSaveData        F
MD.TypeOfRun       CG
MD.VariableCell    F
MD.NumCGsteps      00
MD.MaxCGDispl      0.200000 Bohr
MD.MaxStressTol    1.000000 GPa
MD.MaxForceTol     0.010000 eV/Ang
WriteMDHistory T
WriteCoorStep T
WriteForces T
WriteCoorStep    T
WriteEigenValues T
WriteDM    F
MM.UnitsDistance Ang  # what this program prints out DO NOT CHANGE
MM.UnitsEnergy    eV  # what this program prints out DO NOT CHANGE
MM.Grimme.S6     0.75 # Grimme-paper for PBE (correct for your functional)
MM.Grimme.D     20.   # Grimme-paper (correct for your functional)
%block MM.Potentials
  1   1 Grimme     16.69      1.650 # Li, 10.1002/jcc.20495
  1   2 Grimme     17.40      2.277 # Li / C
  2   2 Grimme     18.14      2.904 # C, 10.1002/jcc.20495
%endblock MM.Potentials
#%block ProjectedDensityOfStates
# -200.0  120.0  0.4  12800  eV
#%endblock ProjectedDensityOfStates
************************** End of input data file *****************************

reinit: -----------------------------------------------------------------------
reinit: System Name: LiC6_scf
reinit: -----------------------------------------------------------------------
reinit: System Label: LiC6_scf
reinit: -----------------------------------------------------------------------
Reading two-body potentials
Grimme - two-body potential between 1 and 1
Grimme - two-body potential between 1 and 2
Grimme - two-body potential between 2 and 2

initatom: Reading input for the pseudopotentials and atomic orbitals ----------
Species number:   1 Atomic number:    3 Label: Li-gga
Species number:   2 Atomic number:    6 Label: C-gga

Ground state valence configuration:   2s01
Reading pseudopotential information in formatted form from Li-gga.psf

Valence configuration for pseudopotential generation:
2s( 1.00) rc: 2.28
2p( 0.00) rc: 2.28
3d( 0.00) rc: 2.59
4f( 0.00) rc: 2.59
Ground state valence configuration:   2s02  2p02
Reading pseudopotential information in formatted form from C-gga.psf

Valence configuration for pseudopotential generation:
2s( 2.00) rc: 1.56
2p( 2.00) rc: 1.56
3d( 0.00) rc: 1.56
4f( 0.00) rc: 1.56
relmxkb: Read Max KB Ang. Momentum=    2 for species C-gga
relmxkb: Read Max KB Ang. Momentum=    2 for species Li-gga

<basis_specs>
===============================================================================
Li-gga               Z=   3    Mass=  6.9400        Charge= 0.17977+309
Lmxo=0 Lmxkb= 2    BasisType=split      Semic=F
L=0  Nsemic=0  Cnfigmx=2
          i=1  nzeta=2  polorb=1  (2s)
            splnorm:   0.15000    
               vcte:    0.0000    
               rinn:    0.0000    
               qcoe:    0.0000    
               qyuk:    0.0000    
               qwid:   0.10000E-01
                rcs:    0.0000      0.0000    
            lambdas:    1.0000      1.0000    
-------------------------------------------------------------------------------
L=0  Nkbl=1  erefs: 0.17977+309
L=1  Nkbl=1  erefs: 0.17977+309
L=2  Nkbl=1  erefs: 0.17977+309
===============================================================================
</basis_specs>

atom: Called for Li-gga                (Z =   3)

read_vps: Pseudopotential generation method:
read_vps: ATM 3.2.2 Troullier-Martins                       
Valence charge for ps generation:    1.00000

read_vps: Pseudopotential includes a core correction:
read_vps: Pseudo-core for xc-correction

xc_check: Exchange-correlation functional:
xc_check: GGA Perdew, Burke & Ernzerhof 1996
V l=0 = -2*Zval/r beyond r=  2.2278
V l=1 = -2*Zval/r beyond r=  2.2278
V l=2 = -2*Zval/r beyond r=  2.5245
All V_l potentials equal beyond r=  2.4622
This should be close to max(r_c) in ps generation
All pots = -2*Zval/r beyond r=  2.5245

VLOCAL1: 99.0% of the norm of Vloc inside      7.160 Ry
VLOCAL1: 99.9% of the norm of Vloc inside     16.318 Ry
atom: Maximum radius for 4*pi*r*r*local-pseudopot. charge    2.86079
atom: Maximum radius for r*vlocal+2*Zval:    2.43160
GHOST: No ghost state for L =  0
GHOST: No ghost state for L =  1
GHOST: No ghost state for L =  2

KBgen: Kleinman-Bylander projectors: 
   l= 0   rc=  2.654023   el= -0.211234   Ekb=  1.742119   kbcos=  0.228463
   l= 1   rc=  2.721230   el= -0.080095   Ekb= -1.122375   kbcos= -0.147941
   l= 2   rc=  2.825246   el=  0.002001   Ekb= -0.207076   kbcos= -0.031965

KBgen: Total number of Kleinman-Bylander projectors:    9
atom: -------------------------------------------------------------------------

atom: SANKEY-TYPE ORBITALS:
atom: Selected multiple-zeta basis: split     

SPLIT: Orbitals with angular momentum L= 0

SPLIT: Basis orbitals for state 2s

SPLIT: PAO cut-off radius determined from an
SPLIT: energy shift=  0.000735 Ry

   izeta = 1
                 lambda =    1.000000
                     rc =   11.897381
                 energy =   -0.210580
                kinetic =    0.143382
    potential(screened) =   -0.353962
       potential(ionic) =   -0.533453

   izeta = 2
                 rmatch =    8.489163
              splitnorm =    0.150000
                 energy =   -0.186081
                kinetic =    0.225882
    potential(screened) =   -0.411964
       potential(ionic) =   -0.593024

POLgen: Perturbative polarization orbital with L=  1

POLgen: Polarization orbital for state 2s

   izeta = 1
                     rc =   11.897381
                 energy =   -0.027011
                kinetic =    0.282985
    potential(screened) =   -0.309997
       potential(ionic) =   -0.490997
atom: Total number of Sankey-type orbitals:  5

atm_pop: Valence configuration (for local Pseudopot. screening):
 2s( 1.00)                                                            
Vna: chval, zval:    1.00000   1.00000

Vna:  Cut-off radius for the neutral-atom potential:  11.897381
comcore: Pseudo-core radius Rcore=  3.450946

atom: _________________________________________________________________________

<basis_specs>
===============================================================================
C-gga                Z=   6    Mass=  12.010        Charge= 0.17977+309
Lmxo=1 Lmxkb= 2    BasisType=split      Semic=F
L=0  Nsemic=0  Cnfigmx=2
          i=1  nzeta=2  polorb=0  (2s)
            splnorm:   0.15000    
               vcte:    0.0000    
               rinn:    0.0000    
               qcoe:    0.0000    
               qyuk:    0.0000    
               qwid:   0.10000E-01
                rcs:    0.0000      0.0000    
            lambdas:    1.0000      1.0000    
L=1  Nsemic=0  Cnfigmx=2
          i=1  nzeta=2  polorb=1  (2p)
            splnorm:   0.15000    
               vcte:    0.0000    
               rinn:    0.0000    
               qcoe:    0.0000    
               qyuk:    0.0000    
               qwid:   0.10000E-01
                rcs:    0.0000      0.0000    
            lambdas:    1.0000      1.0000    
-------------------------------------------------------------------------------
L=0  Nkbl=1  erefs: 0.17977+309
L=1  Nkbl=1  erefs: 0.17977+309
L=2  Nkbl=1  erefs: 0.17977+309
===============================================================================
</basis_specs>

atom: Called for C-gga                 (Z =   6)

read_vps: Pseudopotential generation method:
read_vps: ATM 3.2.2 Troullier-Martins                       
Valence charge for ps generation:    4.00000

xc_check: Exchange-correlation functional:
xc_check: GGA Perdew, Burke & Ernzerhof 1996
V l=0 = -2*Zval/r beyond r=  1.5227
V l=1 = -2*Zval/r beyond r=  1.5227
V l=2 = -2*Zval/r beyond r=  1.5227
All V_l potentials equal beyond r=  1.4851
This should be close to max(r_c) in ps generation
All pots = -2*Zval/r beyond r=  1.5227

VLOCAL1: 99.0% of the norm of Vloc inside     19.682 Ry
VLOCAL1: 99.9% of the norm of Vloc inside     44.856 Ry
atom: Maximum radius for 4*pi*r*r*local-pseudopot. charge    1.79142
atom: Maximum radius for r*vlocal+2*Zval:    1.54183
GHOST: No ghost state for L =  0
GHOST: No ghost state for L =  1
GHOST: No ghost state for L =  2

KBgen: Kleinman-Bylander projectors: 
   l= 0   rc=  1.661951   el= -1.010689   Ekb=  5.289847   kbcos=  0.316429
   l= 1   rc=  1.661951   el= -0.388490   Ekb= -4.102504   kbcos= -0.351025
   l= 2   rc=  1.747182   el=  0.001971   Ekb= -1.006005   kbcos= -0.008530

KBgen: Total number of Kleinman-Bylander projectors:    9
atom: -------------------------------------------------------------------------

atom: SANKEY-TYPE ORBITALS:
atom: Selected multiple-zeta basis: split     

SPLIT: Orbitals with angular momentum L= 0

SPLIT: Basis orbitals for state 2s

SPLIT: PAO cut-off radius determined from an
SPLIT: energy shift=  0.000735 Ry

   izeta = 1
                 lambda =    1.000000
                     rc =    5.948690
                 energy =   -1.010099
                kinetic =    0.827121
    potential(screened) =   -1.837220
       potential(ionic) =   -5.392783

   izeta = 2
                 rmatch =    3.518811
              splitnorm =    0.150000
                 energy =   -0.877891
                kinetic =    1.289227
    potential(screened) =   -2.167118
       potential(ionic) =   -5.982073

SPLIT: Orbitals with angular momentum L= 1

SPLIT: Basis orbitals for state 2p

SPLIT: PAO cut-off radius determined from an
SPLIT: energy shift=  0.000735 Ry

   izeta = 1
                 lambda =    1.000000
                     rc =    7.638387
                 energy =   -0.387843
                kinetic =    2.314739
    potential(screened) =   -2.702582
       potential(ionic) =   -6.092371

   izeta = 2
                 rmatch =    3.840617
              splitnorm =    0.150000
                 energy =   -0.270479
                kinetic =    3.438347
    potential(screened) =   -3.708826
       potential(ionic) =   -7.497707

POLgen: Perturbative polarization orbital with L=  2

POLgen: Polarization orbital for state 2p

   izeta = 1
                     rc =    7.638387
                 energy =    0.921402
                kinetic =    1.955040
    potential(screened) =   -1.033637
       potential(ionic) =   -3.679558
atom: Total number of Sankey-type orbitals: 13

atm_pop: Valence configuration (for local Pseudopot. screening):
 2s( 2.00)                                                            
 2p( 2.00)                                                            
Vna: chval, zval:    4.00000   4.00000

Vna:  Cut-off radius for the neutral-atom potential:   7.638387

atom: _________________________________________________________________________

prinput: Basis input ----------------------------------------------------------

PAO.BasisType split     

%block ChemicalSpeciesLabel
    1    3 Li-gga                  # Species index, atomic number, species label
    2    6 C-gga                   # Species index, atomic number, species label
%endblock ChemicalSpeciesLabel

%block PAO.Basis                 # Define Basis set
Li-gga                1                    # Species label, number of l-shells
 n=2   0   2 P   1                   # n, l, Nzeta, Polarization, NzetaPol
  11.897      8.489   
   1.000      1.000   
C-gga                 2                    # Species label, number of l-shells
 n=2   0   2                         # n, l, Nzeta 
   5.949      3.519   
   1.000      1.000   
 n=2   1   2 P   1                   # n, l, Nzeta, Polarization, NzetaPol
   7.638      3.841   
   1.000      1.000   
%endblock PAO.Basis

prinput: ----------------------------------------------------------------------

coor:   Atomic-coordinates input format  =     Cartesian coordinates
coor:                                          (in Angstroms)

siesta: Atomic coordinates (Bohr) and species
siesta:      0.00000   0.00000   0.00000  2        1
siesta:     -1.32825   2.30060   2.51702  1        2
siesta:     -2.74990   4.76296   2.51702  1        3
siesta:      2.74990   4.76296   2.51702  1        4
siesta:      1.32825   2.30060   2.51702  1        5
siesta:      2.65651   0.00000   2.51702  1        6
siesta:      5.49980   0.00000   2.51702  1        7

siesta: System type = bulk      

initatomlists: Number of atoms, orbitals, and projectors:      7    43    63

siesta: ******************** Simulation parameters ****************************
siesta:
siesta: The following are some of the parameters of the simulation.
siesta: A complete list of the parameters used, including default values,
siesta: can be found in file out.fdf
siesta:
redata: Spin configuration                          = none
redata: Number of spin components                   = 1
redata: Time-Reversal Symmetry                      = T
redata: Spin spiral                                 = F
redata: Long output                                 =   F
redata: Number of Atomic Species                    =        2
redata: Charge density info will appear in .RHO file
redata: Write Mulliken Pop.                         = NO
redata: Matel table size (NRTAB)                    =     1024
redata: Mesh Cutoff                                 =   300.0000 Ry
redata: Net charge of the system                    =     0.0000 |e|
redata: Min. number of SCF Iter                     =        0
redata: Max. number of SCF Iter                     =     1000
redata: SCF convergence failure will abort job
redata: SCF mix quantity                            = Hamiltonian
redata: Mix DM or H after convergence               =   F
redata: Recompute H after scf cycle                 =   F
redata: Mix DM in first SCF step                    =   T
redata: Write Pulay info on disk                    =   F
redata: New DM Occupancy tolerance                  = 0.000000000001
redata: No kicks to SCF
redata: DM Mixing Weight for Kicks                  =     0.5000
redata: Require Harris convergence for SCF          =   F
redata: Harris energy tolerance for SCF             =     0.000100 eV
redata: Require DM convergence for SCF              =   T
redata: DM tolerance for SCF                        =     0.001000
redata: Require EDM convergence for SCF             =   F
redata: EDM tolerance for SCF                       =     0.005000 eV
redata: Require H convergence for SCF               =   T
redata: Hamiltonian tolerance for SCF               =     0.001000 eV
redata: Require (free) Energy convergence for SCF   =   T
redata: (free) Energy tolerance for SCF             =     0.001000 eV
redata: Using Saved Data (generic)                  =   F
redata: Use continuation files for DM               =   F
redata: Neglect nonoverlap interactions             =   F
redata: Method of Calculation                       = Diagonalization
redata: Electronic Temperature                      =   299.9869 K
redata: Fix the spin of the system                  =   F
redata: Dynamics option                             = Single-point calculation
mix.SCF: Pulay mixing                            = Pulay
mix.SCF:    Variant                              = stable
mix.SCF:    History steps                        = 4
mix.SCF:    Linear mixing weight                 =     0.250000
mix.SCF:    Mixing weight                        =     0.250000
mix.SCF:    SVD condition                        = 0.1000E-07
redata: ***********************************************************************

%block SCF.Mixers
  Pulay
%endblock SCF.Mixers

%block SCF.Mixer.Pulay
  # Mixing method
  method pulay
  variant stable

  # Mixing options
  weight 0.2500
  weight.linear 0.2500
  history 4
%endblock SCF.Mixer.Pulay

DM_history_depth set to one: no extrapolation allowed by default for geometry relaxation
Size of DM history Fstack: 1
Total number of electrons:    10.000000
Total ionic charge:    10.000000

* ProcessorY, Blocksize:    2   1


* Orbital distribution balance (max,min):    11    10

k-point displ. along   1 input, could be:     0.00    0.50
k-point displ. along   2 input, could be:     0.00    0.50
k-point displ. along   3 input, could be:     0.00    0.50
 Kpoints in:           48 . Kpoints trimmed:           44

siesta: k-grid: Number of k-points =    44
siesta: k-grid: Cutoff (effective) =     5.328 Ang
siesta: k-grid: Supercell and displacements
siesta: k-grid:    4   0   0      0.000
siesta: k-grid:    0   4   0      0.000
siesta: k-grid:    0   0   4      0.000

diag: Algorithm                                     = Expert
diag: Parallel over k                               =   T
diag: Use parallel 2D distribution                  =   T
diag: Parallel block-size                           = 1
diag: Parallel distribution                         =     2 x     2
diag: Used triangular part                          = Lower
diag: Absolute tolerance                            =  0.100E-15
diag: Orthogonalization factor                      =  0.100E-05
diag: Memory factor                                 =  1.0000

superc: Internal auxiliary supercell:     9 x     9 x    11  =     891
superc: Number of atoms, orbitals, and projectors:   6237  38313  56133


ts: **************************************************************
ts: Save H and S matrices                           =    F
ts: Save DM and EDM matrices                        =    F
ts: Only save the overlap matrix S                  =    F
ts: **************************************************************

************************ Begin: TS CHECKS AND WARNINGS ************************
************************ End: TS CHECKS AND WARNINGS **************************


                     ====================================
                        Single-point calculation
                     ====================================

outcoor: Atomic coordinates (Ang):                          
    0.00000000    0.00000000    0.00000000   2       1  C-gga
   -0.70288177    1.21742694    1.33194960   1       2  Li-gga
   -1.45518323    2.52045129    1.33194960   1       3  Li-gga
    1.45518323    2.52045129    1.33194960   1       4  Li-gga
    0.70288177    1.21742694    1.33194960   1       5  Li-gga
    1.40576354    0.00000000    1.33194960   1       6  Li-gga
    2.91036646    0.00000000    1.33194960   1       7  Li-gga

superc: Internal auxiliary supercell:     9 x     9 x    11  =     891
superc: Number of atoms, orbitals, and projectors:   6237  38313  56133

outcell: Unit cell vectors (Ang):
        4.316130    0.000000    0.000000
       -2.158065    3.737878    0.000000
        0.000000    0.000000    2.663899

outcell: Cell vector modules (Ang)   :    4.316130    4.316130    2.663899
outcell: Cell angles (23,13,12) (deg):     90.0000     90.0000    120.0000
outcell: Cell volume (Ang**3)        :     42.9771
<dSpData1D:S at geom step 0
  <sparsity:sparsity for geom step 0
    nrows_g=43 nrows=11 sparsity=52.7204 nnzs=97480, refcount: 7>
  <dData1D:(new from dSpData1D) n=97480, refcount: 1>
refcount: 1>
new_DM -- step:     1
Initializing Density Matrix...
DM filled with atomic data:
<dSpData2D:DM initialized from atoms
  <sparsity:sparsity for geom step 0
    nrows_g=43 nrows=11 sparsity=52.7204 nnzs=97480, refcount: 8>
  <dData2D:DM n=97480 m=1, refcount: 1>
refcount: 1>
No. of atoms with KB's overlaping orbs in proc 0. Max # of overlaps:     451    1396
New grid distribution:   1
           1       1:   20    1:   10    1:    8
           2       1:   20    1:   10    9:   15
           3       1:   20   11:   20    1:    8
           4       1:   20   11:   20    9:   15

InitMesh: MESH =    40 x    40 x    30 =       48000
InitMesh: (bp) =    20 x    20 x    15 =        6000
InitMesh: Mesh cutoff (required, used) =   300.000   316.498 Ry
ExtMesh (bp) on 0 =   156 x   146 x   152 =     3461952
New grid distribution:   2
           1       1:   10    1:   10    1:   15
           2      11:   20    1:   10    1:   15
           3       1:   10   11:   20    1:   15
           4      11:   20   11:   20    1:   15
New grid distribution:   3
           1       1:   10    1:   10    1:   15
           2      11:   20    1:   10    1:   15
           3       1:   10   11:   20    1:   15
           4      11:   20   11:   20    1:   15
Setting up quadratic distribution...
ExtMesh (bp) on 0 =   146 x   146 x   159 =     3389244
PhiOnMesh: Number of (b)points on node 0 =                 1500
PhiOnMesh: nlist on node 0 =              1077602

stepf: Fermi-Dirac step function

siesta: Program's energy decomposition (eV):
siesta: Ebs     =      -136.364555
siesta: Eions   =       321.344870
siesta: Ena     =        74.872349
siesta: Ekin    =       214.054867
siesta: Enl     =       -15.528154
siesta: Eso     =         0.000000
siesta: Edftu   =         0.000000
siesta: DEna    =       -31.881256
siesta: DUscf   =        19.400873
siesta: DUext   =         0.000000
siesta: Exc     =      -120.077987
siesta: eta*DQ  =         0.000000
siesta: Emadel  =         0.000000
siesta: Emeta   =         0.000000
siesta: Emolmec =        -3.680310
siesta: Ekinion =         0.000000
siesta: Eharris =      -151.070884
siesta: Etot    =      -184.184488
siesta: FreeEng =      -184.197898

        iscf     Eharris(eV)        E_KS(eV)     FreeEng(eV)     dDmax    Ef(eV) dHmax(eV)
   scf:    1     -151.070884     -184.184488     -184.197898 13.738321-15.988826 16.416128
timer: Routine,Calls,Time,% = IterSCF        1      21.813  63.28
   scf:    2     -199.347716     -195.227554     -195.231757  3.068376-15.709535  1.566013
   scf:    3     -195.337287     -195.333836     -195.341302  1.229162-15.478644  0.224811
   scf:    4     -195.330478     -195.336238     -195.344103  0.555288-15.521895  0.293214
   scf:    5     -195.342292     -195.341036     -195.349310  0.351643-15.506417  0.024569
   scf:    6     -195.338723     -195.340263     -195.348540  0.091522-15.518440  0.129846
   scf:    7     -195.341188     -195.341097     -195.349336  0.122843-15.509387  0.010304
   scf:    8     -195.341087     -195.341094     -195.349341  0.008854-15.509926  0.000724
   scf:    9     -195.341090     -195.341092     -195.349341  0.001817-15.509849  0.000740
   scf:   10     -195.341095     -195.341094     -195.349341  0.001232-15.509712  0.001088
   scf:   11     -195.341092     -195.341093     -195.349341  0.001124-15.509760  0.000080
   scf:   12     -195.341093     -195.341093     -195.349341  0.000146-15.509747  0.000051

SCF Convergence by FreeE+DM+H criterion
|FreeE_i-FreeE_(i-1)| (eV) <     0.00100000
max |DM_out - DM_in|         :     0.0001461011
max |H_out - H_in|      (eV) :     0.0000513351
SCF cycle converged after 12 iterations

Using DM_out to compute the final energy and forces
No. of atoms with KB's overlaping orbs in proc 0. Max # of overlaps:     451    1396

MM-Stress (kbar):       16.94       16.94      135.32        0.00        0.00       -0.00

siesta: E_KS(eV) =             -195.3411

siesta: E_KS - E_eggbox =      -195.3411

siesta: Atomic forces (eV/Ang):
     1   -0.000000    0.000000    0.000000
     2   -0.603667    1.045726   -0.000000
     3    0.603667   -1.045726   -0.000000
     4   -0.603682   -1.045609   -0.000000
     5    0.603682    1.045609   -0.000000
     6    1.207459    0.000072   -0.000000
     7   -1.207459   -0.000072   -0.000000
----------------------------------------
   Tot   -0.000000    0.000000   -0.000000
----------------------------------------
   Max    1.207459
   Res    0.645397    sqrt( Sum f_i^2 / 3N )
----------------------------------------
   Max    1.207459    constrained

Stress tensor Voigt[x,y,z,yz,xz,xy] (kbar):    -1474.25    -1474.29      365.31        0.00        0.00       -0.04
(Free)E + p*V (eV/cell)     -172.2519
Target enthalpy (eV/cell)     -195.3493

siesta: Eigenvalues (eV):
  ik is       eps
   1  1  -27.2250  -20.3694  -19.4213  -16.5642  -16.0855  -15.2754  -10.6691   -6.9804   -6.7705   -3.9565
          -2.5771   -1.5570   -1.3717    2.2603    3.8553    6.2740    6.4653   11.3038   12.1227   13.1647
   13.8072   16.0310   19.3312   19.9090   23.6884   24.6150   24.6742   29.6412   39.0115   39.7360
   40.0845   40.6979   41.5474   44.7630   46.7775   49.1430   50.1167   54.3207   70.3820   76.2608
   85.5854   92.9508  108.4840
   2  1  -27.3133  -20.3439  -18.0170  -17.9369  -16.6541  -15.4594  -10.8651   -9.8728   -4.3074   -3.7668
          -2.4437   -1.5863    1.8932    1.9227    5.0084    5.0511    7.3634   12.8474   13.9591   16.1604
   16.2941   17.2693   19.9767   20.4406   22.8147   23.2959   25.1127   26.1038   28.7181   33.4328
   34.5374   45.1685   47.6701   47.6931   50.1575   53.1063   53.8359   58.1455   73.7868   78.0408
   86.1409  100.6084  110.4520
   3  1  -27.3133  -20.3439  -18.0170  -17.9370  -16.6540  -15.4594  -10.8652   -9.8728   -4.3074   -3.7667
          -2.4439   -1.5863    1.8932    1.9228    5.0081    5.0513    7.3636   12.8474   13.9592   16.1603
   16.2943   17.2693   19.9769   20.4405   22.8148   23.2954   25.1128   26.1035   28.7181   33.4327
   34.5380   45.1684   47.6699   47.6929   50.1575   53.1058   53.8359   58.1456   73.7866   78.0409
   86.1409  100.6082  110.4519
   4  1  -27.2250  -20.3694  -19.4214  -16.5643  -16.0854  -15.2754  -10.6691   -6.9804   -6.7705   -3.9566
          -2.5772   -1.5570   -1.3717    2.2603    3.8556    6.2736    6.4653   11.3038   12.1232   13.1647
   13.8068   16.0310   19.3311   19.9091   23.6881   24.6150   24.6742   29.6412   39.0114   39.7365
   40.0844   40.6980   41.5475   44.7630   46.7773   49.1431   50.1167   54.3207   70.3821   76.2606
   85.5856   92.9507  108.4837
   5  1  -27.3133  -20.3439  -18.0170  -17.9369  -16.6541  -15.4594  -10.8651   -9.8728   -4.3074   -3.7668
          -2.4437   -1.5863    1.8932    1.9227    5.0084    5.0511    7.3634   12.8474   13.9591   16.1604
   16.2941   17.2693   19.9767   20.4406   22.8147   23.2959   25.1127   26.1038   28.7181   33.4328
   34.5374   45.1685   47.6701   47.6931   50.1575   53.1063   53.8359   58.1455   73.7868   78.0408
   86.1409  100.6084  110.4520
   6  1  -27.3754  -19.9735  -17.7990  -17.7988  -17.1803  -15.5998  -11.6936  -11.6936   -3.9037   -1.5513
          -0.3125   -0.3119    2.8558    2.8558    6.8665    7.3076    7.3076    7.3375    7.3376   16.9269
   17.0981   18.5174   18.5174   18.9202   18.9203   30.2671   30.2673   32.9884   32.9898   35.5171
   37.5289   39.1165   43.1245   43.3640   44.1842   44.1844   52.6497   52.6508   93.5389  152.3310
  152.3317  168.3600  168.3604
   7  1  -27.2332  -20.5795  -18.4749  -18.0527  -15.4883  -15.2893   -9.3302   -8.8788   -6.0755   -4.2996
          -4.1607   -1.5209    0.1695    1.6136    3.1792    5.1553    6.4049    9.7730   10.6540   15.2637
   16.3159   17.6945   19.4097   19.8323   22.5688   24.5551   26.1892   27.2176   35.5184   36.6642
   39.5656   42.9632   46.9722   54.0900   54.4483   56.1166   57.9723   64.2297   70.2375   83.4137
  103.7142  110.1720  116.6240
   8  1  -27.2250  -20.3694  -19.4214  -16.5643  -16.0854  -15.2754  -10.6691   -6.9804   -6.7705   -3.9566
          -2.5772   -1.5570   -1.3717    2.2603    3.8556    6.2736    6.4653   11.3038   12.1232   13.1647
   13.8068   16.0310   19.3311   19.9091   23.6881   24.6150   24.6742   29.6412   39.0114   39.7365
   40.0844   40.6980   41.5475   44.7630   46.7773   49.1431   50.1167   54.3207   70.3821   76.2606
   85.5856   92.9507  108.4837
   9  1  -27.2250  -20.3694  -19.4214  -16.5643  -16.0854  -15.2754  -10.6691   -6.9804   -6.7705   -3.9566
          -2.5772   -1.5570   -1.3717    2.2603    3.8556    6.2736    6.4653   11.3038   12.1232   13.1647
   13.8068   16.0310   19.3311   19.9091   23.6881   24.6150   24.6742   29.6412   39.0114   39.7365
   40.0844   40.6980   41.5475   44.7630   46.7773   49.1431   50.1167   54.3207   70.3821   76.2606
   85.5856   92.9506  108.4837
  10  1  -27.2332  -20.5795  -18.4749  -18.0527  -15.4883  -15.2893   -9.3302   -8.8788   -6.0755   -4.2996
          -4.1607   -1.5209    0.1695    1.6136    3.1792    5.1553    6.4049    9.7730   10.6540   15.2637
   16.3159   17.6945   19.4097   19.8323   22.5688   24.5551   26.1892   27.2176   35.5184   36.6642
   39.5656   42.9632   46.9722   54.0900   54.4483   56.1166   57.9723   64.2297   70.2375   83.4137
  103.7142  110.1721  116.6240
  11  1  -27.2250  -20.3694  -19.4214  -16.5643  -16.0854  -15.2754  -10.6691   -6.9804   -6.7705   -3.9566
          -2.5772   -1.5570   -1.3717    2.2603    3.8556    6.2736    6.4653   11.3038   12.1232   13.1647
   13.8068   16.0310   19.3311   19.9091   23.6881   24.6150   24.6742   29.6412   39.0114   39.7365
   40.0844   40.6980   41.5475   44.7630   46.7773   49.1431   50.1167   54.3207   70.3821   76.2606
   85.5856   92.9506  108.4837
  12  1  -27.2332  -20.5795  -18.4748  -18.0528  -15.4881  -15.2893   -9.3303   -8.8788   -6.0755   -4.2996
          -4.1607   -1.5209    0.1695    1.6136    3.1789    5.1557    6.4050    9.7730   10.6545   15.2636
   16.3159   17.6945   19.4093   19.8324   22.5690   24.5546   26.1891   27.2175   35.5190   36.6641
   39.5656   42.9632   46.9722   54.0901   54.4483   56.1161   57.9723   64.2295   70.2376   83.4135
  103.7142  110.1719  116.6238
  13  1  -26.6591  -20.3283  -19.2056  -18.9121  -16.0234  -15.4736   -9.8288   -8.8514   -8.4409   -5.4881
          -4.9221   -2.3238   -0.7574    1.2299    1.2799    1.5955    5.9413    6.2617   10.7920   14.1922
   16.4253   19.1331   20.4699   21.5580   23.6152   24.8084   26.7688   30.9980   39.0507   41.0540
   41.6494   44.2972   45.1364   45.7188   50.6026   52.5283   55.9351   63.4188   75.1746   77.8924
   81.4384   87.0790   96.2681
  14  1  -26.8000  -20.6148  -18.6416  -18.0342  -16.7372  -15.8118  -10.1212   -9.4821   -9.3670   -3.7359
          -2.9818   -2.5363   -1.0773    0.2845    1.3898    3.6756    5.8176    8.1867   15.0035   17.9927
   18.3645   20.5759   21.9390   22.3810   23.2158   25.6303   28.2938   29.2116   36.9747   39.5954
   40.3401   43.1270   43.9243   46.2701   48.3647   51.9272   52.8038   55.4873   62.7022   63.4561
   69.1369   74.6006   89.4809
  15  1  -26.8000  -20.6148  -18.6416  -18.0343  -16.7372  -15.8117  -10.1212   -9.4821   -9.3670   -3.7358
          -2.9819   -2.5361   -1.0775    0.2845    1.3898    3.6755    5.8177    8.1866   15.0038   17.9930
   18.3641   20.5761   21.9389   22.3810   23.2156   25.6304   28.2937   29.2118   36.9744   39.5956
   40.3401   43.1276   43.9239   46.2697   48.3646   51.9269   52.8039   55.4874   62.7023   63.4562
   69.1368   74.6006   89.4803
  16  1  -26.6591  -20.3283  -19.2057  -18.9121  -16.0235  -15.4735   -9.8288   -8.8513   -8.4409   -5.4882
          -4.9221   -2.3239   -0.7574    1.2299    1.2799    1.5958    5.9411    6.2616   10.7919   14.1924
   16.4252   19.1332   20.4698   21.5582   23.6152   24.8085   26.7688   30.9978   39.0504   41.0538
   41.6494   44.2974   45.1363   45.7188   50.6024   52.5282   55.9353   63.4190   75.1747   77.8917
   81.4385   87.0791   96.2683
  17  1  -26.8000  -20.6148  -18.6416  -18.0342  -16.7372  -15.8118  -10.1212   -9.4821   -9.3670   -3.7359
          -2.9818   -2.5363   -1.0773    0.2845    1.3898    3.6756    5.8176    8.1867   15.0035   17.9927
   18.3645   20.5759   21.9390   22.3810   23.2158   25.6303   28.2938   29.2116   36.9747   39.5955
   40.3400   43.1270   43.9241   46.2701   48.3646   51.9272   52.8038   55.4873   62.7022   63.4562
   69.1370   74.6006   89.4808
  18  1  -26.9322  -20.7475  -17.8012  -17.8010  -16.8029  -15.9774  -10.9435  -10.9435   -9.2520   -1.8695
          -1.8693    1.1210    1.8596    1.8599    2.0354    2.0354    9.4979    9.4980   12.9847   20.7738
   21.5838   23.5967   23.5968   25.6175   25.6176   27.2040   27.2043   27.3805   35.8603   40.4260
   40.4277   42.3973   44.6359   47.5699   47.5711   49.9393   51.3214   51.3218  112.9149  118.6902
  118.6902  126.8317  126.8318
  19  1  -26.8000  -20.6148  -18.6416  -18.0342  -16.7372  -15.8118  -10.1212   -9.4821   -9.3670   -3.7359
          -2.9818   -2.5363   -1.0773    0.2845    1.3898    3.6756    5.8176    8.1867   15.0035   17.9927
   18.3645   20.5759   21.9390   22.3810   23.2158   25.6303   28.2938   29.2116   36.9747   39.5955
   40.3400   43.1270   43.9241   46.2701   48.3646   51.9272   52.8038   55.4873   62.7022   63.4562
   69.1370   74.6006   89.4808
  20  1  -26.6644  -20.4624  -19.3171  -18.2130  -17.0619  -14.9991   -9.0559   -8.9642   -8.3016   -5.5264
          -4.7050   -3.7767   -3.0859    0.9291    1.8672    2.0533    2.1193   11.7827   12.7979   13.1461
   18.3950   20.4403   20.6318   21.6195   23.4560   25.3714   27.0924   27.8852   33.4696   41.7625
   45.1937   45.1970   45.2946   45.3174   48.9540   50.9938   58.5809   63.5318   67.3614   68.7445
   75.2700   82.9025  105.5234
  21  1  -26.8000  -20.6148  -18.6416  -18.0343  -16.7372  -15.8117  -10.1212   -9.4821   -9.3670   -3.7358
          -2.9819   -2.5361   -1.0775    0.2845    1.3898    3.6755    5.8177    8.1866   15.0038   17.9930
   18.3641   20.5761   21.9389   22.3810   23.2156   25.6304   28.2937   29.2118   36.9744   39.5956
   40.3401   43.1276   43.9239   46.2697   48.3646   51.9269   52.8039   55.4874   62.7023   63.4562
   69.1368   74.6006   89.4803
  22  1  -26.8000  -20.6148  -18.6416  -18.0342  -16.7372  -15.8118  -10.1212   -9.4821   -9.3670   -3.7359
          -2.9818   -2.5363   -1.0773    0.2845    1.3898    3.6756    5.8176    8.1867   15.0035   17.9927
   18.3645   20.5759   21.9390   22.3810   23.2158   25.6303   28.2938   29.2116   36.9747   39.5954
   40.3401   43.1270   43.9243   46.2701   48.3647   51.9272   52.8038   55.4873   62.7022   63.4561
   69.1369   74.6006   89.4809
  23  1  -26.6591  -20.3283  -19.2056  -18.9121  -16.0234  -15.4736   -9.8288   -8.8514   -8.4409   -5.4881
          -4.9221   -2.3238   -0.7574    1.2299    1.2799    1.5955    5.9413    6.2617   10.7920   14.1922
   16.4253   19.1331   20.4699   21.5580   23.6152   24.8084   26.7688   30.9980   39.0507   41.0540
   41.6494   44.2972   45.1364   45.7188   50.6026   52.5283   55.9351   63.4188   75.1746   77.8924
   81.4384   87.0790   96.2681
  24  1  -26.6591  -20.3283  -19.2057  -18.9121  -16.0235  -15.4735   -9.8288   -8.8513   -8.4409   -5.4882
          -4.9221   -2.3239   -0.7574    1.2299    1.2799    1.5958    5.9411    6.2616   10.7919   14.1924
   16.4252   19.1332   20.4698   21.5582   23.6152   24.8085   26.7688   30.9978   39.0504   41.0538
   41.6494   44.2974   45.1363   45.7188   50.6024   52.5282   55.9353   63.4190   75.1747   77.8917
   81.4385   87.0791   96.2683
  25  1  -26.6591  -20.3283  -19.2057  -18.9121  -16.0235  -15.4735   -9.8288   -8.8513   -8.4409   -5.4882
          -4.9221   -2.3239   -0.7574    1.2299    1.2799    1.5958    5.9411    6.2616   10.7919   14.1924
   16.4252   19.1332   20.4698   21.5582   23.6152   24.8085   26.7687   30.9978   39.0504   41.0539
   41.6495   44.2973   45.1363   45.7188   50.6023   52.5282   55.9353   63.4188   75.1745   77.8923
   81.4385   87.0791   96.2680
  26  1  -26.6644  -20.4624  -19.3171  -18.2130  -17.0619  -14.9991   -9.0559   -8.9642   -8.3016   -5.5264
          -4.7050   -3.7767   -3.0859    0.9291    1.8672    2.0533    2.1193   11.7827   12.7979   13.1461
   18.3950   20.4402   20.6318   21.6195   23.4560   25.3714   27.0924   27.8852   33.4696   41.7627
   45.1937   45.1972   45.2946   45.3173   48.9539   50.9938   58.5809   63.5318   67.3613   68.7445
   75.2701   82.9025  105.5235
  27  1  -26.6591  -20.3283  -19.2057  -18.9121  -16.0235  -15.4735   -9.8288   -8.8513   -8.4409   -5.4882
          -4.9221   -2.3239   -0.7574    1.2299    1.2799    1.5958    5.9411    6.2616   10.7919   14.1924
   16.4252   19.1332   20.4698   21.5582   23.6152   24.8085   26.7687   30.9978   39.0504   41.0539
   41.6495   44.2973   45.1363   45.7188   50.6023   52.5282   55.9353   63.4188   75.1745   77.8923
   81.4385   87.0791   96.2680
  28  1  -26.6644  -20.4623  -19.3171  -18.2131  -17.0619  -14.9990   -9.0559   -8.9641   -8.3017   -5.5264
          -4.7051   -3.7767   -3.0859    0.9291    1.8675    2.0533    2.1190   11.7825   12.7981   13.1461
   18.3955   20.4403   20.6318   21.6195   23.4559   25.3715   27.0924   27.8852   33.4691   41.7625
   45.1938   45.1966   45.2946   45.3179   48.9537   50.9939   58.5800   63.5318   67.3615   68.7444
   75.2698   82.9029  105.5231
  29  1  -25.7730  -21.6943  -20.1690  -19.2240  -14.7448  -14.4259  -11.7221  -11.6295   -7.4067   -4.8294
          -4.7759   -2.7971   -0.9292   -0.7949   -0.6149   -0.3426    3.4166    3.5522    6.6865   17.4583
   17.6563   17.8078   18.7777   18.7961   27.4545   28.1850   29.5231   32.3572   32.5977   40.8448
   41.6645   43.0186   43.9019   44.5755   50.8078   52.5696   58.7155   65.4443   73.2453   73.2803
   77.3761   80.0838   98.1237
  30  1  -26.0807  -21.7033  -19.4746  -18.1923  -14.6017  -14.4305  -13.6520  -11.3141   -8.8557   -5.2482
          -4.6407   -3.7384   -3.1521   -1.0090    0.2705    3.4940    6.9111    7.8616   13.3306   15.1397
   18.6783   19.9159   20.8376   24.2644   25.1173   27.4833   28.8446   29.7904   33.5246   39.2081
   39.2203   42.1196   42.3361   43.2134   44.2855   56.6292   68.0465   68.2946   69.9215   81.0431
   99.7737  102.7444  177.2925
  31  1  -26.0807  -21.7033  -19.4745  -18.1925  -14.6017  -14.4305  -13.6519  -11.3140   -8.8558   -5.2482
          -4.6407   -3.7384   -3.1521   -1.0087    0.2701    3.4940    6.9111    7.8616   13.3307   15.1394
   18.6791   19.9158   20.8376   24.2643   25.1173   27.4833   28.8446   29.7904   33.5246   39.2080
   39.2193   42.1201   42.3361   43.2135   44.2848   56.6293   68.0462   68.2946   69.9217   81.0431
   99.7736  102.7443  177.2927
  32  1  -25.7730  -21.6943  -20.1689  -19.2241  -14.7448  -14.4260  -11.7222  -11.6293   -7.4064   -4.8294
          -4.7759   -2.7971   -0.9292   -0.7949   -0.6148   -0.3429    3.4166    3.5522    6.6865   17.4582
   17.6564   17.8078   18.7777   18.7967   27.4545   28.1850   29.5231   32.3571   32.5977   40.8448
   41.6632   43.0186   43.9019   44.5753   50.8078   52.5699   58.7155   65.4444   73.2453   73.2800
   77.3764   80.0838   98.1235
  33  1  -26.0807  -21.7033  -19.4746  -18.1923  -14.6017  -14.4305  -13.6520  -11.3141   -8.8557   -5.2482
          -4.6407   -3.7384   -3.1521   -1.0090    0.2705    3.4940    6.9111    7.8616   13.3306   15.1397
   18.6783   19.9159   20.8376   24.2644   25.1173   27.4833   28.8446   29.7904   33.5246   39.2081
   39.2202   42.1199   42.3361   43.2134   44.2853   56.6292   68.0464   68.2946   69.9215   81.0431
   99.7737  102.7446  177.2925
  34  1  -26.3439  -21.6633  -17.8544  -17.8542  -15.0790  -14.6329  -14.4941  -10.5226  -10.5226   -4.8433
          -4.8433   -4.7247   -4.7246    0.4174    0.4180    3.9813   10.8838   20.7478   20.7490   21.4588
   23.4548   23.4549   26.5358   26.5358   27.7133   28.2805   29.9149   29.9150   32.4601   32.4602
   39.9140   39.9149   40.0089   41.8109   43.6586   43.6952   85.9926   85.9930  124.2094  162.9516
  162.9517  170.4938  170.4939
  35  1  -26.0807  -21.7033  -19.4746  -18.1923  -14.6017  -14.4305  -13.6520  -11.3141   -8.8557   -5.2482
          -4.6407   -3.7384   -3.1521   -1.0090    0.2705    3.4940    6.9111    7.8616   13.3306   15.1397
   18.6783   19.9159   20.8376   24.2644   25.1173   27.4833   28.8446   29.7904   33.5246   39.2081
   39.2202   42.1199   42.3361   43.2134   44.2853   56.6292   68.0464   68.2946   69.9215   81.0431
   99.7737  102.7446  177.2925
  36  1  -25.7650  -21.6640  -20.5769  -18.4800  -14.5935  -14.3047  -13.8762   -9.6925   -5.9070   -5.4676
          -2.6069   -2.4417   -2.3299   -1.2635   -1.0999   -0.2659    0.4663    3.7388    7.5087   15.8085
   17.1744   17.7989   21.0941   23.7229   27.5136   28.0136   30.2577   33.4178   37.0550   40.6334
   45.1158   46.0947   46.9757   48.8612   57.5951   59.7664   60.6281   67.4944   69.2873   76.1908
   79.8988  110.3217  110.7172
  37  1  -26.0807  -21.7033  -19.4745  -18.1925  -14.6017  -14.4305  -13.6519  -11.3140   -8.8558   -5.2482
          -4.6407   -3.7384   -3.1521   -1.0087    0.2701    3.4940    6.9111    7.8616   13.3307   15.1394
   18.6791   19.9158   20.8376   24.2643   25.1173   27.4833   28.8446   29.7904   33.5246   39.2080
   39.2193   42.1201   42.3361   43.2135   44.2848   56.6293   68.0462   68.2946   69.9217   81.0431
   99.7736  102.7443  177.2927
  38  1  -26.0807  -21.7033  -19.4746  -18.1923  -14.6017  -14.4305  -13.6520  -11.3141   -8.8557   -5.2482
          -4.6407   -3.7384   -3.1521   -1.0090    0.2705    3.4940    6.9111    7.8616   13.3306   15.1397
   18.6783   19.9159   20.8376   24.2644   25.1173   27.4833   28.8446   29.7904   33.5246   39.2081
   39.2203   42.1196   42.3361   43.2134   44.2855   56.6292   68.0465   68.2946   69.9215   81.0431
   99.7737  102.7444  177.2925
  39  1  -25.7730  -21.6943  -20.1690  -19.2240  -14.7448  -14.4259  -11.7221  -11.6295   -7.4067   -4.8294
          -4.7759   -2.7971   -0.9292   -0.7949   -0.6149   -0.3426    3.4166    3.5522    6.6865   17.4583
   17.6563   17.8078   18.7777   18.7961   27.4545   28.1850   29.5231   32.3572   32.5977   40.8448
   41.6645   43.0186   43.9019   44.5755   50.8078   52.5696   58.7155   65.4443   73.2453   73.2803
   77.3761   80.0838   98.1237
  40  1  -25.7730  -21.6943  -20.1689  -19.2241  -14.7448  -14.4260  -11.7222  -11.6293   -7.4064   -4.8294
          -4.7759   -2.7971   -0.9292   -0.7949   -0.6148   -0.3429    3.4166    3.5522    6.6865   17.4582
   17.6564   17.8078   18.7777   18.7967   27.4545   28.1850   29.5231   32.3571   32.5977   40.8448
   41.6632   43.0186   43.9019   44.5753   50.8078   52.5699   58.7155   65.4444   73.2453   73.2800
   77.3764   80.0838   98.1235
  41  1  -25.7730  -21.6943  -20.1689  -19.2241  -14.7448  -14.4260  -11.7222  -11.6293   -7.4064   -4.8294
          -4.7759   -2.7971   -0.9292   -0.7949   -0.6148   -0.3429    3.4166    3.5522    6.6865   17.4582
   17.6564   17.8077   18.7777   18.7967   27.4545   28.1850   29.5231   32.3571   32.5977   40.8448
   41.6631   43.0186   43.9019   44.5757   50.8078   52.5698   58.7155   65.4444   73.2453   73.2800
   77.3764   80.0838   98.1235
  42  1  -25.7650  -21.6640  -20.5769  -18.4800  -14.5935  -14.3047  -13.8762   -9.6925   -5.9070   -5.4676
          -2.6069   -2.4417   -2.3299   -1.2635   -1.0999   -0.2659    0.4663    3.7388    7.5087   15.8085
   17.1744   17.7988   21.0941   23.7229   27.5136   28.0136   30.2577   33.4178   37.0550   40.6334
   45.1158   46.0951   46.9757   48.8612   57.5952   59.7664   60.6281   67.4945   69.2873   76.1908
   79.8988  110.3217  110.7170
  43  1  -25.7730  -21.6943  -20.1689  -19.2241  -14.7448  -14.4260  -11.7222  -11.6293   -7.4064   -4.8294
          -4.7759   -2.7971   -0.9292   -0.7949   -0.6148   -0.3429    3.4166    3.5522    6.6865   17.4582
   17.6564   17.8077   18.7777   18.7967   27.4545   28.1850   29.5231   32.3571   32.5977   40.8448
   41.6631   43.0186   43.9019   44.5757   50.8078   52.5698   58.7155   65.4444   73.2453   73.2800
   77.3764   80.0838   98.1235
  44  1  -25.7650  -21.6640  -20.5768  -18.4801  -14.5935  -14.3047  -13.8762   -9.6922   -5.9073   -5.4676
          -2.6069   -2.4417   -2.3300   -1.2635   -1.0999   -0.2660    0.4662    3.7388    7.5085   15.8085
   17.1750   17.7989   21.0940   23.7228   27.5137   28.0136   30.2577   33.4177   37.0537   40.6335
   45.1159   46.0944   46.9757   48.8613   57.5950   59.7667   60.6281   67.4944   69.2874   76.1912
   79.8986  110.3217  110.7168
siesta: Fermi energy =     -15.509747 eV

siesta: Program's energy decomposition (eV):
siesta: Ebs     =      -201.966277
siesta: Eions   =       321.344870
siesta: Ena     =        74.872349
siesta: Ekin    =       164.963255
siesta: Enl     =        -1.519790
siesta: Eso     =         0.000000
siesta: Edftu   =         0.000000
siesta: DEna    =        -1.152251
siesta: DUscf   =         2.310254
siesta: DUext   =         0.000000
siesta: Exc     =      -109.789730
siesta: eta*DQ  =         0.000000
siesta: Emadel  =         0.000000
siesta: Emeta   =         0.000000
siesta: Emolmec =        -3.680310
siesta: Ekinion =         0.000000
siesta: Eharris =      -195.341093
siesta: Etot    =      -195.341093
siesta: FreeEng =      -195.349341

siesta: Final energy (eV):
siesta:  Band Struct. =    -201.966277
siesta:       Kinetic =     164.963255
siesta:       Hartree =      61.041795
siesta:       Edftu   =       0.000000
siesta:       Eso     =       0.000000
siesta:    Ext. field =       0.000000
siesta:   Exch.-corr. =    -109.789730
siesta:  Ion-electron =    -366.196936
siesta:       Ion-ion =      58.320834
siesta:       Ekinion =       0.000000
siesta:         Total =    -195.341093
siesta:         Fermi =     -15.509747

siesta: Atomic forces (eV/Ang):
siesta:      1   -0.000000    0.000000    0.000000
siesta:      2   -0.603667    1.045726   -0.000000
siesta:      3    0.603667   -1.045726   -0.000000
siesta:      4   -0.603682   -1.045609   -0.000000
siesta:      5    0.603682    1.045609   -0.000000
siesta:      6    1.207459    0.000072   -0.000000
siesta:      7   -1.207459   -0.000072   -0.000000
siesta: ----------------------------------------
siesta:    Tot   -0.000000    0.000000   -0.000000

siesta: Stress tensor (static) (eV/Ang**3):
siesta:    -0.920141   -0.000026    0.000000
siesta:    -0.000026   -0.920171    0.000000
siesta:     0.000000    0.000000    0.228003

siesta: Cell volume =         42.977134 Ang**3

siesta: Pressure (static):
siesta:                Solid            Molecule  Units
siesta:           0.00585337          0.00631376  Ry/Bohr**3
siesta:           0.53743658          0.57970787  eV/Ang**3
siesta:         861.07763501        928.80444426  kBar
(Free)E+ p_basis*V_orbitals  =        -175.915614
(Free)Eharris+ p_basis*V_orbitals  =        -175.915614

cite: Please see "LiC6_scf.bib" for an exhaustive BiBTeX file.
cite: Please clearly indicate Siesta version in published work: 4.1.5
cite: This calculation has made use of the following articles
cite: which are encouraged to be cited in a published work.
        Primary SIESTA paper
          DOI: www.doi.org/10.1088/0953-8984/14/11/302

>> End of run:   9-NOV-2022   7:50:33
Job completed
