Siesta Version  : 4.1.5
Architecture    : x86_64-unknown-linux-gnu--unknown
Compiler version: GNU Fortran (GCC) 11.3.0
Compiler flags  : mpif90 -g -O2 -fallow-argument-mismatch
PP flags        : -DMPI -DFC_HAVE_FLUSH -DFC_HAVE_ABORT
Libraries       :  -I/global/software/sl-7.x86_64/modules/intel/2020.4.304/mkl/include  /globall/software/sl-7.x86_64/modules/intel/2020.4.304/mkl/lib/intel64/libmkl_scalapack_lp64.a -Wl,--start-group /global/software/sl-7.x86_64/modules/intel/2020.4.304/mkl/lib/intel64/libmkl_intel_lp64.a /global/software/sl-7.x86_64/modules/intel/2020.4.304/mkl/lib/intel64/libmkl_sequential.a /global/software/sl-7.x86_64/modules/intel/2020.4.304/mkl/lib/intel64/libmkl_core.a /global/software/sl-7.x86_64/modules/intel/2020.4.304/mkl/lib/intel64/libmkl_blacs_openmpi_lp64.a -Wl,--end-group -lpthread -lm -ldl
PARALLEL version

* Running on 4 nodes in parallel
>> Start of run:   9-NOV-2022   7:34:57

                           ***********************       
                           *  WELCOME TO SIESTA  *       
                           ***********************       

reinit: Reading from standard input
reinit: Dumped input in INPUT_TMP.65012
************************** Dump of input data file ****************************
SystemName LiC6_scf
SystemLabel LiC6_scf
NumberOfAtoms   7
NumberOfSpecies 2
%block ChemicalSpeciesLabel
1  3   Li-gga
2  6   C-gga
%endblock ChemicalSpeciesLabel
PAO.BasisSize  DZP
PAO.EnergyShift  10 meV
%block PS.Lmax
C-gga   2
Li-gga  2
%endblock PS.Lmax
LatticeConstant 1.000000 Ang
%block LatticeVectors
	4.3161300000	0.0000000000	0.0000000000
	-2.1580650000	3.7378782260	0.0000000000
	0.0000000000	0.0000000000	3.3298740000
%endblock LatticeVectors
AtomicCoordinatesFormat Ang
%block AtomicCoordinatesAndAtomicSpecies
	0.00000000	0.00000000	0.00000000	2
	-0.70288177	1.21742694	1.66493700	1
	-1.45518323	2.52045129	1.66493700	1
	1.45518323	2.52045129	1.66493700	1
	0.70288177	1.21742694	1.66493700	1
	1.40576354	0.00000000	1.66493700	1
	2.91036646	0.00000000	1.66493700	1
%endblock AtomicCoordinatesAndAtomicSpecies
Kgrid_NoTRS  T
%block kgrid_MonkhorstPack
4       0       0       0.0
0       4       0       0.0
0       0       4       0.0
%endblock kgrid_MonkhorstPack
AtomCoorFormatOut Ang
BlockSize 1
#ProcessorY 12
Diag.ParallelOverK   T
Diag.DivideAndConquer F
MeshCutoff   300 Ry
SCF.FreeE.Tolerance 1E-3 eV
SCF.EDM.Tolerance   5E-3 eV
DM.Tolerance  1E-3
DM.Require.Energy.Convergence T
DM.NumberPulay 4
XC.Functional GGA
XC.Authors    PBE
UseSaveData        F
MD.TypeOfRun       CG
MD.VariableCell    F
MD.NumCGsteps      00
MD.MaxCGDispl      0.200000 Bohr
MD.MaxStressTol    1.000000 GPa
MD.MaxForceTol     0.010000 eV/Ang
WriteMDHistory T
WriteCoorStep T
WriteForces T
WriteCoorStep    T
WriteEigenValues T
WriteDM    F
MM.UnitsDistance Ang  # what this program prints out DO NOT CHANGE
MM.UnitsEnergy    eV  # what this program prints out DO NOT CHANGE
MM.Grimme.S6     0.75 # Grimme-paper for PBE (correct for your functional)
MM.Grimme.D     20.   # Grimme-paper (correct for your functional)
%block MM.Potentials
  1   1 Grimme     16.69      1.650 # Li, 10.1002/jcc.20495
  1   2 Grimme     17.40      2.277 # Li / C
  2   2 Grimme     18.14      2.904 # C, 10.1002/jcc.20495
%endblock MM.Potentials
#%block ProjectedDensityOfStates
# -200.0  120.0  0.4  12800  eV
#%endblock ProjectedDensityOfStates
************************** End of input data file *****************************

reinit: -----------------------------------------------------------------------
reinit: System Name: LiC6_scf
reinit: -----------------------------------------------------------------------
reinit: System Label: LiC6_scf
reinit: -----------------------------------------------------------------------
Reading two-body potentials
Grimme - two-body potential between 1 and 1
Grimme - two-body potential between 1 and 2
Grimme - two-body potential between 2 and 2

initatom: Reading input for the pseudopotentials and atomic orbitals ----------
Species number:   1 Atomic number:    3 Label: Li-gga
Species number:   2 Atomic number:    6 Label: C-gga

Ground state valence configuration:   2s01
Reading pseudopotential information in formatted form from Li-gga.psf

Valence configuration for pseudopotential generation:
2s( 1.00) rc: 2.28
2p( 0.00) rc: 2.28
3d( 0.00) rc: 2.59
4f( 0.00) rc: 2.59
Ground state valence configuration:   2s02  2p02
Reading pseudopotential information in formatted form from C-gga.psf

Valence configuration for pseudopotential generation:
2s( 2.00) rc: 1.56
2p( 2.00) rc: 1.56
3d( 0.00) rc: 1.56
4f( 0.00) rc: 1.56
relmxkb: Read Max KB Ang. Momentum=    2 for species C-gga
relmxkb: Read Max KB Ang. Momentum=    2 for species Li-gga

<basis_specs>
===============================================================================
Li-gga               Z=   3    Mass=  6.9400        Charge= 0.17977+309
Lmxo=0 Lmxkb= 2    BasisType=split      Semic=F
L=0  Nsemic=0  Cnfigmx=2
          i=1  nzeta=2  polorb=1  (2s)
            splnorm:   0.15000    
               vcte:    0.0000    
               rinn:    0.0000    
               qcoe:    0.0000    
               qyuk:    0.0000    
               qwid:   0.10000E-01
                rcs:    0.0000      0.0000    
            lambdas:    1.0000      1.0000    
-------------------------------------------------------------------------------
L=0  Nkbl=1  erefs: 0.17977+309
L=1  Nkbl=1  erefs: 0.17977+309
L=2  Nkbl=1  erefs: 0.17977+309
===============================================================================
</basis_specs>

atom: Called for Li-gga                (Z =   3)

read_vps: Pseudopotential generation method:
read_vps: ATM 3.2.2 Troullier-Martins                       
Valence charge for ps generation:    1.00000

read_vps: Pseudopotential includes a core correction:
read_vps: Pseudo-core for xc-correction

xc_check: Exchange-correlation functional:
xc_check: GGA Perdew, Burke & Ernzerhof 1996
V l=0 = -2*Zval/r beyond r=  2.2278
V l=1 = -2*Zval/r beyond r=  2.2278
V l=2 = -2*Zval/r beyond r=  2.5245
All V_l potentials equal beyond r=  2.4622
This should be close to max(r_c) in ps generation
All pots = -2*Zval/r beyond r=  2.5245

VLOCAL1: 99.0% of the norm of Vloc inside      7.160 Ry
VLOCAL1: 99.9% of the norm of Vloc inside     16.318 Ry
atom: Maximum radius for 4*pi*r*r*local-pseudopot. charge    2.86079
atom: Maximum radius for r*vlocal+2*Zval:    2.43160
GHOST: No ghost state for L =  0
GHOST: No ghost state for L =  1
GHOST: No ghost state for L =  2

KBgen: Kleinman-Bylander projectors: 
   l= 0   rc=  2.654023   el= -0.211234   Ekb=  1.742119   kbcos=  0.228463
   l= 1   rc=  2.721230   el= -0.080095   Ekb= -1.122375   kbcos= -0.147941
   l= 2   rc=  2.825246   el=  0.002001   Ekb= -0.207076   kbcos= -0.031965

KBgen: Total number of Kleinman-Bylander projectors:    9
atom: -------------------------------------------------------------------------

atom: SANKEY-TYPE ORBITALS:
atom: Selected multiple-zeta basis: split     

SPLIT: Orbitals with angular momentum L= 0

SPLIT: Basis orbitals for state 2s

SPLIT: PAO cut-off radius determined from an
SPLIT: energy shift=  0.000735 Ry

   izeta = 1
                 lambda =    1.000000
                     rc =   11.897381
                 energy =   -0.210580
                kinetic =    0.143382
    potential(screened) =   -0.353962
       potential(ionic) =   -0.533453

   izeta = 2
                 rmatch =    8.489163
              splitnorm =    0.150000
                 energy =   -0.186081
                kinetic =    0.225882
    potential(screened) =   -0.411964
       potential(ionic) =   -0.593024

POLgen: Perturbative polarization orbital with L=  1

POLgen: Polarization orbital for state 2s

   izeta = 1
                     rc =   11.897381
                 energy =   -0.027011
                kinetic =    0.282985
    potential(screened) =   -0.309997
       potential(ionic) =   -0.490997
atom: Total number of Sankey-type orbitals:  5

atm_pop: Valence configuration (for local Pseudopot. screening):
 2s( 1.00)                                                            
Vna: chval, zval:    1.00000   1.00000

Vna:  Cut-off radius for the neutral-atom potential:  11.897381
comcore: Pseudo-core radius Rcore=  3.450946

atom: _________________________________________________________________________

<basis_specs>
===============================================================================
C-gga                Z=   6    Mass=  12.010        Charge= 0.17977+309
Lmxo=1 Lmxkb= 2    BasisType=split      Semic=F
L=0  Nsemic=0  Cnfigmx=2
          i=1  nzeta=2  polorb=0  (2s)
            splnorm:   0.15000    
               vcte:    0.0000    
               rinn:    0.0000    
               qcoe:    0.0000    
               qyuk:    0.0000    
               qwid:   0.10000E-01
                rcs:    0.0000      0.0000    
            lambdas:    1.0000      1.0000    
L=1  Nsemic=0  Cnfigmx=2
          i=1  nzeta=2  polorb=1  (2p)
            splnorm:   0.15000    
               vcte:    0.0000    
               rinn:    0.0000    
               qcoe:    0.0000    
               qyuk:    0.0000    
               qwid:   0.10000E-01
                rcs:    0.0000      0.0000    
            lambdas:    1.0000      1.0000    
-------------------------------------------------------------------------------
L=0  Nkbl=1  erefs: 0.17977+309
L=1  Nkbl=1  erefs: 0.17977+309
L=2  Nkbl=1  erefs: 0.17977+309
===============================================================================
</basis_specs>

atom: Called for C-gga                 (Z =   6)

read_vps: Pseudopotential generation method:
read_vps: ATM 3.2.2 Troullier-Martins                       
Valence charge for ps generation:    4.00000

xc_check: Exchange-correlation functional:
xc_check: GGA Perdew, Burke & Ernzerhof 1996
V l=0 = -2*Zval/r beyond r=  1.5227
V l=1 = -2*Zval/r beyond r=  1.5227
V l=2 = -2*Zval/r beyond r=  1.5227
All V_l potentials equal beyond r=  1.4851
This should be close to max(r_c) in ps generation
All pots = -2*Zval/r beyond r=  1.5227

VLOCAL1: 99.0% of the norm of Vloc inside     19.682 Ry
VLOCAL1: 99.9% of the norm of Vloc inside     44.856 Ry
atom: Maximum radius for 4*pi*r*r*local-pseudopot. charge    1.79142
atom: Maximum radius for r*vlocal+2*Zval:    1.54183
GHOST: No ghost state for L =  0
GHOST: No ghost state for L =  1
GHOST: No ghost state for L =  2

KBgen: Kleinman-Bylander projectors: 
   l= 0   rc=  1.661951   el= -1.010689   Ekb=  5.289847   kbcos=  0.316429
   l= 1   rc=  1.661951   el= -0.388490   Ekb= -4.102504   kbcos= -0.351025
   l= 2   rc=  1.747182   el=  0.001971   Ekb= -1.006005   kbcos= -0.008530

KBgen: Total number of Kleinman-Bylander projectors:    9
atom: -------------------------------------------------------------------------

atom: SANKEY-TYPE ORBITALS:
atom: Selected multiple-zeta basis: split     

SPLIT: Orbitals with angular momentum L= 0

SPLIT: Basis orbitals for state 2s

SPLIT: PAO cut-off radius determined from an
SPLIT: energy shift=  0.000735 Ry

   izeta = 1
                 lambda =    1.000000
                     rc =    5.948690
                 energy =   -1.010099
                kinetic =    0.827121
    potential(screened) =   -1.837220
       potential(ionic) =   -5.392783

   izeta = 2
                 rmatch =    3.518811
              splitnorm =    0.150000
                 energy =   -0.877891
                kinetic =    1.289227
    potential(screened) =   -2.167118
       potential(ionic) =   -5.982073

SPLIT: Orbitals with angular momentum L= 1

SPLIT: Basis orbitals for state 2p

SPLIT: PAO cut-off radius determined from an
SPLIT: energy shift=  0.000735 Ry

   izeta = 1
                 lambda =    1.000000
                     rc =    7.638387
                 energy =   -0.387843
                kinetic =    2.314739
    potential(screened) =   -2.702582
       potential(ionic) =   -6.092371

   izeta = 2
                 rmatch =    3.840617
              splitnorm =    0.150000
                 energy =   -0.270479
                kinetic =    3.438347
    potential(screened) =   -3.708826
       potential(ionic) =   -7.497707

POLgen: Perturbative polarization orbital with L=  2

POLgen: Polarization orbital for state 2p

   izeta = 1
                     rc =    7.638387
                 energy =    0.921402
                kinetic =    1.955040
    potential(screened) =   -1.033637
       potential(ionic) =   -3.679558
atom: Total number of Sankey-type orbitals: 13

atm_pop: Valence configuration (for local Pseudopot. screening):
 2s( 2.00)                                                            
 2p( 2.00)                                                            
Vna: chval, zval:    4.00000   4.00000

Vna:  Cut-off radius for the neutral-atom potential:   7.638387

atom: _________________________________________________________________________

prinput: Basis input ----------------------------------------------------------

PAO.BasisType split     

%block ChemicalSpeciesLabel
    1    3 Li-gga                  # Species index, atomic number, species label
    2    6 C-gga                   # Species index, atomic number, species label
%endblock ChemicalSpeciesLabel

%block PAO.Basis                 # Define Basis set
Li-gga                1                    # Species label, number of l-shells
 n=2   0   2 P   1                   # n, l, Nzeta, Polarization, NzetaPol
  11.897      8.489   
   1.000      1.000   
C-gga                 2                    # Species label, number of l-shells
 n=2   0   2                         # n, l, Nzeta 
   5.949      3.519   
   1.000      1.000   
 n=2   1   2 P   1                   # n, l, Nzeta, Polarization, NzetaPol
   7.638      3.841   
   1.000      1.000   
%endblock PAO.Basis

prinput: ----------------------------------------------------------------------

coor:   Atomic-coordinates input format  =     Cartesian coordinates
coor:                                          (in Angstroms)

siesta: Atomic coordinates (Bohr) and species
siesta:      0.00000   0.00000   0.00000  2        1
siesta:     -1.32825   2.30060   3.14628  1        2
siesta:     -2.74990   4.76296   3.14628  1        3
siesta:      2.74990   4.76296   3.14628  1        4
siesta:      1.32825   2.30060   3.14628  1        5
siesta:      2.65651   0.00000   3.14628  1        6
siesta:      5.49980   0.00000   3.14628  1        7

siesta: System type = bulk      

initatomlists: Number of atoms, orbitals, and projectors:      7    43    63

siesta: ******************** Simulation parameters ****************************
siesta:
siesta: The following are some of the parameters of the simulation.
siesta: A complete list of the parameters used, including default values,
siesta: can be found in file out.fdf
siesta:
redata: Spin configuration                          = none
redata: Number of spin components                   = 1
redata: Time-Reversal Symmetry                      = T
redata: Spin spiral                                 = F
redata: Long output                                 =   F
redata: Number of Atomic Species                    =        2
redata: Charge density info will appear in .RHO file
redata: Write Mulliken Pop.                         = NO
redata: Matel table size (NRTAB)                    =     1024
redata: Mesh Cutoff                                 =   300.0000 Ry
redata: Net charge of the system                    =     0.0000 |e|
redata: Min. number of SCF Iter                     =        0
redata: Max. number of SCF Iter                     =     1000
redata: SCF convergence failure will abort job
redata: SCF mix quantity                            = Hamiltonian
redata: Mix DM or H after convergence               =   F
redata: Recompute H after scf cycle                 =   F
redata: Mix DM in first SCF step                    =   T
redata: Write Pulay info on disk                    =   F
redata: New DM Occupancy tolerance                  = 0.000000000001
redata: No kicks to SCF
redata: DM Mixing Weight for Kicks                  =     0.5000
redata: Require Harris convergence for SCF          =   F
redata: Harris energy tolerance for SCF             =     0.000100 eV
redata: Require DM convergence for SCF              =   T
redata: DM tolerance for SCF                        =     0.001000
redata: Require EDM convergence for SCF             =   F
redata: EDM tolerance for SCF                       =     0.005000 eV
redata: Require H convergence for SCF               =   T
redata: Hamiltonian tolerance for SCF               =     0.001000 eV
redata: Require (free) Energy convergence for SCF   =   T
redata: (free) Energy tolerance for SCF             =     0.001000 eV
redata: Using Saved Data (generic)                  =   F
redata: Use continuation files for DM               =   F
redata: Neglect nonoverlap interactions             =   F
redata: Method of Calculation                       = Diagonalization
redata: Electronic Temperature                      =   299.9869 K
redata: Fix the spin of the system                  =   F
redata: Dynamics option                             = Single-point calculation
mix.SCF: Pulay mixing                            = Pulay
mix.SCF:    Variant                              = stable
mix.SCF:    History steps                        = 4
mix.SCF:    Linear mixing weight                 =     0.250000
mix.SCF:    Mixing weight                        =     0.250000
mix.SCF:    SVD condition                        = 0.1000E-07
redata: ***********************************************************************

%block SCF.Mixers
  Pulay
%endblock SCF.Mixers

%block SCF.Mixer.Pulay
  # Mixing method
  method pulay
  variant stable

  # Mixing options
  weight 0.2500
  weight.linear 0.2500
  history 4
%endblock SCF.Mixer.Pulay

DM_history_depth set to one: no extrapolation allowed by default for geometry relaxation
Size of DM history Fstack: 1
Total number of electrons:    10.000000
Total ionic charge:    10.000000

* ProcessorY, Blocksize:    2   1


* Orbital distribution balance (max,min):    11    10

k-point displ. along   1 input, could be:     0.00    0.50
k-point displ. along   2 input, could be:     0.00    0.50
k-point displ. along   3 input, could be:     0.00    0.50
 Kpoints in:           48 . Kpoints trimmed:           44

siesta: k-grid: Number of k-points =    44
siesta: k-grid: Cutoff (effective) =     6.660 Ang
siesta: k-grid: Supercell and displacements
siesta: k-grid:    4   0   0      0.000
siesta: k-grid:    0   4   0      0.000
siesta: k-grid:    0   0   4      0.000

diag: Algorithm                                     = Expert
diag: Parallel over k                               =   T
diag: Use parallel 2D distribution                  =   T
diag: Parallel block-size                           = 1
diag: Parallel distribution                         =     2 x     2
diag: Used triangular part                          = Lower
diag: Absolute tolerance                            =  0.100E-15
diag: Orthogonalization factor                      =  0.100E-05
diag: Memory factor                                 =  1.0000

superc: Internal auxiliary supercell:     9 x     9 x     9  =     729
superc: Number of atoms, orbitals, and projectors:   5103  31347  45927


ts: **************************************************************
ts: Save H and S matrices                           =    F
ts: Save DM and EDM matrices                        =    F
ts: Only save the overlap matrix S                  =    F
ts: **************************************************************

************************ Begin: TS CHECKS AND WARNINGS ************************
************************ End: TS CHECKS AND WARNINGS **************************


                     ====================================
                        Single-point calculation
                     ====================================

outcoor: Atomic coordinates (Ang):                          
    0.00000000    0.00000000    0.00000000   2       1  C-gga
   -0.70288177    1.21742694    1.66493700   1       2  Li-gga
   -1.45518323    2.52045129    1.66493700   1       3  Li-gga
    1.45518323    2.52045129    1.66493700   1       4  Li-gga
    0.70288177    1.21742694    1.66493700   1       5  Li-gga
    1.40576354    0.00000000    1.66493700   1       6  Li-gga
    2.91036646    0.00000000    1.66493700   1       7  Li-gga

superc: Internal auxiliary supercell:     9 x     9 x     9  =     729
superc: Number of atoms, orbitals, and projectors:   5103  31347  45927

outcell: Unit cell vectors (Ang):
        4.316130    0.000000    0.000000
       -2.158065    3.737878    0.000000
        0.000000    0.000000    3.329874

outcell: Cell vector modules (Ang)   :    4.316130    4.316130    3.329874
outcell: Cell angles (23,13,12) (deg):     90.0000     90.0000    120.0000
outcell: Cell volume (Ang**3)        :     53.7214
<dSpData1D:S at geom step 0
  <sparsity:sparsity for geom step 0
    nrows_g=43 nrows=11 sparsity=43.6777 nnzs=80760, refcount: 7>
  <dData1D:(new from dSpData1D) n=80760, refcount: 1>
refcount: 1>
new_DM -- step:     1
Initializing Density Matrix...
DM filled with atomic data:
<dSpData2D:DM initialized from atoms
  <sparsity:sparsity for geom step 0
    nrows_g=43 nrows=11 sparsity=43.6777 nnzs=80760, refcount: 8>
  <dData2D:DM n=80760 m=1, refcount: 1>
refcount: 1>
No. of atoms with KB's overlaping orbs in proc 0. Max # of overlaps:     395    1142
New grid distribution:   1
           1       1:   20    1:   10    1:    9
           2       1:   20    1:   10   10:   18
           3       1:   20   11:   20    1:    9
           4       1:   20   11:   20   10:   18

InitMesh: MESH =    40 x    40 x    36 =       57600
InitMesh: (bp) =    20 x    20 x    18 =        7200
InitMesh: Mesh cutoff (required, used) =   300.000   316.498 Ry
ExtMesh (bp) on 0 =   156 x   146 x   149 =     3393624
New grid distribution:   2
           1       1:   10    1:   10    1:   18
           2      11:   20    1:   10    1:   18
           3       1:   10   11:   20    1:   18
           4      11:   20   11:   20    1:   18
New grid distribution:   3
           1       1:   10    1:   10    1:   18
           2      11:   20    1:   10    1:   18
           3       1:   10   11:   20    1:   18
           4      11:   20   11:   20    1:   18
Setting up quadratic distribution...
ExtMesh (bp) on 0 =   146 x   146 x   158 =     3367928
PhiOnMesh: Number of (b)points on node 0 =                 1800
PhiOnMesh: nlist on node 0 =              1034914

stepf: Fermi-Dirac step function

siesta: Program's energy decomposition (eV):
siesta: Ebs     =      -135.009303
siesta: Eions   =       321.344870
siesta: Ena     =        83.111523
siesta: Ekin    =       173.376344
siesta: Enl     =        -6.287168
siesta: Eso     =         0.000000
siesta: Edftu   =         0.000000
siesta: DEna    =       -12.085212
siesta: DUscf   =         7.482199
siesta: DUext   =         0.000000
siesta: Exc     =      -109.261403
siesta: eta*DQ  =         0.000000
siesta: Emadel  =         0.000000
siesta: Emeta   =         0.000000
siesta: Emolmec =        -3.317186
siesta: Ekinion =         0.000000
siesta: Eharris =      -172.571864
siesta: Etot    =      -188.325772
siesta: FreeEng =      -188.337319

        iscf     Eharris(eV)        E_KS(eV)     FreeEng(eV)     dDmax    Ef(eV) dHmax(eV)
   scf:    1     -172.571864     -188.325772     -188.337319 21.674918-12.981630  9.697392
timer: Routine,Calls,Time,% = IterSCF        1      16.852  62.70
   scf:    2     -192.825781     -192.741705     -192.752013  9.532853-13.011049  1.088654
   scf:    3     -192.802660     -192.795719     -192.808320  0.469017-13.028541  0.237577
   scf:    4     -192.799665     -192.798656     -192.811440  0.382508-13.071899  0.133916
   scf:    5     -192.799067     -192.799310     -192.812280  0.082307-13.067502  0.030825
   scf:    6     -192.799269     -192.799298     -192.812328  0.052583-13.069314  0.000474
   scf:    7     -192.799290     -192.799294     -192.812328  0.002685-13.069372  0.000592
   scf:    8     -192.799295     -192.799295     -192.812328  0.000245-13.069386  0.000248

SCF Convergence by FreeE+DM+H criterion
|FreeE_i-FreeE_(i-1)| (eV) <     0.00100000
max |DM_out - DM_in|         :     0.0002447649
max |H_out - H_in|      (eV) :     0.0002479183
SCF cycle converged after 8 iterations

Using DM_out to compute the final energy and forces
No. of atoms with KB's overlaping orbs in proc 0. Max # of overlaps:     395    1142

MM-Stress (kbar):      -17.30      -17.30        1.72        0.00       -0.00       -0.00

siesta: E_KS(eV) =             -192.7993

siesta: E_KS - E_eggbox =      -192.7993

siesta: Atomic forces (eV/Ang):
     1   -0.000000    0.000000    0.000000
     2    0.150298   -0.260266   -0.000000
     3   -0.150298    0.260266   -0.000000
     4    0.150287    0.260305   -0.000000
     5   -0.150287   -0.260305   -0.000000
     6   -0.300546    0.000029   -0.000000
     7    0.300546   -0.000028   -0.000000
----------------------------------------
   Tot   -0.000000   -0.000000    0.000000
----------------------------------------
   Max    0.300546
   Res    0.160654    sqrt( Sum f_i^2 / 3N )
----------------------------------------
   Max    0.300546    constrained

Stress tensor Voigt[x,y,z,yz,xz,xy] (kbar):    -1061.73    -1061.76      502.59        0.00       -0.00       -0.02
(Free)E + p*V (eV/cell)     -174.6961
Target enthalpy (eV/cell)     -192.8123

siesta: Eigenvalues (eV):
  ik is       eps
   1  1  -23.3306  -16.8461  -15.8624  -15.4182  -12.7933  -12.2612   -7.7813   -7.4037   -6.0906   -6.0115
          -3.4776   -3.0652   -0.1669   -0.0953    3.4501    4.4138    5.9889    7.1194    8.4986    9.1563
   11.5578   16.7893   16.8667   19.0823   20.1990   20.8727   21.7001   24.6664   30.0067   37.1712
   40.0002   40.5540   46.2772   49.2330   51.2734   51.6811   56.3540   57.6088   64.9304   68.3247
   77.8561   78.4866  111.2724
   2  1  -23.4490  -16.7169  -15.6856  -14.2793  -14.2029  -12.8495   -7.1481   -7.1387   -6.7958   -6.2137
          -2.3589   -2.0878   -1.3089   -0.3315    2.1578    4.8659    6.3499    9.1812    9.4215   10.6352
   11.9136   15.6824   16.3831   19.3092   20.4604   24.0178   24.7974   25.7270   33.7155   34.6278
   39.8587   40.5760   42.7967   44.5832   47.6218   48.7924   52.6154   52.7632   58.9694   59.4415
   69.2416   72.2406   77.4469
   3  1  -23.4490  -16.7169  -15.6856  -14.2794  -14.2029  -12.8494   -7.1481   -7.1387   -6.7958   -6.2136
          -2.3589   -2.0878   -1.3089   -0.3318    2.1581    4.8659    6.3498    9.1812    9.4215   10.6353
   11.9136   15.6824   16.3831   19.3090   20.4606   24.0180   24.7973   25.7266   33.7159   34.6277
   39.8585   40.5760   42.7968   44.5832   47.6217   48.7923   52.6155   52.7631   58.9693   59.4415
   69.2414   72.2407   77.4467
   4  1  -23.3306  -16.8461  -15.8624  -15.4182  -12.7934  -12.2611   -7.7813   -7.4036   -6.0905   -6.0115
          -3.4776   -3.0652   -0.1670   -0.0953    3.4504    4.4139    5.9889    7.1192    8.4986    9.1563
   11.5578   16.7898   16.8664   19.0824   20.1989   20.8727   21.7001   24.6664   30.0067   37.1712
   40.0002   40.5539   46.2773   49.2330   51.2733   51.6812   56.3542   57.6088   64.9306   68.3247
   77.8561   78.4867  111.2724
   5  1  -23.4490  -16.7169  -15.6856  -14.2793  -14.2029  -12.8495   -7.1481   -7.1387   -6.7958   -6.2137
          -2.3589   -2.0878   -1.3089   -0.3315    2.1578    4.8659    6.3499    9.1812    9.4215   10.6352
   11.9136   15.6824   16.3831   19.3092   20.4604   24.0178   24.7974   25.7270   33.7155   34.6278
   39.8587   40.5760   42.7967   44.5832   47.6218   48.7924   52.6154   52.7632   58.9694   59.4415
   69.2416   72.2406   77.4469
   6  1  -23.5335  -16.0110  -15.9168  -14.0883  -14.0881  -13.1821   -8.0762   -8.0762   -6.8173   -5.4125
          -0.3497   -0.3497    0.3935    0.3939    2.3541    2.3541    4.8338   12.7883   12.7885   14.0139
   16.0847   16.0848   16.4787   16.4788   22.4560   23.5354   29.1416   29.2757   29.2757   36.8968
   36.8980   38.5112   38.5113   42.2171   43.9339   43.9343   46.5521   53.5548   54.5738   85.4053
   85.4055   88.0676   88.0676
   7  1  -23.3354  -17.0971  -15.4128  -14.6404  -14.4493  -11.6922   -8.2623   -7.0440   -5.6509   -4.3610
          -3.2898   -3.1002   -2.8056   -1.4108    2.8783    3.9625    5.2973    5.6986    8.3890   10.8687
   11.7497   17.7114   18.3953   19.8221   20.8545   22.1642   23.8275   24.9499   25.7141   34.8012
   38.3322   42.4494   44.2594   48.5464   49.5785   53.4289   56.0539   58.0469   62.3645   66.7637
   69.1979   74.4058   84.2916
   8  1  -23.3306  -16.8461  -15.8624  -15.4182  -12.7934  -12.2611   -7.7813   -7.4036   -6.0905   -6.0115
          -3.4776   -3.0652   -0.1670   -0.0953    3.4504    4.4139    5.9889    7.1192    8.4986    9.1563
   11.5578   16.7898   16.8664   19.0824   20.1989   20.8727   21.7001   24.6664   30.0067   37.1712
   40.0002   40.5539   46.2773   49.2330   51.2733   51.6812   56.3542   57.6088   64.9306   68.3247
   77.8561   78.4867  111.2724
   9  1  -23.3306  -16.8461  -15.8624  -15.4182  -12.7934  -12.2611   -7.7813   -7.4036   -6.0905   -6.0115
          -3.4776   -3.0652   -0.1670   -0.0953    3.4504    4.4139    5.9889    7.1192    8.4986    9.1563
   11.5578   16.7898   16.8664   19.0824   20.1989   20.8727   21.7001   24.6664   30.0067   37.1712
   40.0002   40.5539   46.2773   49.2330   51.2733   51.6812   56.3542   57.6088   64.9306   68.3247
   77.8561   78.4867  111.2724
  10  1  -23.3354  -17.0971  -15.4128  -14.6404  -14.4493  -11.6922   -8.2623   -7.0440   -5.6509   -4.3610
          -3.2898   -3.1002   -2.8056   -1.4108    2.8783    3.9625    5.2973    5.6986    8.3890   10.8687
   11.7497   17.7114   18.3953   19.8221   20.8545   22.1642   23.8275   24.9499   25.7141   34.8012
   38.3322   42.4494   44.2594   48.5464   49.5785   53.4289   56.0539   58.0469   62.3645   66.7637
   69.1979   74.4058   84.2916
  11  1  -23.3306  -16.8461  -15.8624  -15.4182  -12.7934  -12.2611   -7.7813   -7.4036   -6.0905   -6.0115
          -3.4776   -3.0652   -0.1670   -0.0953    3.4504    4.4139    5.9889    7.1192    8.4986    9.1563
   11.5578   16.7898   16.8664   19.0824   20.1989   20.8727   21.7001   24.6664   30.0067   37.1712
   40.0002   40.5539   46.2773   49.2330   51.2733   51.6812   56.3542   57.6088   64.9306   68.3247
   77.8561   78.4867  111.2724
  12  1  -23.3354  -17.0971  -15.4128  -14.6404  -14.4494  -11.6921   -8.2623   -7.0440   -5.6510   -4.3610
          -3.2898   -3.1002   -2.8056   -1.4107    2.8780    3.9628    5.2973    5.6987    8.3891   10.8686
   11.7501   17.7115   18.3953   19.8222   20.8541   22.1644   23.8275   24.9496   25.7140   34.8013
   38.3322   42.4492   44.2593   48.5464   49.5785   53.4290   56.0538   58.0468   62.3645   66.7636
   69.1979   74.4058   84.2913
  13  1  -23.0280  -17.0705  -16.3831  -15.5416  -13.0176  -12.7784   -8.2736   -7.2567   -5.8788   -3.3551
          -3.2278   -2.3406   -1.4857    0.2544    2.0987    2.2238    5.5293    6.5542   10.4524   11.8987
   16.6048   16.8062   17.8547   19.5938   21.2293   21.3914   22.6042   25.4097   37.9492   40.9139
   43.3297   43.5299   44.8538   45.5960   47.4435   47.8817   50.3752   51.2788   52.5212   55.8928
   62.4245   70.9302   86.3969
  14  1  -23.2137  -17.3344  -15.9220  -14.2925  -13.8594  -13.0515   -8.9688   -6.6988   -6.5186   -4.2614
          -4.0050   -3.4326   -1.2499   -0.0912    1.5982    3.2578    3.9806    8.7131   10.7343   14.9446
   18.1277   18.8192   20.4634   20.9634   22.6969   23.8485   24.1534   24.5986   30.6537   34.2638
   36.8890   41.5237   42.3810   42.3871   45.4890   45.5136   48.2860   52.3076   56.4256   58.9652
   72.9120   74.5151   75.0395
  15  1  -23.2137  -17.3344  -15.9220  -14.2927  -13.8594  -13.0514   -8.9688   -6.6988   -6.5186   -4.2614
          -4.0050   -3.4326   -1.2498   -0.0913    1.5983    3.2577    3.9806    8.7130   10.7343   14.9446
   18.1277   18.8191   20.4632   20.9636   22.6972   23.8486   24.1533   24.5985   30.6538   34.2639
   36.8886   41.5234   42.3811   42.3871   45.4892   45.5135   48.2859   52.3076   56.4254   58.9651
   72.9120   74.5151   75.0395
  16  1  -23.0280  -17.0705  -16.3831  -15.5416  -13.0177  -12.7783   -8.2736   -7.2567   -5.8788   -3.3551
          -3.2279   -2.3406   -1.4857    0.2544    2.0989    2.2237    5.5293    6.5541   10.4524   11.8987
   16.6048   16.8062   17.8547   19.5942   21.2293   21.3915   22.6042   25.4097   37.9488   40.9140
   43.3296   43.5299   44.8538   45.5960   47.4435   47.8818   50.3753   51.2786   52.5212   55.8928
   62.4246   70.9302   86.3969
  17  1  -23.2137  -17.3344  -15.9220  -14.2925  -13.8594  -13.0515   -8.9688   -6.6988   -6.5186   -4.2614
          -4.0050   -3.4326   -1.2499   -0.0912    1.5982    3.2578    3.9806    8.7131   10.7343   14.9446
   18.1277   18.8192   20.4634   20.9634   22.6969   23.8485   24.1534   24.5986   30.6537   34.2638
   36.8890   41.5237   42.3810   42.3871   45.4890   45.5136   48.2859   52.3076   56.4256   58.9652
   72.9120   74.5151   75.0395
  18  1  -23.3718  -17.2623  -14.9493  -14.0855  -14.0853  -13.1067   -9.3717   -7.5741   -7.5741   -3.3737
          -3.3737   -3.3224   -1.7475   -1.7475    2.5057    2.5061   10.0843   13.5224   14.0368   14.0369
   20.5595   20.5596   22.3707   22.3708   23.2792   27.4362   27.4362   28.1801   33.6809   33.6820
   36.2635   44.4614   44.6624   44.6628   46.6720   50.8327   51.5672   51.5674   53.6187   53.6188
   59.5643   59.5644   90.9624
  19  1  -23.2137  -17.3344  -15.9220  -14.2925  -13.8594  -13.0515   -8.9688   -6.6988   -6.5186   -4.2614
          -4.0050   -3.4326   -1.2499   -0.0912    1.5982    3.2578    3.9806    8.7131   10.7343   14.9446
   18.1277   18.8192   20.4634   20.9634   22.6969   23.8485   24.1534   24.5986   30.6537   34.2638
   36.8890   41.5237   42.3810   42.3871   45.4890   45.5136   48.2859   52.3076   56.4256   58.9652
   72.9120   74.5151   75.0395
  20  1  -23.0321  -16.9934  -16.7779  -14.4812  -14.1206  -12.5157   -7.6857   -7.5889   -5.2102   -3.7121
          -3.6282   -2.7852   -1.3408   -0.3760    2.1617    2.6759    2.7937   10.0978   11.2369   12.6924
   15.9760   17.7173   18.4232   19.0814   20.6496   23.3237   24.4118   24.6839   37.7084   37.9222
   43.0614   45.4427   46.4202   47.4083   50.9971   51.6282   54.0544   60.7901   73.3659   78.6144
   83.5068   83.6877  101.4569
  21  1  -23.2137  -17.3344  -15.9220  -14.2927  -13.8594  -13.0514   -8.9688   -6.6988   -6.5186   -4.2614
          -4.0050   -3.4326   -1.2498   -0.0913    1.5983    3.2577    3.9806    8.7130   10.7343   14.9446
   18.1277   18.8191   20.4632   20.9636   22.6972   23.8486   24.1533   24.5985   30.6538   34.2639
   36.8886   41.5234   42.3811   42.3871   45.4892   45.5135   48.2859   52.3076   56.4254   58.9651
   72.9120   74.5151   75.0395
  22  1  -23.2137  -17.3344  -15.9220  -14.2925  -13.8594  -13.0515   -8.9688   -6.6988   -6.5186   -4.2614
          -4.0050   -3.4326   -1.2499   -0.0912    1.5982    3.2578    3.9806    8.7131   10.7343   14.9446
   18.1277   18.8192   20.4634   20.9634   22.6969   23.8485   24.1534   24.5986   30.6537   34.2638
   36.8890   41.5237   42.3810   42.3871   45.4890   45.5136   48.2860   52.3076   56.4256   58.9652
   72.9120   74.5151   75.0395
  23  1  -23.0280  -17.0705  -16.3831  -15.5416  -13.0176  -12.7784   -8.2736   -7.2567   -5.8788   -3.3551
          -3.2278   -2.3406   -1.4857    0.2544    2.0987    2.2238    5.5293    6.5542   10.4524   11.8987
   16.6048   16.8062   17.8547   19.5938   21.2293   21.3914   22.6042   25.4097   37.9492   40.9139
   43.3297   43.5299   44.8538   45.5960   47.4435   47.8817   50.3752   51.2788   52.5212   55.8928
   62.4245   70.9302   86.3969
  24  1  -23.0280  -17.0705  -16.3831  -15.5416  -13.0177  -12.7783   -8.2736   -7.2567   -5.8788   -3.3551
          -3.2279   -2.3406   -1.4857    0.2544    2.0989    2.2237    5.5293    6.5541   10.4524   11.8987
   16.6048   16.8062   17.8547   19.5942   21.2293   21.3915   22.6042   25.4097   37.9488   40.9140
   43.3296   43.5299   44.8538   45.5960   47.4435   47.8818   50.3753   51.2786   52.5212   55.8928
   62.4246   70.9302   86.3969
  25  1  -23.0280  -17.0705  -16.3831  -15.5416  -13.0177  -12.7783   -8.2736   -7.2567   -5.8788   -3.3551
          -3.2279   -2.3406   -1.4857    0.2544    2.0989    2.2237    5.5293    6.5541   10.4524   11.8987
   16.6048   16.8063   17.8546   19.5942   21.2293   21.3915   22.6042   25.4097   37.9488   40.9140
   43.3296   43.5300   44.8538   45.5960   47.4434   47.8818   50.3753   51.2786   52.5212   55.8928
   62.4246   70.9301   86.3968
  26  1  -23.0321  -16.9934  -16.7779  -14.4812  -14.1206  -12.5157   -7.6857   -7.5889   -5.2102   -3.7121
          -3.6282   -2.7852   -1.3408   -0.3760    2.1617    2.6759    2.7937   10.0978   11.2369   12.6925
   15.9760   17.7173   18.4232   19.0814   20.6496   23.3237   24.4118   24.6839   37.7084   37.9222
   43.0613   45.4427   46.4202   47.4085   50.9971   51.6282   54.0544   60.7901   73.3660   78.6144
   83.5068   83.6877  101.4570
  27  1  -23.0280  -17.0705  -16.3831  -15.5416  -13.0177  -12.7783   -8.2736   -7.2567   -5.8788   -3.3551
          -3.2279   -2.3406   -1.4857    0.2544    2.0989    2.2237    5.5293    6.5541   10.4524   11.8987
   16.6048   16.8063   17.8546   19.5942   21.2293   21.3915   22.6042   25.4097   37.9488   40.9140
   43.3296   43.5300   44.8538   45.5960   47.4434   47.8818   50.3753   51.2786   52.5212   55.8928
   62.4246   70.9301   86.3968
  28  1  -23.0321  -16.9934  -16.7778  -14.4813  -14.1206  -12.5156   -7.6857   -7.5888   -5.2103   -3.7121
          -3.6282   -2.7852   -1.3408   -0.3759    2.1619    2.6757    2.7937   10.0977   11.2369   12.6924
   15.9761   17.7176   18.4233   19.0814   20.6499   23.3237   24.4117   24.6838   37.7077   37.9222
   43.0615   45.4426   46.4202   47.4082   50.9970   51.6282   54.0545   60.7901   73.3660   78.6144
   83.5070   83.6873  101.4566
  29  1  -22.6364  -18.0984  -16.1223  -15.2363  -13.2992  -13.0284   -8.4917   -8.4021   -4.6534   -4.3419
          -4.1318   -1.0318   -0.8536    0.0205    0.6727    2.5815    2.7190    3.9321    9.4319   14.9399
   19.1931   19.6340   19.8586   20.8540   21.8945   23.6093   24.3780   27.0575   33.6005   38.8090
   41.7499   43.5395   43.6156   46.7739   48.8696   51.3294   51.6375   64.3207   66.9135   76.1814
   80.6028   85.6149  107.5074
  30  1  -22.8760  -18.2273  -15.5318  -14.2989  -13.7932  -13.2356  -10.3495   -7.8162   -5.2701   -4.7706
          -4.4618   -3.3500   -3.2761   -1.1060    2.0568    3.2936    6.3451    7.7960   11.5811   17.4727
   19.2845   21.3787   21.9221   22.6871   23.9773   24.6327   24.9901   26.9203   39.9141   40.3600
   42.9970   44.2067   45.1524   46.2705   49.5486   50.0011   56.8942   57.1490   58.8059   73.3750
   78.2582   83.4255   94.6260
  31  1  -22.8760  -18.2273  -15.5317  -14.2990  -13.7932  -13.2356  -10.3494   -7.8161   -5.2701   -4.7707
          -4.4618   -3.3500   -3.2761   -1.1060    2.0570    3.2932    6.3451    7.7960   11.5812   17.4725
   19.2845   21.3787   21.9228   22.6871   23.9773   24.6327   24.9901   26.9202   39.9141   40.3600
   42.9962   44.2067   45.1530   46.2700   49.5486   50.0010   56.8942   57.1490   58.8058   73.3749
   78.2582   83.4255   94.6260
  32  1  -22.6364  -18.0984  -16.1222  -15.2364  -13.2992  -13.0284   -8.4915   -8.4022   -4.6534   -4.3419
          -4.1317   -1.0318   -0.8536    0.0205    0.6727    2.5814    2.7188    3.9321    9.4319   14.9400
   19.1932   19.6339   19.8586   20.8544   21.8945   23.6093   24.3780   27.0575   33.6004   38.8089
   41.7500   43.5386   43.6155   46.7740   48.8698   51.3294   51.6374   64.3207   66.9135   76.1814
   80.6028   85.6149  107.5074
  33  1  -22.8760  -18.2273  -15.5318  -14.2989  -13.7932  -13.2356  -10.3495   -7.8162   -5.2701   -4.7706
          -4.4618   -3.3500   -3.2761   -1.1060    2.0568    3.2936    6.3451    7.7960   11.5811   17.4727
   19.2845   21.3787   21.9221   22.6871   23.9773   24.6327   24.9901   26.9203   39.9141   40.3600
   42.9967   44.2067   45.1527   46.2705   49.5486   50.0011   56.8943   57.1490   58.8059   73.3750
   78.2582   83.4255   94.6260
  34  1  -23.0852  -18.1063  -14.0219  -14.0217  -14.0209  -12.6946  -11.9157   -6.1954   -6.1954   -4.3779
          -4.3779   -4.2359   -4.2359   -0.9771    3.0494    3.0499   10.4349   14.8783   14.8783   19.4050
   21.3751   21.3751   22.9996   24.2983   24.2992   27.0824   27.0825   28.1710   28.1711   38.3384
   40.9836   42.8775   42.8784   43.9618   45.4337   45.8325   71.6208   71.6211   89.9274   89.9275
  103.9400  103.9402  207.6996
  35  1  -22.8760  -18.2273  -15.5318  -14.2989  -13.7932  -13.2356  -10.3495   -7.8162   -5.2701   -4.7706
          -4.4618   -3.3500   -3.2761   -1.1060    2.0568    3.2936    6.3451    7.7960   11.5811   17.4727
   19.2845   21.3787   21.9221   22.6871   23.9773   24.6327   24.9901   26.9203   39.9141   40.3600
   42.9967   44.2067   45.1527   46.2705   49.5486   50.0011   56.8943   57.1490   58.8059   73.3750
   78.2582   83.4255   94.6260
  36  1  -22.6344  -18.1467  -16.4822  -14.5389  -13.3794  -13.1770  -10.3416   -7.0634   -5.4677   -2.6800
          -1.9199   -1.7204   -0.9940    0.4107    0.5343    0.5368    1.7964    4.4523   10.5399   13.6841
   17.2607   18.7701   21.1015   21.2645   21.3157   24.6475   25.1116   25.5260   38.9897   40.3973
   40.5698   43.3056   43.5439   44.9854   45.8105   53.5715   57.5564   62.1301   64.6451   71.7082
   78.5657   95.6118  114.3355
  37  1  -22.8760  -18.2273  -15.5317  -14.2990  -13.7932  -13.2356  -10.3494   -7.8161   -5.2701   -4.7707
          -4.4618   -3.3500   -3.2761   -1.1060    2.0570    3.2932    6.3451    7.7960   11.5812   17.4725
   19.2845   21.3787   21.9228   22.6871   23.9773   24.6327   24.9901   26.9202   39.9141   40.3600
   42.9962   44.2067   45.1530   46.2700   49.5486   50.0010   56.8942   57.1490   58.8058   73.3749
   78.2582   83.4255   94.6260
  38  1  -22.8760  -18.2273  -15.5318  -14.2989  -13.7932  -13.2356  -10.3495   -7.8162   -5.2701   -4.7706
          -4.4618   -3.3500   -3.2761   -1.1060    2.0568    3.2936    6.3451    7.7960   11.5811   17.4727
   19.2845   21.3787   21.9221   22.6871   23.9773   24.6327   24.9901   26.9203   39.9141   40.3600
   42.9970   44.2067   45.1524   46.2705   49.5486   50.0011   56.8942   57.1490   58.8059   73.3750
   78.2582   83.4255   94.6260
  39  1  -22.6364  -18.0984  -16.1223  -15.2363  -13.2992  -13.0284   -8.4917   -8.4021   -4.6534   -4.3419
          -4.1318   -1.0318   -0.8536    0.0205    0.6727    2.5815    2.7190    3.9321    9.4319   14.9399
   19.1931   19.6340   19.8586   20.8540   21.8945   23.6093   24.3780   27.0575   33.6005   38.8090
   41.7499   43.5395   43.6156   46.7739   48.8696   51.3294   51.6375   64.3207   66.9135   76.1814
   80.6028   85.6149  107.5074
  40  1  -22.6364  -18.0984  -16.1222  -15.2364  -13.2992  -13.0284   -8.4915   -8.4022   -4.6534   -4.3419
          -4.1317   -1.0318   -0.8536    0.0205    0.6727    2.5814    2.7188    3.9321    9.4319   14.9400
   19.1932   19.6339   19.8586   20.8544   21.8945   23.6093   24.3780   27.0575   33.6004   38.8089
   41.7500   43.5386   43.6155   46.7740   48.8698   51.3294   51.6374   64.3207   66.9135   76.1814
   80.6028   85.6149  107.5074
  41  1  -22.6364  -18.0984  -16.1222  -15.2364  -13.2992  -13.0284   -8.4915   -8.4022   -4.6534   -4.3419
          -4.1317   -1.0318   -0.8536    0.0205    0.6727    2.5814    2.7188    3.9321    9.4319   14.9399
   19.1932   19.6339   19.8586   20.8544   21.8945   23.6093   24.3780   27.0575   33.6004   38.8089
   41.7503   43.5385   43.6155   46.7740   48.8698   51.3293   51.6374   64.3207   66.9135   76.1814
   80.6028   85.6149  107.5074
  42  1  -22.6344  -18.1467  -16.4822  -14.5389  -13.3794  -13.1770  -10.3416   -7.0634   -5.4677   -2.6800
          -1.9199   -1.7204   -0.9940    0.4107    0.5343    0.5368    1.7964    4.4523   10.5399   13.6841
   17.2607   18.7701   21.1015   21.2645   21.3157   24.6475   25.1116   25.5260   38.9897   40.3973
   40.5698   43.3056   43.5443   44.9854   45.8105   53.5715   57.5564   62.1301   64.6451   71.7082
   78.5657   95.6118  114.3355
  43  1  -22.6364  -18.0984  -16.1222  -15.2364  -13.2992  -13.0284   -8.4915   -8.4022   -4.6534   -4.3419
          -4.1317   -1.0318   -0.8536    0.0205    0.6727    2.5814    2.7188    3.9321    9.4319   14.9399
   19.1932   19.6339   19.8586   20.8544   21.8945   23.6093   24.3780   27.0575   33.6004   38.8089
   41.7503   43.5385   43.6155   46.7740   48.8698   51.3293   51.6374   64.3207   66.9135   76.1814
   80.6028   85.6149  107.5074
  44  1  -22.6344  -18.1467  -16.4822  -14.5390  -13.3794  -13.1770  -10.3416   -7.0631   -5.4677   -2.6803
          -1.9199   -1.7203   -0.9940    0.4107    0.5343    0.5368    1.7964    4.4523   10.5397   13.6841
   17.2608   18.7702   21.1014   21.2652   21.3157   24.6474   25.1116   25.5259   38.9897   40.3975
   40.5699   43.3045   43.5437   44.9854   45.8106   53.5713   57.5565   62.1300   64.6449   71.7082
   78.5658   95.6118  114.3355
siesta: Fermi energy =     -13.069386 eV

siesta: Program's energy decomposition (eV):
siesta: Ebs     =      -169.654469
siesta: Eions   =       321.344870
siesta: Ena     =        83.111523
siesta: Ekin    =       144.867252
siesta: Enl     =         2.969081
siesta: Eso     =         0.000000
siesta: Edftu   =         0.000000
siesta: DEna    =         2.984645
siesta: DUscf   =         1.153666
siesta: DUext   =         0.000000
siesta: Exc     =      -103.223406
siesta: eta*DQ  =         0.000000
siesta: Emadel  =         0.000000
siesta: Emeta   =         0.000000
siesta: Emolmec =        -3.317186
siesta: Ekinion =         0.000000
siesta: Eharris =      -192.799295
siesta: Etot    =      -192.799295
siesta: FreeEng =      -192.812328

siesta: Final energy (eV):
siesta:  Band Struct. =    -169.654469
siesta:       Kinetic =     144.867252
siesta:       Hartree =      50.806523
siesta:       Edftu   =       0.000000
siesta:       Eso     =       0.000000
siesta:    Ext. field =       0.000000
siesta:   Exch.-corr. =    -103.223406
siesta:  Ion-electron =    -301.691049
siesta:       Ion-ion =      19.758570
siesta:       Ekinion =       0.000000
siesta:         Total =    -192.799295
siesta:         Fermi =     -13.069386

siesta: Atomic forces (eV/Ang):
siesta:      1   -0.000000    0.000000    0.000000
siesta:      2    0.150298   -0.260266   -0.000000
siesta:      3   -0.150298    0.260266   -0.000000
siesta:      4    0.150287    0.260305   -0.000000
siesta:      5   -0.150287   -0.260305   -0.000000
siesta:      6   -0.300546    0.000029   -0.000000
siesta:      7    0.300546   -0.000028   -0.000000
siesta: ----------------------------------------
siesta:    Tot   -0.000000   -0.000000    0.000000

siesta: Stress tensor (static) (eV/Ang**3):
siesta:    -0.662675   -0.000012   -0.000000
siesta:    -0.000012   -0.662689    0.000000
siesta:    -0.000000    0.000000    0.313690

siesta: Cell volume =         53.721418 Ang**3

siesta: Pressure (static):
siesta:                Solid            Molecule  Units
siesta:           0.00367281          0.00358113  Ry/Bohr**3
siesta:           0.33722457          0.32880676  eV/Ang**3
siesta:         540.29917100        526.81220902  kBar
(Free)E+ p_basis*V_orbitals  =        -173.378601
(Free)Eharris+ p_basis*V_orbitals  =        -173.378601

cite: Please see "LiC6_scf.bib" for an exhaustive BiBTeX file.
cite: Please clearly indicate Siesta version in published work: 4.1.5
cite: This calculation has made use of the following articles
cite: which are encouraged to be cited in a published work.
        Primary SIESTA paper
          DOI: www.doi.org/10.1088/0953-8984/14/11/302

>> End of run:   9-NOV-2022   7:37:07
Job completed
