Siesta Version  : 4.1.5
Architecture    : x86_64-unknown-linux-gnu--unknown
Compiler version: GNU Fortran (GCC) 11.3.0
Compiler flags  : mpif90 -g -O2 -fallow-argument-mismatch
PP flags        : -DMPI -DFC_HAVE_FLUSH -DFC_HAVE_ABORT
Libraries       :  -I/global/software/sl-7.x86_64/modules/intel/2020.4.304/mkl/include  /globall/software/sl-7.x86_64/modules/intel/2020.4.304/mkl/lib/intel64/libmkl_scalapack_lp64.a -Wl,--start-group /global/software/sl-7.x86_64/modules/intel/2020.4.304/mkl/lib/intel64/libmkl_intel_lp64.a /global/software/sl-7.x86_64/modules/intel/2020.4.304/mkl/lib/intel64/libmkl_sequential.a /global/software/sl-7.x86_64/modules/intel/2020.4.304/mkl/lib/intel64/libmkl_core.a /global/software/sl-7.x86_64/modules/intel/2020.4.304/mkl/lib/intel64/libmkl_blacs_openmpi_lp64.a -Wl,--end-group -lpthread -lm -ldl
PARALLEL version

* Running on 4 nodes in parallel
>> Start of run:   9-NOV-2022   8:55:55

                           ***********************       
                           *  WELCOME TO SIESTA  *       
                           ***********************       

reinit: Reading from standard input
reinit: Dumped input in INPUT_TMP.22050
************************** Dump of input data file ****************************
SystemName LiC6_scf
SystemLabel LiC6_scf
NumberOfAtoms   7
NumberOfSpecies 2
%block ChemicalSpeciesLabel
1  3   Li-gga
2  6   C-gga
%endblock ChemicalSpeciesLabel
PAO.BasisSize  DZP
PAO.EnergyShift  10 meV
%block PS.Lmax
C-gga   2
Li-gga  2
%endblock PS.Lmax
LatticeConstant 1.000000 Ang
%block LatticeVectors
	4.3161300000	0.0000000000	0.0000000000
	-2.1580650000	3.7378782260	0.0000000000
	0.0000000000	0.0000000000	4.2178404000
%endblock LatticeVectors
AtomicCoordinatesFormat Ang
%block AtomicCoordinatesAndAtomicSpecies
	0.00000000	0.00000000	0.00000000	2
	-0.70288177	1.21742694	2.10892020	1
	-1.45518323	2.52045129	2.10892020	1
	1.45518323	2.52045129	2.10892020	1
	0.70288177	1.21742694	2.10892020	1
	1.40576354	0.00000000	2.10892020	1
	2.91036646	0.00000000	2.10892020	1
%endblock AtomicCoordinatesAndAtomicSpecies
Kgrid_NoTRS  T
%block kgrid_MonkhorstPack
4       0       0       0.0
0       4       0       0.0
0       0       4       0.0
%endblock kgrid_MonkhorstPack
AtomCoorFormatOut Ang
BlockSize 1
#ProcessorY 12
Diag.ParallelOverK   T
Diag.DivideAndConquer F
MeshCutoff   300 Ry
SCF.FreeE.Tolerance 1E-3 eV
SCF.EDM.Tolerance   5E-3 eV
DM.Tolerance  1E-3
DM.Require.Energy.Convergence T
DM.NumberPulay 4
XC.Functional GGA
XC.Authors    PBE
UseSaveData        F
MD.TypeOfRun       CG
MD.VariableCell    F
MD.NumCGsteps      00
MD.MaxCGDispl      0.200000 Bohr
MD.MaxStressTol    1.000000 GPa
MD.MaxForceTol     0.010000 eV/Ang
WriteMDHistory T
WriteCoorStep T
WriteForces T
WriteCoorStep    T
WriteEigenValues T
WriteDM    F
MM.UnitsDistance Ang  # what this program prints out DO NOT CHANGE
MM.UnitsEnergy    eV  # what this program prints out DO NOT CHANGE
MM.Grimme.S6     0.75 # Grimme-paper for PBE (correct for your functional)
MM.Grimme.D     20.   # Grimme-paper (correct for your functional)
%block MM.Potentials
  1   1 Grimme     16.69      1.650 # Li, 10.1002/jcc.20495
  1   2 Grimme     17.40      2.277 # Li / C
  2   2 Grimme     18.14      2.904 # C, 10.1002/jcc.20495
%endblock MM.Potentials
#%block ProjectedDensityOfStates
# -200.0  120.0  0.4  12800  eV
#%endblock ProjectedDensityOfStates
************************** End of input data file *****************************

reinit: -----------------------------------------------------------------------
reinit: System Name: LiC6_scf
reinit: -----------------------------------------------------------------------
reinit: System Label: LiC6_scf
reinit: -----------------------------------------------------------------------
Reading two-body potentials
Grimme - two-body potential between 1 and 1
Grimme - two-body potential between 1 and 2
Grimme - two-body potential between 2 and 2

initatom: Reading input for the pseudopotentials and atomic orbitals ----------
Species number:   1 Atomic number:    3 Label: Li-gga
Species number:   2 Atomic number:    6 Label: C-gga

Ground state valence configuration:   2s01
Reading pseudopotential information in formatted form from Li-gga.psf

Valence configuration for pseudopotential generation:
2s( 1.00) rc: 2.28
2p( 0.00) rc: 2.28
3d( 0.00) rc: 2.59
4f( 0.00) rc: 2.59
Ground state valence configuration:   2s02  2p02
Reading pseudopotential information in formatted form from C-gga.psf

Valence configuration for pseudopotential generation:
2s( 2.00) rc: 1.56
2p( 2.00) rc: 1.56
3d( 0.00) rc: 1.56
4f( 0.00) rc: 1.56
relmxkb: Read Max KB Ang. Momentum=    2 for species C-gga
relmxkb: Read Max KB Ang. Momentum=    2 for species Li-gga

<basis_specs>
===============================================================================
Li-gga               Z=   3    Mass=  6.9400        Charge= 0.17977+309
Lmxo=0 Lmxkb= 2    BasisType=split      Semic=F
L=0  Nsemic=0  Cnfigmx=2
          i=1  nzeta=2  polorb=1  (2s)
            splnorm:   0.15000    
               vcte:    0.0000    
               rinn:    0.0000    
               qcoe:    0.0000    
               qyuk:    0.0000    
               qwid:   0.10000E-01
                rcs:    0.0000      0.0000    
            lambdas:    1.0000      1.0000    
-------------------------------------------------------------------------------
L=0  Nkbl=1  erefs: 0.17977+309
L=1  Nkbl=1  erefs: 0.17977+309
L=2  Nkbl=1  erefs: 0.17977+309
===============================================================================
</basis_specs>

atom: Called for Li-gga                (Z =   3)

read_vps: Pseudopotential generation method:
read_vps: ATM 3.2.2 Troullier-Martins                       
Valence charge for ps generation:    1.00000

read_vps: Pseudopotential includes a core correction:
read_vps: Pseudo-core for xc-correction

xc_check: Exchange-correlation functional:
xc_check: GGA Perdew, Burke & Ernzerhof 1996
V l=0 = -2*Zval/r beyond r=  2.2278
V l=1 = -2*Zval/r beyond r=  2.2278
V l=2 = -2*Zval/r beyond r=  2.5245
All V_l potentials equal beyond r=  2.4622
This should be close to max(r_c) in ps generation
All pots = -2*Zval/r beyond r=  2.5245

VLOCAL1: 99.0% of the norm of Vloc inside      7.160 Ry
VLOCAL1: 99.9% of the norm of Vloc inside     16.318 Ry
atom: Maximum radius for 4*pi*r*r*local-pseudopot. charge    2.86079
atom: Maximum radius for r*vlocal+2*Zval:    2.43160
GHOST: No ghost state for L =  0
GHOST: No ghost state for L =  1
GHOST: No ghost state for L =  2

KBgen: Kleinman-Bylander projectors: 
   l= 0   rc=  2.654023   el= -0.211234   Ekb=  1.742119   kbcos=  0.228463
   l= 1   rc=  2.721230   el= -0.080095   Ekb= -1.122375   kbcos= -0.147941
   l= 2   rc=  2.825246   el=  0.002001   Ekb= -0.207076   kbcos= -0.031965

KBgen: Total number of Kleinman-Bylander projectors:    9
atom: -------------------------------------------------------------------------

atom: SANKEY-TYPE ORBITALS:
atom: Selected multiple-zeta basis: split     

SPLIT: Orbitals with angular momentum L= 0

SPLIT: Basis orbitals for state 2s

SPLIT: PAO cut-off radius determined from an
SPLIT: energy shift=  0.000735 Ry

   izeta = 1
                 lambda =    1.000000
                     rc =   11.897381
                 energy =   -0.210580
                kinetic =    0.143382
    potential(screened) =   -0.353962
       potential(ionic) =   -0.533453

   izeta = 2
                 rmatch =    8.489163
              splitnorm =    0.150000
                 energy =   -0.186081
                kinetic =    0.225882
    potential(screened) =   -0.411964
       potential(ionic) =   -0.593024

POLgen: Perturbative polarization orbital with L=  1

POLgen: Polarization orbital for state 2s

   izeta = 1
                     rc =   11.897381
                 energy =   -0.027011
                kinetic =    0.282985
    potential(screened) =   -0.309997
       potential(ionic) =   -0.490997
atom: Total number of Sankey-type orbitals:  5

atm_pop: Valence configuration (for local Pseudopot. screening):
 2s( 1.00)                                                            
Vna: chval, zval:    1.00000   1.00000

Vna:  Cut-off radius for the neutral-atom potential:  11.897381
comcore: Pseudo-core radius Rcore=  3.450946

atom: _________________________________________________________________________

<basis_specs>
===============================================================================
C-gga                Z=   6    Mass=  12.010        Charge= 0.17977+309
Lmxo=1 Lmxkb= 2    BasisType=split      Semic=F
L=0  Nsemic=0  Cnfigmx=2
          i=1  nzeta=2  polorb=0  (2s)
            splnorm:   0.15000    
               vcte:    0.0000    
               rinn:    0.0000    
               qcoe:    0.0000    
               qyuk:    0.0000    
               qwid:   0.10000E-01
                rcs:    0.0000      0.0000    
            lambdas:    1.0000      1.0000    
L=1  Nsemic=0  Cnfigmx=2
          i=1  nzeta=2  polorb=1  (2p)
            splnorm:   0.15000    
               vcte:    0.0000    
               rinn:    0.0000    
               qcoe:    0.0000    
               qyuk:    0.0000    
               qwid:   0.10000E-01
                rcs:    0.0000      0.0000    
            lambdas:    1.0000      1.0000    
-------------------------------------------------------------------------------
L=0  Nkbl=1  erefs: 0.17977+309
L=1  Nkbl=1  erefs: 0.17977+309
L=2  Nkbl=1  erefs: 0.17977+309
===============================================================================
</basis_specs>

atom: Called for C-gga                 (Z =   6)

read_vps: Pseudopotential generation method:
read_vps: ATM 3.2.2 Troullier-Martins                       
Valence charge for ps generation:    4.00000

xc_check: Exchange-correlation functional:
xc_check: GGA Perdew, Burke & Ernzerhof 1996
V l=0 = -2*Zval/r beyond r=  1.5227
V l=1 = -2*Zval/r beyond r=  1.5227
V l=2 = -2*Zval/r beyond r=  1.5227
All V_l potentials equal beyond r=  1.4851
This should be close to max(r_c) in ps generation
All pots = -2*Zval/r beyond r=  1.5227

VLOCAL1: 99.0% of the norm of Vloc inside     19.682 Ry
VLOCAL1: 99.9% of the norm of Vloc inside     44.856 Ry
atom: Maximum radius for 4*pi*r*r*local-pseudopot. charge    1.79142
atom: Maximum radius for r*vlocal+2*Zval:    1.54183
GHOST: No ghost state for L =  0
GHOST: No ghost state for L =  1
GHOST: No ghost state for L =  2

KBgen: Kleinman-Bylander projectors: 
   l= 0   rc=  1.661951   el= -1.010689   Ekb=  5.289847   kbcos=  0.316429
   l= 1   rc=  1.661951   el= -0.388490   Ekb= -4.102504   kbcos= -0.351025
   l= 2   rc=  1.747182   el=  0.001971   Ekb= -1.006005   kbcos= -0.008530

KBgen: Total number of Kleinman-Bylander projectors:    9
atom: -------------------------------------------------------------------------

atom: SANKEY-TYPE ORBITALS:
atom: Selected multiple-zeta basis: split     

SPLIT: Orbitals with angular momentum L= 0

SPLIT: Basis orbitals for state 2s

SPLIT: PAO cut-off radius determined from an
SPLIT: energy shift=  0.000735 Ry

   izeta = 1
                 lambda =    1.000000
                     rc =    5.948690
                 energy =   -1.010099
                kinetic =    0.827121
    potential(screened) =   -1.837220
       potential(ionic) =   -5.392783

   izeta = 2
                 rmatch =    3.518811
              splitnorm =    0.150000
                 energy =   -0.877891
                kinetic =    1.289227
    potential(screened) =   -2.167118
       potential(ionic) =   -5.982073

SPLIT: Orbitals with angular momentum L= 1

SPLIT: Basis orbitals for state 2p

SPLIT: PAO cut-off radius determined from an
SPLIT: energy shift=  0.000735 Ry

   izeta = 1
                 lambda =    1.000000
                     rc =    7.638387
                 energy =   -0.387843
                kinetic =    2.314739
    potential(screened) =   -2.702582
       potential(ionic) =   -6.092371

   izeta = 2
                 rmatch =    3.840617
              splitnorm =    0.150000
                 energy =   -0.270479
                kinetic =    3.438347
    potential(screened) =   -3.708826
       potential(ionic) =   -7.497707

POLgen: Perturbative polarization orbital with L=  2

POLgen: Polarization orbital for state 2p

   izeta = 1
                     rc =    7.638387
                 energy =    0.921402
                kinetic =    1.955040
    potential(screened) =   -1.033637
       potential(ionic) =   -3.679558
atom: Total number of Sankey-type orbitals: 13

atm_pop: Valence configuration (for local Pseudopot. screening):
 2s( 2.00)                                                            
 2p( 2.00)                                                            
Vna: chval, zval:    4.00000   4.00000

Vna:  Cut-off radius for the neutral-atom potential:   7.638387

atom: _________________________________________________________________________

prinput: Basis input ----------------------------------------------------------

PAO.BasisType split     

%block ChemicalSpeciesLabel
    1    3 Li-gga                  # Species index, atomic number, species label
    2    6 C-gga                   # Species index, atomic number, species label
%endblock ChemicalSpeciesLabel

%block PAO.Basis                 # Define Basis set
Li-gga                1                    # Species label, number of l-shells
 n=2   0   2 P   1                   # n, l, Nzeta, Polarization, NzetaPol
  11.897      8.489   
   1.000      1.000   
C-gga                 2                    # Species label, number of l-shells
 n=2   0   2                         # n, l, Nzeta 
   5.949      3.519   
   1.000      1.000   
 n=2   1   2 P   1                   # n, l, Nzeta, Polarization, NzetaPol
   7.638      3.841   
   1.000      1.000   
%endblock PAO.Basis

prinput: ----------------------------------------------------------------------

coor:   Atomic-coordinates input format  =     Cartesian coordinates
coor:                                          (in Angstroms)

siesta: Atomic coordinates (Bohr) and species
siesta:      0.00000   0.00000   0.00000  2        1
siesta:     -1.32825   2.30060   3.98528  1        2
siesta:     -2.74990   4.76296   3.98528  1        3
siesta:      2.74990   4.76296   3.98528  1        4
siesta:      1.32825   2.30060   3.98528  1        5
siesta:      2.65651   0.00000   3.98528  1        6
siesta:      5.49980   0.00000   3.98528  1        7

siesta: System type = bulk      

initatomlists: Number of atoms, orbitals, and projectors:      7    43    63

siesta: ******************** Simulation parameters ****************************
siesta:
siesta: The following are some of the parameters of the simulation.
siesta: A complete list of the parameters used, including default values,
siesta: can be found in file out.fdf
siesta:
redata: Spin configuration                          = none
redata: Number of spin components                   = 1
redata: Time-Reversal Symmetry                      = T
redata: Spin spiral                                 = F
redata: Long output                                 =   F
redata: Number of Atomic Species                    =        2
redata: Charge density info will appear in .RHO file
redata: Write Mulliken Pop.                         = NO
redata: Matel table size (NRTAB)                    =     1024
redata: Mesh Cutoff                                 =   300.0000 Ry
redata: Net charge of the system                    =     0.0000 |e|
redata: Min. number of SCF Iter                     =        0
redata: Max. number of SCF Iter                     =     1000
redata: SCF convergence failure will abort job
redata: SCF mix quantity                            = Hamiltonian
redata: Mix DM or H after convergence               =   F
redata: Recompute H after scf cycle                 =   F
redata: Mix DM in first SCF step                    =   T
redata: Write Pulay info on disk                    =   F
redata: New DM Occupancy tolerance                  = 0.000000000001
redata: No kicks to SCF
redata: DM Mixing Weight for Kicks                  =     0.5000
redata: Require Harris convergence for SCF          =   F
redata: Harris energy tolerance for SCF             =     0.000100 eV
redata: Require DM convergence for SCF              =   T
redata: DM tolerance for SCF                        =     0.001000
redata: Require EDM convergence for SCF             =   F
redata: EDM tolerance for SCF                       =     0.005000 eV
redata: Require H convergence for SCF               =   T
redata: Hamiltonian tolerance for SCF               =     0.001000 eV
redata: Require (free) Energy convergence for SCF   =   T
redata: (free) Energy tolerance for SCF             =     0.001000 eV
redata: Using Saved Data (generic)                  =   F
redata: Use continuation files for DM               =   F
redata: Neglect nonoverlap interactions             =   F
redata: Method of Calculation                       = Diagonalization
redata: Electronic Temperature                      =   299.9869 K
redata: Fix the spin of the system                  =   F
redata: Dynamics option                             = Single-point calculation
mix.SCF: Pulay mixing                            = Pulay
mix.SCF:    Variant                              = stable
mix.SCF:    History steps                        = 4
mix.SCF:    Linear mixing weight                 =     0.250000
mix.SCF:    Mixing weight                        =     0.250000
mix.SCF:    SVD condition                        = 0.1000E-07
redata: ***********************************************************************

%block SCF.Mixers
  Pulay
%endblock SCF.Mixers

%block SCF.Mixer.Pulay
  # Mixing method
  method pulay
  variant stable

  # Mixing options
  weight 0.2500
  weight.linear 0.2500
  history 4
%endblock SCF.Mixer.Pulay

DM_history_depth set to one: no extrapolation allowed by default for geometry relaxation
Size of DM history Fstack: 1
Total number of electrons:    10.000000
Total ionic charge:    10.000000

* ProcessorY, Blocksize:    2   1


* Orbital distribution balance (max,min):    11    10

k-point displ. along   1 input, could be:     0.00    0.50
k-point displ. along   2 input, could be:     0.00    0.50
k-point displ. along   3 input, could be:     0.00    0.50
 Kpoints in:           48 . Kpoints trimmed:           44

siesta: k-grid: Number of k-points =    44
siesta: k-grid: Cutoff (effective) =     8.436 Ang
siesta: k-grid: Supercell and displacements
siesta: k-grid:    4   0   0      0.000
siesta: k-grid:    0   4   0      0.000
siesta: k-grid:    0   0   4      0.000

diag: Algorithm                                     = Expert
diag: Parallel over k                               =   T
diag: Use parallel 2D distribution                  =   T
diag: Parallel block-size                           = 1
diag: Parallel distribution                         =     2 x     2
diag: Used triangular part                          = Lower
diag: Absolute tolerance                            =  0.100E-15
diag: Orthogonalization factor                      =  0.100E-05
diag: Memory factor                                 =  1.0000

superc: Internal auxiliary supercell:     9 x     9 x     7  =     567
superc: Number of atoms, orbitals, and projectors:   3969  24381  35721


ts: **************************************************************
ts: Save H and S matrices                           =    F
ts: Save DM and EDM matrices                        =    F
ts: Only save the overlap matrix S                  =    F
ts: **************************************************************

************************ Begin: TS CHECKS AND WARNINGS ************************
************************ End: TS CHECKS AND WARNINGS **************************


                     ====================================
                        Single-point calculation
                     ====================================

outcoor: Atomic coordinates (Ang):                          
    0.00000000    0.00000000    0.00000000   2       1  C-gga
   -0.70288177    1.21742694    2.10892020   1       2  Li-gga
   -1.45518323    2.52045129    2.10892020   1       3  Li-gga
    1.45518323    2.52045129    2.10892020   1       4  Li-gga
    0.70288177    1.21742694    2.10892020   1       5  Li-gga
    1.40576354    0.00000000    2.10892020   1       6  Li-gga
    2.91036646    0.00000000    2.10892020   1       7  Li-gga

superc: Internal auxiliary supercell:     9 x     9 x     7  =     567
superc: Number of atoms, orbitals, and projectors:   3969  24381  35721

outcell: Unit cell vectors (Ang):
        4.316130    0.000000    0.000000
       -2.158065    3.737878    0.000000
        0.000000    0.000000    4.217840

outcell: Cell vector modules (Ang)   :    4.316130    4.316130    4.217840
outcell: Cell angles (23,13,12) (deg):     90.0000     90.0000    120.0000
outcell: Cell volume (Ang**3)        :     68.0471
<dSpData1D:S at geom step 0
  <sparsity:sparsity for geom step 0
    nrows_g=43 nrows=11 sparsity=29.7934 nnzs=55088, refcount: 7>
  <dData1D:(new from dSpData1D) n=55088, refcount: 1>
refcount: 1>
new_DM -- step:     1
Initializing Density Matrix...
DM filled with atomic data:
<dSpData2D:DM initialized from atoms
  <sparsity:sparsity for geom step 0
    nrows_g=43 nrows=11 sparsity=29.7934 nnzs=55088, refcount: 8>
  <dData2D:DM n=55088 m=1, refcount: 1>
refcount: 1>
No. of atoms with KB's overlaping orbs in proc 0. Max # of overlaps:     297     850
New grid distribution:   1
           1       1:   20    1:   10    1:   12
           2       1:   20    1:   10   13:   24
           3       1:   20   11:   20    1:   12
           4       1:   20   11:   20   13:   24

InitMesh: MESH =    40 x    40 x    48 =       76800
InitMesh: (bp) =    20 x    20 x    24 =        9600
InitMesh: Mesh cutoff (required, used) =   300.000   316.498 Ry
ExtMesh (bp) on 0 =   156 x   146 x   156 =     3553056
New grid distribution:   2
           1       1:   20    1:   10    1:   12
           2       1:   20    1:   10   13:   24
           3       1:   20   11:   20    1:   12
           4       1:   20   11:   20   13:   24
New grid distribution:   3
           1       1:   20    1:   10    1:   12
           2       1:   20    1:   10   13:   24
           3       1:   20   11:   20    1:   12
           4       1:   20   11:   20   13:   24
Setting up quadratic distribution...
ExtMesh (bp) on 0 =   156 x   146 x   156 =     3553056
PhiOnMesh: Number of (b)points on node 0 =                 2400
PhiOnMesh: nlist on node 0 =              1090646

stepf: Fermi-Dirac step function

siesta: Program's energy decomposition (eV):
siesta: Ebs     =      -152.861091
siesta: Eions   =       321.344870
siesta: Ena     =        90.750099
siesta: Ekin    =       119.767542
siesta: Enl     =        11.249395
siesta: Eso     =         0.000000
siesta: Edftu   =         0.000000
siesta: DEna    =         8.950364
siesta: DUscf   =         3.142897
siesta: DUext   =         0.000000
siesta: Exc     =       -95.691594
siesta: eta*DQ  =         0.000000
siesta: Emadel  =         0.000000
siesta: Emeta   =         0.000000
siesta: Emolmec =        -3.099487
siesta: Ekinion =         0.000000
siesta: Eharris =      -179.852858
siesta: Etot    =      -186.275654
siesta: FreeEng =      -186.284974

        iscf     Eharris(eV)        E_KS(eV)     FreeEng(eV)     dDmax    Ef(eV) dHmax(eV)
   scf:    1     -179.852858     -186.275654     -186.284974 26.629027-11.056557  4.329957
timer: Routine,Calls,Time,% = IterSCF        1      12.828  61.63
   scf:    2     -181.231941     -186.144554     -186.152788  6.760533-11.287620  5.302671
   scf:    3     -188.015096     -187.528248     -187.546039  3.005954-11.193342  1.097889
   scf:    4     -187.431065     -187.533584     -187.556277  0.322824-11.129423  0.678674
   scf:    5     -187.554028     -187.566211     -187.583408  0.864300-11.130357  0.201819
   scf:    6     -187.567556     -187.566911     -187.584239  0.044885-11.131077  0.172986
   scf:    7     -187.564349     -187.567480     -187.586129  0.337468-11.136123  0.075240
   scf:    8     -187.568616     -187.568138     -187.586468  0.049426-11.136459  0.018241
   scf:    9     -187.568361     -187.568259     -187.586489  0.014130-11.136582  0.001225
   scf:   10     -187.568282     -187.568270     -187.586489  0.001982-11.136444  0.001273
   scf:   11     -187.568256     -187.568263     -187.586489  0.001197-11.136429  0.000397
   scf:   12     -187.568262     -187.568262     -187.586489  0.000176-11.136430  0.000035

SCF Convergence by FreeE+DM+H criterion
|FreeE_i-FreeE_(i-1)| (eV) <     0.00100000
max |DM_out - DM_in|         :     0.0001761216
max |H_out - H_in|      (eV) :     0.0000347428
SCF cycle converged after 12 iterations

Using DM_out to compute the final energy and forces
No. of atoms with KB's overlaping orbs in proc 0. Max # of overlaps:     297     850

MM-Stress (kbar):       -0.06       -0.06       54.91        0.00        0.00       -0.00

siesta: E_KS(eV) =             -187.5683

siesta: E_KS - E_eggbox =      -187.5683

siesta: Atomic forces (eV/Ang):
     1    0.000000   -0.000000    0.000000
     2    0.127823   -0.221282   -0.000000
     3   -0.127823    0.221282   -0.000000
     4    0.127743    0.221258   -0.000000
     5   -0.127743   -0.221258   -0.000000
     6   -0.255547    0.000057   -0.000000
     7    0.255547   -0.000057   -0.000000
----------------------------------------
   Tot    0.000000   -0.000000   -0.000000
----------------------------------------
   Max    0.255547
   Res    0.136585    sqrt( Sum f_i^2 / 3N )
----------------------------------------
   Max    0.255547    constrained

Stress tensor Voigt[x,y,z,yz,xz,xy] (kbar):     -900.33     -900.36      528.41       -0.00       -0.00       -0.02
(Free)E + p*V (eV/cell)     -169.5747
Target enthalpy (eV/cell)     -187.5865

siesta: Eigenvalues (eV):
  ik is       eps
   1  1  -20.2194  -14.0460  -13.4704  -13.0563  -10.5260  -10.3657   -9.8996   -8.1581   -6.5137   -4.2543
          -1.8284   -1.3764   -0.9530   -0.1053    0.7257    1.4816    2.6697    4.5541    4.8718    6.9475
    8.7158   13.9359   15.8440   17.8567   20.4448   21.5247   21.6752   22.1760   24.2737   28.1798
   29.7722   31.5250   33.2684   33.3765   34.4686   38.7268   42.6449   45.5162   48.5436   59.0809
   61.2122   68.2216   87.5193
   2  1  -20.3345  -13.9700  -13.8955  -11.8272  -11.2545  -10.6063  -10.0417   -7.5944   -4.4490   -3.5573
          -3.3464   -2.8445   -2.0832   -0.9233   -0.2288    2.3244    4.5281    6.7582    8.3164    8.9641
    9.3004   10.6101   12.8318   15.9272   21.4266   24.0667   25.4002   25.5492   26.8579   27.1962
   29.6986   30.4811   31.8063   32.7041   34.9118   41.3650   42.5065   44.2085   49.6553   59.3267
   68.8623   70.4979   82.2367
   3  1  -20.3345  -13.9700  -13.8954  -11.8271  -11.2546  -10.6063  -10.0416   -7.5944   -4.4490   -3.5572
          -3.3464   -2.8444   -2.0832   -0.9234   -0.2286    2.3243    4.5281    6.7582    8.3164    8.9641
    9.3002   10.6101   12.8318   15.9270   21.4266   24.0668   25.4003   25.5492   26.8583   27.1959
   29.6986   30.4814   31.8063   32.7041   34.9118   41.3650   42.5065   44.2084   49.6553   59.3266
   68.8624   70.4978   82.2366
   4  1  -20.2194  -14.0460  -13.4704  -13.0563  -10.5260  -10.3658   -9.8995   -8.1581   -6.5136   -4.2543
          -1.8285   -1.3764   -0.9530   -0.1053    0.7257    1.4817    2.6697    4.5541    4.8718    6.9475
    8.7159   13.9360   15.8437   17.8567   20.4447   21.5246   21.6754   22.1760   24.2737   28.1796
   29.7724   31.5249   33.2684   33.3765   34.4686   38.7269   42.6448   45.5162   48.5436   59.0808
   61.2122   68.2217   87.5194
   5  1  -20.3345  -13.9700  -13.8955  -11.8272  -11.2545  -10.6063  -10.0417   -7.5944   -4.4490   -3.5573
          -3.3464   -2.8445   -2.0832   -0.9233   -0.2288    2.3244    4.5281    6.7582    8.3164    8.9641
    9.3004   10.6101   12.8318   15.9272   21.4266   24.0667   25.4002   25.5492   26.8579   27.1962
   29.6986   30.4811   31.8063   32.7041   34.9118   41.3650   42.5065   44.2085   49.6554   59.3267
   68.8623   70.4979   82.2367
   6  1  -20.3293  -14.2361  -13.5764  -11.0556  -11.0555  -10.8046   -9.9001   -6.6381   -5.1692   -5.1692
          -1.9880   -1.1297   -1.1296   -0.5797   -0.5796    1.3537    1.3537    7.4322   10.4898   10.4900
   12.8070   12.8072   17.9517   17.9517   21.3250   24.5191   28.1803   30.7285   30.7285   32.5877
   32.5885   34.9649   34.9650   35.9750   35.9752   45.0578   47.0700   51.3815   81.0424   81.0424
   97.8670  102.8214  102.8215
   7  1  -20.2248  -14.2359  -13.4557  -12.4634  -11.4270  -10.5600   -9.5368   -8.6273   -4.5696   -3.7688
          -3.6938   -2.4759   -0.4491    0.6330    1.5756    1.6566    2.3546    2.4744    2.8023    8.6155
   11.4001   15.5203   18.0094   18.5662   18.9598   20.6531   22.0678   24.7928   25.4667   26.2501
   27.5816   28.3354   32.6247   33.5895   41.3952   41.5207   48.0540   50.1780   58.4247   60.9472
   62.6158   76.0865   78.5128
   8  1  -20.2194  -14.0460  -13.4704  -13.0563  -10.5260  -10.3658   -9.8995   -8.1581   -6.5136   -4.2543
          -1.8285   -1.3764   -0.9530   -0.1053    0.7257    1.4817    2.6697    4.5541    4.8718    6.9475
    8.7159   13.9360   15.8437   17.8567   20.4447   21.5246   21.6754   22.1760   24.2737   28.1796
   29.7724   31.5249   33.2684   33.3765   34.4686   38.7269   42.6448   45.5162   48.5436   59.0808
   61.2122   68.2217   87.5194
   9  1  -20.2194  -14.0460  -13.4704  -13.0563  -10.5260  -10.3658   -9.8995   -8.1581   -6.5136   -4.2543
          -1.8285   -1.3764   -0.9530   -0.1053    0.7257    1.4817    2.6697    4.5541    4.8718    6.9475
    8.7159   13.9360   15.8437   17.8567   20.4447   21.5246   21.6754   22.1760   24.2737   28.1796
   29.7724   31.5249   33.2684   33.3765   34.4686   38.7269   42.6448   45.5162   48.5436   59.0808
   61.2122   68.2217   87.5194
  10  1  -20.2248  -14.2359  -13.4557  -12.4634  -11.4270  -10.5600   -9.5368   -8.6273   -4.5696   -3.7688
          -3.6938   -2.4759   -0.4491    0.6330    1.5756    1.6566    2.3546    2.4744    2.8023    8.6155
   11.4001   15.5203   18.0094   18.5662   18.9598   20.6531   22.0678   24.7928   25.4667   26.2501
   27.5816   28.3354   32.6247   33.5895   41.3952   41.5207   48.0540   50.1780   58.4247   60.9472
   62.6158   76.0865   78.5128
  11  1  -20.2194  -14.0460  -13.4704  -13.0563  -10.5260  -10.3658   -9.8995   -8.1581   -6.5136   -4.2543
          -1.8285   -1.3764   -0.9530   -0.1053    0.7257    1.4817    2.6697    4.5541    4.8718    6.9475
    8.7159   13.9360   15.8437   17.8567   20.4447   21.5246   21.6754   22.1760   24.2737   28.1796
   29.7724   31.5249   33.2684   33.3765   34.4686   38.7269   42.6448   45.5162   48.5436   59.0808
   61.2122   68.2217   87.5194
  12  1  -20.2248  -14.2359  -13.4557  -12.4634  -11.4271  -10.5600   -9.5367   -8.6273   -4.5695   -3.7688
          -3.6939   -2.4759   -0.4491    0.6330    1.5758    1.6565    2.3547    2.4744    2.8024    8.6153
   11.4001   15.5203   18.0094   18.5658   18.9599   20.6531   22.0680   24.7928   25.4667   26.2502
   27.5814   28.3356   32.6247   33.5896   41.3951   41.5207   48.0540   50.1779   58.4248   60.9471
   62.6157   76.0865   78.5126
  13  1  -20.0837  -14.6086  -13.6454  -12.7233  -11.1214  -10.8241   -8.4914   -7.0703   -6.4254   -3.8862
          -2.9620   -2.7704    0.1858    1.1775    1.3415    2.4997    2.5979    5.8612    6.5208    8.9039
   10.2104   13.9728   17.5476   18.9758   20.2172   21.8760   22.1568   24.0578   26.4693   27.6366
   29.0505   32.4666   36.7242   37.2248   39.3154   42.0477   46.2265   48.0024   51.2147   60.4002
   68.2978   71.7374   76.0851
  14  1  -20.2390  -14.8172  -13.5242  -11.6970  -11.2336  -11.1054   -9.0499   -7.0234   -4.8356   -4.7515
          -3.5691   -3.4351   -1.0068   -0.5872    0.4227    0.9030    3.4406    9.4444    9.7076   11.2626
   11.8631   12.7705   16.5922   19.0286   20.2085   22.4369   24.7538   24.9920   25.1402   25.9739
   28.1621   30.2369   32.8427   36.8688   37.7660   38.4372   43.7504   49.5487   52.4628   58.1845
   65.5192   74.0767   77.4257
  15  1  -20.2390  -14.8172  -13.5242  -11.6969  -11.2338  -11.1054   -9.0499   -7.0234   -4.8355   -4.7515
          -3.5691   -3.4351   -1.0068   -0.5874    0.4227    0.9030    3.4405    9.4444    9.7075   11.2627
   11.8632   12.7704   16.5922   19.0284   20.2086   22.4369   24.7539   24.9919   25.1401   25.9743
   28.1619   30.2369   32.8427   36.8686   37.7661   38.4371   43.7504   49.5486   52.4627   58.1844
   65.5192   74.0768   77.4257
  16  1  -20.0837  -14.6086  -13.6454  -12.7234  -11.1213  -10.8242   -8.4914   -7.0702   -6.4255   -3.8861
          -2.9620   -2.7704    0.1858    1.1775    1.3414    2.4997    2.5979    5.8612    6.5208    8.9037
   10.2104   13.9728   17.5475   18.9761   20.2172   21.8761   22.1568   24.0577   26.4694   27.6368
   29.0502   32.4667   36.7241   37.2247   39.3155   42.0477   46.2265   48.0024   51.2147   60.4002
   68.2979   71.7374   76.0852
  17  1  -20.2390  -14.8172  -13.5242  -11.6970  -11.2336  -11.1054   -9.0499   -7.0234   -4.8356   -4.7515
          -3.5691   -3.4351   -1.0068   -0.5872    0.4227    0.9030    3.4406    9.4444    9.7076   11.2626
   11.8631   12.7705   16.5922   19.0286   20.2085   22.4369   24.7538   24.9920   25.1402   25.9739
   28.1620   30.2369   32.8427   36.8688   37.7660   38.4372   43.7504   49.5487   52.4629   58.1845
   65.5192   74.0768   77.4257
  18  1  -20.3503  -14.7657  -13.1387  -11.0132  -11.0130  -10.9429   -9.8483   -6.5552   -4.7563   -4.7563
          -3.4769   -3.4769   -1.6243   -1.6243    0.7082    1.6137    1.6140   10.8436   15.0445   15.0446
   16.3876   16.3878   19.4224   19.4225   21.0115   24.1391   27.2054   27.2054   28.3319   28.4624
   28.4631   30.5622   30.5623   38.6740   44.2936   44.2938   46.0506   47.9627   64.3913   64.3913
   67.6749   72.1636   72.1636
  19  1  -20.2390  -14.8172  -13.5242  -11.6970  -11.2336  -11.1054   -9.0499   -7.0234   -4.8356   -4.7515
          -3.5691   -3.4351   -1.0068   -0.5872    0.4227    0.9030    3.4406    9.4444    9.7076   11.2626
   11.8631   12.7705   16.5922   19.0286   20.2085   22.4369   24.7538   24.9920   25.1402   25.9739
   28.1620   30.2369   32.8427   36.8688   37.7660   38.4372   43.7504   49.5487   52.4629   58.1845
   65.5192   74.0768   77.4257
  20  1  -20.0846  -14.6479  -13.8146  -11.9100  -11.4272  -11.1593   -8.6638   -6.6452   -6.1233   -4.9616
          -2.4885   -1.1544    0.3548    0.4580    0.8795    1.7906    2.1217    5.6970    9.3806   10.4621
   11.2754   13.9868   14.6233   18.8896   19.5553   21.0580   24.4139   24.5252   26.0157   27.2237
   29.4980   29.6890   29.9091   36.8762   39.1965   40.6127   48.5944   50.8938   55.7363   60.1662
   61.3631   64.1063   79.4865
  21  1  -20.2390  -14.8172  -13.5242  -11.6969  -11.2338  -11.1054   -9.0499   -7.0234   -4.8355   -4.7515
          -3.5691   -3.4351   -1.0068   -0.5874    0.4227    0.9030    3.4405    9.4444    9.7075   11.2627
   11.8632   12.7704   16.5922   19.0284   20.2086   22.4369   24.7539   24.9919   25.1401   25.9743
   28.1619   30.2369   32.8427   36.8686   37.7661   38.4371   43.7504   49.5486   52.4627   58.1844
   65.5192   74.0768   77.4257
  22  1  -20.2390  -14.8172  -13.5242  -11.6970  -11.2336  -11.1054   -9.0499   -7.0234   -4.8356   -4.7515
          -3.5691   -3.4351   -1.0068   -0.5872    0.4227    0.9030    3.4406    9.4444    9.7076   11.2626
   11.8631   12.7705   16.5922   19.0286   20.2085   22.4369   24.7538   24.9920   25.1402   25.9739
   28.1621   30.2369   32.8427   36.8688   37.7660   38.4372   43.7504   49.5487   52.4628   58.1845
   65.5192   74.0767   77.4257
  23  1  -20.0837  -14.6086  -13.6454  -12.7233  -11.1214  -10.8241   -8.4914   -7.0703   -6.4254   -3.8862
          -2.9620   -2.7704    0.1858    1.1775    1.3415    2.4997    2.5979    5.8612    6.5208    8.9039
   10.2104   13.9728   17.5476   18.9758   20.2172   21.8760   22.1568   24.0578   26.4693   27.6366
   29.0505   32.4666   36.7242   37.2248   39.3154   42.0477   46.2265   48.0024   51.2147   60.4002
   68.2978   71.7374   76.0851
  24  1  -20.0837  -14.6086  -13.6454  -12.7234  -11.1213  -10.8242   -8.4914   -7.0702   -6.4255   -3.8861
          -2.9620   -2.7704    0.1858    1.1775    1.3414    2.4997    2.5979    5.8612    6.5208    8.9037
   10.2104   13.9728   17.5475   18.9761   20.2172   21.8761   22.1568   24.0577   26.4694   27.6368
   29.0502   32.4667   36.7241   37.2247   39.3155   42.0477   46.2265   48.0024   51.2147   60.4002
   68.2979   71.7374   76.0852
  25  1  -20.0837  -14.6086  -13.6454  -12.7234  -11.1213  -10.8242   -8.4914   -7.0702   -6.4255   -3.8861
          -2.9620   -2.7704    0.1858    1.1775    1.3414    2.4997    2.5979    5.8612    6.5208    8.9037
   10.2104   13.9728   17.5475   18.9761   20.2172   21.8761   22.1568   24.0577   26.4694   27.6368
   29.0502   32.4667   36.7241   37.2247   39.3155   42.0477   46.2265   48.0024   51.2147   60.4002
   68.2979   71.7374   76.0851
  26  1  -20.0846  -14.6479  -13.8146  -11.9100  -11.4272  -11.1593   -8.6638   -6.6452   -6.1233   -4.9616
          -2.4885   -1.1544    0.3548    0.4580    0.8795    1.7906    2.1217    5.6970    9.3806   10.4621
   11.2754   13.9868   14.6233   18.8896   19.5553   21.0580   24.4139   24.5252   26.0157   27.2237
   29.4980   29.6890   29.9091   36.8762   39.1965   40.6128   48.5944   50.8938   55.7363   60.1662
   61.3631   64.1063   79.4865
  27  1  -20.0837  -14.6086  -13.6454  -12.7234  -11.1213  -10.8242   -8.4914   -7.0702   -6.4255   -3.8861
          -2.9620   -2.7704    0.1858    1.1775    1.3414    2.4997    2.5979    5.8612    6.5208    8.9037
   10.2104   13.9728   17.5475   18.9761   20.2172   21.8761   22.1568   24.0577   26.4694   27.6368
   29.0502   32.4667   36.7241   37.2247   39.3155   42.0477   46.2265   48.0024   51.2147   60.4002
   68.2979   71.7374   76.0851
  28  1  -20.0846  -14.6479  -13.8146  -11.9100  -11.4273  -11.1593   -8.6638   -6.6450   -6.1233   -4.9616
          -2.4886   -1.1544    0.3549    0.4580    0.8795    1.7905    2.1217    5.6970    9.3806   10.4621
   11.2753   13.9869   14.6232   18.8897   19.5553   21.0582   24.4139   24.5251   26.0157   27.2239
   29.4979   29.6885   29.9092   36.8762   39.1965   40.6127   48.5944   50.8938   55.7364   60.1662
   61.3631   64.1062   79.4864
  29  1  -19.8624  -15.5304  -12.7277  -12.2494  -11.9720  -11.7731   -6.5736   -5.8370   -5.5629   -4.1693
          -4.0950   -3.4270   -0.2487    1.6289    1.9108    2.2379    3.3016    8.4623    9.5703   13.8977
   14.7704   16.1576   16.5802   17.0210   19.0653   21.3710   22.5427   23.0533   26.8003   31.4227
   33.0921   35.0144   35.8546   39.4918   41.4366   46.2593   47.7220   63.7375   63.8366   71.2781
   72.4904   77.8874   95.2591
  30  1  -20.0064  -15.6577  -12.5783  -12.2724  -11.4530  -11.1987   -8.0615   -5.5556   -5.1581   -5.0385
          -4.1299   -2.4120   -2.3426   -1.8554    0.5880    3.4388    9.4053    9.6098   10.6276   13.3394
   16.8253   17.5013   18.1034   20.2158   20.4723   22.6693   23.9253   24.4989   25.3864   25.7865
   27.4375   37.3521   39.2915   39.4388   45.2829   51.0344   52.0075   57.8049   62.6860   72.8521
   87.6894   88.5312  103.9670
  31  1  -20.0064  -15.6577  -12.5783  -12.2723  -11.4530  -11.1988   -8.0614   -5.5556   -5.1580   -5.0385
          -4.1299   -2.4121   -2.3426   -1.8554    0.5881    3.4386    9.4053    9.6097   10.6276   13.3395
   16.8254   17.5013   18.1033   20.2156   20.4726   22.6694   23.9252   24.4989   25.3868   25.7865
   27.4375   37.3522   39.2915   39.4384   45.2829   51.0343   52.0075   57.8049   62.6861   72.8522
   87.6894   88.5312  103.9669
  32  1  -19.8624  -15.5304  -12.7277  -12.2494  -11.9721  -11.7731   -6.5735   -5.8371   -5.5629   -4.1693
          -4.0950   -3.4269   -0.2487    1.6289    1.9108    2.2379    3.3014    8.4623    9.5702   13.8977
   14.7705   16.1576   16.5802   17.0210   19.0654   21.3711   22.5427   23.0533   26.8009   31.4227
   33.0917   35.0142   35.8546   39.4917   41.4365   46.2593   47.7221   63.7375   63.8366   71.2781
   72.4905   77.8874   95.2591
  33  1  -20.0064  -15.6577  -12.5783  -12.2724  -11.4530  -11.1987   -8.0615   -5.5556   -5.1581   -5.0385
          -4.1299   -2.4120   -2.3426   -1.8554    0.5880    3.4388    9.4053    9.6098   10.6276   13.3394
   16.8253   17.5013   18.1034   20.2158   20.4723   22.6693   23.9253   24.4989   25.3864   25.7865
   27.4375   37.3521   39.2915   39.4388   45.2829   51.0344   52.0075   57.8049   62.6860   72.8521
   87.6894   88.5312  103.9670
  34  1  -20.1576  -15.7466  -12.6713  -11.1238  -10.9893  -10.9892   -9.4717   -5.4440   -4.1460   -4.1459
          -3.9488   -3.9488   -3.3107   -3.3107    2.5493    2.5496    6.1356   13.6331   16.8635   18.2036
   18.2036   18.4169   18.4170   22.7761   23.4414   23.4422   23.8989   23.8990   24.1914   24.1914
   25.3857   29.6623   29.6624   36.2891   44.0800   47.8670   48.7917   50.6057   50.6059   97.1926
   97.1926  112.2895  112.2895
  35  1  -20.0064  -15.6577  -12.5783  -12.2724  -11.4530  -11.1987   -8.0615   -5.5556   -5.1581   -5.0385
          -4.1299   -2.4120   -2.3426   -1.8554    0.5880    3.4388    9.4053    9.6098   10.6276   13.3394
   16.8253   17.5013   18.1034   20.2158   20.4723   22.6693   23.9253   24.4989   25.3864   25.7865
   27.4375   37.3521   39.2915   39.4388   45.2829   51.0344   52.0075   57.8049   62.6860   72.8521
   87.6894   88.5312  103.9670
  36  1  -19.8570  -15.6216  -12.9934  -12.3809  -11.6215  -11.3832   -7.5271   -5.6389   -5.5952   -5.3538
          -1.6616   -1.5192   -1.1179   -0.9015    0.7426    1.3779    4.2552    6.9579   12.1065   13.4110
   14.2329   14.9751   15.3742   17.2804   20.2794   20.5267   23.8022   24.8737   25.2957   28.9878
   30.8262   35.5944   37.0457   38.0065   45.8340   50.6931   53.4947   57.8983   65.6371   67.8304
   68.9625  161.1772  165.1611
  37  1  -20.0064  -15.6577  -12.5783  -12.2723  -11.4530  -11.1988   -8.0614   -5.5556   -5.1580   -5.0385
          -4.1299   -2.4121   -2.3426   -1.8554    0.5881    3.4386    9.4053    9.6097   10.6276   13.3395
   16.8254   17.5013   18.1033   20.2156   20.4726   22.6694   23.9252   24.4989   25.3868   25.7865
   27.4375   37.3522   39.2915   39.4384   45.2829   51.0343   52.0075   57.8049   62.6861   72.8522
   87.6894   88.5312  103.9669
  38  1  -20.0064  -15.6577  -12.5783  -12.2724  -11.4530  -11.1987   -8.0615   -5.5556   -5.1581   -5.0385
          -4.1299   -2.4120   -2.3426   -1.8554    0.5880    3.4388    9.4053    9.6098   10.6276   13.3394
   16.8253   17.5013   18.1034   20.2158   20.4723   22.6693   23.9253   24.4989   25.3864   25.7865
   27.4375   37.3521   39.2915   39.4388   45.2829   51.0344   52.0075   57.8049   62.6860   72.8521
   87.6894   88.5312  103.9670
  39  1  -19.8624  -15.5304  -12.7277  -12.2494  -11.9720  -11.7731   -6.5736   -5.8370   -5.5629   -4.1693
          -4.0950   -3.4270   -0.2487    1.6289    1.9108    2.2379    3.3016    8.4623    9.5703   13.8977
   14.7704   16.1576   16.5802   17.0210   19.0653   21.3710   22.5427   23.0533   26.8003   31.4227
   33.0921   35.0144   35.8546   39.4918   41.4366   46.2593   47.7220   63.7375   63.8366   71.2781
   72.4904   77.8874   95.2591
  40  1  -19.8624  -15.5304  -12.7277  -12.2494  -11.9721  -11.7731   -6.5735   -5.8371   -5.5629   -4.1693
          -4.0950   -3.4269   -0.2487    1.6289    1.9108    2.2379    3.3014    8.4623    9.5702   13.8977
   14.7705   16.1576   16.5802   17.0210   19.0654   21.3711   22.5427   23.0533   26.8009   31.4227
   33.0917   35.0142   35.8546   39.4917   41.4365   46.2593   47.7221   63.7375   63.8366   71.2781
   72.4905   77.8874   95.2591
  41  1  -19.8624  -15.5304  -12.7277  -12.2494  -11.9721  -11.7731   -6.5735   -5.8371   -5.5629   -4.1693
          -4.0950   -3.4269   -0.2487    1.6289    1.9108    2.2379    3.3014    8.4623    9.5702   13.8977
   14.7705   16.1576   16.5802   17.0210   19.0654   21.3711   22.5427   23.0533   26.8009   31.4227
   33.0916   35.0142   35.8546   39.4917   41.4365   46.2593   47.7221   63.7375   63.8366   71.2781
   72.4905   77.8874   95.2591
  42  1  -19.8570  -15.6216  -12.9934  -12.3809  -11.6215  -11.3832   -7.5271   -5.6389   -5.5952   -5.3538
          -1.6616   -1.5192   -1.1179   -0.9015    0.7426    1.3779    4.2552    6.9579   12.1065   13.4110
   14.2329   14.9751   15.3741   17.2804   20.2794   20.5267   23.8022   24.8737   25.2957   28.9878
   30.8262   35.5944   37.0457   38.0065   45.8340   50.6931   53.4947   57.8983   65.6371   67.8304
   68.9625  161.1772  165.1611
  43  1  -19.8624  -15.5304  -12.7277  -12.2494  -11.9721  -11.7731   -6.5735   -5.8371   -5.5629   -4.1693
          -4.0950   -3.4269   -0.2487    1.6289    1.9108    2.2379    3.3014    8.4623    9.5702   13.8977
   14.7705   16.1576   16.5802   17.0210   19.0654   21.3711   22.5427   23.0533   26.8009   31.4227
   33.0916   35.0142   35.8546   39.4917   41.4365   46.2593   47.7221   63.7375   63.8366   71.2781
   72.4905   77.8874   95.2591
  44  1  -19.8570  -15.6216  -12.9933  -12.3809  -11.6214  -11.3833   -7.5271   -5.6389   -5.5950   -5.3538
          -1.6616   -1.5194   -1.1179   -0.9015    0.7426    1.3779    4.2552    6.9578   12.1064   13.4109
   14.2329   14.9751   15.3743   17.2804   20.2798   20.5267   23.8022   24.8737   25.2957   28.9878
   30.8266   35.5945   37.0449   38.0065   45.8340   50.6931   53.4948   57.8982   65.6370   67.8304
   68.9625  161.1773  165.1611
siesta: Fermi energy =     -11.136430 eV

siesta: Program's energy decomposition (eV):
siesta: Ebs     =      -143.777855
siesta: Eions   =       321.344870
siesta: Ena     =        90.750099
siesta: Ekin    =       129.829052
siesta: Enl     =         7.538921
siesta: Eso     =         0.000000
siesta: Edftu   =         0.000000
siesta: DEna    =         5.204196
siesta: DUscf   =         1.049689
siesta: DUext   =         0.000000
siesta: Exc     =       -97.495863
siesta: eta*DQ  =         0.000000
siesta: Emadel  =         0.000000
siesta: Emeta   =         0.000000
siesta: Emolmec =        -3.099487
siesta: Ekinion =         0.000000
siesta: Eharris =      -187.568262
siesta: Etot    =      -187.568262
siesta: FreeEng =      -187.586489

siesta: Final energy (eV):
siesta:  Band Struct. =    -143.777855
siesta:       Kinetic =     129.829052
siesta:       Hartree =      41.848588
siesta:       Edftu   =       0.000000
siesta:       Eso     =       0.000000
siesta:    Ext. field =       0.000000
siesta:   Exch.-corr. =     -97.495863
siesta:  Ion-electron =    -250.310027
siesta:       Ion-ion =      -8.340526
siesta:       Ekinion =       0.000000
siesta:         Total =    -187.568262
siesta:         Fermi =     -11.136430

siesta: Atomic forces (eV/Ang):
siesta:      1    0.000000   -0.000000    0.000000
siesta:      2    0.127823   -0.221282   -0.000000
siesta:      3   -0.127823    0.221282   -0.000000
siesta:      4    0.127743    0.221258   -0.000000
siesta:      5   -0.127743   -0.221258   -0.000000
siesta:      6   -0.255547    0.000057   -0.000000
siesta:      7    0.255547   -0.000057   -0.000000
siesta: ----------------------------------------
siesta:    Tot    0.000000   -0.000000   -0.000000

siesta: Stress tensor (static) (eV/Ang**3):
siesta:    -0.561937   -0.000013   -0.000000
siesta:    -0.000013   -0.561952   -0.000000
siesta:    -0.000000   -0.000000    0.329804

siesta: Cell volume =         68.047129 Ang**3

siesta: Pressure (static):
siesta:                Solid            Molecule  Units
siesta:           0.00288287          0.00282133  Ry/Bohr**3
siesta:           0.26469516          0.25904515  eV/Ang**3
siesta:         424.09298338        415.04057906  kBar
(Free)E+ p_basis*V_orbitals  =        -168.152762
(Free)Eharris+ p_basis*V_orbitals  =        -168.152761

cite: Please see "LiC6_scf.bib" for an exhaustive BiBTeX file.
cite: Please clearly indicate Siesta version in published work: 4.1.5
cite: This calculation has made use of the following articles
cite: which are encouraged to be cited in a published work.
        Primary SIESTA paper
          DOI: www.doi.org/10.1088/0953-8984/14/11/302

>> End of run:   9-NOV-2022   8:58:21
Job completed
