Siesta Version  : 4.1.5
Architecture    : x86_64-unknown-linux-gnu--unknown
Compiler version: GNU Fortran (GCC) 11.3.0
Compiler flags  : mpif90 -g -O2 -fallow-argument-mismatch
PP flags        : -DMPI -DFC_HAVE_FLUSH -DFC_HAVE_ABORT
Libraries       :  -I/global/software/sl-7.x86_64/modules/intel/2020.4.304/mkl/include  /globall/software/sl-7.x86_64/modules/intel/2020.4.304/mkl/lib/intel64/libmkl_scalapack_lp64.a -Wl,--start-group /global/software/sl-7.x86_64/modules/intel/2020.4.304/mkl/lib/intel64/libmkl_intel_lp64.a /global/software/sl-7.x86_64/modules/intel/2020.4.304/mkl/lib/intel64/libmkl_sequential.a /global/software/sl-7.x86_64/modules/intel/2020.4.304/mkl/lib/intel64/libmkl_core.a /global/software/sl-7.x86_64/modules/intel/2020.4.304/mkl/lib/intel64/libmkl_blacs_openmpi_lp64.a -Wl,--end-group -lpthread -lm -ldl
PARALLEL version

* Running on 4 nodes in parallel
>> Start of run:   9-NOV-2022   7:57:01

                           ***********************       
                           *  WELCOME TO SIESTA  *       
                           ***********************       

reinit: Reading from standard input
reinit: Dumped input in INPUT_TMP.88861
************************** Dump of input data file ****************************
SystemName LiC6_scf
SystemLabel LiC6_scf
NumberOfAtoms   7
NumberOfSpecies 2
%block ChemicalSpeciesLabel
1  3   Li-gga
2  6   C-gga
%endblock ChemicalSpeciesLabel
PAO.BasisSize  DZP
PAO.EnergyShift  10 meV
%block PS.Lmax
C-gga   2
Li-gga  2
%endblock PS.Lmax
LatticeConstant 1.000000 Ang
%block LatticeVectors
	4.3161300000	0.0000000000	0.0000000000
	-2.1580650000	3.7378782260	0.0000000000
	0.0000000000	0.0000000000	2.4419076000
%endblock LatticeVectors
AtomicCoordinatesFormat Ang
%block AtomicCoordinatesAndAtomicSpecies
	0.00000000	0.00000000	0.00000000	2
	-0.70288177	1.21742694	1.22095380	1
	-1.45518323	2.52045129	1.22095380	1
	1.45518323	2.52045129	1.22095380	1
	0.70288177	1.21742694	1.22095380	1
	1.40576354	0.00000000	1.22095380	1
	2.91036646	0.00000000	1.22095380	1
%endblock AtomicCoordinatesAndAtomicSpecies
Kgrid_NoTRS  T
%block kgrid_MonkhorstPack
4       0       0       0.0
0       4       0       0.0
0       0       4       0.0
%endblock kgrid_MonkhorstPack
AtomCoorFormatOut Ang
BlockSize 1
#ProcessorY 12
Diag.ParallelOverK   T
Diag.DivideAndConquer F
MeshCutoff   300 Ry
SCF.FreeE.Tolerance 1E-3 eV
SCF.EDM.Tolerance   5E-3 eV
DM.Tolerance  1E-3
DM.Require.Energy.Convergence T
DM.NumberPulay 4
XC.Functional GGA
XC.Authors    PBE
UseSaveData        F
MD.TypeOfRun       CG
MD.VariableCell    F
MD.NumCGsteps      00
MD.MaxCGDispl      0.200000 Bohr
MD.MaxStressTol    1.000000 GPa
MD.MaxForceTol     0.010000 eV/Ang
WriteMDHistory T
WriteCoorStep T
WriteForces T
WriteCoorStep    T
WriteEigenValues T
WriteDM    F
MM.UnitsDistance Ang  # what this program prints out DO NOT CHANGE
MM.UnitsEnergy    eV  # what this program prints out DO NOT CHANGE
MM.Grimme.S6     0.75 # Grimme-paper for PBE (correct for your functional)
MM.Grimme.D     20.   # Grimme-paper (correct for your functional)
%block MM.Potentials
  1   1 Grimme     16.69      1.650 # Li, 10.1002/jcc.20495
  1   2 Grimme     17.40      2.277 # Li / C
  2   2 Grimme     18.14      2.904 # C, 10.1002/jcc.20495
%endblock MM.Potentials
#%block ProjectedDensityOfStates
# -200.0  120.0  0.4  12800  eV
#%endblock ProjectedDensityOfStates
************************** End of input data file *****************************

reinit: -----------------------------------------------------------------------
reinit: System Name: LiC6_scf
reinit: -----------------------------------------------------------------------
reinit: System Label: LiC6_scf
reinit: -----------------------------------------------------------------------
Reading two-body potentials
Grimme - two-body potential between 1 and 1
Grimme - two-body potential between 1 and 2
Grimme - two-body potential between 2 and 2

initatom: Reading input for the pseudopotentials and atomic orbitals ----------
Species number:   1 Atomic number:    3 Label: Li-gga
Species number:   2 Atomic number:    6 Label: C-gga

Ground state valence configuration:   2s01
Reading pseudopotential information in formatted form from Li-gga.psf

Valence configuration for pseudopotential generation:
2s( 1.00) rc: 2.28
2p( 0.00) rc: 2.28
3d( 0.00) rc: 2.59
4f( 0.00) rc: 2.59
Ground state valence configuration:   2s02  2p02
Reading pseudopotential information in formatted form from C-gga.psf

Valence configuration for pseudopotential generation:
2s( 2.00) rc: 1.56
2p( 2.00) rc: 1.56
3d( 0.00) rc: 1.56
4f( 0.00) rc: 1.56
relmxkb: Read Max KB Ang. Momentum=    2 for species C-gga
relmxkb: Read Max KB Ang. Momentum=    2 for species Li-gga

<basis_specs>
===============================================================================
Li-gga               Z=   3    Mass=  6.9400        Charge= 0.17977+309
Lmxo=0 Lmxkb= 2    BasisType=split      Semic=F
L=0  Nsemic=0  Cnfigmx=2
          i=1  nzeta=2  polorb=1  (2s)
            splnorm:   0.15000    
               vcte:    0.0000    
               rinn:    0.0000    
               qcoe:    0.0000    
               qyuk:    0.0000    
               qwid:   0.10000E-01
                rcs:    0.0000      0.0000    
            lambdas:    1.0000      1.0000    
-------------------------------------------------------------------------------
L=0  Nkbl=1  erefs: 0.17977+309
L=1  Nkbl=1  erefs: 0.17977+309
L=2  Nkbl=1  erefs: 0.17977+309
===============================================================================
</basis_specs>

atom: Called for Li-gga                (Z =   3)

read_vps: Pseudopotential generation method:
read_vps: ATM 3.2.2 Troullier-Martins                       
Valence charge for ps generation:    1.00000

read_vps: Pseudopotential includes a core correction:
read_vps: Pseudo-core for xc-correction

xc_check: Exchange-correlation functional:
xc_check: GGA Perdew, Burke & Ernzerhof 1996
V l=0 = -2*Zval/r beyond r=  2.2278
V l=1 = -2*Zval/r beyond r=  2.2278
V l=2 = -2*Zval/r beyond r=  2.5245
All V_l potentials equal beyond r=  2.4622
This should be close to max(r_c) in ps generation
All pots = -2*Zval/r beyond r=  2.5245

VLOCAL1: 99.0% of the norm of Vloc inside      7.160 Ry
VLOCAL1: 99.9% of the norm of Vloc inside     16.318 Ry
atom: Maximum radius for 4*pi*r*r*local-pseudopot. charge    2.86079
atom: Maximum radius for r*vlocal+2*Zval:    2.43160
GHOST: No ghost state for L =  0
GHOST: No ghost state for L =  1
GHOST: No ghost state for L =  2

KBgen: Kleinman-Bylander projectors: 
   l= 0   rc=  2.654023   el= -0.211234   Ekb=  1.742119   kbcos=  0.228463
   l= 1   rc=  2.721230   el= -0.080095   Ekb= -1.122375   kbcos= -0.147941
   l= 2   rc=  2.825246   el=  0.002001   Ekb= -0.207076   kbcos= -0.031965

KBgen: Total number of Kleinman-Bylander projectors:    9
atom: -------------------------------------------------------------------------

atom: SANKEY-TYPE ORBITALS:
atom: Selected multiple-zeta basis: split     

SPLIT: Orbitals with angular momentum L= 0

SPLIT: Basis orbitals for state 2s

SPLIT: PAO cut-off radius determined from an
SPLIT: energy shift=  0.000735 Ry

   izeta = 1
                 lambda =    1.000000
                     rc =   11.897381
                 energy =   -0.210580
                kinetic =    0.143382
    potential(screened) =   -0.353962
       potential(ionic) =   -0.533453

   izeta = 2
                 rmatch =    8.489163
              splitnorm =    0.150000
                 energy =   -0.186081
                kinetic =    0.225882
    potential(screened) =   -0.411964
       potential(ionic) =   -0.593024

POLgen: Perturbative polarization orbital with L=  1

POLgen: Polarization orbital for state 2s

   izeta = 1
                     rc =   11.897381
                 energy =   -0.027011
                kinetic =    0.282985
    potential(screened) =   -0.309997
       potential(ionic) =   -0.490997
atom: Total number of Sankey-type orbitals:  5

atm_pop: Valence configuration (for local Pseudopot. screening):
 2s( 1.00)                                                            
Vna: chval, zval:    1.00000   1.00000

Vna:  Cut-off radius for the neutral-atom potential:  11.897381
comcore: Pseudo-core radius Rcore=  3.450946

atom: _________________________________________________________________________

<basis_specs>
===============================================================================
C-gga                Z=   6    Mass=  12.010        Charge= 0.17977+309
Lmxo=1 Lmxkb= 2    BasisType=split      Semic=F
L=0  Nsemic=0  Cnfigmx=2
          i=1  nzeta=2  polorb=0  (2s)
            splnorm:   0.15000    
               vcte:    0.0000    
               rinn:    0.0000    
               qcoe:    0.0000    
               qyuk:    0.0000    
               qwid:   0.10000E-01
                rcs:    0.0000      0.0000    
            lambdas:    1.0000      1.0000    
L=1  Nsemic=0  Cnfigmx=2
          i=1  nzeta=2  polorb=1  (2p)
            splnorm:   0.15000    
               vcte:    0.0000    
               rinn:    0.0000    
               qcoe:    0.0000    
               qyuk:    0.0000    
               qwid:   0.10000E-01
                rcs:    0.0000      0.0000    
            lambdas:    1.0000      1.0000    
-------------------------------------------------------------------------------
L=0  Nkbl=1  erefs: 0.17977+309
L=1  Nkbl=1  erefs: 0.17977+309
L=2  Nkbl=1  erefs: 0.17977+309
===============================================================================
</basis_specs>

atom: Called for C-gga                 (Z =   6)

read_vps: Pseudopotential generation method:
read_vps: ATM 3.2.2 Troullier-Martins                       
Valence charge for ps generation:    4.00000

xc_check: Exchange-correlation functional:
xc_check: GGA Perdew, Burke & Ernzerhof 1996
V l=0 = -2*Zval/r beyond r=  1.5227
V l=1 = -2*Zval/r beyond r=  1.5227
V l=2 = -2*Zval/r beyond r=  1.5227
All V_l potentials equal beyond r=  1.4851
This should be close to max(r_c) in ps generation
All pots = -2*Zval/r beyond r=  1.5227

VLOCAL1: 99.0% of the norm of Vloc inside     19.682 Ry
VLOCAL1: 99.9% of the norm of Vloc inside     44.856 Ry
atom: Maximum radius for 4*pi*r*r*local-pseudopot. charge    1.79142
atom: Maximum radius for r*vlocal+2*Zval:    1.54183
GHOST: No ghost state for L =  0
GHOST: No ghost state for L =  1
GHOST: No ghost state for L =  2

KBgen: Kleinman-Bylander projectors: 
   l= 0   rc=  1.661951   el= -1.010689   Ekb=  5.289847   kbcos=  0.316429
   l= 1   rc=  1.661951   el= -0.388490   Ekb= -4.102504   kbcos= -0.351025
   l= 2   rc=  1.747182   el=  0.001971   Ekb= -1.006005   kbcos= -0.008530

KBgen: Total number of Kleinman-Bylander projectors:    9
atom: -------------------------------------------------------------------------

atom: SANKEY-TYPE ORBITALS:
atom: Selected multiple-zeta basis: split     

SPLIT: Orbitals with angular momentum L= 0

SPLIT: Basis orbitals for state 2s

SPLIT: PAO cut-off radius determined from an
SPLIT: energy shift=  0.000735 Ry

   izeta = 1
                 lambda =    1.000000
                     rc =    5.948690
                 energy =   -1.010099
                kinetic =    0.827121
    potential(screened) =   -1.837220
       potential(ionic) =   -5.392783

   izeta = 2
                 rmatch =    3.518811
              splitnorm =    0.150000
                 energy =   -0.877891
                kinetic =    1.289227
    potential(screened) =   -2.167118
       potential(ionic) =   -5.982073

SPLIT: Orbitals with angular momentum L= 1

SPLIT: Basis orbitals for state 2p

SPLIT: PAO cut-off radius determined from an
SPLIT: energy shift=  0.000735 Ry

   izeta = 1
                 lambda =    1.000000
                     rc =    7.638387
                 energy =   -0.387843
                kinetic =    2.314739
    potential(screened) =   -2.702582
       potential(ionic) =   -6.092371

   izeta = 2
                 rmatch =    3.840617
              splitnorm =    0.150000
                 energy =   -0.270479
                kinetic =    3.438347
    potential(screened) =   -3.708826
       potential(ionic) =   -7.497707

POLgen: Perturbative polarization orbital with L=  2

POLgen: Polarization orbital for state 2p

   izeta = 1
                     rc =    7.638387
                 energy =    0.921402
                kinetic =    1.955040
    potential(screened) =   -1.033637
       potential(ionic) =   -3.679558
atom: Total number of Sankey-type orbitals: 13

atm_pop: Valence configuration (for local Pseudopot. screening):
 2s( 2.00)                                                            
 2p( 2.00)                                                            
Vna: chval, zval:    4.00000   4.00000

Vna:  Cut-off radius for the neutral-atom potential:   7.638387

atom: _________________________________________________________________________

prinput: Basis input ----------------------------------------------------------

PAO.BasisType split     

%block ChemicalSpeciesLabel
    1    3 Li-gga                  # Species index, atomic number, species label
    2    6 C-gga                   # Species index, atomic number, species label
%endblock ChemicalSpeciesLabel

%block PAO.Basis                 # Define Basis set
Li-gga                1                    # Species label, number of l-shells
 n=2   0   2 P   1                   # n, l, Nzeta, Polarization, NzetaPol
  11.897      8.489   
   1.000      1.000   
C-gga                 2                    # Species label, number of l-shells
 n=2   0   2                         # n, l, Nzeta 
   5.949      3.519   
   1.000      1.000   
 n=2   1   2 P   1                   # n, l, Nzeta, Polarization, NzetaPol
   7.638      3.841   
   1.000      1.000   
%endblock PAO.Basis

prinput: ----------------------------------------------------------------------

coor:   Atomic-coordinates input format  =     Cartesian coordinates
coor:                                          (in Angstroms)

siesta: Atomic coordinates (Bohr) and species
siesta:      0.00000   0.00000   0.00000  2        1
siesta:     -1.32825   2.30060   2.30727  1        2
siesta:     -2.74990   4.76296   2.30727  1        3
siesta:      2.74990   4.76296   2.30727  1        4
siesta:      1.32825   2.30060   2.30727  1        5
siesta:      2.65651   0.00000   2.30727  1        6
siesta:      5.49980   0.00000   2.30727  1        7

siesta: System type = bulk      

initatomlists: Number of atoms, orbitals, and projectors:      7    43    63

siesta: ******************** Simulation parameters ****************************
siesta:
siesta: The following are some of the parameters of the simulation.
siesta: A complete list of the parameters used, including default values,
siesta: can be found in file out.fdf
siesta:
redata: Spin configuration                          = none
redata: Number of spin components                   = 1
redata: Time-Reversal Symmetry                      = T
redata: Spin spiral                                 = F
redata: Long output                                 =   F
redata: Number of Atomic Species                    =        2
redata: Charge density info will appear in .RHO file
redata: Write Mulliken Pop.                         = NO
redata: Matel table size (NRTAB)                    =     1024
redata: Mesh Cutoff                                 =   300.0000 Ry
redata: Net charge of the system                    =     0.0000 |e|
redata: Min. number of SCF Iter                     =        0
redata: Max. number of SCF Iter                     =     1000
redata: SCF convergence failure will abort job
redata: SCF mix quantity                            = Hamiltonian
redata: Mix DM or H after convergence               =   F
redata: Recompute H after scf cycle                 =   F
redata: Mix DM in first SCF step                    =   T
redata: Write Pulay info on disk                    =   F
redata: New DM Occupancy tolerance                  = 0.000000000001
redata: No kicks to SCF
redata: DM Mixing Weight for Kicks                  =     0.5000
redata: Require Harris convergence for SCF          =   F
redata: Harris energy tolerance for SCF             =     0.000100 eV
redata: Require DM convergence for SCF              =   T
redata: DM tolerance for SCF                        =     0.001000
redata: Require EDM convergence for SCF             =   F
redata: EDM tolerance for SCF                       =     0.005000 eV
redata: Require H convergence for SCF               =   T
redata: Hamiltonian tolerance for SCF               =     0.001000 eV
redata: Require (free) Energy convergence for SCF   =   T
redata: (free) Energy tolerance for SCF             =     0.001000 eV
redata: Using Saved Data (generic)                  =   F
redata: Use continuation files for DM               =   F
redata: Neglect nonoverlap interactions             =   F
redata: Method of Calculation                       = Diagonalization
redata: Electronic Temperature                      =   299.9869 K
redata: Fix the spin of the system                  =   F
redata: Dynamics option                             = Single-point calculation
mix.SCF: Pulay mixing                            = Pulay
mix.SCF:    Variant                              = stable
mix.SCF:    History steps                        = 4
mix.SCF:    Linear mixing weight                 =     0.250000
mix.SCF:    Mixing weight                        =     0.250000
mix.SCF:    SVD condition                        = 0.1000E-07
redata: ***********************************************************************

%block SCF.Mixers
  Pulay
%endblock SCF.Mixers

%block SCF.Mixer.Pulay
  # Mixing method
  method pulay
  variant stable

  # Mixing options
  weight 0.2500
  weight.linear 0.2500
  history 4
%endblock SCF.Mixer.Pulay

DM_history_depth set to one: no extrapolation allowed by default for geometry relaxation
Size of DM history Fstack: 1
Total number of electrons:    10.000000
Total ionic charge:    10.000000

* ProcessorY, Blocksize:    2   1


* Orbital distribution balance (max,min):    11    10

k-point displ. along   1 input, could be:     0.00    0.50
k-point displ. along   2 input, could be:     0.00    0.50
k-point displ. along   3 input, could be:     0.00    0.50
 Kpoints in:           48 . Kpoints trimmed:           44

siesta: k-grid: Number of k-points =    44
siesta: k-grid: Cutoff (effective) =     4.884 Ang
siesta: k-grid: Supercell and displacements
siesta: k-grid:    4   0   0      0.000
siesta: k-grid:    0   4   0      0.000
siesta: k-grid:    0   0   4      0.000

diag: Algorithm                                     = Expert
diag: Parallel over k                               =   T
diag: Use parallel 2D distribution                  =   T
diag: Parallel block-size                           = 1
diag: Parallel distribution                         =     2 x     2
diag: Used triangular part                          = Lower
diag: Absolute tolerance                            =  0.100E-15
diag: Orthogonalization factor                      =  0.100E-05
diag: Memory factor                                 =  1.0000

superc: Internal auxiliary supercell:     9 x     9 x    13  =    1053
superc: Number of atoms, orbitals, and projectors:   7371  45279  66339


ts: **************************************************************
ts: Save H and S matrices                           =    F
ts: Save DM and EDM matrices                        =    F
ts: Only save the overlap matrix S                  =    F
ts: **************************************************************

************************ Begin: TS CHECKS AND WARNINGS ************************
************************ End: TS CHECKS AND WARNINGS **************************


                     ====================================
                        Single-point calculation
                     ====================================

outcoor: Atomic coordinates (Ang):                          
    0.00000000    0.00000000    0.00000000   2       1  C-gga
   -0.70288177    1.21742694    1.22095380   1       2  Li-gga
   -1.45518323    2.52045129    1.22095380   1       3  Li-gga
    1.45518323    2.52045129    1.22095380   1       4  Li-gga
    0.70288177    1.21742694    1.22095380   1       5  Li-gga
    1.40576354    0.00000000    1.22095380   1       6  Li-gga
    2.91036646    0.00000000    1.22095380   1       7  Li-gga

superc: Internal auxiliary supercell:     9 x     9 x    13  =    1053
superc: Number of atoms, orbitals, and projectors:   7371  45279  66339

outcell: Unit cell vectors (Ang):
        4.316130    0.000000    0.000000
       -2.158065    3.737878    0.000000
        0.000000    0.000000    2.441908

outcell: Cell vector modules (Ang)   :    4.316130    4.316130    2.441908
outcell: Cell angles (23,13,12) (deg):     90.0000     90.0000    120.0000
outcell: Cell volume (Ang**3)        :     39.3957
<dSpData1D:S at geom step 0
  <sparsity:sparsity for geom step 0
    nrows_g=43 nrows=11 sparsity=58.7712 nnzs=108668, refcount: 7>
  <dData1D:(new from dSpData1D) n=108668, refcount: 1>
refcount: 1>
new_DM -- step:     1
Initializing Density Matrix...
DM filled with atomic data:
<dSpData2D:DM initialized from atoms
  <sparsity:sparsity for geom step 0
    nrows_g=43 nrows=11 sparsity=58.7712 nnzs=108668, refcount: 8>
  <dData2D:DM n=108668 m=1, refcount: 1>
refcount: 1>
No. of atoms with KB's overlaping orbs in proc 0. Max # of overlaps:     517    1506
New grid distribution:   1
           1       1:   20    1:   10    1:    8
           2       1:   20    1:   10    9:   15
           3       1:   20   11:   20    1:    8
           4       1:   20   11:   20    9:   15

InitMesh: MESH =    40 x    40 x    30 =       48000
InitMesh: (bp) =    20 x    20 x    15 =        6000
InitMesh: Mesh cutoff (required, used) =   300.000   316.498 Ry
ExtMesh (bp) on 0 =   156 x   146 x   164 =     3735264
New grid distribution:   2
           1       1:   10    1:   10    1:   15
           2      11:   20    1:   10    1:   15
           3       1:   10   11:   20    1:   15
           4      11:   20   11:   20    1:   15
New grid distribution:   3
           1       1:   10    1:   10    1:   15
           2      11:   20    1:   10    1:   15
           3       1:   10   11:   20    1:   15
           4      11:   20   11:   20    1:   15
Setting up quadratic distribution...
ExtMesh (bp) on 0 =   146 x   146 x   171 =     3645036
PhiOnMesh: Number of (b)points on node 0 =                 1500
PhiOnMesh: nlist on node 0 =              1174816

stepf: Fermi-Dirac step function

siesta: Program's energy decomposition (eV):
siesta: Ebs     =      -139.225394
siesta: Eions   =       321.344870
siesta: Ena     =        71.836593
siesta: Ekin    =       228.894848
siesta: Enl     =       -17.794951
siesta: Eso     =         0.000000
siesta: Edftu   =         0.000000
siesta: DEna    =       -38.919423
siesta: DUscf   =        24.316093
siesta: DUext   =         0.000000
siesta: Exc     =      -123.969118
siesta: eta*DQ  =         0.000000
siesta: Emadel  =         0.000000
siesta: Emeta   =         0.000000
siesta: Emolmec =        -4.085412
siesta: Ekinion =         0.000000
siesta: Eharris =      -141.073995
siesta: Etot    =      -181.066239
siesta: FreeEng =      -181.079507

        iscf     Eharris(eV)        E_KS(eV)     FreeEng(eV)     dDmax    Ef(eV) dHmax(eV)
   scf:    1     -141.073995     -181.066239     -181.079507 11.728642-17.593987 18.804440
timer: Routine,Calls,Time,% = IterSCF        1      25.926  60.91
   scf:    2     -201.147207     -195.838621     -195.844739  3.473933-17.034151  1.319794
   scf:    3     -195.944232     -195.903489     -195.910991  0.448478-16.941373  0.355096
   scf:    4     -195.897301     -195.906874     -195.914761  0.811195-16.869135  0.402196
   scf:    5     -195.914061     -195.913958     -195.920517  0.101276-16.916838  0.132489
   scf:    6     -195.913787     -195.914142     -195.921115  0.063387-16.906739  0.024635
   scf:    7     -195.914332     -195.914243     -195.921136  0.020529-16.907697  0.000302
   scf:    8     -195.914241     -195.914242     -195.921136  0.001097-16.907634  0.000534
   scf:    9     -195.914245     -195.914244     -195.921136  0.000272-16.907659  0.000056

SCF Convergence by FreeE+DM+H criterion
|FreeE_i-FreeE_(i-1)| (eV) <     0.00100000
max |DM_out - DM_in|         :     0.0002723538
max |H_out - H_in|      (eV) :     0.0000563274
SCF cycle converged after 9 iterations

Using DM_out to compute the final energy and forces
No. of atoms with KB's overlaping orbs in proc 0. Max # of overlaps:     517    1506

MM-Stress (kbar):       41.55       41.55      234.06        0.00       -0.00        0.00

siesta: E_KS(eV) =             -195.9142

siesta: E_KS - E_eggbox =      -195.9142

siesta: Atomic forces (eV/Ang):
     1   -0.000000    0.000000    0.000000
     2   -0.975832    1.690329   -0.000000
     3    0.975832   -1.690329   -0.000000
     4   -0.975822   -1.690174   -0.000000
     5    0.975822    1.690174   -0.000000
     6    1.951784    0.000069   -0.000000
     7   -1.951784   -0.000069   -0.000000
----------------------------------------
   Tot   -0.000000    0.000000   -0.000000
----------------------------------------
   Max    1.951784
   Res    1.043248    sqrt( Sum f_i^2 / 3N )
----------------------------------------
   Max    1.951784    constrained

Stress tensor Voigt[x,y,z,yz,xz,xy] (kbar):    -1615.04    -1615.09       96.59       -0.00       -0.00       -0.05
(Free)E + p*V (eV/cell)     -170.2380
Target enthalpy (eV/cell)     -195.9211

siesta: Eigenvalues (eV):
  ik is       eps
   1  1  -29.1557  -21.9221  -21.0547  -18.4788  -18.0377  -14.8814  -12.4433   -8.8313   -8.7106   -4.8661
          -0.2063    0.1916    3.0388    3.0656    5.2237    5.8314    6.8258    9.3014   10.8802   13.1700
   15.4128   19.6569   19.8066   22.2807   24.7734   24.7908   25.7537   26.4160   36.8356   36.9939
   38.2891   39.3829   41.6501   41.7311   45.0199   49.4006   52.0606   57.6150   68.9195   76.1331
   79.5928   81.4670  111.6352
   2  1  -29.2263  -21.9665  -19.8242  -19.7034  -18.5623  -15.0484  -12.5406  -11.4946   -5.9453   -4.9501
          -1.7709    0.0523    3.4919    4.7671    5.9121    7.0352    8.4466   14.0699   15.8583   18.4467
   18.7660   19.6840   21.7006   22.3049   23.3273   25.1660   26.8960   29.3652   30.3826   33.0879
   35.3734   44.1048   48.8829   50.8837   58.9970   59.1466   61.6635   74.9228   75.5889   82.5661
   90.4498   91.8937  100.4938
   3  1  -29.2263  -21.9665  -19.8242  -19.7036  -18.5622  -15.0484  -12.5406  -11.4946   -5.9453   -4.9502
          -1.7709    0.0523    3.4915    4.7675    5.9122    7.0352    8.4466   14.0701   15.8585   18.4466
   18.7658   19.6842   21.7002   22.3050   23.3273   25.1663   26.8956   29.3651   30.3826   33.0879
   35.3738   44.1046   48.8828   50.8837   58.9968   59.1470   61.6628   74.9230   75.5889   82.5660
   90.4498   91.8934  100.4933
   4  1  -29.1557  -21.9220  -21.0548  -18.4789  -18.0376  -14.8814  -12.4433   -8.8313   -8.7106   -4.8662
          -0.2063    0.1916    3.0391    3.0656    5.2232    5.8316    6.8258    9.3018   10.8799   13.1700
   15.4128   19.6569   19.8067   22.2806   24.7733   24.7907   25.7536   26.4160   36.8356   36.9946
   38.2891   39.3830   41.6501   41.7311   45.0200   49.4003   52.0606   57.6150   68.9195   76.1332
   79.5925   81.4671  111.6349
   5  1  -29.2263  -21.9665  -19.8242  -19.7034  -18.5623  -15.0484  -12.5406  -11.4946   -5.9453   -4.9501
          -1.7709    0.0523    3.4919    4.7671    5.9121    7.0352    8.4466   14.0699   15.8583   18.4467
   18.7660   19.6840   21.7006   22.3049   23.3273   25.1660   26.8960   29.3652   30.3826   33.0879
   35.3734   44.1048   48.8829   50.8837   58.9970   59.1466   61.6635   74.9228   75.5889   82.5661
   90.4498   91.8938  100.4938
   6  1  -29.2631  -21.7036  -19.5901  -19.5899  -18.9707  -15.1488  -13.2773  -13.2773   -2.6391   -1.5990
          -1.5984    0.3484    2.3124    2.3125    6.5308   10.9245   10.9246   15.5723   17.6097   17.6097
   18.2302   19.4620   19.4621   25.3803   25.3803   29.6479   29.6494   31.4261   31.4267   32.9116
   39.4320   42.0150   54.6737   60.0287   60.0301   62.5794   62.5796   84.6391   90.8614  123.3994
  123.4005  131.3779  131.3787
   7  1  -29.1531  -22.1109  -20.3115  -19.7777  -17.4853  -14.8914  -11.1705  -10.7968   -7.5903   -6.5485
          -0.0143    0.0868    2.4927    3.9106    4.8003    5.2593    7.0198    9.0470   12.2009   14.9528
   15.0177   18.5502   20.0395   22.8136   22.8377   24.4185   24.5790   26.7076   28.1513   33.6012
   35.1058   40.3803   43.4066   45.4280   46.0624   52.0694   54.1666   60.0912   62.7598   68.5814
   72.2331   87.5115   99.8085
   8  1  -29.1557  -21.9220  -21.0548  -18.4789  -18.0376  -14.8814  -12.4433   -8.8313   -8.7106   -4.8662
          -0.2063    0.1916    3.0391    3.0656    5.2232    5.8316    6.8258    9.3018   10.8799   13.1700
   15.4128   19.6569   19.8067   22.2806   24.7733   24.7907   25.7536   26.4160   36.8356   36.9946
   38.2891   39.3830   41.6501   41.7311   45.0200   49.4003   52.0606   57.6150   68.9195   76.1332
   79.5925   81.4671  111.6349
   9  1  -29.1557  -21.9220  -21.0548  -18.4789  -18.0376  -14.8814  -12.4433   -8.8313   -8.7106   -4.8662
          -0.2063    0.1916    3.0391    3.0656    5.2232    5.8316    6.8258    9.3018   10.8799   13.1700
   15.4128   19.6569   19.8067   22.2806   24.7733   24.7907   25.7536   26.4160   36.8356   36.9946
   38.2891   39.3830   41.6501   41.7311   45.0200   49.4002   52.0606   57.6150   68.9195   76.1332
   79.5925   81.4671  111.6349
  10  1  -29.1531  -22.1109  -20.3115  -19.7777  -17.4853  -14.8914  -11.1705  -10.7968   -7.5903   -6.5485
          -0.0143    0.0868    2.4927    3.9106    4.8003    5.2593    7.0198    9.0470   12.2009   14.9528
   15.0177   18.5502   20.0395   22.8136   22.8377   24.4185   24.5790   26.7076   28.1513   33.6012
   35.1058   40.3803   43.4066   45.4280   46.0624   52.0694   54.1666   60.0912   62.7598   68.5814
   72.2331   87.5115   99.8085
  11  1  -29.1557  -21.9220  -21.0548  -18.4789  -18.0376  -14.8814  -12.4433   -8.8313   -8.7106   -4.8662
          -0.2063    0.1916    3.0391    3.0656    5.2232    5.8316    6.8258    9.3018   10.8799   13.1700
   15.4128   19.6569   19.8067   22.2806   24.7733   24.7907   25.7536   26.4160   36.8356   36.9946
   38.2891   39.3830   41.6501   41.7311   45.0200   49.4002   52.0606   57.6150   68.9195   76.1332
   79.5925   81.4671  111.6349
  12  1  -29.1531  -22.1109  -20.3115  -19.7779  -17.4851  -14.8914  -11.1705  -10.7968   -7.5903   -6.5485
          -0.0143    0.0867    2.4923    3.9106    4.8004    5.2598    7.0198    9.0475   12.2010   14.9523
   15.0177   18.5502   20.0396   22.8136   22.8376   24.4187   24.5788   26.7074   28.1513   33.6010
   35.1066   40.3802   43.4065   45.4281   46.0625   52.0694   54.1665   60.0912   62.7598   68.5805
   72.2332   87.5112   99.8075
  13  1  -28.4413  -21.9366  -20.8795  -19.7700  -17.6686  -16.8741  -11.2123   -9.1437   -8.9693   -6.8493
          -5.3705   -3.3274   -0.8586    1.1531    1.2965    3.1138    5.6238    5.9245    9.9930   13.3552
   15.9115   19.4313   20.9713   21.0501   25.7919   27.8184   32.0020   32.5815   40.4339   40.7827
   42.6833   43.7113   47.4803   47.7474   51.5887   55.3028   66.9661   68.1840   73.0549   74.0859
   86.2708  108.4047  132.7109
  14  1  -28.5572  -22.1375  -19.8961  -19.7849  -18.0646  -16.9851  -11.8839  -10.9545   -9.2310   -3.4986
          -3.4542   -2.7364   -1.0044    0.6744    2.9793    3.3326    6.3430    7.4913   14.4646   16.2013
   18.3094   20.4868   21.0009   22.2732   23.7723   29.6984   30.8927   35.1544   35.4570   39.4312
   42.0090   42.6623   45.6951   47.1499   49.3643   53.6977   55.9821   60.0765   62.7300   63.5273
   65.5166   80.7158   87.4154
  15  1  -28.5572  -22.1375  -19.8961  -19.7851  -18.0646  -16.9851  -11.8840  -10.9545   -9.2310   -3.4988
          -3.4539   -2.7363   -1.0044    0.6744    2.9791    3.3326    6.3431    7.4912   14.4650   16.2013
   18.3090   20.4870   21.0008   22.2731   23.7724   29.6986   30.8925   35.1541   35.4570   39.4312
   42.0096   42.6621   45.6957   47.1492   49.3640   53.6973   55.9821   60.0766   62.7299   63.5274
   65.5166   80.7157   87.4151
  16  1  -28.4413  -21.9365  -20.8796  -19.7700  -17.6686  -16.8740  -11.2123   -9.1437   -8.9693   -6.8493
          -5.3705   -3.3274   -0.8586    1.1531    1.2968    3.1139    5.6236    5.9245    9.9929   13.3554
   15.9115   19.4314   20.9715   21.0501   25.7918   27.8186   32.0017   32.5813   40.4334   40.7828
   42.6837   43.7112   47.4803   47.7474   51.5886   55.3030   66.9662   68.1840   73.0550   74.0865
   86.2697  108.4046  132.7112
  17  1  -28.5572  -22.1375  -19.8961  -19.7849  -18.0646  -16.9851  -11.8839  -10.9545   -9.2310   -3.4986
          -3.4542   -2.7364   -1.0044    0.6744    2.9793    3.3326    6.3430    7.4913   14.4646   16.2013
   18.3094   20.4868   21.0009   22.2732   23.7723   29.6984   30.8927   35.1544   35.4570   39.4312
   42.0092   42.6622   45.6951   47.1496   49.3643   53.6976   55.9821   60.0765   62.7300   63.5274
   65.5166   80.7158   87.4154
  18  1  -28.6758  -22.1699  -19.5890  -19.5888  -17.4987  -17.3941  -12.7251  -12.7251   -8.9749   -1.9475
          -1.9471    1.4601    1.4603    3.2646    3.2646    3.3215    9.2085    9.2087   13.8868   19.7193
   21.5543   24.3594   24.3595   26.3545   26.3548   26.5737   26.5738   26.6411   35.7488   40.7313
   42.9369   42.9385   43.0664   43.6685   43.6697   50.9288   51.5233   51.5239   69.5566   80.7811
   80.7811  102.9821  102.9822
  19  1  -28.5572  -22.1375  -19.8961  -19.7849  -18.0646  -16.9851  -11.8839  -10.9545   -9.2310   -3.4986
          -3.4542   -2.7364   -1.0044    0.6744    2.9793    3.3326    6.3430    7.4913   14.4646   16.2013
   18.3094   20.4868   21.0009   22.2732   23.7723   29.6984   30.8927   35.1544   35.4570   39.4312
   42.0092   42.6622   45.6951   47.1496   49.3643   53.6976   55.9821   60.0765   62.7300   63.5274
   65.5166   80.7158   87.4154
  20  1  -28.4383  -22.0847  -20.3963  -19.9471  -18.2353  -16.5134  -10.1719   -9.8453   -9.0963   -6.7832
          -5.5617   -4.6146   -1.9779    1.2852    1.6688    2.0294    3.1495   11.7908   12.1267   12.5987
   17.1000   19.2614   21.5078   22.9539   23.2007   28.6874   29.9786   31.0126   31.9716   42.8598
   43.4305   44.6813   46.7841   48.5832   50.5216   60.1139   67.6948   69.5538   71.3940   76.9700
   79.9290  101.3509  103.1429
  21  1  -28.5572  -22.1375  -19.8961  -19.7851  -18.0646  -16.9851  -11.8840  -10.9545   -9.2310   -3.4988
          -3.4539   -2.7363   -1.0044    0.6744    2.9791    3.3326    6.3431    7.4912   14.4650   16.2013
   18.3090   20.4870   21.0008   22.2731   23.7724   29.6986   30.8925   35.1541   35.4570   39.4312
   42.0096   42.6621   45.6957   47.1492   49.3640   53.6973   55.9821   60.0766   62.7299   63.5274
   65.5166   80.7157   87.4151
  22  1  -28.5572  -22.1375  -19.8961  -19.7849  -18.0646  -16.9851  -11.8839  -10.9545   -9.2310   -3.4986
          -3.4542   -2.7364   -1.0044    0.6744    2.9793    3.3326    6.3430    7.4913   14.4646   16.2013
   18.3094   20.4868   21.0009   22.2732   23.7723   29.6984   30.8927   35.1544   35.4570   39.4312
   42.0090   42.6623   45.6951   47.1499   49.3643   53.6977   55.9821   60.0765   62.7300   63.5273
   65.5166   80.7158   87.4154
  23  1  -28.4413  -21.9366  -20.8795  -19.7700  -17.6686  -16.8741  -11.2123   -9.1437   -8.9693   -6.8493
          -5.3705   -3.3274   -0.8586    1.1531    1.2965    3.1138    5.6238    5.9245    9.9930   13.3552
   15.9115   19.4313   20.9713   21.0501   25.7919   27.8184   32.0020   32.5815   40.4339   40.7827
   42.6833   43.7113   47.4803   47.7474   51.5887   55.3028   66.9661   68.1840   73.0549   74.0859
   86.2708  108.4047  132.7109
  24  1  -28.4413  -21.9365  -20.8796  -19.7700  -17.6686  -16.8740  -11.2123   -9.1437   -8.9693   -6.8493
          -5.3705   -3.3274   -0.8586    1.1531    1.2968    3.1139    5.6236    5.9245    9.9929   13.3554
   15.9115   19.4314   20.9715   21.0501   25.7918   27.8186   32.0017   32.5813   40.4334   40.7828
   42.6837   43.7112   47.4803   47.7474   51.5886   55.3030   66.9662   68.1840   73.0550   74.0865
   86.2697  108.4046  132.7112
  25  1  -28.4413  -21.9365  -20.8796  -19.7700  -17.6686  -16.8740  -11.2123   -9.1437   -8.9693   -6.8493
          -5.3705   -3.3274   -0.8586    1.1531    1.2968    3.1139    5.6236    5.9245    9.9929   13.3554
   15.9114   19.4314   20.9715   21.0501   25.7918   27.8186   32.0017   32.5813   40.4336   40.7828
   42.6836   43.7112   47.4802   47.7474   51.5887   55.3030   66.9661   68.1839   73.0550   74.0860
   86.2706  108.4047  132.7112
  26  1  -28.4383  -22.0847  -20.3963  -19.9471  -18.2353  -16.5134  -10.1719   -9.8453   -9.0963   -6.7832
          -5.5617   -4.6146   -1.9779    1.2852    1.6688    2.0294    3.1495   11.7908   12.1267   12.5987
   17.1000   19.2614   21.5077   22.9539   23.2007   28.6874   29.9786   31.0126   31.9716   42.8596
   43.4305   44.6816   46.7841   48.5833   50.5216   60.1140   67.6948   69.5538   71.3940   76.9700
   79.9290  101.3509  103.1428
  27  1  -28.4413  -21.9365  -20.8796  -19.7700  -17.6686  -16.8740  -11.2123   -9.1437   -8.9693   -6.8493
          -5.3705   -3.3274   -0.8586    1.1531    1.2968    3.1139    5.6236    5.9245    9.9929   13.3554
   15.9114   19.4314   20.9715   21.0501   25.7918   27.8186   32.0017   32.5813   40.4336   40.7828
   42.6836   43.7112   47.4802   47.7474   51.5887   55.3030   66.9661   68.1839   73.0550   74.0860
   86.2706  108.4047  132.7112
  28  1  -28.4383  -22.0846  -20.3963  -19.9473  -18.2353  -16.5133  -10.1720   -9.8453   -9.0962   -6.7832
          -5.5617   -4.6146   -1.9780    1.2852    1.6685    2.0297    3.1495   11.7910   12.1265   12.5987
   17.1003   19.2613   21.5079   22.9538   23.2008   28.6876   29.9782   31.0125   31.9716   42.8603
   43.4305   44.6809   46.7843   48.5828   50.5216   60.1135   67.6948   69.5538   71.3932   76.9700
   79.9288  101.3510  103.1426
  29  1  -27.1298  -23.2601  -21.8939  -20.9573  -14.9567  -14.5187  -13.2249  -13.0763   -8.7299   -4.8229
          -4.7828   -2.4851   -2.3866   -1.5840   -1.1818    0.1268    2.4712    5.3651    5.6403   15.7110
   16.3621   17.9799   19.0193   19.1590   27.3458   30.5232   31.9220   33.2301   35.6223   41.0712
   41.8228   43.3888   47.1850   49.4651   59.8638   61.9834   64.8434   69.2273   79.3318   83.3014
   97.3311  101.8262  109.6801
  30  1  -27.4939  -23.2855  -21.1595  -19.8974  -15.1560  -14.9556  -14.6046  -12.8136  -10.2377   -5.2468
          -4.7068   -3.5708   -2.9196   -2.5313   -1.0684    4.1569    7.9558    8.3939   13.2345   13.2607
   16.3690   17.2353   20.0681   22.2746   25.7557   29.1248   30.2410   33.8031   36.0440   38.1010
   38.9217   42.5887   43.5866   44.4700   46.0925   67.6495   73.0836   76.6510   81.2367   85.7144
   88.6446   90.5622  119.8421
  31  1  -27.4939  -23.2855  -21.1594  -19.8975  -15.1560  -14.9556  -14.6046  -12.8135  -10.2378   -5.2468
          -4.7068   -3.5708   -2.9196   -2.5310   -1.0688    4.1569    7.9558    8.3939   13.2342   13.2609
   16.3689   17.2361   20.0681   22.2745   25.7557   29.1248   30.2410   33.8031   36.0440   38.1000
   38.9216   42.5888   43.5867   44.4707   46.0916   67.6497   73.0833   76.6510   81.2367   85.7145
   88.6446   90.5625  119.8419
  32  1  -27.1298  -23.2601  -21.8938  -20.9574  -14.9567  -14.5187  -13.2251  -13.0761   -8.7296   -4.8229
          -4.7828   -2.4851   -2.3867   -1.5843   -1.1817    0.1268    2.4712    5.3650    5.6404   15.7110
   16.3621   17.9806   19.0193   19.1589   27.3458   30.5232   31.9219   33.2301   35.6219   41.0712
   41.8219   43.3889   47.1846   49.4653   59.8641   61.9833   64.8434   69.2273   79.3314   83.3015
   97.3312  101.8263  109.6803
  33  1  -27.4939  -23.2855  -21.1595  -19.8974  -15.1560  -14.9556  -14.6046  -12.8136  -10.2377   -5.2468
          -4.7068   -3.5708   -2.9196   -2.5313   -1.0684    4.1569    7.9558    8.3939   13.2345   13.2607
   16.3690   17.2353   20.0681   22.2746   25.7557   29.1248   30.2410   33.8031   36.0440   38.1010
   38.9217   42.5887   43.5866   44.4704   46.0922   67.6495   73.0835   76.6510   81.2367   85.7145
   88.6446   90.5622  119.8424
  34  1  -27.7881  -23.3533  -19.5400  -19.5398  -16.4499  -14.9200  -14.7085  -12.1776  -12.1776   -5.2205
          -5.2205   -4.9149   -4.9149   -0.8434   -0.8427    6.1135    9.8697   19.0971   19.0983   20.7092
   21.6042   21.6044   25.5024   28.1044   28.1045   32.6792   32.6794   36.0209   36.6602   36.6603
   40.9695   41.0020   41.1736   41.1746   43.3127   57.7821   63.9054   63.9054   66.1656   66.1656
   87.4482   87.4487   96.3901
  35  1  -27.4939  -23.2855  -21.1595  -19.8974  -15.1560  -14.9556  -14.6046  -12.8136  -10.2377   -5.2468
          -4.7068   -3.5708   -2.9196   -2.5313   -1.0684    4.1569    7.9558    8.3939   13.2345   13.2607
   16.3690   17.2353   20.0681   22.2746   25.7557   29.1248   30.2410   33.8031   36.0440   38.1010
   38.9217   42.5887   43.5866   44.4704   46.0922   67.6495   73.0835   76.6510   81.2367   85.7145
   88.6446   90.5622  119.8424
  36  1  -27.1241  -23.2090  -22.3167  -20.1972  -15.4892  -14.8535  -14.4274  -11.1220   -7.1651   -5.2737
          -4.0703   -3.1140   -1.1370   -0.3939   -0.2297   -0.2245    1.5388    6.5322    7.8859   15.6165
   16.1449   19.4088   20.3601   23.9885   29.0478   31.8875   35.2701   35.4037   35.5464   46.7056
   48.4862   51.4152   51.4779   54.1665   57.1966   71.8638   88.4674  103.8895  118.4224  123.4765
  128.0178  128.0864  177.4092
  37  1  -27.4939  -23.2855  -21.1594  -19.8975  -15.1560  -14.9556  -14.6046  -12.8135  -10.2378   -5.2468
          -4.7068   -3.5708   -2.9196   -2.5310   -1.0688    4.1569    7.9558    8.3939   13.2342   13.2609
   16.3689   17.2361   20.0681   22.2745   25.7557   29.1248   30.2410   33.8031   36.0440   38.1000
   38.9216   42.5888   43.5867   44.4707   46.0916   67.6497   73.0833   76.6510   81.2367   85.7145
   88.6446   90.5625  119.8419
  38  1  -27.4939  -23.2855  -21.1595  -19.8974  -15.1560  -14.9556  -14.6046  -12.8136  -10.2377   -5.2468
          -4.7068   -3.5708   -2.9196   -2.5313   -1.0684    4.1569    7.9558    8.3939   13.2345   13.2607
   16.3690   17.2353   20.0681   22.2746   25.7557   29.1248   30.2410   33.8031   36.0440   38.1010
   38.9217   42.5887   43.5866   44.4700   46.0925   67.6495   73.0836   76.6510   81.2367   85.7144
   88.6446   90.5622  119.8421
  39  1  -27.1298  -23.2601  -21.8939  -20.9573  -14.9567  -14.5187  -13.2249  -13.0763   -8.7299   -4.8229
          -4.7828   -2.4851   -2.3866   -1.5840   -1.1818    0.1268    2.4712    5.3651    5.6403   15.7110
   16.3621   17.9799   19.0193   19.1590   27.3458   30.5232   31.9220   33.2301   35.6223   41.0712
   41.8228   43.3888   47.1850   49.4651   59.8638   61.9834   64.8434   69.2273   79.3318   83.3014
   97.3311  101.8262  109.6801
  40  1  -27.1298  -23.2601  -21.8938  -20.9574  -14.9567  -14.5187  -13.2251  -13.0761   -8.7296   -4.8229
          -4.7828   -2.4851   -2.3867   -1.5843   -1.1817    0.1268    2.4712    5.3650    5.6404   15.7110
   16.3621   17.9806   19.0193   19.1589   27.3458   30.5232   31.9219   33.2301   35.6219   41.0712
   41.8219   43.3889   47.1846   49.4653   59.8641   61.9833   64.8434   69.2273   79.3314   83.3015
   97.3312  101.8263  109.6803
  41  1  -27.1298  -23.2601  -21.8938  -20.9574  -14.9567  -14.5187  -13.2251  -13.0761   -8.7296   -4.8229
          -4.7828   -2.4851   -2.3867   -1.5843   -1.1817    0.1268    2.4712    5.3650    5.6404   15.7110
   16.3621   17.9806   19.0193   19.1589   27.3458   30.5232   31.9219   33.2301   35.6219   41.0712
   41.8218   43.3889   47.1851   49.4653   59.8640   61.9834   64.8434   69.2273   79.3314   83.3015
   97.3312  101.8263  109.6803
  42  1  -27.1241  -23.2090  -22.3167  -20.1972  -15.4892  -14.8535  -14.4274  -11.1220   -7.1651   -5.2737
          -4.0703   -3.1140   -1.1370   -0.3939   -0.2297   -0.2245    1.5388    6.5322    7.8859   15.6165
   16.1449   19.4088   20.3600   23.9885   29.0478   31.8875   35.2701   35.4037   35.5464   46.7056
   48.4866   51.4152   51.4779   54.1665   57.1966   71.8638   88.4674  103.8895  118.4224  123.4765
  128.0178  128.0864  177.4090
  43  1  -27.1298  -23.2601  -21.8938  -20.9574  -14.9567  -14.5187  -13.2251  -13.0761   -8.7296   -4.8229
          -4.7828   -2.4851   -2.3867   -1.5843   -1.1817    0.1268    2.4712    5.3650    5.6404   15.7110
   16.3621   17.9806   19.0193   19.1589   27.3458   30.5232   31.9219   33.2301   35.6219   41.0712
   41.8218   43.3889   47.1851   49.4653   59.8640   61.9834   64.8434   69.2273   79.3314   83.3015
   97.3312  101.8263  109.6803
  44  1  -27.1241  -23.2090  -22.3167  -20.1974  -15.4892  -14.8535  -14.4274  -11.1216   -7.1654   -5.2737
          -4.0703   -3.1141   -1.1370   -0.3939   -0.2298   -0.2245    1.5388    6.5322    7.8857   15.6166
   16.1457   19.4087   20.3601   23.9885   29.0478   31.8875   35.2688   35.4035   35.5463   46.7059
   48.4857   51.4152   51.4781   54.1666   57.1967   71.8635   88.4679  103.8896  118.4225  123.4767
  128.0177  128.0863  177.4089
siesta: Fermi energy =     -16.907659 eV

siesta: Program's energy decomposition (eV):
siesta: Ebs     =      -217.813672
siesta: Eions   =       321.344870
siesta: Ena     =        71.836593
siesta: Ekin    =       172.519358
siesta: Enl     =        -1.903347
siesta: Eso     =         0.000000
siesta: Edftu   =         0.000000
siesta: DEna    =        -3.277952
siesta: DUscf   =         2.823612
siesta: DUext   =         0.000000
siesta: Exc     =      -112.482225
siesta: eta*DQ  =         0.000000
siesta: Emadel  =         0.000000
siesta: Emeta   =         0.000000
siesta: Emolmec =        -4.085412
siesta: Ekinion =         0.000000
siesta: Eharris =      -195.914245
siesta: Etot    =      -195.914244
siesta: FreeEng =      -195.921136

siesta: Final energy (eV):
siesta:  Band Struct. =    -217.813672
siesta:       Kinetic =     172.519358
siesta:       Hartree =      64.778789
siesta:       Edftu   =       0.000000
siesta:       Eso     =       0.000000
siesta:    Ext. field =       0.000000
siesta:   Exch.-corr. =    -112.482225
siesta:  Ion-electron =    -393.731081
siesta:       Ion-ion =      77.086329
siesta:       Ekinion =       0.000000
siesta:         Total =    -195.914244
siesta:         Fermi =     -16.907659

siesta: Atomic forces (eV/Ang):
siesta:      1   -0.000000    0.000000    0.000000
siesta:      2   -0.975832    1.690329   -0.000000
siesta:      3    0.975832   -1.690329   -0.000000
siesta:      4   -0.975822   -1.690174   -0.000000
siesta:      5    0.975822    1.690174   -0.000000
siesta:      6    1.951784    0.000069   -0.000000
siesta:      7   -1.951784   -0.000069   -0.000000
siesta: ----------------------------------------
siesta:    Tot   -0.000000    0.000000   -0.000000

siesta: Stress tensor (static) (eV/Ang**3):
siesta:    -1.008018   -0.000029   -0.000000
siesta:    -0.000029   -1.008051   -0.000000
siesta:    -0.000000   -0.000000    0.060285

siesta: Cell volume =         39.395706 Ang**3

siesta: Pressure (static):
siesta:                Solid            Molecule  Units
siesta:           0.00710033          0.00791218  Ry/Bohr**3
siesta:           0.65192827          0.72646914  eV/Ang**3
siesta:        1044.51553313       1163.94445711  kBar
(Free)E+ p_basis*V_orbitals  =        -176.487408
(Free)Eharris+ p_basis*V_orbitals  =        -176.487410

cite: Please see "LiC6_scf.bib" for an exhaustive BiBTeX file.
cite: Please clearly indicate Siesta version in published work: 4.1.5
cite: This calculation has made use of the following articles
cite: which are encouraged to be cited in a published work.
        Primary SIESTA paper
          DOI: www.doi.org/10.1088/0953-8984/14/11/302

>> End of run:   9-NOV-2022   8:01:09
Job completed
