BEGIN_CFG
Size
128
Supercell
        9.824000    0.000000    0.000000
       -4.912000    8.507834    0.000000
        0.000000    0.000000   13.392000
AtomData: id type cartes_x cartes_y cartes_z     fx     fy     fz
           1    0   0.0655   1.4935  -0.8659 -6.1105 -2.4202  1.2710 
           2    0  -0.9129  -1.6893   4.1738  4.2406 -4.4518  0.0382 
           3    0  -0.2589  -2.4042   6.9418  1.8549  2.3866 -1.3038 
           4    0   0.8944   2.7959   9.6957  4.7917 -0.8900  0.8277 
           5    0  -1.2614   3.6201  -0.7721  1.5121 -1.8337 -0.7291 
           6    0   3.5955   7.9851  -1.0109 -1.8133  0.2715  1.7070 
           7    0   2.3619   1.4700  -0.9977  2.0668  1.2029 -0.0232 
           8    0  -4.5360   4.6345   3.9763  1.9615  0.8177  0.0862 
           9    0   0.3149   0.4295   4.1811  1.0550 -1.4096  0.3918 
          10    0   6.5650  -1.8697   4.3013 -2.7069  2.9681 -0.5687 
          11    0   7.3156   1.5011  -0.4958  0.3427  3.8970 -0.4779 
          12    0   1.2115   3.5921  -1.1126 -2.2685  1.7228  1.8095 
          13    0  -3.7440   7.8913  -1.0874 -0.4430 -4.5538  0.4904 
          14    0   1.5742  -1.6835   3.9904  1.7977  0.3820 -0.2041 
          15    0   2.8430   4.4790   4.4152  0.0214  5.2577 -0.2886 
          16    0  -2.1542   0.3541   4.1987  3.4536 -0.5989  0.6017 
          17    0  -1.4964  -0.2811   6.8823  0.5162 -1.3824 -0.0374 
          18    0   3.4312   4.0964   7.2021 -0.4244 -5.0233 -0.7226 
          19    0   2.2704  -2.4943   6.8068 -4.0362  0.0479 -0.2954 
          20    0  -2.6422   9.0717   9.6794  0.9268  6.4345  0.6188 
          21    0   2.3585   4.8732   9.7991  2.3818  1.6460 -0.7864 
          22    0   8.3987   2.8941  10.0942 -2.8074 -3.6558 -0.7818 
          23    0   7.1618  -2.3476   6.8688 -3.5778 -1.8782  0.4209 
          24    0   1.0054  -0.2698   6.7152 -1.7384 -1.5805  1.7995 
          25    0  -3.9631   3.9232   7.1606  0.6029  2.4226 -1.2658 
          26    0   3.4140   2.7370   9.8191  2.1025  0.6303  0.3087 
          27    0   4.7364   9.1368   9.7194 -3.5931  2.0792  1.0893 
          28    0  -0.0574   5.0213   9.7213 -4.0289 -3.3677  1.0860 
          29    0  -2.6195   5.7298  -0.8290  5.0340 -0.4950 -1.2535 
          30    0   2.3502   5.7953  -0.9866 -1.2084 -1.5717  0.8095 
          31    0   4.8306   1.5373  -0.5468 -0.3287 -4.7375 -0.8364 
          32    0  -3.2266   2.4306   3.8460 -1.0385 -0.6901  0.9719 
          33    0   1.5952   2.5302   4.7048 -0.3414 -2.9334 -2.7350 
          34    0   4.0946  -1.7101   4.1661 -3.3327 -0.7939 -0.5761 
          35    0  -2.6242   1.7526   7.2830 -2.3719  4.5676 -1.3518 
          36    0   2.3038   1.7846   7.2187 -5.6856  3.7151 -0.5644 
          37    0   4.6431  -2.4826   6.7859  3.8231  1.1763  0.9477 
          38    0  -1.3774   7.0661   9.6620  1.7965 -2.0996  0.6944 
          39    0   3.5871   7.0041   9.2983 -3.9094  3.2292  2.0994 
          40    0   5.9783   2.8340  10.0001 -5.8085 -1.9298 -1.1274 
          41    0  -0.0088   5.7082  -1.0243 -6.8218  4.1439  2.1268 
          42    0   1.1229   7.8752  -0.9760  1.0117  2.8482  3.4455 
          43    0  -1.3189   7.8769  -1.0690  1.3249 -0.6106  2.0230 
          44    0   4.2258   2.5574   4.3930 -3.1062 -2.9715  0.3248 
          45    0   2.8208   0.5151   4.1563  1.3188 -3.4600  0.2273 
          46    0   5.2476   0.3499   4.3328  2.3424 -1.6822 -0.6540 
          47    0  -0.1998   1.8817   7.0558 -0.6895 -4.9664  0.3639 
          48    0   1.0421   3.9457   6.9500  0.5801  2.0241  1.4002 
          49    0  -1.3811   3.9438   7.0813 -2.3318 -0.2641 -0.2723 
          50    0   5.9691   7.1657   9.4657  1.3318 -5.0206 -0.4093 
          51    0   4.7399   5.0033   9.5512  4.7331 -4.7117  1.2176 
          52    0   7.1747   4.9888   9.8219  1.4096  0.4026 -0.8464 
          53    0   3.5832   3.6612  -0.7377 -0.5606 -0.7595 -1.2784 
          54    0   6.0207   3.6494  -0.7502  0.8677 -2.3638  0.6371 
          55    0   4.8123   5.8124  -0.9567 -2.9889  0.4226  0.2421 
          56    0   0.3496   4.6558   4.2116  0.0992 -4.5872  0.5783 
          57    0  -2.0582   4.5874   3.8035  1.6402  5.9787  1.0319 
          58    0  -0.8671   2.5067   4.5712 -2.3181  0.4113 -3.3190 
          59    0   3.3818  -0.3673   6.9291  3.6378  1.1773 -0.6913 
          60    0   5.8521  -0.3166   7.0219 -0.6162  1.0912  0.2383 
          61    0   4.6692   1.8611   7.3258 -1.3329 -4.6960 -2.0755 
          62    0   2.3110   9.1852   9.8060 -2.1109 -1.5198  0.1522 
          63    0  -0.2017   9.1021   9.8254  3.6998  4.1054  0.0730 
          64    0   1.1441   6.9888   9.6410  0.0053  3.4711  1.0099 
          65    0   0.0084   2.8309  -0.9327 -1.0316  6.2726  0.1017 
          66    0   3.6495   9.3931  -0.6413  2.0484 -2.6297 -1.8221 
          67    0  -3.7232   9.2253  -0.9200  1.7517  2.8180 -1.3134 
          68    0   4.0452   5.3318   4.2629 -0.3574 -0.5261 -0.6505 
          69    0   0.3314  -0.9851   4.1040 -0.2120 -1.1667 -0.7280 
          70    0   7.7212  -1.0537   4.1590 -2.5789  0.1740  0.8161 
          71    0  -0.2786  -0.9844   6.8422  2.2899  0.1176 -1.0059 
          72    0   3.4431   5.4538   6.9301 -0.5535 -0.7563  0.4235 
          73    0  -3.9629   5.3897   6.8810  2.2987 -2.9070  0.9720 
          74    0   5.9409   9.8433   9.6576  0.6919  1.3225  0.8001 
          75    0   2.2062   3.4938   9.8518 -1.1949 -2.9459 -1.3386 
          76    0   9.5470   3.5733   9.7253  2.7767  0.9131  0.4056 
          77    0  -1.3020   5.0166  -0.9058 -0.5299  1.8596  0.0269 
          78    0   2.3822   7.1873  -0.9441 -0.2778  2.4098 -1.2078 
          79    0  -1.3181   9.3095  -0.8998  1.8662 -0.8741  0.2919 
          80    0   5.3931   3.1621   3.9392 -1.3161  3.7654  0.4383 
          81    0   1.5533   1.1003   4.2817  0.3961  3.8257  1.6145 
          82    0   5.3132  -1.0764   4.2959  2.2033 -0.3216  0.2573 
          83    0   1.1966   9.2991  -0.4653 -3.2465 -1.7279 -2.3842 
          84    0   1.1220   5.0270  -0.7975  5.0104 -2.5794 -2.0052 
          85    0  -2.5225   7.1089  -1.1351 -1.7536  1.9600  0.5067 
          86    0   2.8371  -0.9507   4.0402  0.2339  0.0378  0.2025 
          87    0   2.9138   3.1164   4.6166 -0.0310  0.3585 -0.5848 
          88    0   6.4703   1.0068   4.1473  0.2119  3.6888  0.0703 
          89    0  -1.4415   1.0919   6.9290  1.5648  3.3550  1.6907 
          90    0   2.2580   3.2717   7.1709  0.7877 -0.5912  0.5931 
          91    0  -1.4353   5.3368   6.9368 -1.2101 -1.3994 -0.3562 
          92    0   7.2310   7.7278   9.5959 -0.8313 -0.0980 -0.1801 
          93    0   3.5772   5.6381   9.4660 -5.2326 -1.0747  0.8397 
          94    0   7.1311   3.5815   9.9786  2.6755  0.0006  0.2981 
          95    0   0.9993   5.3956   6.9282  1.6255 -1.0090 -0.3762 
          96    0   0.9964   1.1037   7.1495  2.0091  0.5076 -1.8596 
          97    0  -2.6701   3.3044   7.1352  0.3404 -4.6594  1.1868 
          98    0   4.6330   3.5315   9.7808  3.4181 -0.2708  0.9666 
          99    0   4.7303   7.7537   9.4888  0.7777  1.5206 -0.2178 
         100    0   8.4680   5.6433   9.7991  0.3219  1.1440 -1.0519 
         101    0   2.4118   2.8922  -1.0077 -0.0208  0.1373  0.8582 
         102    0   7.3110   2.9656  -0.6981 -2.1721 -1.6328  1.4760 
         103    0   4.7827   7.2769  -0.8869  3.2440 -3.3201 -1.9352 
         104    0   1.5753   5.2329   4.3572  4.5245  0.6917 -0.0330 
         105    0  -3.2571   5.4011   3.8506 -2.6999 -1.9522 -0.1119 
         106    0  -0.9012   1.0615   4.4149 -2.3032  1.8222 -0.2957 
         107    0   2.2113  -1.0894   6.7003 -1.0996  2.0517  0.4492 
         108    0   7.0841  -0.9622   6.9244  1.4479  0.3087 -0.3705 
         109    0   4.5893   3.2290   7.2506  2.1859  4.1085  0.1911 
         110    0   3.4719   9.8592  10.0924  4.8319  3.6045 -1.6232 
         111    0  -1.4005   9.8101   9.8535 -2.8380  0.7017 -0.5806 
         112    0   1.2029   5.6023   9.9185 -2.4212  2.0770 -2.4072 
         113    0  -0.0892   7.1807  -0.6654 -0.5185 -2.0909 -3.8893 
         114    0   4.1240   1.1285   4.3035 -3.1780  0.8349  0.4661 
         115    0  -0.1549   3.2441   7.0986 -1.5648  1.4957  0.0523 
         116    0   6.0110   5.7295   9.4942 -1.8971 -1.1177  0.6321 
         117    0   4.7791   2.8988  -0.6898  2.0811  3.8415  0.5320 
         118    0   5.9902   5.0450  -0.8319 -0.3084  0.7155 -0.3027 
         119    0   3.5387   5.0805  -0.9134  3.6025 -0.1403 -0.1071 
         120    0  -0.8023   5.3712   4.1007 -5.0099 -0.1983 -1.2171 
         121    0  -2.0704   3.2412   4.0260  2.5429 -5.2344  1.4641 
         122    0   0.3475   3.1913   4.3222  1.5590  1.2636  1.9981 
         123    0   4.6611  -1.0941   6.8891 -1.8955  3.4741  0.4521 
         124    0   5.9107   1.1037   7.2793 -0.5901  0.3751 -0.6327 
         125    0   3.4215   1.0986   6.9461  5.3024 -2.2264  1.9602 
         126    0   1.0596   9.8710   9.8791 -1.2999  0.9910  1.0989 
         127    0  -0.1192   7.7416   9.7786  0.4960 -3.9315 -1.1973 
         128    0   2.3669   7.7758   9.5320 -0.7760 -2.1806 -0.0276 
Energy
-19668.5943
PlusStress: xx yy zz yz xz xy
     -254.264 -241.667 16.718 1.649 -1.991 7.573
Feature    EFS_by   siesta
END_CFG

