Siesta Version  : 4.1.5
Architecture    : x86_64-unknown-linux-gnu--unknown
Compiler version: GNU Fortran (GCC) 11.3.0
Compiler flags  : mpif90 -g -O2 -fallow-argument-mismatch
PP flags        : -DMPI -DFC_HAVE_FLUSH -DFC_HAVE_ABORT
Libraries       :  -I/global/software/sl-7.x86_64/modules/intel/2020.4.304/mkl/include  /globall/software/sl-7.x86_64/modules/intel/2020.4.304/mkl/lib/intel64/libmkl_scalapack_lp64.a -Wl,--start-group /global/software/sl-7.x86_64/modules/intel/2020.4.304/mkl/lib/intel64/libmkl_intel_lp64.a /global/software/sl-7.x86_64/modules/intel/2020.4.304/mkl/lib/intel64/libmkl_sequential.a /global/software/sl-7.x86_64/modules/intel/2020.4.304/mkl/lib/intel64/libmkl_core.a /global/software/sl-7.x86_64/modules/intel/2020.4.304/mkl/lib/intel64/libmkl_blacs_openmpi_lp64.a -Wl,--end-group -lpthread -lm -ldl
PARALLEL version

* Running on 16 nodes in parallel
>> Start of run:   9-NOV-2022   2:18:49

                           ***********************       
                           *  WELCOME TO SIESTA  *       
                           ***********************       

reinit: Reading from standard input
reinit: Dumped input in INPUT_TMP.04170
************************** Dump of input data file ****************************
SystemName LiC18_scf
SystemLabel LiC18_scf
NumberOfAtoms   19
NumberOfSpecies 2
%block ChemicalSpeciesLabel
1  3   Li-gga
2  6   C-gga
%endblock ChemicalSpeciesLabel
PAO.BasisSize  DZP
PAO.EnergyShift  10 meV
%block PS.Lmax
C-gga   2
Li-gga  2
%endblock PS.Lmax
LatticeConstant 1.000000 Ang
%block LatticeVectors
	4.3161300000	0.0000000000	0.0000000000
	-2.1580650000	3.7378782260	0.0000000000
	0.0000000000	0.0000000000	14.6514469200
%endblock LatticeVectors
AtomicCoordinatesFormat Ang
%block AtomicCoordinatesAndAtomicSpecies
	0.00000000	0.00000000	0.00000000	2
	-0.70288177	1.21742694	2.44191270	1
	-1.45518323	2.52045129	12.20953422	1
	1.45518323	2.52045129	2.44191270	1
	0.70288177	1.21742694	12.20953422	1
	1.40576354	0.00000000	2.44191270	1
	2.91036646	0.00000000	12.20953422	1
	-1.45518323	2.52045129	2.44191270	1
	-0.70288177	1.21742694	12.20953422	1
	0.70288177	1.21742694	2.44191270	1
	1.45518323	2.52045129	12.20953422	1
	2.91036646	0.00000000	2.44191270	1
	1.40576354	0.00000000	12.20953422	1
	-0.70288177	1.21742694	7.32572346	1
	-1.45518323	2.52045129	7.32572346	1
	1.45518323	2.52045129	7.32572346	1
	0.70288177	1.21742694	7.32572346	1
	1.40576354	0.00000000	7.32572346	1
	2.91036646	0.00000000	7.32572346	1
%endblock AtomicCoordinatesAndAtomicSpecies
Kgrid_NoTRS  T
%block kgrid_MonkhorstPack
2       0       0       0.0
0       2       0       0.0
0       0       2       0.0
%endblock kgrid_MonkhorstPack
AtomCoorFormatOut Ang
BlockSize 1
#ProcessorY 12
Diag.ParallelOverK   T
Diag.DivideAndConquer F
MeshCutoff   300 Ry
SCF.FreeE.Tolerance 1E-3 eV
SCF.EDM.Tolerance   5E-3 eV
DM.Tolerance  1E-3
DM.Require.Energy.Convergence T
DM.NumberPulay 4
XC.Functional GGA
XC.Authors    PBE
UseSaveData        F
MD.TypeOfRun       CG
MD.VariableCell    F
MD.NumCGsteps      00
MD.MaxCGDispl      0.200000 Bohr
MD.MaxStressTol    1.000000 GPa
MD.MaxForceTol     0.010000 eV/Ang
WriteMDHistory T
WriteCoorStep T
WriteForces T
WriteCoorStep    T
WriteEigenValues T
WriteDM    F
MM.UnitsDistance Ang  # what this program prints out DO NOT CHANGE
MM.UnitsEnergy    eV  # what this program prints out DO NOT CHANGE
MM.Grimme.S6     0.75 # Grimme-paper for PBE (correct for your functional)
MM.Grimme.D     20.   # Grimme-paper (correct for your functional)
%block MM.Potentials
  1   1 Grimme     16.69      1.650 # Li, 10.1002/jcc.20495
  1   2 Grimme     17.40      2.277 # Li / C
  2   2 Grimme     18.14      2.904 # C, 10.1002/jcc.20495
%endblock MM.Potentials
#%block ProjectedDensityOfStates
# -200.0  120.0  0.4  12800  eV
#%endblock ProjectedDensityOfStates
************************** End of input data file *****************************

reinit: -----------------------------------------------------------------------
reinit: System Name: LiC18_scf
reinit: -----------------------------------------------------------------------
reinit: System Label: LiC18_scf
reinit: -----------------------------------------------------------------------
Reading two-body potentials
Grimme - two-body potential between 1 and 1
Grimme - two-body potential between 1 and 2
Grimme - two-body potential between 2 and 2

initatom: Reading input for the pseudopotentials and atomic orbitals ----------
Species number:   1 Atomic number:    3 Label: Li-gga
Species number:   2 Atomic number:    6 Label: C-gga

Ground state valence configuration:   2s01
Reading pseudopotential information in formatted form from Li-gga.psf

Valence configuration for pseudopotential generation:
2s( 1.00) rc: 2.28
2p( 0.00) rc: 2.28
3d( 0.00) rc: 2.59
4f( 0.00) rc: 2.59
Ground state valence configuration:   2s02  2p02
Reading pseudopotential information in formatted form from C-gga.psf

Valence configuration for pseudopotential generation:
2s( 2.00) rc: 1.56
2p( 2.00) rc: 1.56
3d( 0.00) rc: 1.56
4f( 0.00) rc: 1.56
relmxkb: Read Max KB Ang. Momentum=    2 for species C-gga
relmxkb: Read Max KB Ang. Momentum=    2 for species Li-gga

<basis_specs>
===============================================================================
Li-gga               Z=   3    Mass=  6.9400        Charge= 0.17977+309
Lmxo=0 Lmxkb= 2    BasisType=split      Semic=F
L=0  Nsemic=0  Cnfigmx=2
          i=1  nzeta=2  polorb=1  (2s)
            splnorm:   0.15000    
               vcte:    0.0000    
               rinn:    0.0000    
               qcoe:    0.0000    
               qyuk:    0.0000    
               qwid:   0.10000E-01
                rcs:    0.0000      0.0000    
            lambdas:    1.0000      1.0000    
-------------------------------------------------------------------------------
L=0  Nkbl=1  erefs: 0.17977+309
L=1  Nkbl=1  erefs: 0.17977+309
L=2  Nkbl=1  erefs: 0.17977+309
===============================================================================
</basis_specs>

atom: Called for Li-gga                (Z =   3)

read_vps: Pseudopotential generation method:
read_vps: ATM 3.2.2 Troullier-Martins                       
Valence charge for ps generation:    1.00000

read_vps: Pseudopotential includes a core correction:
read_vps: Pseudo-core for xc-correction

xc_check: Exchange-correlation functional:
xc_check: GGA Perdew, Burke & Ernzerhof 1996
V l=0 = -2*Zval/r beyond r=  2.2278
V l=1 = -2*Zval/r beyond r=  2.2278
V l=2 = -2*Zval/r beyond r=  2.5245
All V_l potentials equal beyond r=  2.4622
This should be close to max(r_c) in ps generation
All pots = -2*Zval/r beyond r=  2.5245

VLOCAL1: 99.0% of the norm of Vloc inside      7.160 Ry
VLOCAL1: 99.9% of the norm of Vloc inside     16.318 Ry
atom: Maximum radius for 4*pi*r*r*local-pseudopot. charge    2.86079
atom: Maximum radius for r*vlocal+2*Zval:    2.43160
GHOST: No ghost state for L =  0
GHOST: No ghost state for L =  1
GHOST: No ghost state for L =  2

KBgen: Kleinman-Bylander projectors: 
   l= 0   rc=  2.654023   el= -0.211234   Ekb=  1.742119   kbcos=  0.228463
   l= 1   rc=  2.721230   el= -0.080095   Ekb= -1.122375   kbcos= -0.147941
   l= 2   rc=  2.825246   el=  0.002001   Ekb= -0.207076   kbcos= -0.031965

KBgen: Total number of Kleinman-Bylander projectors:    9
atom: -------------------------------------------------------------------------

atom: SANKEY-TYPE ORBITALS:
atom: Selected multiple-zeta basis: split     

SPLIT: Orbitals with angular momentum L= 0

SPLIT: Basis orbitals for state 2s

SPLIT: PAO cut-off radius determined from an
SPLIT: energy shift=  0.000735 Ry

   izeta = 1
                 lambda =    1.000000
                     rc =   11.897381
                 energy =   -0.210580
                kinetic =    0.143382
    potential(screened) =   -0.353962
       potential(ionic) =   -0.533453

   izeta = 2
                 rmatch =    8.489163
              splitnorm =    0.150000
                 energy =   -0.186081
                kinetic =    0.225882
    potential(screened) =   -0.411964
       potential(ionic) =   -0.593024

POLgen: Perturbative polarization orbital with L=  1

POLgen: Polarization orbital for state 2s

   izeta = 1
                     rc =   11.897381
                 energy =   -0.027011
                kinetic =    0.282985
    potential(screened) =   -0.309997
       potential(ionic) =   -0.490997
atom: Total number of Sankey-type orbitals:  5

atm_pop: Valence configuration (for local Pseudopot. screening):
 2s( 1.00)                                                            
Vna: chval, zval:    1.00000   1.00000

Vna:  Cut-off radius for the neutral-atom potential:  11.897381
comcore: Pseudo-core radius Rcore=  3.450946

atom: _________________________________________________________________________

<basis_specs>
===============================================================================
C-gga                Z=   6    Mass=  12.010        Charge= 0.17977+309
Lmxo=1 Lmxkb= 2    BasisType=split      Semic=F
L=0  Nsemic=0  Cnfigmx=2
          i=1  nzeta=2  polorb=0  (2s)
            splnorm:   0.15000    
               vcte:    0.0000    
               rinn:    0.0000    
               qcoe:    0.0000    
               qyuk:    0.0000    
               qwid:   0.10000E-01
                rcs:    0.0000      0.0000    
            lambdas:    1.0000      1.0000    
L=1  Nsemic=0  Cnfigmx=2
          i=1  nzeta=2  polorb=1  (2p)
            splnorm:   0.15000    
               vcte:    0.0000    
               rinn:    0.0000    
               qcoe:    0.0000    
               qyuk:    0.0000    
               qwid:   0.10000E-01
                rcs:    0.0000      0.0000    
            lambdas:    1.0000      1.0000    
-------------------------------------------------------------------------------
L=0  Nkbl=1  erefs: 0.17977+309
L=1  Nkbl=1  erefs: 0.17977+309
L=2  Nkbl=1  erefs: 0.17977+309
===============================================================================
</basis_specs>

atom: Called for C-gga                 (Z =   6)

read_vps: Pseudopotential generation method:
read_vps: ATM 3.2.2 Troullier-Martins                       
Valence charge for ps generation:    4.00000

xc_check: Exchange-correlation functional:
xc_check: GGA Perdew, Burke & Ernzerhof 1996
V l=0 = -2*Zval/r beyond r=  1.5227
V l=1 = -2*Zval/r beyond r=  1.5227
V l=2 = -2*Zval/r beyond r=  1.5227
All V_l potentials equal beyond r=  1.4851
This should be close to max(r_c) in ps generation
All pots = -2*Zval/r beyond r=  1.5227

VLOCAL1: 99.0% of the norm of Vloc inside     19.682 Ry
VLOCAL1: 99.9% of the norm of Vloc inside     44.856 Ry
atom: Maximum radius for 4*pi*r*r*local-pseudopot. charge    1.79142
atom: Maximum radius for r*vlocal+2*Zval:    1.54183
GHOST: No ghost state for L =  0
GHOST: No ghost state for L =  1
GHOST: No ghost state for L =  2

KBgen: Kleinman-Bylander projectors: 
   l= 0   rc=  1.661951   el= -1.010689   Ekb=  5.289847   kbcos=  0.316429
   l= 1   rc=  1.661951   el= -0.388490   Ekb= -4.102504   kbcos= -0.351025
   l= 2   rc=  1.747182   el=  0.001971   Ekb= -1.006005   kbcos= -0.008530

KBgen: Total number of Kleinman-Bylander projectors:    9
atom: -------------------------------------------------------------------------

atom: SANKEY-TYPE ORBITALS:
atom: Selected multiple-zeta basis: split     

SPLIT: Orbitals with angular momentum L= 0

SPLIT: Basis orbitals for state 2s

SPLIT: PAO cut-off radius determined from an
SPLIT: energy shift=  0.000735 Ry

   izeta = 1
                 lambda =    1.000000
                     rc =    5.948690
                 energy =   -1.010099
                kinetic =    0.827121
    potential(screened) =   -1.837220
       potential(ionic) =   -5.392783

   izeta = 2
                 rmatch =    3.518811
              splitnorm =    0.150000
                 energy =   -0.877891
                kinetic =    1.289227
    potential(screened) =   -2.167118
       potential(ionic) =   -5.982073

SPLIT: Orbitals with angular momentum L= 1

SPLIT: Basis orbitals for state 2p

SPLIT: PAO cut-off radius determined from an
SPLIT: energy shift=  0.000735 Ry

   izeta = 1
                 lambda =    1.000000
                     rc =    7.638387
                 energy =   -0.387843
                kinetic =    2.314739
    potential(screened) =   -2.702582
       potential(ionic) =   -6.092371

   izeta = 2
                 rmatch =    3.840617
              splitnorm =    0.150000
                 energy =   -0.270479
                kinetic =    3.438347
    potential(screened) =   -3.708826
       potential(ionic) =   -7.497707

POLgen: Perturbative polarization orbital with L=  2

POLgen: Polarization orbital for state 2p

   izeta = 1
                     rc =    7.638387
                 energy =    0.921402
                kinetic =    1.955040
    potential(screened) =   -1.033637
       potential(ionic) =   -3.679558
atom: Total number of Sankey-type orbitals: 13

atm_pop: Valence configuration (for local Pseudopot. screening):
 2s( 2.00)                                                            
 2p( 2.00)                                                            
Vna: chval, zval:    4.00000   4.00000

Vna:  Cut-off radius for the neutral-atom potential:   7.638387

atom: _________________________________________________________________________

prinput: Basis input ----------------------------------------------------------

PAO.BasisType split     

%block ChemicalSpeciesLabel
    1    3 Li-gga                  # Species index, atomic number, species label
    2    6 C-gga                   # Species index, atomic number, species label
%endblock ChemicalSpeciesLabel

%block PAO.Basis                 # Define Basis set
Li-gga                1                    # Species label, number of l-shells
 n=2   0   2 P   1                   # n, l, Nzeta, Polarization, NzetaPol
  11.897      8.489   
   1.000      1.000   
C-gga                 2                    # Species label, number of l-shells
 n=2   0   2                         # n, l, Nzeta 
   5.949      3.519   
   1.000      1.000   
 n=2   1   2 P   1                   # n, l, Nzeta, Polarization, NzetaPol
   7.638      3.841   
   1.000      1.000   
%endblock PAO.Basis

prinput: ----------------------------------------------------------------------

coor:   Atomic-coordinates input format  =     Cartesian coordinates
coor:                                          (in Angstroms)

siesta: Atomic coordinates (Bohr) and species
siesta:      0.00000   0.00000   0.00000  2        1
siesta:     -1.32825   2.30060   4.61455  1        2
siesta:     -2.74990   4.76296  23.07268  1        3
siesta:      2.74990   4.76296   4.61455  1        4
siesta:      1.32825   2.30060  23.07268  1        5
siesta:      2.65651   0.00000   4.61455  1        6
siesta:      5.49980   0.00000  23.07268  1        7
siesta:     -2.74990   4.76296   4.61455  1        8
siesta:     -1.32825   2.30060  23.07268  1        9
siesta:      1.32825   2.30060   4.61455  1       10
siesta:      2.74990   4.76296  23.07268  1       11
siesta:      5.49980   0.00000   4.61455  1       12
siesta:      2.65651   0.00000  23.07268  1       13
siesta:     -1.32825   2.30060  13.84362  1       14
siesta:     -2.74990   4.76296  13.84362  1       15
siesta:      2.74990   4.76296  13.84362  1       16
siesta:      1.32825   2.30060  13.84362  1       17
siesta:      2.65651   0.00000  13.84362  1       18
siesta:      5.49980   0.00000  13.84362  1       19

siesta: System type = bulk      

initatomlists: Number of atoms, orbitals, and projectors:     19   103   171

siesta: ******************** Simulation parameters ****************************
siesta:
siesta: The following are some of the parameters of the simulation.
siesta: A complete list of the parameters used, including default values,
siesta: can be found in file out.fdf
siesta:
redata: Spin configuration                          = none
redata: Number of spin components                   = 1
redata: Time-Reversal Symmetry                      = T
redata: Spin spiral                                 = F
redata: Long output                                 =   F
redata: Number of Atomic Species                    =        2
redata: Charge density info will appear in .RHO file
redata: Write Mulliken Pop.                         = NO
redata: Matel table size (NRTAB)                    =     1024
redata: Mesh Cutoff                                 =   300.0000 Ry
redata: Net charge of the system                    =     0.0000 |e|
redata: Min. number of SCF Iter                     =        0
redata: Max. number of SCF Iter                     =     1000
redata: SCF convergence failure will abort job
redata: SCF mix quantity                            = Hamiltonian
redata: Mix DM or H after convergence               =   F
redata: Recompute H after scf cycle                 =   F
redata: Mix DM in first SCF step                    =   T
redata: Write Pulay info on disk                    =   F
redata: New DM Occupancy tolerance                  = 0.000000000001
redata: No kicks to SCF
redata: DM Mixing Weight for Kicks                  =     0.5000
redata: Require Harris convergence for SCF          =   F
redata: Harris energy tolerance for SCF             =     0.000100 eV
redata: Require DM convergence for SCF              =   T
redata: DM tolerance for SCF                        =     0.001000
redata: Require EDM convergence for SCF             =   F
redata: EDM tolerance for SCF                       =     0.005000 eV
redata: Require H convergence for SCF               =   T
redata: Hamiltonian tolerance for SCF               =     0.001000 eV
redata: Require (free) Energy convergence for SCF   =   T
redata: (free) Energy tolerance for SCF             =     0.001000 eV
redata: Using Saved Data (generic)                  =   F
redata: Use continuation files for DM               =   F
redata: Neglect nonoverlap interactions             =   F
redata: Method of Calculation                       = Diagonalization
redata: Electronic Temperature                      =   299.9869 K
redata: Fix the spin of the system                  =   F
redata: Dynamics option                             = Single-point calculation
mix.SCF: Pulay mixing                            = Pulay
mix.SCF:    Variant                              = stable
mix.SCF:    History steps                        = 4
mix.SCF:    Linear mixing weight                 =     0.250000
mix.SCF:    Mixing weight                        =     0.250000
mix.SCF:    SVD condition                        = 0.1000E-07
redata: ***********************************************************************

%block SCF.Mixers
  Pulay
%endblock SCF.Mixers

%block SCF.Mixer.Pulay
  # Mixing method
  method pulay
  variant stable

  # Mixing options
  weight 0.2500
  weight.linear 0.2500
  history 4
%endblock SCF.Mixer.Pulay

DM_history_depth set to one: no extrapolation allowed by default for geometry relaxation
Size of DM history Fstack: 1
Total number of electrons:    22.000000
Total ionic charge:    22.000000

* ProcessorY, Blocksize:    4   1


* Orbital distribution balance (max,min):     7     6

k-point displ. along   1 input, could be:     0.00    0.50
k-point displ. along   2 input, could be:     0.00    0.50
k-point displ. along   3 input, could be:     0.00    0.50
 Kpoints in:            8 . Kpoints trimmed:            8

siesta: k-grid: Number of k-points =     8
siesta: k-grid: Cutoff (effective) =     4.316 Ang
siesta: k-grid: Supercell and displacements
siesta: k-grid:    2   0   0      0.000
siesta: k-grid:    0   2   0      0.000
siesta: k-grid:    0   0   2      0.000

diag: Algorithm                                     = Expert
diag: Parallel over k                               =   T
diag: Use parallel 2D distribution                  =   T
diag: Parallel block-size                           = 1
diag: Parallel distribution                         =     4 x     4
diag: Used triangular part                          = Lower
diag: Absolute tolerance                            =  0.100E-15
diag: Orthogonalization factor                      =  0.100E-05
diag: Memory factor                                 =  1.0000

superc: Internal auxiliary supercell:     9 x     9 x     3  =     243
superc: Number of atoms, orbitals, and projectors:   4617  25029  41553


ts: **************************************************************
ts: Save H and S matrices                           =    F
ts: Save DM and EDM matrices                        =    F
ts: Only save the overlap matrix S                  =    F
ts: **************************************************************

************************ Begin: TS CHECKS AND WARNINGS ************************
************************ End: TS CHECKS AND WARNINGS **************************


                     ====================================
                        Single-point calculation
                     ====================================

outcoor: Atomic coordinates (Ang):                          
    0.00000000    0.00000000    0.00000000   2       1  C-gga
   -0.70288177    1.21742694    2.44191270   1       2  Li-gga
   -1.45518323    2.52045129   12.20953422   1       3  Li-gga
    1.45518323    2.52045129    2.44191270   1       4  Li-gga
    0.70288177    1.21742694   12.20953422   1       5  Li-gga
    1.40576354    0.00000000    2.44191270   1       6  Li-gga
    2.91036646    0.00000000   12.20953422   1       7  Li-gga
   -1.45518323    2.52045129    2.44191270   1       8  Li-gga
   -0.70288177    1.21742694   12.20953422   1       9  Li-gga
    0.70288177    1.21742694    2.44191270   1      10  Li-gga
    1.45518323    2.52045129   12.20953422   1      11  Li-gga
    2.91036646    0.00000000    2.44191270   1      12  Li-gga
    1.40576354    0.00000000   12.20953422   1      13  Li-gga
   -0.70288177    1.21742694    7.32572346   1      14  Li-gga
   -1.45518323    2.52045129    7.32572346   1      15  Li-gga
    1.45518323    2.52045129    7.32572346   1      16  Li-gga
    0.70288177    1.21742694    7.32572346   1      17  Li-gga
    1.40576354    0.00000000    7.32572346   1      18  Li-gga
    2.91036646    0.00000000    7.32572346   1      19  Li-gga

superc: Internal auxiliary supercell:     9 x     9 x     3  =     243
superc: Number of atoms, orbitals, and projectors:   4617  25029  41553

outcell: Unit cell vectors (Ang):
        4.316130    0.000000    0.000000
       -2.158065    3.737878    0.000000
        0.000000    0.000000   14.651447

outcell: Cell vector modules (Ang)   :    4.316130    4.316130   14.651447
outcell: Cell angles (23,13,12) (deg):     90.0000     90.0000    120.0000
outcell: Cell volume (Ang**3)        :    236.3743
<dSpData1D:S at geom step 0
  <sparsity:sparsity for geom step 0
    nrows_g=103 nrows=7 sparsity=2.8114 nnzs=29826, refcount: 7>
  <dData1D:(new from dSpData1D) n=29826, refcount: 1>
refcount: 1>
new_DM -- step:     1
Initializing Density Matrix...
DM filled with atomic data:
<dSpData2D:DM initialized from atoms
  <sparsity:sparsity for geom step 0
    nrows_g=103 nrows=7 sparsity=2.8114 nnzs=29826, refcount: 8>
  <dData2D:DM n=29826 m=1, refcount: 1>
refcount: 1>
No. of atoms with KB's overlaping orbs in proc 0. Max # of overlaps:     360     718
New grid distribution:   1
           1       1:   20    1:    5    1:   20
           2       1:   20    1:    5   21:   40
           3       1:   20    1:    5   41:   60
           4       1:   20    1:    5   61:   80
           5       1:   20    6:   10    1:   20
           6       1:   20    6:   10   21:   40
           7       1:   20    6:   10   41:   60
           8       1:   20    6:   10   61:   80
           9       1:   20   11:   15    1:   20
          10       1:   20   11:   15   21:   40
          11       1:   20   11:   15   41:   60
          12       1:   20   11:   15   61:   80
          13       1:   20   16:   20    1:   20
          14       1:   20   16:   20   21:   40
          15       1:   20   16:   20   41:   60
          16       1:   20   16:   20   61:   80

InitMesh: MESH =    40 x    40 x   160 =      256000
InitMesh: (bp) =    20 x    20 x    80 =       32000
InitMesh: Mesh cutoff (required, used) =   300.000   316.498 Ry
ExtMesh (bp) on 0 =   156 x   141 x   160 =     3519360
New grid distribution:   2
           1       1:   20    1:   10   10:   19
           2       1:   20    1:   10   20:   30
           3       1:   20    1:   10   41:   50
           4       1:   20    1:   10   72:   80
           5       1:   20    1:   10    1:    9
           6       1:   20    1:   10   31:   40
           7       1:   20    1:   10   51:   61
           8       1:   20    1:   10   62:   71
           9       1:   20   11:   20    1:    9
          10       1:   20   11:   20   20:   30
          11       1:   20   11:   20   41:   50
          12       1:   20   11:   20   62:   71
          13       1:   20   11:   20   10:   19
          14       1:   20   11:   20   31:   40
          15       1:   20   11:   20   51:   61
          16       1:   20   11:   20   72:   80
New grid distribution:   3
           1       1:   20    1:   10   11:   20
           2       1:   20    1:   10   31:   40
           3       1:   20    1:   10   51:   60
           4       1:   20    1:   10   71:   80
           5       1:   20    1:   10    1:   10
           6       1:   20    1:   10   21:   30
           7       1:   20    1:   10   41:   50
           8       1:   20    1:   10   61:   70
           9       1:   20   11:   20   11:   20
          10       1:   20   11:   20   31:   40
          11       1:   20   11:   20   51:   60
          12       1:   20   11:   20   71:   80
          13       1:   20   11:   20    1:   10
          14       1:   20   11:   20   21:   30
          15       1:   20   11:   20   41:   50
          16       1:   20   11:   20   61:   70
Setting up quadratic distribution...
ExtMesh (bp) on 0 =   156 x   146 x   150 =     3416400
PhiOnMesh: Number of (b)points on node 0 =                 2000
PhiOnMesh: nlist on node 0 =               770164

stepf: Fermi-Dirac step function

siesta: Program's energy decomposition (eV):
siesta: Ebs     =      -297.669436
siesta: Eions   =       439.895300
siesta: Ena     =       153.534047
siesta: Ekin    =       178.739602
siesta: Enl     =        59.197712
siesta: Eso     =         0.000000
siesta: Edftu   =         0.000000
siesta: DEna    =        -4.364116
siesta: DUscf   =        34.289514
siesta: DUext   =         0.000000
siesta: Exc     =      -202.353851
siesta: eta*DQ  =         0.000000
siesta: Emadel  =         0.000000
siesta: Emeta   =         0.000000
siesta: Emolmec =        -7.437282
siesta: Ekinion =         0.000000
siesta: Eharris =      -178.682101
siesta: Etot    =      -228.289674
siesta: FreeEng =      -228.307516

        iscf     Eharris(eV)        E_KS(eV)     FreeEng(eV)     dDmax    Ef(eV) dHmax(eV)
   scf:    1     -178.682101     -228.289674     -228.307516 41.113600-10.263085 26.416538
timer: Routine,Calls,Time,% = IterSCF        1       8.223  51.75
   scf:    2      999.534538      125.550554      125.532474 33.112177 -9.909200 98.687329
   scf:    3     -342.185782     -214.585666     -214.633878 21.056349-10.880680 34.838275
   scf:    4     -210.893319     -244.190727     -244.218403  5.301841-10.295947 12.619877
   scf:    5      -92.220180     -205.824040     -205.857987 16.081189-10.496174 37.238315
   scf:    6     -174.314069     -238.312629     -238.326998 13.976677-10.056603 18.173376
   scf:    7     -248.754585     -244.139102     -244.173443  2.730817-10.061688 11.864161
   scf:    8     -249.389828     -247.055607     -247.098262  0.575596-10.098355  7.722081
   scf:    9     -240.243845     -243.988099     -244.023929  1.110857-10.081234 12.361737
   scf:   10     -153.846388     -224.875083     -224.922059  8.928064-10.206779 25.728069
   scf:   11     -250.998995     -249.348688     -249.374918  8.103739-10.157613  1.499286
   scf:   12     -249.434825     -249.395413     -249.422695  0.490572-10.153798  1.321668
   scf:   13     -249.362353     -249.412111     -249.448767  0.857121-10.128865  0.780900
   scf:   14     -249.444990     -249.429661     -249.464981  0.087309-10.126399  0.614287
   scf:   15     -249.373449     -249.431722     -249.467329  0.488830-10.100882  0.530654
   scf:   16     -249.444674     -249.448744     -249.484990  0.297018-10.106118  0.185295
   scf:   17     -249.453527     -249.452034     -249.487016  0.088120-10.110043  0.104128
   scf:   18     -249.453159     -249.452727     -249.487550  0.053849-10.109211  0.037080
   scf:   19     -249.452621     -249.452699     -249.487628  0.020044-10.109240  0.004211
   scf:   20     -249.452586     -249.452645     -249.487634  0.020870-10.110274  0.004570
   scf:   21     -249.452791     -249.452724     -249.487629  0.009110-10.110074  0.010254
   scf:   22     -249.452388     -249.452570     -249.487624  0.011548-10.110004  0.019535
   scf:   23     -249.452778     -249.452682     -249.487635  0.007086-10.110478  0.003605
   scf:   24     -249.452616     -249.452650     -249.487635  0.002235-10.110344  0.003872
   scf:   25     -249.452675     -249.452663     -249.487636  0.000972-10.110410  0.001243
   scf:   26     -249.452672     -249.452667     -249.487636  0.000742-10.110449  0.000369

SCF Convergence by FreeE+DM+H criterion
|FreeE_i-FreeE_(i-1)| (eV) <     0.00100000
max |DM_out - DM_in|         :     0.0007417786
max |H_out - H_in|      (eV) :     0.0003689046
SCF cycle converged after 26 iterations

Using DM_out to compute the final energy and forces
No. of atoms with KB's overlaping orbs in proc 0. Max # of overlaps:     360     718

MM-Stress (kbar):      -11.68      -11.68       17.39        0.00        0.00       -0.00

siesta: E_KS(eV) =             -249.4527

siesta: E_KS - E_eggbox =      -249.4527

siesta: Atomic forces (eV/Ang):
     1   -0.000000    0.000000    0.000003
     2    0.111791   -0.193678   -0.521973
     3   -0.111796    0.193685    0.521973
     4    0.111774    0.193599   -0.522017
     5   -0.111778   -0.193606    0.522017
     6   -0.223626   -0.000025   -0.521973
     7    0.223634    0.000025    0.521973
     8   -0.111791    0.193678   -0.521973
     9    0.111796   -0.193685    0.521973
    10   -0.111774   -0.193599   -0.522017
    11    0.111778    0.193606    0.522017
    12    0.223626    0.000025   -0.521973
    13   -0.223634   -0.000025    0.521973
    14    0.061312   -0.106241   -0.000001
    15   -0.061312    0.106241   -0.000001
    16    0.061308    0.106189   -0.000001
    17   -0.061308   -0.106189   -0.000001
    18   -0.122663   -0.000022   -0.000001
    19    0.122663    0.000022   -0.000001
----------------------------------------
   Tot    0.000000   -0.000000   -0.000000
----------------------------------------
   Max    0.522017
   Res    0.263575    sqrt( Sum f_i^2 / 3N )
----------------------------------------
   Max    0.522017    constrained

Stress tensor Voigt[x,y,z,yz,xz,xy] (kbar):     -837.37     -837.38      149.68       -0.00        0.00       -0.01
(Free)E + p*V (eV/cell)     -174.4888
Target enthalpy (eV/cell)     -249.4876

siesta: Eigenvalues (eV):
  ik is       eps
   1  1  -18.9522  -13.3783  -12.7091  -12.5705  -11.9722  -11.0391  -10.9199  -10.5964  -10.2781  -10.0439
          -9.9464   -9.9074   -9.8966   -9.7710   -9.7709   -6.5733   -3.7743   -3.7743   -3.7545   -3.2873
   -3.2873   -3.2798   -3.2798   -2.9749   -2.9749   -2.8280   -2.8280   -2.1719   -2.1719   -1.0256
   -1.0255   -0.9037   -0.9037   -0.6048   -0.6048   -0.2147   -0.2147    0.0278    0.1723    0.1723
    0.2361    0.8270    0.8271   10.5778   11.3816   11.3818   12.6554   12.6555   12.7103   16.6407
   16.6407   16.8183   16.8183   17.3755   17.3756   18.8629   18.8630   20.2854   20.2855   21.4698
   21.4698   21.5848   21.5848   25.9001   26.0476   26.0479   26.1537   26.2674   26.2984   26.2984
   26.3093   29.1446   29.1446   34.6620   34.6621   35.0287   35.0288   37.7712   38.0901   38.4346
   38.4346   46.9178   47.2603   47.6723   47.7664   47.7664   48.4865   48.4867   48.8672   49.4834
   49.5978   57.5629   68.3132   69.0783   81.3358   81.3358   82.3621   82.3621   84.6216   84.6216
   89.0292   93.6350   93.6351
   2  1  -18.6903  -13.1850  -12.5934  -11.7827  -11.6840  -11.5915  -11.1220  -10.8449  -10.7455  -10.5226
         -10.3887  -10.1216  -10.0523   -9.1292   -8.7014   -8.0760   -8.0365   -7.1055   -5.9276   -4.9047
   -4.7390   -4.0311   -3.8311   -3.3120   -3.1194   -2.7362   -2.4012   -2.1295   -1.7029   -1.2320
   -0.1605    0.0081    0.0889    0.8431    1.9621    1.9874    2.2301    2.2407    2.4024    2.4291
    2.7580    2.9043    3.1951    3.2784    3.8019    4.6319    5.5392    6.0231    6.1117    7.5298
   10.1405   10.3472   10.9382   11.7813   12.4698   13.1206   13.3931   14.5298   14.7105   14.7871
   15.2301   16.0161   17.6945   18.5800   19.2705   19.7211   21.5437   22.0196   22.7924   23.4264
   23.4458   25.0011   25.5100   25.9759   26.1867   26.4729   26.5620   27.0482   27.9668   28.2136
   30.0784   31.4208   32.0333   33.4200   39.0514   40.2824   49.8748   50.2370   50.4171   51.2477
   52.7966   53.0306   54.3649   55.4777   55.7727   57.2055   57.4265   57.8681   58.5873   66.0254
   71.8612   84.2476   89.6946
   3  1  -18.6903  -13.1850  -12.5934  -11.7827  -11.6840  -11.5915  -11.1220  -10.8449  -10.7455  -10.5226
         -10.3887  -10.1216  -10.0523   -9.1292   -8.7014   -8.0760   -8.0365   -7.1055   -5.9276   -4.9047
   -4.7390   -4.0311   -3.8311   -3.3120   -3.1194   -2.7362   -2.4012   -2.1295   -1.7029   -1.2320
   -0.1605    0.0081    0.0889    0.8431    1.9621    1.9874    2.2301    2.2407    2.4024    2.4291
    2.7580    2.9043    3.1951    3.2784    3.8019    4.6319    5.5392    6.0231    6.1117    7.5298
   10.1405   10.3472   10.9382   11.7813   12.4698   13.1206   13.3931   14.5298   14.7105   14.7871
   15.2301   16.0161   17.6945   18.5800   19.2705   19.7211   21.5437   22.0196   22.7924   23.4264
   23.4458   25.0011   25.5100   25.9759   26.1867   26.4729   26.5620   27.0482   27.9668   28.2136
   30.0784   31.4208   32.0333   33.4201   39.0514   40.2824   49.8748   50.2370   50.4171   51.2476
   52.7966   53.0306   54.3649   55.4777   55.7727   57.2055   57.4265   57.8681   58.5873   66.0254
   71.8612   84.2476   89.6946
   4  1  -18.6903  -13.1850  -12.5934  -11.7827  -11.6840  -11.5915  -11.1220  -10.8448  -10.7455  -10.5226
         -10.3887  -10.1216  -10.0523   -9.1292   -8.7014   -8.0760   -8.0365   -7.1055   -5.9276   -4.9047
   -4.7390   -4.0311   -3.8311   -3.3120   -3.1194   -2.7362   -2.4013   -2.1295   -1.7029   -1.2320
   -0.1605    0.0081    0.0889    0.8431    1.9621    1.9874    2.2301    2.2407    2.4024    2.4291
    2.7580    2.9043    3.1951    3.2784    3.8019    4.6320    5.5392    6.0231    6.1117    7.5298
   10.1404   10.3472   10.9382   11.7813   12.4698   13.1206   13.3930   14.5298   14.7105   14.7871
   15.2300   16.0161   17.6945   18.5800   19.2705   19.7211   21.5437   22.0194   22.7925   23.4264
   23.4458   25.0011   25.5100   25.9759   26.1867   26.4729   26.5620   27.0482   27.9666   28.2137
   30.0784   31.4208   32.0336   33.4201   39.0514   40.2824   49.8748   50.2369   50.4171   51.2477
   52.7966   53.0305   54.3650   55.4777   55.7726   57.2057   57.4267   57.8683   58.5873   66.0254
   71.8612   84.2476   89.6946
   5  1  -18.9024  -13.5356  -12.6943  -12.2404  -11.9146  -11.0269  -10.8021  -10.7726  -10.2843  -10.0011
          -9.9917   -9.8551   -9.7707   -9.7706   -9.5974   -6.7644   -3.7208   -3.7208   -3.5035   -3.5035
   -3.3614   -3.1004   -3.1004   -3.0649   -3.0649   -2.8639   -2.5716   -2.5716   -2.3997   -2.3997
   -1.0631   -1.0631   -0.7742   -0.7742   -0.4858   -0.4858   -0.1621   -0.1621   -0.1499   -0.1499
    0.9048    0.9049    9.2591   11.3480   12.4913   12.4915   13.0406   13.0407   14.9196   14.9196
   16.7942   16.7943   17.0966   18.6130   18.6130   18.8105   18.8105   18.9766   18.9767   21.2515
   21.2516   21.5037   22.6723   22.6723   25.9076   25.9079   25.9082   26.0420   26.2823   26.2824
   26.4106   29.0551   29.0551   34.6996   34.6996   35.1326   35.1327   36.7493   38.2780   38.2780
   45.0970   45.1649   47.0827   47.0949   47.6253   49.0501   49.1303   49.7669   55.8168   55.8168
   57.0784   57.0784   58.7786   64.4586   64.4586   64.9652   64.9654   69.8500   69.8500   71.0341
   71.0341  116.1641  116.3646
   6  1  -18.6844  -13.1878  -12.6033  -11.9644  -11.6317  -11.6297  -11.3565  -10.8126  -10.7899  -10.4653
         -10.4354  -10.1209   -9.8959   -8.7500   -8.5392   -8.5351   -7.6698   -6.8724   -6.0406   -4.9595
   -4.4901   -4.4370   -3.4668   -3.3902   -3.3035   -2.3838   -2.2789   -2.2180   -2.2173   -1.3162
   -0.4329   -0.4086   -0.0722   -0.0695    1.8027    2.0676    2.1464    2.2366    2.5377    2.5448
    2.5694    2.5961    2.7855    2.9014    2.9649    3.6452    3.8452    6.7461    7.7642    8.7260
    9.8145    9.8884   11.1308   11.5139   12.0337   14.5381   14.5612   14.5924   14.7494   15.7458
   16.3581   17.3149   18.9202   19.5607   20.3115   20.3144   20.7437   21.5939   21.6966   22.5882
   23.3184   25.0208   25.1602   26.1717   26.5511   26.5751   26.6542   26.9594   27.7436   27.9773
   29.7333   30.9769   32.8572   33.7269   48.2226   49.4770   49.7369   50.0248   50.5405   51.5418
   51.6357   52.5866   56.0654   57.3670   57.4188   59.0178   59.5738   61.4472   62.4558   62.5279
   63.3876   76.7829   88.0409
   7  1  -18.6844  -13.1878  -12.6033  -11.9644  -11.6317  -11.6297  -11.3565  -10.8126  -10.7899  -10.4653
         -10.4354  -10.1209   -9.8959   -8.7500   -8.5392   -8.5351   -7.6698   -6.8724   -6.0406   -4.9595
   -4.4901   -4.4370   -3.4668   -3.3902   -3.3035   -2.3838   -2.2789   -2.2180   -2.2173   -1.3162
   -0.4329   -0.4086   -0.0722   -0.0695    1.8027    2.0676    2.1464    2.2366    2.5377    2.5448
    2.5694    2.5961    2.7855    2.9014    2.9649    3.6452    3.8452    6.7461    7.7642    8.7260
    9.8145    9.8884   11.1308   11.5139   12.0337   14.5381   14.5612   14.5924   14.7494   15.7458
   16.3581   17.3149   18.9202   19.5607   20.3115   20.3144   20.7437   21.5939   21.6966   22.5882
   23.3184   25.0208   25.1602   26.1717   26.5511   26.5751   26.6542   26.9594   27.7436   27.9773
   29.7333   30.9769   32.8572   33.7269   48.2226   49.4770   49.7368   50.0248   50.5405   51.5418
   51.6357   52.5866   56.0654   57.3670   57.4188   59.0178   59.5738   61.4472   62.4558   62.5278
   63.3875   76.7829   88.0409
   8  1  -18.6844  -13.1878  -12.6033  -11.9644  -11.6317  -11.6297  -11.3565  -10.8126  -10.7898  -10.4653
         -10.4354  -10.1210   -9.8959   -8.7500   -8.5392   -8.5351   -7.6698   -6.8723   -6.0406   -4.9595
   -4.4902   -4.4370   -3.4668   -3.3902   -3.3036   -2.3839   -2.2788   -2.2180   -2.2173   -1.3162
   -0.4328   -0.4086   -0.0722   -0.0695    1.8027    2.0676    2.1464    2.2366    2.5377    2.5449
    2.5694    2.5961    2.7855    2.9014    2.9649    3.6452    3.8452    6.7461    7.7640    8.7260
    9.8145    9.8884   11.1308   11.5139   12.0337   14.5381   14.5612   14.5923   14.7494   15.7458
   16.3581   17.3148   18.9203   19.5607   20.3116   20.3144   20.7437   21.5940   21.6966   22.5883
   23.3181   25.0208   25.1602   26.1716   26.5511   26.5751   26.6541   26.9594   27.7437   27.9771
   29.7332   30.9771   32.8571   33.7269   48.2226   49.4770   49.7369   50.0248   50.5405   51.5418
   51.6358   52.5865   56.0654   57.3672   57.4190   59.0178   59.5739   61.4472   62.4557   62.5278
   63.3875   76.7829   88.0410
siesta: Fermi energy =     -10.110449 eV

siesta: Program's energy decomposition (eV):
siesta: Ebs     =      -266.296468
siesta: Eions   =       439.895300
siesta: Ena     =       153.534047
siesta: Ekin    =       202.470099
siesta: Enl     =        46.721285
siesta: Eso     =         0.000000
siesta: Edftu   =         0.000000
siesta: DEna    =        -6.076156
siesta: DUscf   =         5.309491
siesta: DUext   =         0.000000
siesta: Exc     =      -204.078851
siesta: eta*DQ  =         0.000000
siesta: Emadel  =         0.000000
siesta: Emeta   =         0.000000
siesta: Emolmec =        -7.437282
siesta: Ekinion =         0.000000
siesta: Eharris =      -249.452672
siesta: Etot    =      -249.452667
siesta: FreeEng =      -249.487636

siesta: Final energy (eV):
siesta:  Band Struct. =    -266.296468
siesta:       Kinetic =     202.470099
siesta:       Hartree =     126.022300
siesta:       Edftu   =       0.000000
siesta:       Eso     =       0.000000
siesta:    Ext. field =       0.000000
siesta:   Exch.-corr. =    -204.078851
siesta:  Ion-electron =    -515.738256
siesta:       Ion-ion =     149.309322
siesta:       Ekinion =       0.000000
siesta:         Total =    -249.452667
siesta:         Fermi =     -10.110449

siesta: Atomic forces (eV/Ang):
siesta:      1   -0.000000    0.000000    0.000003
siesta:      2    0.111791   -0.193678   -0.521973
siesta:      3   -0.111796    0.193685    0.521973
siesta:      4    0.111774    0.193599   -0.522017
siesta:      5   -0.111778   -0.193606    0.522017
siesta:      6   -0.223626   -0.000025   -0.521973
siesta:      7    0.223634    0.000025    0.521973
siesta:      8   -0.111791    0.193678   -0.521973
siesta:      9    0.111796   -0.193685    0.521973
siesta:     10   -0.111774   -0.193599   -0.522017
siesta:     11    0.111778    0.193606    0.522017
siesta:     12    0.223626    0.000025   -0.521973
siesta:     13   -0.223634   -0.000025    0.521973
siesta:     14    0.061312   -0.106241   -0.000001
siesta:     15   -0.061312    0.106241   -0.000001
siesta:     16    0.061308    0.106189   -0.000001
siesta:     17   -0.061308   -0.106189   -0.000001
siesta:     18   -0.122663   -0.000022   -0.000001
siesta:     19    0.122663    0.000022   -0.000001
siesta: ----------------------------------------
siesta:    Tot    0.000000   -0.000000   -0.000000

siesta: Stress tensor (static) (eV/Ang**3):
siesta:    -0.522642   -0.000005    0.000000
siesta:    -0.000005   -0.522648   -0.000000
siesta:     0.000000   -0.000000    0.093424

siesta: Cell volume =        236.374260 Ang**3

siesta: Pressure (static):
siesta:                Solid            Molecule  Units
siesta:           0.00345568          0.00294632  Ry/Bohr**3
siesta:           0.31728835          0.27052119  eV/Ang**3
siesta:         508.35748132        433.42742012  kBar
(Free)E+ p_basis*V_orbitals  =        -193.049220
(Free)Eharris+ p_basis*V_orbitals  =        -193.049225

cite: Please see "LiC18_scf.bib" for an exhaustive BiBTeX file.
cite: Please clearly indicate Siesta version in published work: 4.1.5
cite: This calculation has made use of the following articles
cite: which are encouraged to be cited in a published work.
        Primary SIESTA paper
          DOI: www.doi.org/10.1088/0953-8984/14/11/302

>> End of run:   9-NOV-2022   2:21:28
Job completed
