Siesta Version  : 4.1.5
Architecture    : x86_64-unknown-linux-gnu--unknown
Compiler version: GNU Fortran (GCC) 11.3.0
Compiler flags  : mpif90 -g -O2 -fallow-argument-mismatch
PP flags        : -DMPI -DFC_HAVE_FLUSH -DFC_HAVE_ABORT
Libraries       :  -I/global/software/sl-7.x86_64/modules/intel/2020.4.304/mkl/include  /globall/software/sl-7.x86_64/modules/intel/2020.4.304/mkl/lib/intel64/libmkl_scalapack_lp64.a -Wl,--start-group /global/software/sl-7.x86_64/modules/intel/2020.4.304/mkl/lib/intel64/libmkl_intel_lp64.a /global/software/sl-7.x86_64/modules/intel/2020.4.304/mkl/lib/intel64/libmkl_sequential.a /global/software/sl-7.x86_64/modules/intel/2020.4.304/mkl/lib/intel64/libmkl_core.a /global/software/sl-7.x86_64/modules/intel/2020.4.304/mkl/lib/intel64/libmkl_blacs_openmpi_lp64.a -Wl,--end-group -lpthread -lm -ldl
PARALLEL version

* Running on 16 nodes in parallel
>> Start of run:   9-NOV-2022   2:06:17

                           ***********************       
                           *  WELCOME TO SIESTA  *       
                           ***********************       

reinit: Reading from standard input
reinit: Dumped input in INPUT_TMP.52158
************************** Dump of input data file ****************************
SystemName LiC18_scf
SystemLabel LiC18_scf
NumberOfAtoms   19
NumberOfSpecies 2
%block ChemicalSpeciesLabel
1  3   Li-gga
2  6   C-gga
%endblock ChemicalSpeciesLabel
PAO.BasisSize  DZP
PAO.EnergyShift  10 meV
%block PS.Lmax
C-gga   2
Li-gga  2
%endblock PS.Lmax
LatticeConstant 1.000000 Ang
%block LatticeVectors
	4.3161300000	0.0000000000	0.0000000000
	-2.1580650000	3.7378782260	0.0000000000
	0.0000000000	0.0000000000	12.2095391000
%endblock LatticeVectors
AtomicCoordinatesFormat Ang
%block AtomicCoordinatesAndAtomicSpecies
	0.00000000	0.00000000	0.00000000	2
	-0.70288177	1.21742694	2.03492725	1
	-1.45518323	2.52045129	10.17461185	1
	1.45518323	2.52045129	2.03492725	1
	0.70288177	1.21742694	10.17461185	1
	1.40576354	0.00000000	2.03492725	1
	2.91036646	0.00000000	10.17461185	1
	-1.45518323	2.52045129	2.03492725	1
	-0.70288177	1.21742694	10.17461185	1
	0.70288177	1.21742694	2.03492725	1
	1.45518323	2.52045129	10.17461185	1
	2.91036646	0.00000000	2.03492725	1
	1.40576354	0.00000000	10.17461185	1
	-0.70288177	1.21742694	6.10476955	1
	-1.45518323	2.52045129	6.10476955	1
	1.45518323	2.52045129	6.10476955	1
	0.70288177	1.21742694	6.10476955	1
	1.40576354	0.00000000	6.10476955	1
	2.91036646	0.00000000	6.10476955	1
%endblock AtomicCoordinatesAndAtomicSpecies
Kgrid_NoTRS  T
%block kgrid_MonkhorstPack
2       0       0       0.0
0       2       0       0.0
0       0       2       0.0
%endblock kgrid_MonkhorstPack
AtomCoorFormatOut Ang
BlockSize 1
#ProcessorY 12
Diag.ParallelOverK   T
Diag.DivideAndConquer F
MeshCutoff   300 Ry
SCF.FreeE.Tolerance 1E-3 eV
SCF.EDM.Tolerance   5E-3 eV
DM.Tolerance  1E-3
DM.Require.Energy.Convergence T
DM.NumberPulay 4
XC.Functional GGA
XC.Authors    PBE
UseSaveData        F
MD.TypeOfRun       CG
MD.VariableCell    F
MD.NumCGsteps      00
MD.MaxCGDispl      0.200000 Bohr
MD.MaxStressTol    1.000000 GPa
MD.MaxForceTol     0.010000 eV/Ang
WriteMDHistory T
WriteCoorStep T
WriteForces T
WriteCoorStep    T
WriteEigenValues T
WriteDM    F
MM.UnitsDistance Ang  # what this program prints out DO NOT CHANGE
MM.UnitsEnergy    eV  # what this program prints out DO NOT CHANGE
MM.Grimme.S6     0.75 # Grimme-paper for PBE (correct for your functional)
MM.Grimme.D     20.   # Grimme-paper (correct for your functional)
%block MM.Potentials
  1   1 Grimme     16.69      1.650 # Li, 10.1002/jcc.20495
  1   2 Grimme     17.40      2.277 # Li / C
  2   2 Grimme     18.14      2.904 # C, 10.1002/jcc.20495
%endblock MM.Potentials
#%block ProjectedDensityOfStates
# -200.0  120.0  0.4  12800  eV
#%endblock ProjectedDensityOfStates
************************** End of input data file *****************************

reinit: -----------------------------------------------------------------------
reinit: System Name: LiC18_scf
reinit: -----------------------------------------------------------------------
reinit: System Label: LiC18_scf
reinit: -----------------------------------------------------------------------
Reading two-body potentials
Grimme - two-body potential between 1 and 1
Grimme - two-body potential between 1 and 2
Grimme - two-body potential between 2 and 2

initatom: Reading input for the pseudopotentials and atomic orbitals ----------
Species number:   1 Atomic number:    3 Label: Li-gga
Species number:   2 Atomic number:    6 Label: C-gga

Ground state valence configuration:   2s01
Reading pseudopotential information in formatted form from Li-gga.psf

Valence configuration for pseudopotential generation:
2s( 1.00) rc: 2.28
2p( 0.00) rc: 2.28
3d( 0.00) rc: 2.59
4f( 0.00) rc: 2.59
Ground state valence configuration:   2s02  2p02
Reading pseudopotential information in formatted form from C-gga.psf

Valence configuration for pseudopotential generation:
2s( 2.00) rc: 1.56
2p( 2.00) rc: 1.56
3d( 0.00) rc: 1.56
4f( 0.00) rc: 1.56
relmxkb: Read Max KB Ang. Momentum=    2 for species C-gga
relmxkb: Read Max KB Ang. Momentum=    2 for species Li-gga

<basis_specs>
===============================================================================
Li-gga               Z=   3    Mass=  6.9400        Charge= 0.17977+309
Lmxo=0 Lmxkb= 2    BasisType=split      Semic=F
L=0  Nsemic=0  Cnfigmx=2
          i=1  nzeta=2  polorb=1  (2s)
            splnorm:   0.15000    
               vcte:    0.0000    
               rinn:    0.0000    
               qcoe:    0.0000    
               qyuk:    0.0000    
               qwid:   0.10000E-01
                rcs:    0.0000      0.0000    
            lambdas:    1.0000      1.0000    
-------------------------------------------------------------------------------
L=0  Nkbl=1  erefs: 0.17977+309
L=1  Nkbl=1  erefs: 0.17977+309
L=2  Nkbl=1  erefs: 0.17977+309
===============================================================================
</basis_specs>

atom: Called for Li-gga                (Z =   3)

read_vps: Pseudopotential generation method:
read_vps: ATM 3.2.2 Troullier-Martins                       
Valence charge for ps generation:    1.00000

read_vps: Pseudopotential includes a core correction:
read_vps: Pseudo-core for xc-correction

xc_check: Exchange-correlation functional:
xc_check: GGA Perdew, Burke & Ernzerhof 1996
V l=0 = -2*Zval/r beyond r=  2.2278
V l=1 = -2*Zval/r beyond r=  2.2278
V l=2 = -2*Zval/r beyond r=  2.5245
All V_l potentials equal beyond r=  2.4622
This should be close to max(r_c) in ps generation
All pots = -2*Zval/r beyond r=  2.5245

VLOCAL1: 99.0% of the norm of Vloc inside      7.160 Ry
VLOCAL1: 99.9% of the norm of Vloc inside     16.318 Ry
atom: Maximum radius for 4*pi*r*r*local-pseudopot. charge    2.86079
atom: Maximum radius for r*vlocal+2*Zval:    2.43160
GHOST: No ghost state for L =  0
GHOST: No ghost state for L =  1
GHOST: No ghost state for L =  2

KBgen: Kleinman-Bylander projectors: 
   l= 0   rc=  2.654023   el= -0.211234   Ekb=  1.742119   kbcos=  0.228463
   l= 1   rc=  2.721230   el= -0.080095   Ekb= -1.122375   kbcos= -0.147941
   l= 2   rc=  2.825246   el=  0.002001   Ekb= -0.207076   kbcos= -0.031965

KBgen: Total number of Kleinman-Bylander projectors:    9
atom: -------------------------------------------------------------------------

atom: SANKEY-TYPE ORBITALS:
atom: Selected multiple-zeta basis: split     

SPLIT: Orbitals with angular momentum L= 0

SPLIT: Basis orbitals for state 2s

SPLIT: PAO cut-off radius determined from an
SPLIT: energy shift=  0.000735 Ry

   izeta = 1
                 lambda =    1.000000
                     rc =   11.897381
                 energy =   -0.210580
                kinetic =    0.143382
    potential(screened) =   -0.353962
       potential(ionic) =   -0.533453

   izeta = 2
                 rmatch =    8.489163
              splitnorm =    0.150000
                 energy =   -0.186081
                kinetic =    0.225882
    potential(screened) =   -0.411964
       potential(ionic) =   -0.593024

POLgen: Perturbative polarization orbital with L=  1

POLgen: Polarization orbital for state 2s

   izeta = 1
                     rc =   11.897381
                 energy =   -0.027011
                kinetic =    0.282985
    potential(screened) =   -0.309997
       potential(ionic) =   -0.490997
atom: Total number of Sankey-type orbitals:  5

atm_pop: Valence configuration (for local Pseudopot. screening):
 2s( 1.00)                                                            
Vna: chval, zval:    1.00000   1.00000

Vna:  Cut-off radius for the neutral-atom potential:  11.897381
comcore: Pseudo-core radius Rcore=  3.450946

atom: _________________________________________________________________________

<basis_specs>
===============================================================================
C-gga                Z=   6    Mass=  12.010        Charge= 0.17977+309
Lmxo=1 Lmxkb= 2    BasisType=split      Semic=F
L=0  Nsemic=0  Cnfigmx=2
          i=1  nzeta=2  polorb=0  (2s)
            splnorm:   0.15000    
               vcte:    0.0000    
               rinn:    0.0000    
               qcoe:    0.0000    
               qyuk:    0.0000    
               qwid:   0.10000E-01
                rcs:    0.0000      0.0000    
            lambdas:    1.0000      1.0000    
L=1  Nsemic=0  Cnfigmx=2
          i=1  nzeta=2  polorb=1  (2p)
            splnorm:   0.15000    
               vcte:    0.0000    
               rinn:    0.0000    
               qcoe:    0.0000    
               qyuk:    0.0000    
               qwid:   0.10000E-01
                rcs:    0.0000      0.0000    
            lambdas:    1.0000      1.0000    
-------------------------------------------------------------------------------
L=0  Nkbl=1  erefs: 0.17977+309
L=1  Nkbl=1  erefs: 0.17977+309
L=2  Nkbl=1  erefs: 0.17977+309
===============================================================================
</basis_specs>

atom: Called for C-gga                 (Z =   6)

read_vps: Pseudopotential generation method:
read_vps: ATM 3.2.2 Troullier-Martins                       
Valence charge for ps generation:    4.00000

xc_check: Exchange-correlation functional:
xc_check: GGA Perdew, Burke & Ernzerhof 1996
V l=0 = -2*Zval/r beyond r=  1.5227
V l=1 = -2*Zval/r beyond r=  1.5227
V l=2 = -2*Zval/r beyond r=  1.5227
All V_l potentials equal beyond r=  1.4851
This should be close to max(r_c) in ps generation
All pots = -2*Zval/r beyond r=  1.5227

VLOCAL1: 99.0% of the norm of Vloc inside     19.682 Ry
VLOCAL1: 99.9% of the norm of Vloc inside     44.856 Ry
atom: Maximum radius for 4*pi*r*r*local-pseudopot. charge    1.79142
atom: Maximum radius for r*vlocal+2*Zval:    1.54183
GHOST: No ghost state for L =  0
GHOST: No ghost state for L =  1
GHOST: No ghost state for L =  2

KBgen: Kleinman-Bylander projectors: 
   l= 0   rc=  1.661951   el= -1.010689   Ekb=  5.289847   kbcos=  0.316429
   l= 1   rc=  1.661951   el= -0.388490   Ekb= -4.102504   kbcos= -0.351025
   l= 2   rc=  1.747182   el=  0.001971   Ekb= -1.006005   kbcos= -0.008530

KBgen: Total number of Kleinman-Bylander projectors:    9
atom: -------------------------------------------------------------------------

atom: SANKEY-TYPE ORBITALS:
atom: Selected multiple-zeta basis: split     

SPLIT: Orbitals with angular momentum L= 0

SPLIT: Basis orbitals for state 2s

SPLIT: PAO cut-off radius determined from an
SPLIT: energy shift=  0.000735 Ry

   izeta = 1
                 lambda =    1.000000
                     rc =    5.948690
                 energy =   -1.010099
                kinetic =    0.827121
    potential(screened) =   -1.837220
       potential(ionic) =   -5.392783

   izeta = 2
                 rmatch =    3.518811
              splitnorm =    0.150000
                 energy =   -0.877891
                kinetic =    1.289227
    potential(screened) =   -2.167118
       potential(ionic) =   -5.982073

SPLIT: Orbitals with angular momentum L= 1

SPLIT: Basis orbitals for state 2p

SPLIT: PAO cut-off radius determined from an
SPLIT: energy shift=  0.000735 Ry

   izeta = 1
                 lambda =    1.000000
                     rc =    7.638387
                 energy =   -0.387843
                kinetic =    2.314739
    potential(screened) =   -2.702582
       potential(ionic) =   -6.092371

   izeta = 2
                 rmatch =    3.840617
              splitnorm =    0.150000
                 energy =   -0.270479
                kinetic =    3.438347
    potential(screened) =   -3.708826
       potential(ionic) =   -7.497707

POLgen: Perturbative polarization orbital with L=  2

POLgen: Polarization orbital for state 2p

   izeta = 1
                     rc =    7.638387
                 energy =    0.921402
                kinetic =    1.955040
    potential(screened) =   -1.033637
       potential(ionic) =   -3.679558
atom: Total number of Sankey-type orbitals: 13

atm_pop: Valence configuration (for local Pseudopot. screening):
 2s( 2.00)                                                            
 2p( 2.00)                                                            
Vna: chval, zval:    4.00000   4.00000

Vna:  Cut-off radius for the neutral-atom potential:   7.638387

atom: _________________________________________________________________________

prinput: Basis input ----------------------------------------------------------

PAO.BasisType split     

%block ChemicalSpeciesLabel
    1    3 Li-gga                  # Species index, atomic number, species label
    2    6 C-gga                   # Species index, atomic number, species label
%endblock ChemicalSpeciesLabel

%block PAO.Basis                 # Define Basis set
Li-gga                1                    # Species label, number of l-shells
 n=2   0   2 P   1                   # n, l, Nzeta, Polarization, NzetaPol
  11.897      8.489   
   1.000      1.000   
C-gga                 2                    # Species label, number of l-shells
 n=2   0   2                         # n, l, Nzeta 
   5.949      3.519   
   1.000      1.000   
 n=2   1   2 P   1                   # n, l, Nzeta, Polarization, NzetaPol
   7.638      3.841   
   1.000      1.000   
%endblock PAO.Basis

prinput: ----------------------------------------------------------------------

coor:   Atomic-coordinates input format  =     Cartesian coordinates
coor:                                          (in Angstroms)

siesta: Atomic coordinates (Bohr) and species
siesta:      0.00000   0.00000   0.00000  2        1
siesta:     -1.32825   2.30060   3.84546  1        2
siesta:     -2.74990   4.76296  19.22724  1        3
siesta:      2.74990   4.76296   3.84546  1        4
siesta:      1.32825   2.30060  19.22724  1        5
siesta:      2.65651   0.00000   3.84546  1        6
siesta:      5.49980   0.00000  19.22724  1        7
siesta:     -2.74990   4.76296   3.84546  1        8
siesta:     -1.32825   2.30060  19.22724  1        9
siesta:      1.32825   2.30060   3.84546  1       10
siesta:      2.74990   4.76296  19.22724  1       11
siesta:      5.49980   0.00000   3.84546  1       12
siesta:      2.65651   0.00000  19.22724  1       13
siesta:     -1.32825   2.30060  11.53635  1       14
siesta:     -2.74990   4.76296  11.53635  1       15
siesta:      2.74990   4.76296  11.53635  1       16
siesta:      1.32825   2.30060  11.53635  1       17
siesta:      2.65651   0.00000  11.53635  1       18
siesta:      5.49980   0.00000  11.53635  1       19

siesta: System type = bulk      

initatomlists: Number of atoms, orbitals, and projectors:     19   103   171

siesta: ******************** Simulation parameters ****************************
siesta:
siesta: The following are some of the parameters of the simulation.
siesta: A complete list of the parameters used, including default values,
siesta: can be found in file out.fdf
siesta:
redata: Spin configuration                          = none
redata: Number of spin components                   = 1
redata: Time-Reversal Symmetry                      = T
redata: Spin spiral                                 = F
redata: Long output                                 =   F
redata: Number of Atomic Species                    =        2
redata: Charge density info will appear in .RHO file
redata: Write Mulliken Pop.                         = NO
redata: Matel table size (NRTAB)                    =     1024
redata: Mesh Cutoff                                 =   300.0000 Ry
redata: Net charge of the system                    =     0.0000 |e|
redata: Min. number of SCF Iter                     =        0
redata: Max. number of SCF Iter                     =     1000
redata: SCF convergence failure will abort job
redata: SCF mix quantity                            = Hamiltonian
redata: Mix DM or H after convergence               =   F
redata: Recompute H after scf cycle                 =   F
redata: Mix DM in first SCF step                    =   T
redata: Write Pulay info on disk                    =   F
redata: New DM Occupancy tolerance                  = 0.000000000001
redata: No kicks to SCF
redata: DM Mixing Weight for Kicks                  =     0.5000
redata: Require Harris convergence for SCF          =   F
redata: Harris energy tolerance for SCF             =     0.000100 eV
redata: Require DM convergence for SCF              =   T
redata: DM tolerance for SCF                        =     0.001000
redata: Require EDM convergence for SCF             =   F
redata: EDM tolerance for SCF                       =     0.005000 eV
redata: Require H convergence for SCF               =   T
redata: Hamiltonian tolerance for SCF               =     0.001000 eV
redata: Require (free) Energy convergence for SCF   =   T
redata: (free) Energy tolerance for SCF             =     0.001000 eV
redata: Using Saved Data (generic)                  =   F
redata: Use continuation files for DM               =   F
redata: Neglect nonoverlap interactions             =   F
redata: Method of Calculation                       = Diagonalization
redata: Electronic Temperature                      =   299.9869 K
redata: Fix the spin of the system                  =   F
redata: Dynamics option                             = Single-point calculation
mix.SCF: Pulay mixing                            = Pulay
mix.SCF:    Variant                              = stable
mix.SCF:    History steps                        = 4
mix.SCF:    Linear mixing weight                 =     0.250000
mix.SCF:    Mixing weight                        =     0.250000
mix.SCF:    SVD condition                        = 0.1000E-07
redata: ***********************************************************************

%block SCF.Mixers
  Pulay
%endblock SCF.Mixers

%block SCF.Mixer.Pulay
  # Mixing method
  method pulay
  variant stable

  # Mixing options
  weight 0.2500
  weight.linear 0.2500
  history 4
%endblock SCF.Mixer.Pulay

DM_history_depth set to one: no extrapolation allowed by default for geometry relaxation
Size of DM history Fstack: 1
Total number of electrons:    22.000000
Total ionic charge:    22.000000

* ProcessorY, Blocksize:    4   1


* Orbital distribution balance (max,min):     7     6

k-point displ. along   1 input, could be:     0.00    0.50
k-point displ. along   2 input, could be:     0.00    0.50
k-point displ. along   3 input, could be:     0.00    0.50
 Kpoints in:            8 . Kpoints trimmed:            8

siesta: k-grid: Number of k-points =     8
siesta: k-grid: Cutoff (effective) =     4.316 Ang
siesta: k-grid: Supercell and displacements
siesta: k-grid:    2   0   0      0.000
siesta: k-grid:    0   2   0      0.000
siesta: k-grid:    0   0   2      0.000

diag: Algorithm                                     = Expert
diag: Parallel over k                               =   T
diag: Use parallel 2D distribution                  =   T
diag: Parallel block-size                           = 1
diag: Parallel distribution                         =     4 x     4
diag: Used triangular part                          = Lower
diag: Absolute tolerance                            =  0.100E-15
diag: Orthogonalization factor                      =  0.100E-05
diag: Memory factor                                 =  1.0000

superc: Internal auxiliary supercell:     9 x     9 x     3  =     243
superc: Number of atoms, orbitals, and projectors:   4617  25029  41553


ts: **************************************************************
ts: Save H and S matrices                           =    F
ts: Save DM and EDM matrices                        =    F
ts: Only save the overlap matrix S                  =    F
ts: **************************************************************

************************ Begin: TS CHECKS AND WARNINGS ************************
************************ End: TS CHECKS AND WARNINGS **************************


                     ====================================
                        Single-point calculation
                     ====================================

outcoor: Atomic coordinates (Ang):                          
    0.00000000    0.00000000    0.00000000   2       1  C-gga
   -0.70288177    1.21742694    2.03492725   1       2  Li-gga
   -1.45518323    2.52045129   10.17461185   1       3  Li-gga
    1.45518323    2.52045129    2.03492725   1       4  Li-gga
    0.70288177    1.21742694   10.17461185   1       5  Li-gga
    1.40576354    0.00000000    2.03492725   1       6  Li-gga
    2.91036646    0.00000000   10.17461185   1       7  Li-gga
   -1.45518323    2.52045129    2.03492725   1       8  Li-gga
   -0.70288177    1.21742694   10.17461185   1       9  Li-gga
    0.70288177    1.21742694    2.03492725   1      10  Li-gga
    1.45518323    2.52045129   10.17461185   1      11  Li-gga
    2.91036646    0.00000000    2.03492725   1      12  Li-gga
    1.40576354    0.00000000   10.17461185   1      13  Li-gga
   -0.70288177    1.21742694    6.10476955   1      14  Li-gga
   -1.45518323    2.52045129    6.10476955   1      15  Li-gga
    1.45518323    2.52045129    6.10476955   1      16  Li-gga
    0.70288177    1.21742694    6.10476955   1      17  Li-gga
    1.40576354    0.00000000    6.10476955   1      18  Li-gga
    2.91036646    0.00000000    6.10476955   1      19  Li-gga

superc: Internal auxiliary supercell:     9 x     9 x     3  =     243
superc: Number of atoms, orbitals, and projectors:   4617  25029  41553

outcell: Unit cell vectors (Ang):
        4.316130    0.000000    0.000000
       -2.158065    3.737878    0.000000
        0.000000    0.000000   12.209539

outcell: Cell vector modules (Ang)   :    4.316130    4.316130   12.209539
outcell: Cell angles (23,13,12) (deg):     90.0000     90.0000    120.0000
outcell: Cell volume (Ang**3)        :    196.9785
<dSpData1D:S at geom step 0
  <sparsity:sparsity for geom step 0
    nrows_g=103 nrows=7 sparsity=3.5270 nnzs=37418, refcount: 7>
  <dData1D:(new from dSpData1D) n=37418, refcount: 1>
refcount: 1>
new_DM -- step:     1
Initializing Density Matrix...
DM filled with atomic data:
<dSpData2D:DM initialized from atoms
  <sparsity:sparsity for geom step 0
    nrows_g=103 nrows=7 sparsity=3.5270 nnzs=37418, refcount: 8>
  <dData2D:DM n=37418 m=1, refcount: 1>
refcount: 1>
No. of atoms with KB's overlaping orbs in proc 0. Max # of overlaps:     406     886
New grid distribution:   1
           1       1:   20    1:    5    1:   16
           2       1:   20    1:    5   17:   32
           3       1:   20    1:    5   33:   48
           4       1:   20    1:    5   49:   64
           5       1:   20    6:   10    1:   16
           6       1:   20    6:   10   17:   32
           7       1:   20    6:   10   33:   48
           8       1:   20    6:   10   49:   64
           9       1:   20   11:   15    1:   16
          10       1:   20   11:   15   17:   32
          11       1:   20   11:   15   33:   48
          12       1:   20   11:   15   49:   64
          13       1:   20   16:   20    1:   16
          14       1:   20   16:   20   17:   32
          15       1:   20   16:   20   33:   48
          16       1:   20   16:   20   49:   64

InitMesh: MESH =    40 x    40 x   128 =      204800
InitMesh: (bp) =    20 x    20 x    64 =       25600
InitMesh: Mesh cutoff (required, used) =   300.000   303.755 Ry
ExtMesh (bp) on 0 =   156 x   141 x   152 =     3343392
New grid distribution:   2
           1      11:   20    1:   10    1:   15
           2      11:   20    1:   10   16:   32
           3       1:   10    1:   10   33:   49
           4       1:   10    1:   10   50:   64
           5       1:   10    1:   10    1:   15
           6       1:   10    1:   10   16:   32
           7      11:   20    1:   10   33:   49
           8      11:   20    1:   10   50:   64
           9      11:   20   11:   20    1:   15
          10      11:   20   11:   20   16:   32
          11       1:   10   11:   20   33:   49
          12       1:   10   11:   20   50:   64
          13       1:   10   11:   20    1:   15
          14       1:   10   11:   20   16:   32
          15      11:   20   11:   20   33:   49
          16      11:   20   11:   20   50:   64
New grid distribution:   3
           1       1:   10    1:   10    1:   16
           2       1:   10    1:   10   17:   32
           3       1:   10    1:   10   33:   48
           4       1:   10    1:   10   49:   64
           5      11:   20    1:   10    1:   16
           6      11:   20    1:   10   17:   32
           7      11:   20    1:   10   33:   48
           8      11:   20    1:   10   49:   64
           9       1:   10   11:   20    1:   16
          10       1:   10   11:   20   17:   32
          11       1:   10   11:   20   33:   48
          12       1:   10   11:   20   49:   64
          13      11:   20   11:   20    1:   16
          14      11:   20   11:   20   17:   32
          15      11:   20   11:   20   33:   48
          16      11:   20   11:   20   49:   64
Setting up quadratic distribution...
ExtMesh (bp) on 0 =   146 x   146 x   151 =     3218716
PhiOnMesh: Number of (b)points on node 0 =                 1500
PhiOnMesh: nlist on node 0 =               694826

stepf: Fermi-Dirac step function

siesta: Program's energy decomposition (eV):
siesta: Ebs     =      -279.269779
siesta: Eions   =       439.895300
siesta: Ena     =       145.271511
siesta: Ekin    =       212.781034
siesta: Enl     =        43.091371
siesta: Eso     =         0.000000
siesta: Edftu   =         0.000000
siesta: DEna    =        -2.201576
siesta: DUscf   =         5.175987
siesta: DUext   =         0.000000
siesta: Exc     =      -209.027511
siesta: eta*DQ  =         0.000000
siesta: Emadel  =         0.000000
siesta: Emeta   =         0.000000
siesta: Emolmec =        -8.022198
siesta: Ekinion =         0.000000
siesta: Eharris =      -241.038091
siesta: Etot    =      -252.826682
siesta: FreeEng =      -252.843453

        iscf     Eharris(eV)        E_KS(eV)     FreeEng(eV)     dDmax    Ef(eV) dHmax(eV)
   scf:    1     -241.038091     -252.826682     -252.843453 33.700936-11.496821  3.200898
timer: Routine,Calls,Time,% = IterSCF        1       9.759  52.75
   scf:    2     -207.349878     -239.253785     -239.285241  2.194675-11.170497 18.355552
   scf:    3     -250.695992     -253.318278     -253.329230  0.667181-11.425616  2.618456
   scf:    4     -253.656180     -253.570662     -253.574938  1.892947-11.319419  0.189409
   scf:    5     -253.590972     -253.582016     -253.587066  0.683526-11.287498  0.142325
   scf:    6     -253.584981     -253.584099     -253.591277  0.508825-11.262024  0.078836
   scf:    7     -253.583704     -253.584023     -253.591549  0.026592-11.262696  0.033836
   scf:    8     -253.584092     -253.584058     -253.591583  0.015010-11.262250  0.027337
   scf:    9     -253.584112     -253.584087     -253.591637  0.042257-11.261179  0.011782
   scf:   10     -253.584078     -253.584084     -253.591645  0.018921-11.260738  0.000754
   scf:   11     -253.584069     -253.584077     -253.591644  0.004272-11.260670  0.002885
   scf:   12     -253.584079     -253.584078     -253.591645  0.007814-11.260875  0.001062
   scf:   13     -253.584076     -253.584077     -253.591645  0.001264-11.260878  0.000472
   scf:   14     -253.584079     -253.584078     -253.591645  0.000764-11.260904  0.000102

SCF Convergence by FreeE+DM+H criterion
|FreeE_i-FreeE_(i-1)| (eV) <     0.00100000
max |DM_out - DM_in|         :     0.0007639941
max |H_out - H_in|      (eV) :     0.0001023001
SCF cycle converged after 14 iterations

Using DM_out to compute the final energy and forces
No. of atoms with KB's overlaping orbs in proc 0. Max # of overlaps:     406     886

MM-Stress (kbar):      -10.65      -10.65       27.70        0.00        0.00        0.00

siesta: E_KS(eV) =             -253.5841

siesta: E_KS - E_eggbox =      -253.5841

siesta: Atomic forces (eV/Ang):
     1    0.000000   -0.000000   -0.000001
     2    0.216695   -0.375374   -0.674999
     3   -0.216695    0.375373    0.674999
     4    0.216697    0.375330   -0.675019
     5   -0.216696   -0.375329    0.675020
     6   -0.433431   -0.000024   -0.674999
     7    0.433430    0.000024    0.674999
     8   -0.216695    0.375374   -0.674999
     9    0.216695   -0.375373    0.674999
    10   -0.216697   -0.375330   -0.675019
    11    0.216696    0.375329    0.675020
    12    0.433431    0.000024   -0.674999
    13   -0.433430   -0.000024    0.674999
    14    0.070077   -0.121420   -0.000001
    15   -0.070077    0.121420   -0.000001
    16    0.070072    0.121368   -0.000001
    17   -0.070072   -0.121368   -0.000001
    18   -0.140192   -0.000022   -0.000001
    19    0.140192    0.000022   -0.000001
----------------------------------------
   Tot   -0.000000   -0.000000   -0.000000
----------------------------------------
   Max    0.675020
   Res    0.370862    sqrt( Sum f_i^2 / 3N )
----------------------------------------
   Max    0.675020    constrained

Stress tensor Voigt[x,y,z,yz,xz,xy] (kbar):    -1023.89    -1023.89      245.70       -0.00        0.00       -0.01
(Free)E + p*V (eV/cell)     -179.7405
Target enthalpy (eV/cell)     -253.5916

siesta: Eigenvalues (eV):
  ik is       eps
   1  1  -20.4116  -14.9319  -14.2960  -14.0905  -12.8933  -11.9748  -11.7311  -11.3876  -11.1517  -11.1515
         -11.1199  -11.1117  -11.0661  -10.8625   -9.1562   -5.6782   -5.1671   -5.1671   -4.4514   -4.4514
   -4.3211   -4.3211   -4.3086   -4.3086   -4.0774   -4.0773   -3.3734   -2.5188   -2.5188   -2.4471
   -2.4471   -2.1674   -2.1674   -2.0487   -2.0487    1.1325    1.1325    1.8370    1.8373    1.9594
    1.9594    5.4058    8.4290   12.7275   12.7276   13.2798   13.2799   14.1685   17.9426   17.9427
   18.2918   18.2918   18.9580   19.5581   19.5582   19.7304   19.7304   21.7878   21.7878   22.8152
   22.8153   23.2150   23.2151   23.4430   23.5541   24.9200   27.3471   29.7258   29.7265   30.0410
   30.0411   30.6556   30.6557   33.3538   33.3539   35.3804   35.3805   36.8806   37.2405   46.0343
   46.1909   46.1920   46.1921   46.4528   46.5413   47.9356   47.9886   48.3268   59.0130   59.2530
   67.6826   67.6827   72.6529   72.6529   73.1553   73.1553   75.1605   75.1606   75.7210   75.7210
   85.9729   85.9729   91.8385
   2  1  -20.1350  -14.6847  -14.0718  -12.9571  -12.9393  -12.5869  -12.1973  -11.9322  -11.6990  -11.5688
         -11.3750  -11.3587  -11.1044  -10.2108   -9.1729   -8.1295   -7.7488   -7.1360   -6.4731   -6.1410
   -5.1552   -4.5477   -4.3777   -4.0872   -3.3860   -2.7060   -2.3696   -1.3974   -1.2110   -0.7688
   -0.6639   -0.6211    0.3277    0.7266    0.9198    1.0755    1.1021    1.1973    1.6479    1.6878
    2.2145    3.3643    3.6717    4.6067    4.9136    7.7872    9.1935   10.2405   11.8279   12.3910
   12.4900   12.7060   12.7155   12.7910   14.2836   16.5251   17.3318   18.3426   18.6717   18.9011
   19.8045   19.8140   21.0412   23.8223   24.5926   24.9660   25.2315   25.3744   25.6281   25.7772
   26.3214   26.3999   26.6198   30.4655   30.9189   31.9363   32.8380   34.8846   35.0543   35.8051
   37.4111   41.1438   47.1939   47.5586   48.6009   49.8995   49.9956   51.0181   51.2131   51.5029
   55.0152   55.1551   55.1680   55.3245   57.0416   57.2860   57.3289   57.4586   60.5441   66.9019
   69.9449   73.3299   83.6196
   3  1  -20.1350  -14.6847  -14.0718  -12.9571  -12.9393  -12.5869  -12.1973  -11.9322  -11.6990  -11.5688
         -11.3750  -11.3587  -11.1044  -10.2108   -9.1729   -8.1295   -7.7488   -7.1360   -6.4731   -6.1410
   -5.1552   -4.5477   -4.3777   -4.0872   -3.3860   -2.7060   -2.3696   -1.3974   -1.2110   -0.7688
   -0.6639   -0.6211    0.3277    0.7266    0.9198    1.0755    1.1021    1.1973    1.6479    1.6878
    2.2145    3.3643    3.6717    4.6067    4.9136    7.7872    9.1935   10.2405   11.8279   12.3910
   12.4900   12.7060   12.7155   12.7910   14.2836   16.5251   17.3318   18.3426   18.6717   18.9011
   19.8045   19.8140   21.0412   23.8223   24.5926   24.9660   25.2315   25.3744   25.6281   25.7772
   26.3214   26.3999   26.6198   30.4655   30.9189   31.9363   32.8380   34.8846   35.0543   35.8051
   37.4112   41.1438   47.1939   47.5586   48.6009   49.8994   49.9956   51.0181   51.2130   51.5029
   55.0152   55.1551   55.1680   55.3245   57.0416   57.2860   57.3288   57.4586   60.5441   66.9019
   69.9449   73.3299   83.6196
   4  1  -20.1350  -14.6847  -14.0718  -12.9571  -12.9393  -12.5869  -12.1973  -11.9322  -11.6990  -11.5690
         -11.3750  -11.3587  -11.1044  -10.2108   -9.1729   -8.1295   -7.7488   -7.1359   -6.4731   -6.1410
   -5.1552   -4.5477   -4.3777   -4.0871   -3.3860   -2.7060   -2.3697   -1.3974   -1.2110   -0.7688
   -0.6639   -0.6211    0.3277    0.7266    0.9198    1.0756    1.1021    1.1973    1.6479    1.6878
    2.2144    3.3643    3.6717    4.6068    4.9136    7.7871    9.1935   10.2404   11.8279   12.3910
   12.4900   12.7060   12.7155   12.7911   14.2835   16.5251   17.3318   18.3427   18.6717   18.9011
   19.8045   19.8141   21.0414   23.8221   24.5928   24.9661   25.2314   25.3743   25.6280   25.7771
   26.3214   26.3999   26.6199   30.4656   30.9184   31.9362   32.8380   34.8846   35.0543   35.8052
   37.4111   41.1437   47.1940   47.5587   48.6008   49.8994   49.9957   51.0181   51.2130   51.5030
   55.0154   55.1551   55.1679   55.3247   57.0415   57.2859   57.3289   57.4585   60.5440   66.9019
   69.9449   73.3298   83.6195
   5  1  -20.3805  -14.8570  -14.3693  -13.9065  -12.6597  -12.4530  -11.6286  -11.3958  -11.1827  -11.1481
         -11.1479  -11.0511  -10.9469  -10.9123   -9.1785   -5.7866   -5.0392   -5.0392   -4.8432   -4.8432
   -4.4064   -4.4063   -3.7751   -3.7751   -3.7508   -3.7508   -3.3040   -3.3040   -3.2265   -3.2265
   -1.1367   -0.8932   -0.8931   -0.8890   -0.7288   -0.7288   -0.0137   -0.0136    0.0339    0.0339
    2.6289    2.6291    8.8412   10.8734   15.7898   15.7900   15.8718   15.8720   16.5976   16.5976
   17.3941   17.3941   18.6586   18.6586   19.2753   19.2753   19.8638   19.8638   20.5310   22.7507
   22.7507   22.8252   23.0598   24.7824   24.7825   24.8960   25.0148   29.8047   29.8055   30.0435
   30.0436   30.5106   30.5107   33.5063   33.5063   35.3241   35.3242   37.9183   40.0229   40.2091
   44.8236   46.0328   46.0330   46.4424   46.6563   47.9897   48.0483   48.0706   48.1691   75.8088
   75.8088   75.8951   75.8951   81.0412   81.0412   83.2199   83.2199   83.6264   83.6264   90.9876
   91.0923   92.5811   92.5811
   6  1  -20.1376  -14.7164  -14.0521  -13.1767  -12.8362  -12.3330  -12.2807  -11.8150  -11.7198  -11.7085
         -11.5672  -11.5296  -10.6484   -9.6312   -9.5181   -9.0491   -7.3728   -6.6043   -6.4912   -6.1070
   -5.2544   -4.8373   -4.2594   -3.5982   -3.5692   -2.5509   -2.1320   -1.8847   -1.4293   -0.7835
   -0.7253   -0.3763   -0.0664    0.4373    0.7971    0.8598    1.2293    1.3600    1.7132    1.8379
    1.9726    2.1804    4.7709    5.0463    6.0875    6.2735    8.5201    8.9456   10.0637   10.4821
   12.1736   13.4926   15.1036   15.2014   15.6506   16.4584   16.5861   17.2425   17.3211   18.3119
   20.4184   21.0599   21.2563   23.7843   23.8807   24.6947   24.9322   25.3403   25.7397   26.0597
   26.1325   26.8574   27.7283   28.9779   29.6442   31.0123   31.0822   31.3771   32.7700   36.1257
   40.6295   46.8166   47.2386   49.2503   49.4606   49.5509   50.5662   51.3624   51.6721   54.8589
   55.9749   56.1579   56.4558   57.0247   57.9163   58.0894   63.1440   63.1702   65.0214   74.8066
   76.9261  115.6506  125.9419
   7  1  -20.1376  -14.7164  -14.0521  -13.1767  -12.8362  -12.3330  -12.2807  -11.8150  -11.7198  -11.7085
         -11.5672  -11.5296  -10.6484   -9.6312   -9.5181   -9.0491   -7.3728   -6.6043   -6.4912   -6.1070
   -5.2544   -4.8373   -4.2594   -3.5982   -3.5692   -2.5509   -2.1320   -1.8847   -1.4293   -0.7835
   -0.7253   -0.3763   -0.0664    0.4373    0.7971    0.8598    1.2293    1.3600    1.7132    1.8379
    1.9726    2.1804    4.7709    5.0463    6.0875    6.2735    8.5201    8.9456   10.0637   10.4821
   12.1736   13.4926   15.1036   15.2014   15.6506   16.4584   16.5861   17.2425   17.3210   18.3119
   20.4184   21.0599   21.2563   23.7842   23.8807   24.6947   24.9322   25.3403   25.7397   26.0597
   26.1325   26.8574   27.7283   28.9779   29.6442   31.0123   31.0822   31.3771   32.7700   36.1257
   40.6295   46.8166   47.2386   49.2503   49.4606   49.5508   50.5662   51.3624   51.6721   54.8589
   55.9749   56.1579   56.4558   57.0247   57.9163   58.0894   63.1440   63.1702   65.0214   74.8066
   76.9261  115.6506  125.9419
   8  1  -20.1376  -14.7164  -14.0521  -13.1767  -12.8362  -12.3330  -12.2807  -11.8150  -11.7198  -11.7085
         -11.5673  -11.5296  -10.6484   -9.6312   -9.5181   -9.0491   -7.3728   -6.6041   -6.4912   -6.1070
   -5.2544   -4.8373   -4.2594   -3.5982   -3.5693   -2.5508   -2.1321   -1.8847   -1.4293   -0.7835
   -0.7253   -0.3763   -0.0664    0.4374    0.7971    0.8598    1.2293    1.3600    1.7132    1.8380
    1.9725    2.1804    4.7709    5.0463    6.0875    6.2735    8.5201    8.9456   10.0637   10.4820
   12.1735   13.4927   15.1036   15.2014   15.6505   16.4584   16.5861   17.2425   17.3210   18.3119
   20.4185   21.0602   21.2563   23.7843   23.8807   24.6946   24.9322   25.3403   25.7396   26.0597
   26.1325   26.8574   27.7283   28.9779   29.6442   31.0123   31.0817   31.3773   32.7699   36.1257
   40.6295   46.8167   47.2385   49.2503   49.4606   49.5508   50.5662   51.3624   51.6721   54.8591
   55.9749   56.1579   56.4559   57.0246   57.9163   58.0894   63.1439   63.1701   65.0213   74.8066
   76.9261  115.6506  125.9419
siesta: Fermi energy =     -11.260904 eV

siesta: Program's energy decomposition (eV):
siesta: Ebs     =      -292.370234
siesta: Eions   =       439.895300
siesta: Ena     =       145.271511
siesta: Ekin    =       207.695727
siesta: Enl     =        41.273549
siesta: Eso     =         0.000000
siesta: Edftu   =         0.000000
siesta: DEna    =         3.916272
siesta: DUscf   =         3.508166
siesta: DUext   =         0.000000
siesta: Exc     =      -207.331804
siesta: eta*DQ  =         0.000000
siesta: Emadel  =         0.000000
siesta: Emeta   =         0.000000
siesta: Emolmec =        -8.022198
siesta: Ekinion =         0.000000
siesta: Eharris =      -253.584079
siesta: Etot    =      -253.584078
siesta: FreeEng =      -253.591645

siesta: Final energy (eV):
siesta:  Band Struct. =    -292.370234
siesta:       Kinetic =     207.695727
siesta:       Hartree =     106.505083
siesta:       Edftu   =       0.000000
siesta:       Eso     =       0.000000
siesta:    Ext. field =       0.000000
siesta:   Exch.-corr. =    -207.331804
siesta:  Ion-electron =    -503.287558
siesta:       Ion-ion =     150.856672
siesta:       Ekinion =       0.000000
siesta:         Total =    -253.584078
siesta:         Fermi =     -11.260904

siesta: Atomic forces (eV/Ang):
siesta:      1    0.000000   -0.000000   -0.000001
siesta:      2    0.216695   -0.375374   -0.674999
siesta:      3   -0.216695    0.375373    0.674999
siesta:      4    0.216697    0.375330   -0.675019
siesta:      5   -0.216696   -0.375329    0.675020
siesta:      6   -0.433431   -0.000024   -0.674999
siesta:      7    0.433430    0.000024    0.674999
siesta:      8   -0.216695    0.375374   -0.674999
siesta:      9    0.216695   -0.375373    0.674999
siesta:     10   -0.216697   -0.375330   -0.675019
siesta:     11    0.216696    0.375329    0.675020
siesta:     12    0.433431    0.000024   -0.674999
siesta:     13   -0.433430   -0.000024    0.674999
siesta:     14    0.070077   -0.121420   -0.000001
siesta:     15   -0.070077    0.121420   -0.000001
siesta:     16    0.070072    0.121368   -0.000001
siesta:     17   -0.070072   -0.121368   -0.000001
siesta:     18   -0.140192   -0.000022   -0.000001
siesta:     19    0.140192    0.000022   -0.000001
siesta: ----------------------------------------
siesta:    Tot   -0.000000   -0.000000   -0.000000

siesta: Stress tensor (static) (eV/Ang**3):
siesta:    -0.639053   -0.000003    0.000000
siesta:    -0.000003   -0.639057   -0.000000
siesta:     0.000000   -0.000000    0.153350

siesta: Cell volume =        196.978550 Ang**3

siesta: Pressure (static):
siesta:                Solid            Molecule  Units
siesta:           0.00408336          0.00339200  Ry/Bohr**3
siesta:           0.37491999          0.31144188  eV/Ang**3
siesta:         600.69453276        498.99030411  kBar
(Free)E+ p_basis*V_orbitals  =        -197.153230
(Free)Eharris+ p_basis*V_orbitals  =        -197.153231

cite: Please see "LiC18_scf.bib" for an exhaustive BiBTeX file.
cite: Please clearly indicate Siesta version in published work: 4.1.5
cite: This calculation has made use of the following articles
cite: which are encouraged to be cited in a published work.
        Primary SIESTA paper
          DOI: www.doi.org/10.1088/0953-8984/14/11/302

>> End of run:   9-NOV-2022   2:08:08
Job completed
