Siesta Version  : 4.1.5
Architecture    : x86_64-unknown-linux-gnu--unknown
Compiler version: GNU Fortran (GCC) 11.3.0
Compiler flags  : mpif90 -g -O2 -fallow-argument-mismatch
PP flags        : -DMPI -DFC_HAVE_FLUSH -DFC_HAVE_ABORT
Libraries       :  -I/global/software/sl-7.x86_64/modules/intel/2020.4.304/mkl/include  /globall/software/sl-7.x86_64/modules/intel/2020.4.304/mkl/lib/intel64/libmkl_scalapack_lp64.a -Wl,--start-group /global/software/sl-7.x86_64/modules/intel/2020.4.304/mkl/lib/intel64/libmkl_intel_lp64.a /global/software/sl-7.x86_64/modules/intel/2020.4.304/mkl/lib/intel64/libmkl_sequential.a /global/software/sl-7.x86_64/modules/intel/2020.4.304/mkl/lib/intel64/libmkl_core.a /global/software/sl-7.x86_64/modules/intel/2020.4.304/mkl/lib/intel64/libmkl_blacs_openmpi_lp64.a -Wl,--end-group -lpthread -lm -ldl
PARALLEL version

* Running on 16 nodes in parallel
>> Start of run:   9-NOV-2022   1:37:29

                           ***********************       
                           *  WELCOME TO SIESTA  *       
                           ***********************       

reinit: Reading from standard input
reinit: Dumped input in INPUT_TMP.24491
************************** Dump of input data file ****************************
SystemName LiC18_scf
SystemLabel LiC18_scf
NumberOfAtoms   19
NumberOfSpecies 2
%block ChemicalSpeciesLabel
1  3   Li-gga
2  6   C-gga
%endblock ChemicalSpeciesLabel
PAO.BasisSize  DZP
PAO.EnergyShift  10 meV
%block PS.Lmax
C-gga   2
Li-gga  2
%endblock PS.Lmax
LatticeConstant 1.000000 Ang
%block LatticeVectors
	4.3161300000	0.0000000000	0.0000000000
	-2.1580650000	3.7378782260	0.0000000000
	0.0000000000	0.0000000000	5.5497905000
%endblock LatticeVectors
AtomicCoordinatesFormat Ang
%block AtomicCoordinatesAndAtomicSpecies
	0.00000000	0.00000000	0.00000000	2
	-0.70288177	1.21742694	0.92496693	1
	-1.45518323	2.52045129	4.62482357	1
	1.45518323	2.52045129	0.92496693	1
	0.70288177	1.21742694	4.62482357	1
	1.40576354	0.00000000	0.92496693	1
	2.91036646	0.00000000	4.62482357	1
	-1.45518323	2.52045129	0.92496693	1
	-0.70288177	1.21742694	4.62482357	1
	0.70288177	1.21742694	0.92496693	1
	1.45518323	2.52045129	4.62482357	1
	2.91036646	0.00000000	0.92496693	1
	1.40576354	0.00000000	4.62482357	1
	-0.70288177	1.21742694	2.77489525	1
	-1.45518323	2.52045129	2.77489525	1
	1.45518323	2.52045129	2.77489525	1
	0.70288177	1.21742694	2.77489525	1
	1.40576354	0.00000000	2.77489525	1
	2.91036646	0.00000000	2.77489525	1
%endblock AtomicCoordinatesAndAtomicSpecies
Kgrid_NoTRS  T
%block kgrid_MonkhorstPack
2       0       0       0.0
0       2       0       0.0
0       0       2       0.0
%endblock kgrid_MonkhorstPack
AtomCoorFormatOut Ang
BlockSize 1
#ProcessorY 12
Diag.ParallelOverK   T
Diag.DivideAndConquer F
MeshCutoff   300 Ry
SCF.FreeE.Tolerance 1E-3 eV
SCF.EDM.Tolerance   5E-3 eV
DM.Tolerance  1E-3
DM.Require.Energy.Convergence T
DM.NumberPulay 4
XC.Functional GGA
XC.Authors    PBE
UseSaveData        F
MD.TypeOfRun       CG
MD.VariableCell    F
MD.NumCGsteps      00
MD.MaxCGDispl      0.200000 Bohr
MD.MaxStressTol    1.000000 GPa
MD.MaxForceTol     0.010000 eV/Ang
WriteMDHistory T
WriteCoorStep T
WriteForces T
WriteCoorStep    T
WriteEigenValues T
WriteDM    F
MM.UnitsDistance Ang  # what this program prints out DO NOT CHANGE
MM.UnitsEnergy    eV  # what this program prints out DO NOT CHANGE
MM.Grimme.S6     0.75 # Grimme-paper for PBE (correct for your functional)
MM.Grimme.D     20.   # Grimme-paper (correct for your functional)
%block MM.Potentials
  1   1 Grimme     16.69      1.650 # Li, 10.1002/jcc.20495
  1   2 Grimme     17.40      2.277 # Li / C
  2   2 Grimme     18.14      2.904 # C, 10.1002/jcc.20495
%endblock MM.Potentials
#%block ProjectedDensityOfStates
# -200.0  120.0  0.4  12800  eV
#%endblock ProjectedDensityOfStates
************************** End of input data file *****************************

reinit: -----------------------------------------------------------------------
reinit: System Name: LiC18_scf
reinit: -----------------------------------------------------------------------
reinit: System Label: LiC18_scf
reinit: -----------------------------------------------------------------------
Reading two-body potentials
Grimme - two-body potential between 1 and 1
Grimme - two-body potential between 1 and 2
Grimme - two-body potential between 2 and 2

initatom: Reading input for the pseudopotentials and atomic orbitals ----------
Species number:   1 Atomic number:    3 Label: Li-gga
Species number:   2 Atomic number:    6 Label: C-gga

Ground state valence configuration:   2s01
Reading pseudopotential information in formatted form from Li-gga.psf

Valence configuration for pseudopotential generation:
2s( 1.00) rc: 2.28
2p( 0.00) rc: 2.28
3d( 0.00) rc: 2.59
4f( 0.00) rc: 2.59
Ground state valence configuration:   2s02  2p02
Reading pseudopotential information in formatted form from C-gga.psf

Valence configuration for pseudopotential generation:
2s( 2.00) rc: 1.56
2p( 2.00) rc: 1.56
3d( 0.00) rc: 1.56
4f( 0.00) rc: 1.56
relmxkb: Read Max KB Ang. Momentum=    2 for species C-gga
relmxkb: Read Max KB Ang. Momentum=    2 for species Li-gga

<basis_specs>
===============================================================================
Li-gga               Z=   3    Mass=  6.9400        Charge= 0.17977+309
Lmxo=0 Lmxkb= 2    BasisType=split      Semic=F
L=0  Nsemic=0  Cnfigmx=2
          i=1  nzeta=2  polorb=1  (2s)
            splnorm:   0.15000    
               vcte:    0.0000    
               rinn:    0.0000    
               qcoe:    0.0000    
               qyuk:    0.0000    
               qwid:   0.10000E-01
                rcs:    0.0000      0.0000    
            lambdas:    1.0000      1.0000    
-------------------------------------------------------------------------------
L=0  Nkbl=1  erefs: 0.17977+309
L=1  Nkbl=1  erefs: 0.17977+309
L=2  Nkbl=1  erefs: 0.17977+309
===============================================================================
</basis_specs>

atom: Called for Li-gga                (Z =   3)

read_vps: Pseudopotential generation method:
read_vps: ATM 3.2.2 Troullier-Martins                       
Valence charge for ps generation:    1.00000

read_vps: Pseudopotential includes a core correction:
read_vps: Pseudo-core for xc-correction

xc_check: Exchange-correlation functional:
xc_check: GGA Perdew, Burke & Ernzerhof 1996
V l=0 = -2*Zval/r beyond r=  2.2278
V l=1 = -2*Zval/r beyond r=  2.2278
V l=2 = -2*Zval/r beyond r=  2.5245
All V_l potentials equal beyond r=  2.4622
This should be close to max(r_c) in ps generation
All pots = -2*Zval/r beyond r=  2.5245

VLOCAL1: 99.0% of the norm of Vloc inside      7.160 Ry
VLOCAL1: 99.9% of the norm of Vloc inside     16.318 Ry
atom: Maximum radius for 4*pi*r*r*local-pseudopot. charge    2.86079
atom: Maximum radius for r*vlocal+2*Zval:    2.43160
GHOST: No ghost state for L =  0
GHOST: No ghost state for L =  1
GHOST: No ghost state for L =  2

KBgen: Kleinman-Bylander projectors: 
   l= 0   rc=  2.654023   el= -0.211234   Ekb=  1.742119   kbcos=  0.228463
   l= 1   rc=  2.721230   el= -0.080095   Ekb= -1.122375   kbcos= -0.147941
   l= 2   rc=  2.825246   el=  0.002001   Ekb= -0.207076   kbcos= -0.031965

KBgen: Total number of Kleinman-Bylander projectors:    9
atom: -------------------------------------------------------------------------

atom: SANKEY-TYPE ORBITALS:
atom: Selected multiple-zeta basis: split     

SPLIT: Orbitals with angular momentum L= 0

SPLIT: Basis orbitals for state 2s

SPLIT: PAO cut-off radius determined from an
SPLIT: energy shift=  0.000735 Ry

   izeta = 1
                 lambda =    1.000000
                     rc =   11.897381
                 energy =   -0.210580
                kinetic =    0.143382
    potential(screened) =   -0.353962
       potential(ionic) =   -0.533453

   izeta = 2
                 rmatch =    8.489163
              splitnorm =    0.150000
                 energy =   -0.186081
                kinetic =    0.225882
    potential(screened) =   -0.411964
       potential(ionic) =   -0.593024

POLgen: Perturbative polarization orbital with L=  1

POLgen: Polarization orbital for state 2s

   izeta = 1
                     rc =   11.897381
                 energy =   -0.027011
                kinetic =    0.282985
    potential(screened) =   -0.309997
       potential(ionic) =   -0.490997
atom: Total number of Sankey-type orbitals:  5

atm_pop: Valence configuration (for local Pseudopot. screening):
 2s( 1.00)                                                            
Vna: chval, zval:    1.00000   1.00000

Vna:  Cut-off radius for the neutral-atom potential:  11.897381
comcore: Pseudo-core radius Rcore=  3.450946

atom: _________________________________________________________________________

<basis_specs>
===============================================================================
C-gga                Z=   6    Mass=  12.010        Charge= 0.17977+309
Lmxo=1 Lmxkb= 2    BasisType=split      Semic=F
L=0  Nsemic=0  Cnfigmx=2
          i=1  nzeta=2  polorb=0  (2s)
            splnorm:   0.15000    
               vcte:    0.0000    
               rinn:    0.0000    
               qcoe:    0.0000    
               qyuk:    0.0000    
               qwid:   0.10000E-01
                rcs:    0.0000      0.0000    
            lambdas:    1.0000      1.0000    
L=1  Nsemic=0  Cnfigmx=2
          i=1  nzeta=2  polorb=1  (2p)
            splnorm:   0.15000    
               vcte:    0.0000    
               rinn:    0.0000    
               qcoe:    0.0000    
               qyuk:    0.0000    
               qwid:   0.10000E-01
                rcs:    0.0000      0.0000    
            lambdas:    1.0000      1.0000    
-------------------------------------------------------------------------------
L=0  Nkbl=1  erefs: 0.17977+309
L=1  Nkbl=1  erefs: 0.17977+309
L=2  Nkbl=1  erefs: 0.17977+309
===============================================================================
</basis_specs>

atom: Called for C-gga                 (Z =   6)

read_vps: Pseudopotential generation method:
read_vps: ATM 3.2.2 Troullier-Martins                       
Valence charge for ps generation:    4.00000

xc_check: Exchange-correlation functional:
xc_check: GGA Perdew, Burke & Ernzerhof 1996
V l=0 = -2*Zval/r beyond r=  1.5227
V l=1 = -2*Zval/r beyond r=  1.5227
V l=2 = -2*Zval/r beyond r=  1.5227
All V_l potentials equal beyond r=  1.4851
This should be close to max(r_c) in ps generation
All pots = -2*Zval/r beyond r=  1.5227

VLOCAL1: 99.0% of the norm of Vloc inside     19.682 Ry
VLOCAL1: 99.9% of the norm of Vloc inside     44.856 Ry
atom: Maximum radius for 4*pi*r*r*local-pseudopot. charge    1.79142
atom: Maximum radius for r*vlocal+2*Zval:    1.54183
GHOST: No ghost state for L =  0
GHOST: No ghost state for L =  1
GHOST: No ghost state for L =  2

KBgen: Kleinman-Bylander projectors: 
   l= 0   rc=  1.661951   el= -1.010689   Ekb=  5.289847   kbcos=  0.316429
   l= 1   rc=  1.661951   el= -0.388490   Ekb= -4.102504   kbcos= -0.351025
   l= 2   rc=  1.747182   el=  0.001971   Ekb= -1.006005   kbcos= -0.008530

KBgen: Total number of Kleinman-Bylander projectors:    9
atom: -------------------------------------------------------------------------

atom: SANKEY-TYPE ORBITALS:
atom: Selected multiple-zeta basis: split     

SPLIT: Orbitals with angular momentum L= 0

SPLIT: Basis orbitals for state 2s

SPLIT: PAO cut-off radius determined from an
SPLIT: energy shift=  0.000735 Ry

   izeta = 1
                 lambda =    1.000000
                     rc =    5.948690
                 energy =   -1.010099
                kinetic =    0.827121
    potential(screened) =   -1.837220
       potential(ionic) =   -5.392783

   izeta = 2
                 rmatch =    3.518811
              splitnorm =    0.150000
                 energy =   -0.877891
                kinetic =    1.289227
    potential(screened) =   -2.167118
       potential(ionic) =   -5.982073

SPLIT: Orbitals with angular momentum L= 1

SPLIT: Basis orbitals for state 2p

SPLIT: PAO cut-off radius determined from an
SPLIT: energy shift=  0.000735 Ry

   izeta = 1
                 lambda =    1.000000
                     rc =    7.638387
                 energy =   -0.387843
                kinetic =    2.314739
    potential(screened) =   -2.702582
       potential(ionic) =   -6.092371

   izeta = 2
                 rmatch =    3.840617
              splitnorm =    0.150000
                 energy =   -0.270479
                kinetic =    3.438347
    potential(screened) =   -3.708826
       potential(ionic) =   -7.497707

POLgen: Perturbative polarization orbital with L=  2

POLgen: Polarization orbital for state 2p

   izeta = 1
                     rc =    7.638387
                 energy =    0.921402
                kinetic =    1.955040
    potential(screened) =   -1.033637
       potential(ionic) =   -3.679558
atom: Total number of Sankey-type orbitals: 13

atm_pop: Valence configuration (for local Pseudopot. screening):
 2s( 2.00)                                                            
 2p( 2.00)                                                            
Vna: chval, zval:    4.00000   4.00000

Vna:  Cut-off radius for the neutral-atom potential:   7.638387

atom: _________________________________________________________________________

prinput: Basis input ----------------------------------------------------------

PAO.BasisType split     

%block ChemicalSpeciesLabel
    1    3 Li-gga                  # Species index, atomic number, species label
    2    6 C-gga                   # Species index, atomic number, species label
%endblock ChemicalSpeciesLabel

%block PAO.Basis                 # Define Basis set
Li-gga                1                    # Species label, number of l-shells
 n=2   0   2 P   1                   # n, l, Nzeta, Polarization, NzetaPol
  11.897      8.489   
   1.000      1.000   
C-gga                 2                    # Species label, number of l-shells
 n=2   0   2                         # n, l, Nzeta 
   5.949      3.519   
   1.000      1.000   
 n=2   1   2 P   1                   # n, l, Nzeta, Polarization, NzetaPol
   7.638      3.841   
   1.000      1.000   
%endblock PAO.Basis

prinput: ----------------------------------------------------------------------

coor:   Atomic-coordinates input format  =     Cartesian coordinates
coor:                                          (in Angstroms)

siesta: Atomic coordinates (Bohr) and species
siesta:      0.00000   0.00000   0.00000  2        1
siesta:     -1.32825   2.30060   1.74793  1        2
siesta:     -2.74990   4.76296   8.73965  1        3
siesta:      2.74990   4.76296   1.74793  1        4
siesta:      1.32825   2.30060   8.73965  1        5
siesta:      2.65651   0.00000   1.74793  1        6
siesta:      5.49980   0.00000   8.73965  1        7
siesta:     -2.74990   4.76296   1.74793  1        8
siesta:     -1.32825   2.30060   8.73965  1        9
siesta:      1.32825   2.30060   1.74793  1       10
siesta:      2.74990   4.76296   8.73965  1       11
siesta:      5.49980   0.00000   1.74793  1       12
siesta:      2.65651   0.00000   8.73965  1       13
siesta:     -1.32825   2.30060   5.24379  1       14
siesta:     -2.74990   4.76296   5.24379  1       15
siesta:      2.74990   4.76296   5.24379  1       16
siesta:      1.32825   2.30060   5.24379  1       17
siesta:      2.65651   0.00000   5.24379  1       18
siesta:      5.49980   0.00000   5.24379  1       19

siesta: System type = bulk      

initatomlists: Number of atoms, orbitals, and projectors:     19   103   171

siesta: ******************** Simulation parameters ****************************
siesta:
siesta: The following are some of the parameters of the simulation.
siesta: A complete list of the parameters used, including default values,
siesta: can be found in file out.fdf
siesta:
redata: Spin configuration                          = none
redata: Number of spin components                   = 1
redata: Time-Reversal Symmetry                      = T
redata: Spin spiral                                 = F
redata: Long output                                 =   F
redata: Number of Atomic Species                    =        2
redata: Charge density info will appear in .RHO file
redata: Write Mulliken Pop.                         = NO
redata: Matel table size (NRTAB)                    =     1024
redata: Mesh Cutoff                                 =   300.0000 Ry
redata: Net charge of the system                    =     0.0000 |e|
redata: Min. number of SCF Iter                     =        0
redata: Max. number of SCF Iter                     =     1000
redata: SCF convergence failure will abort job
redata: SCF mix quantity                            = Hamiltonian
redata: Mix DM or H after convergence               =   F
redata: Recompute H after scf cycle                 =   F
redata: Mix DM in first SCF step                    =   T
redata: Write Pulay info on disk                    =   F
redata: New DM Occupancy tolerance                  = 0.000000000001
redata: No kicks to SCF
redata: DM Mixing Weight for Kicks                  =     0.5000
redata: Require Harris convergence for SCF          =   F
redata: Harris energy tolerance for SCF             =     0.000100 eV
redata: Require DM convergence for SCF              =   T
redata: DM tolerance for SCF                        =     0.001000
redata: Require EDM convergence for SCF             =   F
redata: EDM tolerance for SCF                       =     0.005000 eV
redata: Require H convergence for SCF               =   T
redata: Hamiltonian tolerance for SCF               =     0.001000 eV
redata: Require (free) Energy convergence for SCF   =   T
redata: (free) Energy tolerance for SCF             =     0.001000 eV
redata: Using Saved Data (generic)                  =   F
redata: Use continuation files for DM               =   F
redata: Neglect nonoverlap interactions             =   F
redata: Method of Calculation                       = Diagonalization
redata: Electronic Temperature                      =   299.9869 K
redata: Fix the spin of the system                  =   F
redata: Dynamics option                             = Single-point calculation
mix.SCF: Pulay mixing                            = Pulay
mix.SCF:    Variant                              = stable
mix.SCF:    History steps                        = 4
mix.SCF:    Linear mixing weight                 =     0.250000
mix.SCF:    Mixing weight                        =     0.250000
mix.SCF:    SVD condition                        = 0.1000E-07
redata: ***********************************************************************

%block SCF.Mixers
  Pulay
%endblock SCF.Mixers

%block SCF.Mixer.Pulay
  # Mixing method
  method pulay
  variant stable

  # Mixing options
  weight 0.2500
  weight.linear 0.2500
  history 4
%endblock SCF.Mixer.Pulay

DM_history_depth set to one: no extrapolation allowed by default for geometry relaxation
Size of DM history Fstack: 1
Total number of electrons:    22.000000
Total ionic charge:    22.000000

* ProcessorY, Blocksize:    4   1


* Orbital distribution balance (max,min):     7     6

k-point displ. along   1 input, could be:     0.00    0.50
k-point displ. along   2 input, could be:     0.00    0.50
k-point displ. along   3 input, could be:     0.00    0.50
 Kpoints in:            8 . Kpoints trimmed:            8

siesta: k-grid: Number of k-points =     8
siesta: k-grid: Cutoff (effective) =     4.316 Ang
siesta: k-grid: Supercell and displacements
siesta: k-grid:    2   0   0      0.000
siesta: k-grid:    0   2   0      0.000
siesta: k-grid:    0   0   2      0.000

diag: Algorithm                                     = Expert
diag: Parallel over k                               =   T
diag: Use parallel 2D distribution                  =   T
diag: Parallel block-size                           = 1
diag: Parallel distribution                         =     4 x     4
diag: Used triangular part                          = Lower
diag: Absolute tolerance                            =  0.100E-15
diag: Orthogonalization factor                      =  0.100E-05
diag: Memory factor                                 =  1.0000

superc: Internal auxiliary supercell:     9 x     9 x     7  =     567
superc: Number of atoms, orbitals, and projectors:  10773  58401  96957


ts: **************************************************************
ts: Save H and S matrices                           =    F
ts: Save DM and EDM matrices                        =    F
ts: Only save the overlap matrix S                  =    F
ts: **************************************************************

************************ Begin: TS CHECKS AND WARNINGS ************************
************************ End: TS CHECKS AND WARNINGS **************************


                     ====================================
                        Single-point calculation
                     ====================================

outcoor: Atomic coordinates (Ang):                          
    0.00000000    0.00000000    0.00000000   2       1  C-gga
   -0.70288177    1.21742694    0.92496693   1       2  Li-gga
   -1.45518323    2.52045129    4.62482357   1       3  Li-gga
    1.45518323    2.52045129    0.92496693   1       4  Li-gga
    0.70288177    1.21742694    4.62482357   1       5  Li-gga
    1.40576354    0.00000000    0.92496693   1       6  Li-gga
    2.91036646    0.00000000    4.62482357   1       7  Li-gga
   -1.45518323    2.52045129    0.92496693   1       8  Li-gga
   -0.70288177    1.21742694    4.62482357   1       9  Li-gga
    0.70288177    1.21742694    0.92496693   1      10  Li-gga
    1.45518323    2.52045129    4.62482357   1      11  Li-gga
    2.91036646    0.00000000    0.92496693   1      12  Li-gga
    1.40576354    0.00000000    4.62482357   1      13  Li-gga
   -0.70288177    1.21742694    2.77489525   1      14  Li-gga
   -1.45518323    2.52045129    2.77489525   1      15  Li-gga
    1.45518323    2.52045129    2.77489525   1      16  Li-gga
    0.70288177    1.21742694    2.77489525   1      17  Li-gga
    1.40576354    0.00000000    2.77489525   1      18  Li-gga
    2.91036646    0.00000000    2.77489525   1      19  Li-gga

superc: Internal auxiliary supercell:     9 x     9 x     7  =     567
superc: Number of atoms, orbitals, and projectors:  10773  58401  96957

outcell: Unit cell vectors (Ang):
        4.316130    0.000000    0.000000
       -2.158065    3.737878    0.000000
        0.000000    0.000000    5.549791

outcell: Cell vector modules (Ang)   :    4.316130    4.316130    5.549791
outcell: Cell angles (23,13,12) (deg):     90.0000     90.0000    120.0000
outcell: Cell volume (Ang**3)        :     89.5357
<dSpData1D:S at geom step 0
  <sparsity:sparsity for geom step 0
    nrows_g=103 nrows=7 sparsity=8.4043 nnzs=89161, refcount: 7>
  <dData1D:(new from dSpData1D) n=89161, refcount: 1>
refcount: 1>
new_DM -- step:     1
Initializing Density Matrix...
DM filled with atomic data:
<dSpData2D:DM initialized from atoms
  <sparsity:sparsity for geom step 0
    nrows_g=103 nrows=7 sparsity=8.4043 nnzs=89161, refcount: 8>
  <dData2D:DM n=89161 m=1, refcount: 1>
refcount: 1>
No. of atoms with KB's overlaping orbs in proc 0. Max # of overlaps:     685    1884
New grid distribution:   1
           1       1:   20    1:    5    1:    8
           2       1:   20    1:    5    9:   16
           3       1:   20    1:    5   17:   23
           4       1:   20    1:    5   24:   30
           5       1:   20    6:   10    1:    8
           6       1:   20    6:   10    9:   16
           7       1:   20    6:   10   17:   23
           8       1:   20    6:   10   24:   30
           9       1:   20   11:   15    1:    8
          10       1:   20   11:   15    9:   16
          11       1:   20   11:   15   17:   23
          12       1:   20   11:   15   24:   30
          13       1:   20   16:   20    1:    8
          14       1:   20   16:   20    9:   16
          15       1:   20   16:   20   17:   23
          16       1:   20   16:   20   24:   30

InitMesh: MESH =    40 x    40 x    60 =       96000
InitMesh: (bp) =    20 x    20 x    30 =       12000
InitMesh: Mesh cutoff (required, used) =   300.000   316.498 Ry
ExtMesh (bp) on 0 =   156 x   141 x   148 =     3255408
New grid distribution:   2
           1       1:   10    1:   10    1:    7
           2       1:   10    1:   10    8:   15
           3       1:   10    1:   10   16:   23
           4      11:   20    1:   10   24:   30
           5      11:   20   11:   20    8:   15
           6      11:   20    1:   10    1:    7
           7      11:   20    1:   10   16:   23
           8       1:   10    1:   10   24:   30
           9      11:   20    1:   10    8:   15
          10      11:   20   11:   20    1:    7
          11       1:   10   11:   20   16:   23
          12      11:   20   11:   20   24:   30
          13       1:   10   11:   20    1:    7
          14       1:   10   11:   20    8:   15
          15      11:   20   11:   20   16:   23
          16       1:   10   11:   20   24:   30
New grid distribution:   3
           1       1:   10    1:   10    1:    8
           2       1:   10    1:   10    9:   15
           3       1:   10    1:   10   16:   23
           4       1:   10    1:   10   24:   30
           5      11:   20    1:   10    1:    8
           6      11:   20    1:   10    9:   15
           7      11:   20    1:   10   16:   23
           8      11:   20    1:   10   24:   30
           9      11:   20   11:   20    1:    8
          10      11:   20   11:   20    9:   15
          11       1:   10   11:   20   16:   23
          12      11:   20   11:   20   24:   30
          13       1:   10   11:   20    1:    8
          14       1:   10   11:   20    9:   15
          15      11:   20   11:   20   16:   23
          16       1:   10   11:   20   24:   30
Setting up quadratic distribution...
ExtMesh (bp) on 0 =   146 x   146 x   147 =     3133452
PhiOnMesh: Number of (b)points on node 0 =                  700
PhiOnMesh: nlist on node 0 =               687605

stepf: Fermi-Dirac step function

siesta: Program's energy decomposition (eV):
siesta: Ebs     =      -451.277957
siesta: Eions   =       439.895300
siesta: Ena     =        84.294577
siesta: Ekin    =       389.312461
siesta: Enl     =        -2.778950
siesta: Eso     =         0.000000
siesta: Edftu   =         0.000000
siesta: DEna    =       -39.101065
siesta: DUscf   =        38.745318
siesta: DUext   =         0.000000
siesta: Exc     =      -264.018915
siesta: eta*DQ  =         0.000000
siesta: Emadel  =         0.000000
siesta: Emeta   =         0.000000
siesta: Emolmec =       -20.088584
siesta: Ekinion =         0.000000
siesta: Eharris =      -210.387073
siesta: Etot    =      -253.530458
siesta: FreeEng =      -253.538180

        iscf     Eharris(eV)        E_KS(eV)     FreeEng(eV)     dDmax    Ef(eV) dHmax(eV)
   scf:    1     -210.387073     -253.530458     -253.538180 16.928193-19.591760 23.299534
timer: Routine,Calls,Time,% = IterSCF        1      31.450  61.02
   scf:    2     -279.282709     -268.609431     -268.621893  3.611479-19.494739  8.510969
   scf:    3     -271.665095     -271.000522     -271.014390  3.137454-19.825318  0.545671
   scf:    4     -271.042899     -271.024875     -271.040583  0.156516-19.827157  0.114371
   scf:    5     -271.008993     -271.039692     -271.058119  1.004578-19.863340  0.268199
   scf:    6     -271.040517     -271.040316     -271.058335  0.156678-19.857720  0.213854
   scf:    7     -271.059422     -271.050612     -271.068951  0.156561-19.842452  0.117451
   scf:    8     -271.055984     -271.057364     -271.077903  0.106432-19.826036  0.009715
   scf:    9     -271.057642     -271.057575     -271.078039  0.023021-19.827280  0.004425
   scf:   10     -271.056888     -271.057287     -271.078002  0.050389-19.826864  0.009258
   scf:   11     -271.057525     -271.057449     -271.078083  0.010729-19.827722  0.002131
   scf:   12     -271.057437     -271.057444     -271.078085  0.001754-19.827607  0.000347
   scf:   13     -271.057453     -271.057448     -271.078085  0.000996-19.827616  0.000152

SCF Convergence by FreeE+DM+H criterion
|FreeE_i-FreeE_(i-1)| (eV) <     0.00100000
max |DM_out - DM_in|         :     0.0009960477
max |H_out - H_in|      (eV) :     0.0001517926
SCF cycle converged after 13 iterations

Using DM_out to compute the final energy and forces
No. of atoms with KB's overlaping orbs in proc 0. Max # of overlaps:     685    1884

MM-Stress (kbar):      168.58      168.58      827.50       -0.00       -0.00       -0.00

siesta: E_KS(eV) =             -271.0574

siesta: E_KS - E_eggbox =      -271.0574

siesta: Atomic forces (eV/Ang):
     1   -0.000000    0.000000   -0.000000
     2   -1.265718    2.192274    0.347761
     3    1.265718   -2.192274   -0.347761
     4   -1.265711   -2.192276    0.347690
     5    1.265711    2.192276   -0.347690
     6    2.531425   -0.000007    0.347761
     7   -2.531425    0.000007   -0.347761
     8    1.265718   -2.192274    0.347761
     9   -1.265718    2.192274   -0.347760
    10    1.265711    2.192276    0.347690
    11   -1.265711   -2.192276   -0.347690
    12   -2.531425    0.000007    0.347761
    13    2.531425   -0.000007   -0.347761
    14   -0.237446    0.411265    0.000000
    15    0.237446   -0.411265    0.000000
    16   -0.237460   -0.411292    0.000000
    17    0.237459    0.411291    0.000000
    18    0.474889   -0.000002   -0.000000
    19   -0.474889    0.000002    0.000000
----------------------------------------
   Tot    0.000000    0.000000    0.000000
----------------------------------------
   Max    2.531425
   Res    1.182486    sqrt( Sum f_i^2 / 3N )
----------------------------------------
   Max    2.531425    constrained

Stress tensor Voigt[x,y,z,yz,xz,xy] (kbar):    -1831.28    -1831.31    -1069.12        0.00       -0.00       -0.02
(Free)E + p*V (eV/cell)     -182.9371
Target enthalpy (eV/cell)     -271.0781

siesta: Eigenvalues (eV):
  ik is       eps
   1  1  -31.2765  -26.5355  -26.3805  -25.0399  -24.7710  -24.2510  -23.1680  -23.1678  -21.9398  -19.9308
         -19.8058  -18.3022  -18.3022  -17.8290  -17.8290  -17.7164  -17.7164  -17.6777  -17.6777  -16.8462
  -16.8462  -13.6978   -4.5241   -4.5236   -3.4840   -2.7861   -2.4199   -2.4198    2.5072    2.5072
    2.6132    5.3037    5.3038    6.2956    6.2957    6.6727    6.6727    8.1111    8.5878    9.9297
    9.9300   10.0948   10.0951   11.5552   13.0454   14.4171   15.3039   15.3039   15.6616   19.0438
   19.0438   19.1704   19.1705   19.2352   21.6369   21.6370   22.5056   23.1266   26.7332   30.7064
   30.7068   30.7581   33.3492   33.3492   33.4259   33.4259   35.9477   36.4196   36.4197   37.2843
   37.5812   37.7234   37.7946   39.4894   39.6678   40.6945   40.6947   40.9022   40.9023   42.7480
   42.7485   44.9442   44.9453   52.0254   52.0256   53.2342   53.2344   56.3288   57.0803   57.0803
   58.8754   58.8754   65.8278   65.8279   69.0283   69.0288   78.9489   78.9502   90.7850   91.2550
  103.4149  103.4152  305.5726
   2  1  -31.3820  -26.1322  -25.7730  -25.5437  -25.2116  -25.0916  -24.6860  -23.3898  -23.0268  -21.7773
         -20.2705  -19.7392  -19.0831  -18.5046  -15.9033  -15.5089  -14.5846  -14.4764  -13.5539  -13.5502
  -13.2314  -11.4366   -9.2909   -9.0452   -8.8329   -8.1766   -7.8671   -6.4375   -6.2989   -4.1113
   -2.9144   -2.8541   -1.7641    1.0234    1.4237    1.9754    3.3368    3.9168    4.9918    6.9195
    9.2216   11.5275   11.5869   11.6951   13.5296   14.2667   14.4760   14.6706   14.8228   15.4465
   16.0855   17.1645   18.7391   19.6692   19.7374   20.0116   21.9432   23.2480   23.3220   23.9181
   25.1427   25.6502   25.8385   26.9628   31.8378   31.8816   32.5618   32.8407   38.3370   38.9659
   40.2678   41.0454   41.3586   41.6873   42.4656   42.9949   43.4915   44.5174   44.6483   47.3466
   47.4946   47.9176   48.4174   49.8325   51.1885   52.5960   56.2935   58.3864   64.7568   65.6362
   66.6497   69.2774   70.7750   72.3941   74.8936   83.8430   86.6156   90.7479   99.7455  102.7862
  127.5791  128.0957  136.5094
   3  1  -31.3820  -26.1322  -25.7730  -25.5437  -25.2116  -25.0916  -24.6860  -23.3898  -23.0268  -21.7773
         -20.2705  -19.7392  -19.0831  -18.5046  -15.9033  -15.5089  -14.5846  -14.4764  -13.5539  -13.5502
  -13.2314  -11.4366   -9.2909   -9.0452   -8.8329   -8.1766   -7.8671   -6.4375   -6.2989   -4.1113
   -2.9144   -2.8541   -1.7641    1.0234    1.4237    1.9754    3.3368    3.9168    4.9918    6.9195
    9.2216   11.5275   11.5869   11.6951   13.5296   14.2667   14.4760   14.6706   14.8228   15.4465
   16.0855   17.1645   18.7391   19.6692   19.7374   20.0116   21.9432   23.2480   23.3220   23.9180
   25.1427   25.6502   25.8385   26.9628   31.8379   31.8816   32.5618   32.8407   38.3369   38.9659
   40.2678   41.0454   41.3585   41.6873   42.4656   42.9949   43.4915   44.5174   44.6485   47.3466
   47.4946   47.9176   48.4173   49.8325   51.1885   52.5960   56.2935   58.3864   64.7568   65.6362
   66.6497   69.2774   70.7750   72.3941   74.8936   83.8430   86.6159   90.7479   99.7455  102.7862
  127.5791  128.0957  136.5094
   4  1  -31.3820  -26.1322  -25.7730  -25.5437  -25.2116  -25.0916  -24.6860  -23.3900  -23.0268  -21.7773
         -20.2703  -19.7392  -19.0831  -18.5046  -15.9033  -15.5088  -14.5846  -14.4765  -13.5539  -13.5502
  -13.2314  -11.4367   -9.2909   -9.0452   -8.8329   -8.1766   -7.8671   -6.4375   -6.2989   -4.1113
   -2.9144   -2.8539   -1.7641    1.0230    1.4237    1.9755    3.3368    3.9168    4.9920    6.9199
    9.2220   11.5271   11.5870   11.6951   13.5296   14.2667   14.4760   14.6705   14.8228   15.4464
   16.0855   17.1646   18.7391   19.6688   19.7374   20.0115   21.9432   23.2483   23.3220   23.9182
   25.1426   25.6501   25.8386   26.9628   31.8375   31.8816   32.5618   32.8406   38.3374   38.9660
   40.2677   41.0454   41.3583   41.6878   42.4656   42.9950   43.4915   44.5177   44.6480   47.3466
   47.4946   47.9176   48.4174   49.8325   51.1884   52.5960   56.2932   58.3863   64.7565   65.6362
   66.6498   69.2774   70.7746   72.3942   74.8932   83.8428   86.6154   90.7477   99.7454  102.7862
  127.5792  128.0958  136.5095
   5  1  -31.5939  -27.0392  -26.4389  -25.6569  -24.9893  -24.0484  -23.2750  -23.1032  -23.1029  -20.4484
         -18.1813  -18.1813  -17.5613  -17.5613  -17.5476  -17.5476  -17.3528  -17.3528  -16.1173  -16.1173
  -14.3113  -13.5365   -9.7881   -4.5773   -4.5768   -4.3939   -4.3939   -4.2902   -4.2902   -3.4363
   -3.0496   -3.0495   -2.5358   -2.5357    0.7784    5.8651    5.8654    7.4360    7.4360    9.2813
    9.3269   10.4685   10.4685   11.6374   12.7851   13.2512   13.5262   13.5262   13.9256   14.9981
   14.9983   15.1708   15.1709   16.1458   19.0471   19.0481   19.2690   19.2691   19.3905   19.3909
   20.0620   22.6615   30.4951   30.4952   30.5611   30.9264   30.9265   31.4731   31.4732   33.1407
   33.4135   33.4434   33.4436   34.5912   34.8351   34.8352   35.3073   39.5976   39.5983   42.3360
   45.2765   49.5981   50.1670   51.1001   51.1018   57.0758   57.0760   88.6838   88.6839   92.2065
   92.2066   99.2029   99.2035  100.0278  100.0281  104.9604  104.9605  113.6948  113.6950  144.1200
  315.2205  315.5969  320.0267
   6  1  -31.3769  -26.1860  -25.7880  -25.3108  -25.2012  -25.1668  -25.0507  -24.2329  -23.4529  -20.7178
         -20.2298  -19.8318  -19.1000  -17.4453  -15.2040  -15.0699  -14.7635  -14.7238  -14.2988  -13.5806
  -13.0437  -12.5570  -12.4391  -12.4244  -12.1109   -5.3257   -3.3382   -2.9964   -2.8330   -1.6875
   -0.5561    0.6907    2.7856    2.9152    3.8153    4.6120    4.7778    5.4685    5.6015    6.5717
    9.8680   10.6075   10.6580   12.3385   12.5254   13.3552   13.6758   13.9604   14.0146   15.0765
   15.3183   16.3540   17.7611   18.2401   20.4320   20.7154   21.0678   21.5382   23.8818   24.4585
   24.9564   25.7140   27.1610   28.0494   28.7817   29.7049   30.4362   35.5141   37.0027   38.5363
   39.4438   39.5536   41.3406   42.7131   43.7830   47.2677   47.4619   48.4801   48.9067   48.9997
   49.8775   50.7633   51.1638   51.9279   52.8212   53.7699   53.8378   55.3266   56.8683   57.3230
   57.4783   58.5565   60.5768   64.1738   69.8556   71.8484   74.1908   79.4202   88.0598  118.6925
  124.2941  138.4744  140.1495
   7  1  -31.3769  -26.1860  -25.7880  -25.3108  -25.2012  -25.1668  -25.0507  -24.2329  -23.4529  -20.7178
         -20.2298  -19.8318  -19.1000  -17.4453  -15.2040  -15.0699  -14.7635  -14.7238  -14.2988  -13.5806
  -13.0437  -12.5570  -12.4391  -12.4244  -12.1109   -5.3257   -3.3382   -2.9964   -2.8330   -1.6875
   -0.5561    0.6907    2.7856    2.9152    3.8153    4.6120    4.7778    5.4685    5.6015    6.5717
    9.8680   10.6075   10.6580   12.3385   12.5254   13.3552   13.6758   13.9604   14.0146   15.0765
   15.3184   16.3540   17.7611   18.2401   20.4320   20.7154   21.0678   21.5382   23.8818   24.4585
   24.9564   25.7140   27.1610   28.0494   28.7817   29.7049   30.4362   35.5141   37.0016   38.5363
   39.4438   39.5536   41.3406   42.7131   43.7832   47.2677   47.4619   48.4801   48.9067   48.9997
   49.8775   50.7633   51.1638   51.9279   52.8212   53.7698   53.8378   55.3266   56.8683   57.3230
   57.4782   58.5565   60.5768   64.1740   69.8556   71.8484   74.1908   79.4202   88.0598  118.6925
  124.2940  138.4743  140.1496
   8  1  -31.3769  -26.1860  -25.7880  -25.3108  -25.2012  -25.1668  -25.0507  -24.2329  -23.4530  -20.7178
         -20.2297  -19.8319  -19.1000  -17.4453  -15.2040  -15.0699  -14.7635  -14.7238  -14.2988  -13.5806
  -13.0437  -12.5570  -12.4391  -12.4244  -12.1109   -5.3258   -3.3382   -2.9964   -2.8330   -1.6875
   -0.5554    0.6907    2.7856    2.9149    3.8154    4.6123    4.7778    5.4685    5.6016    6.5717
    9.8681   10.6072   10.6580   12.3384   12.5254   13.3552   13.6758   13.9606   14.0146   15.0765
   15.3183   16.3540   17.7612   18.2400   20.4317   20.7152   21.0678   21.5385   23.8818   24.4585
   24.9563   25.7140   27.1612   28.0494   28.7818   29.7051   30.4360   35.5141   37.0029   38.5363
   39.4439   39.5536   41.3401   42.7132   43.7826   47.2678   47.4620   48.4803   48.9067   48.9996
   49.8775   50.7632   51.1636   51.9280   52.8213   53.7697   53.8377   55.3267   56.8682   57.3229
   57.4783   58.5562   60.5768   64.1733   69.8557   71.8486   74.1908   79.4199   88.0597  118.6924
  124.2938  138.4742  140.1495
siesta: Fermi energy =     -19.827616 eV

siesta: Program's energy decomposition (eV):
siesta: Ebs     =      -542.699853
siesta: Eions   =       439.895300
siesta: Ena     =        84.294577
siesta: Ekin    =       325.955905
siesta: Enl     =        19.420400
siesta: Eso     =         0.000000
siesta: Edftu   =         0.000000
siesta: DEna    =         0.933857
siesta: DUscf   =        10.412419
siesta: DUext   =         0.000000
siesta: Exc     =      -252.090721
siesta: eta*DQ  =         0.000000
siesta: Emadel  =         0.000000
siesta: Emeta   =         0.000000
siesta: Emolmec =       -20.088584
siesta: Ekinion =         0.000000
siesta: Eharris =      -271.057453
siesta: Etot    =      -271.057448
siesta: FreeEng =      -271.078085

siesta: Final energy (eV):
siesta:  Band Struct. =    -542.699853
siesta:       Kinetic =     325.955905
siesta:       Hartree =      98.976972
siesta:       Edftu   =       0.000000
siesta:       Eso     =       0.000000
siesta:    Ext. field =       0.000000
siesta:   Exch.-corr. =    -252.090721
siesta:  Ion-electron =    -800.689280
siesta:       Ion-ion =     376.878259
siesta:       Ekinion =       0.000000
siesta:         Total =    -271.057448
siesta:         Fermi =     -19.827616

siesta: Atomic forces (eV/Ang):
siesta:      1   -0.000000    0.000000   -0.000000
siesta:      2   -1.265718    2.192274    0.347761
siesta:      3    1.265718   -2.192274   -0.347761
siesta:      4   -1.265711   -2.192276    0.347690
siesta:      5    1.265711    2.192276   -0.347690
siesta:      6    2.531425   -0.000007    0.347761
siesta:      7   -2.531425    0.000007   -0.347761
siesta:      8    1.265718   -2.192274    0.347761
siesta:      9   -1.265718    2.192274   -0.347760
siesta:     10    1.265711    2.192276    0.347690
siesta:     11   -1.265711   -2.192276   -0.347690
siesta:     12   -2.531425    0.000007    0.347761
siesta:     13    2.531425   -0.000007   -0.347761
siesta:     14   -0.237446    0.411265    0.000000
siesta:     15    0.237446   -0.411265    0.000000
siesta:     16   -0.237460   -0.411292    0.000000
siesta:     17    0.237459    0.411291    0.000000
siesta:     18    0.474889   -0.000002   -0.000000
siesta:     19   -0.474889    0.000002    0.000000
siesta: ----------------------------------------
siesta:    Tot    0.000000    0.000000    0.000000

siesta: Stress tensor (static) (eV/Ang**3):
siesta:    -1.142984   -0.000014   -0.000000
siesta:    -0.000014   -1.143000    0.000000
siesta:    -0.000000    0.000000   -0.667285

siesta: Cell volume =         89.535704 Ang**3

siesta: Pressure (static):
siesta:                Solid            Molecule  Units
siesta:           0.01072163          0.01204816  Ry/Bohr**3
siesta:           0.98442317          1.10622112  eV/Ang**3
siesta:        1577.23685178       1772.38079208  kBar
(Free)E+ p_basis*V_orbitals  =        -214.639670
(Free)Eharris+ p_basis*V_orbitals  =        -214.639675

cite: Please see "LiC18_scf.bib" for an exhaustive BiBTeX file.
cite: Please clearly indicate Siesta version in published work: 4.1.5
cite: This calculation has made use of the following articles
cite: which are encouraged to be cited in a published work.
        Primary SIESTA paper
          DOI: www.doi.org/10.1088/0953-8984/14/11/302

>> End of run:   9-NOV-2022   1:43:50
Job completed
