Siesta Version  : 4.1.5
Architecture    : x86_64-unknown-linux-gnu--unknown
Compiler version: GNU Fortran (GCC) 11.3.0
Compiler flags  : mpif90 -g -O2 -fallow-argument-mismatch
PP flags        : -DMPI -DFC_HAVE_FLUSH -DFC_HAVE_ABORT
Libraries       :  -I/global/software/sl-7.x86_64/modules/intel/2020.4.304/mkl/include  /globall/software/sl-7.x86_64/modules/intel/2020.4.304/mkl/lib/intel64/libmkl_scalapack_lp64.a -Wl,--start-group /global/software/sl-7.x86_64/modules/intel/2020.4.304/mkl/lib/intel64/libmkl_intel_lp64.a /global/software/sl-7.x86_64/modules/intel/2020.4.304/mkl/lib/intel64/libmkl_sequential.a /global/software/sl-7.x86_64/modules/intel/2020.4.304/mkl/lib/intel64/libmkl_core.a /global/software/sl-7.x86_64/modules/intel/2020.4.304/mkl/lib/intel64/libmkl_blacs_openmpi_lp64.a -Wl,--end-group -lpthread -lm -ldl
PARALLEL version

* Running on 16 nodes in parallel
>> Start of run:   9-NOV-2022   0:49:30

                           ***********************       
                           *  WELCOME TO SIESTA  *       
                           ***********************       

reinit: Reading from standard input
reinit: Dumped input in INPUT_TMP.45473
************************** Dump of input data file ****************************
SystemName LiC18_scf
SystemLabel LiC18_scf
NumberOfAtoms   19
NumberOfSpecies 2
%block ChemicalSpeciesLabel
1  3   Li-gga
2  6   C-gga
%endblock ChemicalSpeciesLabel
PAO.BasisSize  DZP
PAO.EnergyShift  10 meV
%block PS.Lmax
C-gga   2
Li-gga  2
%endblock PS.Lmax
LatticeConstant 1.000000 Ang
%block LatticeVectors
	4.3161300000	0.0000000000	0.0000000000
	-2.1580650000	3.7378782260	0.0000000000
	0.0000000000	0.0000000000	7.1037318400
%endblock LatticeVectors
AtomicCoordinatesFormat Ang
%block AtomicCoordinatesAndAtomicSpecies
	0.00000000	0.00000000	0.00000000	2
	-0.70288177	1.21742694	1.18395767	1
	-1.45518323	2.52045129	5.91977417	1
	1.45518323	2.52045129	1.18395767	1
	0.70288177	1.21742694	5.91977417	1
	1.40576354	0.00000000	1.18395767	1
	2.91036646	0.00000000	5.91977417	1
	-1.45518323	2.52045129	1.18395767	1
	-0.70288177	1.21742694	5.91977417	1
	0.70288177	1.21742694	1.18395767	1
	1.45518323	2.52045129	5.91977417	1
	2.91036646	0.00000000	1.18395767	1
	1.40576354	0.00000000	5.91977417	1
	-0.70288177	1.21742694	3.55186592	1
	-1.45518323	2.52045129	3.55186592	1
	1.45518323	2.52045129	3.55186592	1
	0.70288177	1.21742694	3.55186592	1
	1.40576354	0.00000000	3.55186592	1
	2.91036646	0.00000000	3.55186592	1
%endblock AtomicCoordinatesAndAtomicSpecies
Kgrid_NoTRS  T
%block kgrid_MonkhorstPack
2       0       0       0.0
0       2       0       0.0
0       0       2       0.0
%endblock kgrid_MonkhorstPack
AtomCoorFormatOut Ang
BlockSize 1
#ProcessorY 12
Diag.ParallelOverK   T
Diag.DivideAndConquer F
MeshCutoff   300 Ry
SCF.FreeE.Tolerance 1E-3 eV
SCF.EDM.Tolerance   5E-3 eV
DM.Tolerance  1E-3
DM.Require.Energy.Convergence T
DM.NumberPulay 4
XC.Functional GGA
XC.Authors    PBE
UseSaveData        F
MD.TypeOfRun       CG
MD.VariableCell    F
MD.NumCGsteps      00
MD.MaxCGDispl      0.200000 Bohr
MD.MaxStressTol    1.000000 GPa
MD.MaxForceTol     0.010000 eV/Ang
WriteMDHistory T
WriteCoorStep T
WriteForces T
WriteCoorStep    T
WriteEigenValues T
WriteDM    F
MM.UnitsDistance Ang  # what this program prints out DO NOT CHANGE
MM.UnitsEnergy    eV  # what this program prints out DO NOT CHANGE
MM.Grimme.S6     0.75 # Grimme-paper for PBE (correct for your functional)
MM.Grimme.D     20.   # Grimme-paper (correct for your functional)
%block MM.Potentials
  1   1 Grimme     16.69      1.650 # Li, 10.1002/jcc.20495
  1   2 Grimme     17.40      2.277 # Li / C
  2   2 Grimme     18.14      2.904 # C, 10.1002/jcc.20495
%endblock MM.Potentials
#%block ProjectedDensityOfStates
# -200.0  120.0  0.4  12800  eV
#%endblock ProjectedDensityOfStates
************************** End of input data file *****************************

reinit: -----------------------------------------------------------------------
reinit: System Name: LiC18_scf
reinit: -----------------------------------------------------------------------
reinit: System Label: LiC18_scf
reinit: -----------------------------------------------------------------------
Reading two-body potentials
Grimme - two-body potential between 1 and 1
Grimme - two-body potential between 1 and 2
Grimme - two-body potential between 2 and 2

initatom: Reading input for the pseudopotentials and atomic orbitals ----------
Species number:   1 Atomic number:    3 Label: Li-gga
Species number:   2 Atomic number:    6 Label: C-gga

Ground state valence configuration:   2s01
Reading pseudopotential information in formatted form from Li-gga.psf

Valence configuration for pseudopotential generation:
2s( 1.00) rc: 2.28
2p( 0.00) rc: 2.28
3d( 0.00) rc: 2.59
4f( 0.00) rc: 2.59
Ground state valence configuration:   2s02  2p02
Reading pseudopotential information in formatted form from C-gga.psf

Valence configuration for pseudopotential generation:
2s( 2.00) rc: 1.56
2p( 2.00) rc: 1.56
3d( 0.00) rc: 1.56
4f( 0.00) rc: 1.56
relmxkb: Read Max KB Ang. Momentum=    2 for species C-gga
relmxkb: Read Max KB Ang. Momentum=    2 for species Li-gga

<basis_specs>
===============================================================================
Li-gga               Z=   3    Mass=  6.9400        Charge= 0.17977+309
Lmxo=0 Lmxkb= 2    BasisType=split      Semic=F
L=0  Nsemic=0  Cnfigmx=2
          i=1  nzeta=2  polorb=1  (2s)
            splnorm:   0.15000    
               vcte:    0.0000    
               rinn:    0.0000    
               qcoe:    0.0000    
               qyuk:    0.0000    
               qwid:   0.10000E-01
                rcs:    0.0000      0.0000    
            lambdas:    1.0000      1.0000    
-------------------------------------------------------------------------------
L=0  Nkbl=1  erefs: 0.17977+309
L=1  Nkbl=1  erefs: 0.17977+309
L=2  Nkbl=1  erefs: 0.17977+309
===============================================================================
</basis_specs>

atom: Called for Li-gga                (Z =   3)

read_vps: Pseudopotential generation method:
read_vps: ATM 3.2.2 Troullier-Martins                       
Valence charge for ps generation:    1.00000

read_vps: Pseudopotential includes a core correction:
read_vps: Pseudo-core for xc-correction

xc_check: Exchange-correlation functional:
xc_check: GGA Perdew, Burke & Ernzerhof 1996
V l=0 = -2*Zval/r beyond r=  2.2278
V l=1 = -2*Zval/r beyond r=  2.2278
V l=2 = -2*Zval/r beyond r=  2.5245
All V_l potentials equal beyond r=  2.4622
This should be close to max(r_c) in ps generation
All pots = -2*Zval/r beyond r=  2.5245

VLOCAL1: 99.0% of the norm of Vloc inside      7.160 Ry
VLOCAL1: 99.9% of the norm of Vloc inside     16.318 Ry
atom: Maximum radius for 4*pi*r*r*local-pseudopot. charge    2.86079
atom: Maximum radius for r*vlocal+2*Zval:    2.43160
GHOST: No ghost state for L =  0
GHOST: No ghost state for L =  1
GHOST: No ghost state for L =  2

KBgen: Kleinman-Bylander projectors: 
   l= 0   rc=  2.654023   el= -0.211234   Ekb=  1.742119   kbcos=  0.228463
   l= 1   rc=  2.721230   el= -0.080095   Ekb= -1.122375   kbcos= -0.147941
   l= 2   rc=  2.825246   el=  0.002001   Ekb= -0.207076   kbcos= -0.031965

KBgen: Total number of Kleinman-Bylander projectors:    9
atom: -------------------------------------------------------------------------

atom: SANKEY-TYPE ORBITALS:
atom: Selected multiple-zeta basis: split     

SPLIT: Orbitals with angular momentum L= 0

SPLIT: Basis orbitals for state 2s

SPLIT: PAO cut-off radius determined from an
SPLIT: energy shift=  0.000735 Ry

   izeta = 1
                 lambda =    1.000000
                     rc =   11.897381
                 energy =   -0.210580
                kinetic =    0.143382
    potential(screened) =   -0.353962
       potential(ionic) =   -0.533453

   izeta = 2
                 rmatch =    8.489163
              splitnorm =    0.150000
                 energy =   -0.186081
                kinetic =    0.225882
    potential(screened) =   -0.411964
       potential(ionic) =   -0.593024

POLgen: Perturbative polarization orbital with L=  1

POLgen: Polarization orbital for state 2s

   izeta = 1
                     rc =   11.897381
                 energy =   -0.027011
                kinetic =    0.282985
    potential(screened) =   -0.309997
       potential(ionic) =   -0.490997
atom: Total number of Sankey-type orbitals:  5

atm_pop: Valence configuration (for local Pseudopot. screening):
 2s( 1.00)                                                            
Vna: chval, zval:    1.00000   1.00000

Vna:  Cut-off radius for the neutral-atom potential:  11.897381
comcore: Pseudo-core radius Rcore=  3.450946

atom: _________________________________________________________________________

<basis_specs>
===============================================================================
C-gga                Z=   6    Mass=  12.010        Charge= 0.17977+309
Lmxo=1 Lmxkb= 2    BasisType=split      Semic=F
L=0  Nsemic=0  Cnfigmx=2
          i=1  nzeta=2  polorb=0  (2s)
            splnorm:   0.15000    
               vcte:    0.0000    
               rinn:    0.0000    
               qcoe:    0.0000    
               qyuk:    0.0000    
               qwid:   0.10000E-01
                rcs:    0.0000      0.0000    
            lambdas:    1.0000      1.0000    
L=1  Nsemic=0  Cnfigmx=2
          i=1  nzeta=2  polorb=1  (2p)
            splnorm:   0.15000    
               vcte:    0.0000    
               rinn:    0.0000    
               qcoe:    0.0000    
               qyuk:    0.0000    
               qwid:   0.10000E-01
                rcs:    0.0000      0.0000    
            lambdas:    1.0000      1.0000    
-------------------------------------------------------------------------------
L=0  Nkbl=1  erefs: 0.17977+309
L=1  Nkbl=1  erefs: 0.17977+309
L=2  Nkbl=1  erefs: 0.17977+309
===============================================================================
</basis_specs>

atom: Called for C-gga                 (Z =   6)

read_vps: Pseudopotential generation method:
read_vps: ATM 3.2.2 Troullier-Martins                       
Valence charge for ps generation:    4.00000

xc_check: Exchange-correlation functional:
xc_check: GGA Perdew, Burke & Ernzerhof 1996
V l=0 = -2*Zval/r beyond r=  1.5227
V l=1 = -2*Zval/r beyond r=  1.5227
V l=2 = -2*Zval/r beyond r=  1.5227
All V_l potentials equal beyond r=  1.4851
This should be close to max(r_c) in ps generation
All pots = -2*Zval/r beyond r=  1.5227

VLOCAL1: 99.0% of the norm of Vloc inside     19.682 Ry
VLOCAL1: 99.9% of the norm of Vloc inside     44.856 Ry
atom: Maximum radius for 4*pi*r*r*local-pseudopot. charge    1.79142
atom: Maximum radius for r*vlocal+2*Zval:    1.54183
GHOST: No ghost state for L =  0
GHOST: No ghost state for L =  1
GHOST: No ghost state for L =  2

KBgen: Kleinman-Bylander projectors: 
   l= 0   rc=  1.661951   el= -1.010689   Ekb=  5.289847   kbcos=  0.316429
   l= 1   rc=  1.661951   el= -0.388490   Ekb= -4.102504   kbcos= -0.351025
   l= 2   rc=  1.747182   el=  0.001971   Ekb= -1.006005   kbcos= -0.008530

KBgen: Total number of Kleinman-Bylander projectors:    9
atom: -------------------------------------------------------------------------

atom: SANKEY-TYPE ORBITALS:
atom: Selected multiple-zeta basis: split     

SPLIT: Orbitals with angular momentum L= 0

SPLIT: Basis orbitals for state 2s

SPLIT: PAO cut-off radius determined from an
SPLIT: energy shift=  0.000735 Ry

   izeta = 1
                 lambda =    1.000000
                     rc =    5.948690
                 energy =   -1.010099
                kinetic =    0.827121
    potential(screened) =   -1.837220
       potential(ionic) =   -5.392783

   izeta = 2
                 rmatch =    3.518811
              splitnorm =    0.150000
                 energy =   -0.877891
                kinetic =    1.289227
    potential(screened) =   -2.167118
       potential(ionic) =   -5.982073

SPLIT: Orbitals with angular momentum L= 1

SPLIT: Basis orbitals for state 2p

SPLIT: PAO cut-off radius determined from an
SPLIT: energy shift=  0.000735 Ry

   izeta = 1
                 lambda =    1.000000
                     rc =    7.638387
                 energy =   -0.387843
                kinetic =    2.314739
    potential(screened) =   -2.702582
       potential(ionic) =   -6.092371

   izeta = 2
                 rmatch =    3.840617
              splitnorm =    0.150000
                 energy =   -0.270479
                kinetic =    3.438347
    potential(screened) =   -3.708826
       potential(ionic) =   -7.497707

POLgen: Perturbative polarization orbital with L=  2

POLgen: Polarization orbital for state 2p

   izeta = 1
                     rc =    7.638387
                 energy =    0.921402
                kinetic =    1.955040
    potential(screened) =   -1.033637
       potential(ionic) =   -3.679558
atom: Total number of Sankey-type orbitals: 13

atm_pop: Valence configuration (for local Pseudopot. screening):
 2s( 2.00)                                                            
 2p( 2.00)                                                            
Vna: chval, zval:    4.00000   4.00000

Vna:  Cut-off radius for the neutral-atom potential:   7.638387

atom: _________________________________________________________________________

prinput: Basis input ----------------------------------------------------------

PAO.BasisType split     

%block ChemicalSpeciesLabel
    1    3 Li-gga                  # Species index, atomic number, species label
    2    6 C-gga                   # Species index, atomic number, species label
%endblock ChemicalSpeciesLabel

%block PAO.Basis                 # Define Basis set
Li-gga                1                    # Species label, number of l-shells
 n=2   0   2 P   1                   # n, l, Nzeta, Polarization, NzetaPol
  11.897      8.489   
   1.000      1.000   
C-gga                 2                    # Species label, number of l-shells
 n=2   0   2                         # n, l, Nzeta 
   5.949      3.519   
   1.000      1.000   
 n=2   1   2 P   1                   # n, l, Nzeta, Polarization, NzetaPol
   7.638      3.841   
   1.000      1.000   
%endblock PAO.Basis

prinput: ----------------------------------------------------------------------

coor:   Atomic-coordinates input format  =     Cartesian coordinates
coor:                                          (in Angstroms)

siesta: Atomic coordinates (Bohr) and species
siesta:      0.00000   0.00000   0.00000  2        1
siesta:     -1.32825   2.30060   2.23736  1        2
siesta:     -2.74990   4.76296  11.18676  1        3
siesta:      2.74990   4.76296   2.23736  1        4
siesta:      1.32825   2.30060  11.18676  1        5
siesta:      2.65651   0.00000   2.23736  1        6
siesta:      5.49980   0.00000  11.18676  1        7
siesta:     -2.74990   4.76296   2.23736  1        8
siesta:     -1.32825   2.30060  11.18676  1        9
siesta:      1.32825   2.30060   2.23736  1       10
siesta:      2.74990   4.76296  11.18676  1       11
siesta:      5.49980   0.00000   2.23736  1       12
siesta:      2.65651   0.00000  11.18676  1       13
siesta:     -1.32825   2.30060   6.71206  1       14
siesta:     -2.74990   4.76296   6.71206  1       15
siesta:      2.74990   4.76296   6.71206  1       16
siesta:      1.32825   2.30060   6.71206  1       17
siesta:      2.65651   0.00000   6.71206  1       18
siesta:      5.49980   0.00000   6.71206  1       19

siesta: System type = bulk      

initatomlists: Number of atoms, orbitals, and projectors:     19   103   171

siesta: ******************** Simulation parameters ****************************
siesta:
siesta: The following are some of the parameters of the simulation.
siesta: A complete list of the parameters used, including default values,
siesta: can be found in file out.fdf
siesta:
redata: Spin configuration                          = none
redata: Number of spin components                   = 1
redata: Time-Reversal Symmetry                      = T
redata: Spin spiral                                 = F
redata: Long output                                 =   F
redata: Number of Atomic Species                    =        2
redata: Charge density info will appear in .RHO file
redata: Write Mulliken Pop.                         = NO
redata: Matel table size (NRTAB)                    =     1024
redata: Mesh Cutoff                                 =   300.0000 Ry
redata: Net charge of the system                    =     0.0000 |e|
redata: Min. number of SCF Iter                     =        0
redata: Max. number of SCF Iter                     =     1000
redata: SCF convergence failure will abort job
redata: SCF mix quantity                            = Hamiltonian
redata: Mix DM or H after convergence               =   F
redata: Recompute H after scf cycle                 =   F
redata: Mix DM in first SCF step                    =   T
redata: Write Pulay info on disk                    =   F
redata: New DM Occupancy tolerance                  = 0.000000000001
redata: No kicks to SCF
redata: DM Mixing Weight for Kicks                  =     0.5000
redata: Require Harris convergence for SCF          =   F
redata: Harris energy tolerance for SCF             =     0.000100 eV
redata: Require DM convergence for SCF              =   T
redata: DM tolerance for SCF                        =     0.001000
redata: Require EDM convergence for SCF             =   F
redata: EDM tolerance for SCF                       =     0.005000 eV
redata: Require H convergence for SCF               =   T
redata: Hamiltonian tolerance for SCF               =     0.001000 eV
redata: Require (free) Energy convergence for SCF   =   T
redata: (free) Energy tolerance for SCF             =     0.001000 eV
redata: Using Saved Data (generic)                  =   F
redata: Use continuation files for DM               =   F
redata: Neglect nonoverlap interactions             =   F
redata: Method of Calculation                       = Diagonalization
redata: Electronic Temperature                      =   299.9869 K
redata: Fix the spin of the system                  =   F
redata: Dynamics option                             = Single-point calculation
mix.SCF: Pulay mixing                            = Pulay
mix.SCF:    Variant                              = stable
mix.SCF:    History steps                        = 4
mix.SCF:    Linear mixing weight                 =     0.250000
mix.SCF:    Mixing weight                        =     0.250000
mix.SCF:    SVD condition                        = 0.1000E-07
redata: ***********************************************************************

%block SCF.Mixers
  Pulay
%endblock SCF.Mixers

%block SCF.Mixer.Pulay
  # Mixing method
  method pulay
  variant stable

  # Mixing options
  weight 0.2500
  weight.linear 0.2500
  history 4
%endblock SCF.Mixer.Pulay

DM_history_depth set to one: no extrapolation allowed by default for geometry relaxation
Size of DM history Fstack: 1
Total number of electrons:    22.000000
Total ionic charge:    22.000000

* ProcessorY, Blocksize:    4   1


* Orbital distribution balance (max,min):     7     6

k-point displ. along   1 input, could be:     0.00    0.50
k-point displ. along   2 input, could be:     0.00    0.50
k-point displ. along   3 input, could be:     0.00    0.50
 Kpoints in:            8 . Kpoints trimmed:            8

siesta: k-grid: Number of k-points =     8
siesta: k-grid: Cutoff (effective) =     4.316 Ang
siesta: k-grid: Supercell and displacements
siesta: k-grid:    2   0   0      0.000
siesta: k-grid:    0   2   0      0.000
siesta: k-grid:    0   0   2      0.000

diag: Algorithm                                     = Expert
diag: Parallel over k                               =   T
diag: Use parallel 2D distribution                  =   T
diag: Parallel block-size                           = 1
diag: Parallel distribution                         =     4 x     4
diag: Used triangular part                          = Lower
diag: Absolute tolerance                            =  0.100E-15
diag: Orthogonalization factor                      =  0.100E-05
diag: Memory factor                                 =  1.0000

superc: Internal auxiliary supercell:     9 x     9 x     5  =     405
superc: Number of atoms, orbitals, and projectors:   7695  41715  69255


ts: **************************************************************
ts: Save H and S matrices                           =    F
ts: Save DM and EDM matrices                        =    F
ts: Only save the overlap matrix S                  =    F
ts: **************************************************************

************************ Begin: TS CHECKS AND WARNINGS ************************
************************ End: TS CHECKS AND WARNINGS **************************


                     ====================================
                        Single-point calculation
                     ====================================

outcoor: Atomic coordinates (Ang):                          
    0.00000000    0.00000000    0.00000000   2       1  C-gga
   -0.70288177    1.21742694    1.18395767   1       2  Li-gga
   -1.45518323    2.52045129    5.91977417   1       3  Li-gga
    1.45518323    2.52045129    1.18395767   1       4  Li-gga
    0.70288177    1.21742694    5.91977417   1       5  Li-gga
    1.40576354    0.00000000    1.18395767   1       6  Li-gga
    2.91036646    0.00000000    5.91977417   1       7  Li-gga
   -1.45518323    2.52045129    1.18395767   1       8  Li-gga
   -0.70288177    1.21742694    5.91977417   1       9  Li-gga
    0.70288177    1.21742694    1.18395767   1      10  Li-gga
    1.45518323    2.52045129    5.91977417   1      11  Li-gga
    2.91036646    0.00000000    1.18395767   1      12  Li-gga
    1.40576354    0.00000000    5.91977417   1      13  Li-gga
   -0.70288177    1.21742694    3.55186592   1      14  Li-gga
   -1.45518323    2.52045129    3.55186592   1      15  Li-gga
    1.45518323    2.52045129    3.55186592   1      16  Li-gga
    0.70288177    1.21742694    3.55186592   1      17  Li-gga
    1.40576354    0.00000000    3.55186592   1      18  Li-gga
    2.91036646    0.00000000    3.55186592   1      19  Li-gga

superc: Internal auxiliary supercell:     9 x     9 x     5  =     405
superc: Number of atoms, orbitals, and projectors:   7695  41715  69255

outcell: Unit cell vectors (Ang):
        4.316130    0.000000    0.000000
       -2.158065    3.737878    0.000000
        0.000000    0.000000    7.103732

outcell: Cell vector modules (Ang)   :    4.316130    4.316130    7.103732
outcell: Cell angles (23,13,12) (deg):     90.0000     90.0000    120.0000
outcell: Cell volume (Ang**3)        :    114.6057
<dSpData1D:S at geom step 0
  <sparsity:sparsity for geom step 0
    nrows_g=103 nrows=7 sparsity=6.1101 nnzs=64822, refcount: 7>
  <dData1D:(new from dSpData1D) n=64822, refcount: 1>
refcount: 1>
new_DM -- step:     1
Initializing Density Matrix...
DM filled with atomic data:
<dSpData2D:DM initialized from atoms
  <sparsity:sparsity for geom step 0
    nrows_g=103 nrows=7 sparsity=6.1101 nnzs=64822, refcount: 8>
  <dData2D:DM n=64822 m=1, refcount: 1>
refcount: 1>
No. of atoms with KB's overlaping orbs in proc 0. Max # of overlaps:     540    1412
New grid distribution:   1
           1       1:   20    1:    5    1:   10
           2       1:   20    1:    5   11:   20
           3       1:   20    1:    5   21:   30
           4       1:   20    1:    5   31:   40
           5       1:   20    6:   10    1:   10
           6       1:   20    6:   10   11:   20
           7       1:   20    6:   10   21:   30
           8       1:   20    6:   10   31:   40
           9       1:   20   11:   15    1:   10
          10       1:   20   11:   15   11:   20
          11       1:   20   11:   15   21:   30
          12       1:   20   11:   15   31:   40
          13       1:   20   16:   20    1:   10
          14       1:   20   16:   20   11:   20
          15       1:   20   16:   20   21:   30
          16       1:   20   16:   20   31:   40

InitMesh: MESH =    40 x    40 x    80 =      128000
InitMesh: (bp) =    20 x    20 x    40 =       16000
InitMesh: Mesh cutoff (required, used) =   300.000   316.498 Ry
ExtMesh (bp) on 0 =   156 x   141 x   154 =     3387384
New grid distribution:   2
           1       1:   10    1:   10    1:   10
           2       1:   10    1:   10   11:   20
           3       1:   10    1:   10   21:   30
           4       1:   10    1:   10   31:   40
           5      11:   20    1:   10    1:   10
           6      11:   20    1:   10   11:   20
           7      11:   20    1:   10   21:   30
           8      11:   20    1:   10   31:   40
           9       1:   10   11:   20    1:   10
          10       1:   10   11:   20   11:   20
          11       1:   10   11:   20   21:   30
          12       1:   10   11:   20   31:   40
          13      11:   20   11:   20    1:   10
          14      11:   20   11:   20   11:   20
          15      11:   20   11:   20   21:   30
          16      11:   20   11:   20   31:   40
New grid distribution:   3
           1       1:   10    1:   10    1:   10
           2       1:   10    1:   10   11:   20
           3       1:   10    1:   10   21:   30
           4       1:   10    1:   10   31:   40
           5      11:   20    1:   10    1:   10
           6      11:   20    1:   10   11:   20
           7      11:   20    1:   10   21:   30
           8      11:   20    1:   10   31:   40
           9       1:   10   11:   20    1:   10
          10       1:   10   11:   20   11:   20
          11       1:   10   11:   20   21:   30
          12       1:   10   11:   20   31:   40
          13      11:   20   11:   20    1:   10
          14      11:   20   11:   20   11:   20
          15      11:   20   11:   20   21:   30
          16      11:   20   11:   20   31:   40
Setting up quadratic distribution...
ExtMesh (bp) on 0 =   146 x   146 x   154 =     3282664
PhiOnMesh: Number of (b)points on node 0 =                 1000
PhiOnMesh: nlist on node 0 =               770642

stepf: Fermi-Dirac step function

siesta: Program's energy decomposition (eV):
siesta: Ebs     =      -346.335924
siesta: Eions   =       439.895300
siesta: Ena     =        99.804725
siesta: Ekin    =       336.366174
siesta: Enl     =        -4.354728
siesta: Eso     =         0.000000
siesta: Edftu   =         0.000000
siesta: DEna    =       -26.287816
siesta: DUscf   =        31.856174
siesta: DUext   =         0.000000
siesta: Exc     =      -246.268901
siesta: eta*DQ  =         0.000000
siesta: Emadel  =         0.000000
siesta: Emeta   =         0.000000
siesta: Emolmec =       -11.851066
siesta: Ekinion =         0.000000
siesta: Eharris =      -210.760670
siesta: Etot    =      -260.630738
siesta: FreeEng =      -260.631312

        iscf     Eharris(eV)        E_KS(eV)     FreeEng(eV)     dDmax    Ef(eV) dHmax(eV)
   scf:    1     -210.760670     -260.630738     -260.631312 11.357451-15.832920 23.154626
timer: Routine,Calls,Time,% = IterSCF        1      21.454  60.92
   scf:    2     -283.948364     -276.501056     -276.514585  3.838965-15.128794  4.153467
   scf:    3     -277.288122     -277.198570     -277.215253  0.733799-15.050755  0.885699
   scf:    4     -275.472842     -276.816830     -276.829172  0.923643-15.238762  3.503092
   scf:    5     -277.506406     -277.359798     -277.379718  0.781817-14.935762  0.277133
   scf:    6     -277.279858     -277.343227     -277.360573  0.430316-14.956444  0.711538
   scf:    7     -277.262050     -277.345665     -277.365152  0.290095-14.933948  0.610434
   scf:    8     -277.315298     -277.358885     -277.377141  0.311169-14.940787  0.429051
   scf:    9     -277.370720     -277.367276     -277.386729  0.071127-14.932906  0.110282
   scf:   10     -277.328200     -277.356052     -277.375872  0.140330-14.929640  0.440498
   scf:   11     -277.364361     -277.367560     -277.387111  0.129344-14.931775  0.078156
   scf:   12     -277.367494     -277.367726     -277.387467  0.021019-14.930822  0.008229
   scf:   13     -277.367721     -277.367724     -277.387467  0.002716-14.930910  0.009170
   scf:   14     -277.367769     -277.367750     -277.387471  0.003374-14.931134  0.002052
   scf:   15     -277.367740     -277.367745     -277.387472  0.000616-14.931104  0.000474

SCF Convergence by FreeE+DM+H criterion
|FreeE_i-FreeE_(i-1)| (eV) <     0.00100000
max |DM_out - DM_in|         :     0.0006159054
max |H_out - H_in|      (eV) :     0.0004740381
SCF cycle converged after 15 iterations

Using DM_out to compute the final energy and forces
No. of atoms with KB's overlaping orbs in proc 0. Max # of overlaps:     540    1412

MM-Stress (kbar):       34.67       34.67      270.81        0.00        0.00       -0.00

siesta: E_KS(eV) =             -277.3677

siesta: E_KS - E_eggbox =      -277.3677

siesta: Atomic forces (eV/Ang):
     1    0.000000   -0.000000    0.000000
     2   -0.695957    1.205460    0.349157
     3    0.695957   -1.205460   -0.349157
     4   -0.695979   -1.205471    0.349092
     5    0.695979    1.205471   -0.349092
     6    1.391937    0.000013    0.349158
     7   -1.391938   -0.000013   -0.349158
     8    0.695957   -1.205460    0.349157
     9   -0.695957    1.205460   -0.349157
    10    0.695979    1.205471    0.349092
    11   -0.695979   -1.205471   -0.349092
    12   -1.391938   -0.000013    0.349158
    13    1.391937    0.000013   -0.349158
    14   -0.199663    0.345837    0.000000
    15    0.199663   -0.345837   -0.000000
    16   -0.199697   -0.345886    0.000000
    17    0.199697    0.345886   -0.000000
    18    0.399335    0.000006    0.000000
    19   -0.399335   -0.000006   -0.000000
----------------------------------------
   Tot   -0.000000    0.000000    0.000000
----------------------------------------
   Max    1.391938
   Res    0.671079    sqrt( Sum f_i^2 / 3N )
----------------------------------------
   Max    1.391938    constrained

Stress tensor Voigt[x,y,z,yz,xz,xy] (kbar):    -1440.70    -1440.71      161.56        0.00       -0.00       -0.02
(Free)E + p*V (eV/cell)     -212.5366
Target enthalpy (eV/cell)     -277.3875

siesta: Eigenvalues (eV):
  ik is       eps
   1  1  -27.3380  -22.3248  -22.3052  -20.3333  -20.1686  -18.6633  -18.5328  -18.5326  -17.8292  -16.0280
         -15.9292  -13.7849  -13.0086  -13.0086  -12.6070  -12.6070  -12.3733  -12.3733  -12.2550  -12.2550
  -11.8943  -11.7540  -11.7540   -6.1525   -5.2684   -0.7059   -0.7055   -0.3234   -0.3234   -0.1849
   -0.1848    0.2420    0.3609    0.3610    1.7908    1.7910    3.0806    3.0806   11.5269   12.7666
   12.9889   12.9890   15.4766   15.4766   15.5548   16.4710   16.4711   18.9459   20.2036   20.2512
   20.6582   20.6965   20.6965   20.8511   20.8512   21.3408   21.3409   25.2551   28.7582   28.7584
   30.3610   30.3611   30.4823   30.4823   31.2305   31.2306   33.0620   34.8089   34.8089   37.4512
   38.2212   38.5361   38.5373   38.5965   40.6496   42.2545   42.2547   42.3377   42.4107   42.4107
   43.1413   43.1474   43.2912   43.3355   51.9807   51.9820   56.9438   56.9439   57.5771   57.8628
   95.4610   95.4614   97.8163   97.8168  160.7222  160.7223  160.8025  160.8026  170.1804  170.1805
  176.2460  176.2462  184.8806
   2  1  -27.1367  -21.1527  -21.0240  -20.8935  -20.7912  -20.1376  -19.6419  -19.2703  -18.9412  -17.4957
         -15.7483  -15.2963  -14.8910  -14.6029  -12.4682  -12.1667  -11.4285   -9.8676   -9.3915   -9.0134
   -8.8547   -6.9504   -6.9449   -6.2575   -4.9729   -4.8816   -4.4954   -4.4646   -4.0644   -3.2874
   -3.1173   -2.4054   -2.2109   -2.0339   -1.6664   -1.4354    2.5365    2.5623    4.1360    4.9096
    7.8966    8.2749    8.4999   10.1012   10.4165   11.5144   12.8821   13.6587   14.3389   14.8153
   15.8594   16.5546   19.0085   19.6650   20.9011   21.1617   21.1934   21.4032   21.6191   21.9655
   21.9980   22.9198   23.1075   23.4174   24.1117   26.7399   26.9026   27.0150   29.2530   30.8459
   36.0810   37.5390   38.3578   38.6710   39.4280   40.6714   40.7818   42.4018   45.2908   45.9108
   46.7912   47.6883   48.5757   50.3857   51.1219   52.7099   53.2624   53.3032   54.4287   56.3091
   56.5589   60.5705   61.4429   62.0161   62.0344   62.2830   64.9643   66.0797   70.2208   70.7229
   74.8081   79.5052   89.7714
   3  1  -27.1367  -21.1527  -21.0240  -20.8935  -20.7912  -20.1376  -19.6419  -19.2703  -18.9412  -17.4957
         -15.7483  -15.2963  -14.8910  -14.6029  -12.4682  -12.1667  -11.4285   -9.8676   -9.3915   -9.0134
   -8.8547   -6.9504   -6.9449   -6.2575   -4.9729   -4.8816   -4.4954   -4.4646   -4.0644   -3.2874
   -3.1173   -2.4054   -2.2109   -2.0339   -1.6664   -1.4354    2.5365    2.5623    4.1360    4.9096
    7.8966    8.2749    8.4999   10.1012   10.4165   11.5144   12.8821   13.6587   14.3389   14.8152
   15.8594   16.5546   19.0085   19.6650   20.9011   21.1617   21.1934   21.4032   21.6191   21.9655
   21.9980   22.9198   23.1075   23.4174   24.1117   26.7399   26.9026   27.0150   29.2530   30.8459
   36.0810   37.5389   38.3578   38.6711   39.4280   40.6714   40.7818   42.4018   45.2908   45.9108
   46.7912   47.6883   48.5757   50.3857   51.1219   52.7099   53.2624   53.3032   54.4287   56.3091
   56.5590   60.5705   61.4429   62.0159   62.0344   62.2830   64.9644   66.0797   70.2208   70.7229
   74.8081   79.5053   89.7714
   4  1  -27.1367  -21.1526  -21.0240  -20.8935  -20.7912  -20.1377  -19.6419  -19.2703  -18.9413  -17.4956
         -15.7483  -15.2962  -14.8910  -14.6029  -12.4682  -12.1667  -11.4285   -9.8676   -9.3915   -9.0134
   -8.8547   -6.9503   -6.9449   -6.2575   -4.9729   -4.8816   -4.4954   -4.4646   -4.0644   -3.2874
   -3.1173   -2.4054   -2.2109   -2.0339   -1.6664   -1.4354    2.5366    2.5620    4.1360    4.9100
    7.8966    8.2749    8.4998   10.1013   10.4165   11.5144   12.8823   13.6589   14.3390   14.8153
   15.8594   16.5546   19.0087   19.6648   20.9012   21.1617   21.1934   21.4031   21.6190   21.9654
   21.9979   22.9199   23.1075   23.4175   24.1116   26.7402   26.9023   27.0151   29.2530   30.8461
   36.0809   37.5388   38.3579   38.6708   39.4280   40.6713   40.7818   42.4017   45.2907   45.9107
   46.7913   47.6884   48.5758   50.3857   51.1219   52.7099   53.2625   53.3031   54.4288   56.3091
   56.5582   60.5705   61.4427   62.0162   62.0344   62.2830   64.9642   66.0796   70.2208   70.7229
   74.8073   79.5050   89.7715
   5  1  -27.4173  -22.5641  -22.4058  -20.7701  -20.0268  -18.5419  -18.5417  -18.1694  -17.7776  -17.6711
         -13.9898  -13.4879  -12.8951  -12.8951  -12.5534  -12.5534  -12.4858  -12.4858  -12.3030  -12.3030
  -11.4033  -11.4033   -9.9274   -9.7327   -8.6630   -3.9182   -3.9181   -3.0655   -3.0655   -0.3191
    0.0702    0.0708    6.4438    6.8817    6.8818    8.0218    8.0218    8.3352    8.3352   11.7940
   11.7940   11.9120   11.9121   11.9809   11.9809   16.7216   17.9242   18.9060   19.3768   20.3587
   20.5039   20.5040   21.2827   23.1348   23.1349   23.2980   23.8296   23.9415   23.9416   24.2402
   24.3799   24.3804   28.7361   28.7362   29.3775   29.3776   30.4475   30.4476   33.1112   35.2966
   35.2969   37.5470   37.5481   41.0049   41.1550   41.4679   41.4680   42.1934   42.6589   43.2070
   43.4662   43.4673   44.1728   52.4161   52.4162   67.3475   69.0070   69.0070   71.9361   71.9362
   76.1806   76.1809   79.7358   80.1124   80.4532   80.4532   81.1400   81.1400   88.1987   88.1988
   99.2671   99.2673  138.7611
   6  1  -27.1292  -21.2592  -21.0959  -20.8097  -20.2712  -20.2709  -19.9433  -18.9686  -18.9437  -18.2307
         -14.8684  -14.8670  -14.4294  -13.9552  -13.5459  -13.5081  -11.3245  -10.3792  -10.1772   -9.4383
   -7.1847   -6.7378   -6.6402   -6.6253   -6.2435   -5.0664   -4.0560   -3.7447   -3.2015   -2.8793
   -1.1223   -0.6573    0.6055    0.6675    1.3634    1.5181    1.6036    2.3975    2.5915    3.0202
    3.2055    4.4058    5.0077    7.3225    7.4024   13.4703   14.5862   15.2370   18.6107   19.0552
   19.2452   19.3797   19.6597   20.9006   21.3421   21.9274   21.9301   23.3622   24.2755   24.8914
   25.5224   25.8809   27.8798   28.3120   30.7047   32.7815   33.4166   35.8292   35.9283   36.2623
   36.4152   38.6732   39.9479   40.0067   42.8670   45.4436   45.8190   46.1973   46.4914   48.0842
   48.8600   49.3345   50.0279   51.9043   52.0742   54.6654   55.0546   56.8334   57.8601   59.7222
   59.8091   65.9444   77.6725   88.8918  104.3345  107.3129  114.0929  115.1783  124.7543  126.0465
  127.3556  159.3782  177.0775
   7  1  -27.1292  -21.2592  -21.0959  -20.8097  -20.2712  -20.2709  -19.9433  -18.9686  -18.9437  -18.2307
         -14.8684  -14.8670  -14.4294  -13.9552  -13.5459  -13.5081  -11.3245  -10.3792  -10.1772   -9.4383
   -7.1847   -6.7378   -6.6402   -6.6253   -6.2435   -5.0664   -4.0560   -3.7447   -3.2015   -2.8793
   -1.1223   -0.6573    0.6055    0.6675    1.3634    1.5181    1.6036    2.3975    2.5915    3.0202
    3.2055    4.4058    5.0077    7.3225    7.4024   13.4703   14.5862   15.2370   18.6107   19.0552
   19.2452   19.3797   19.6597   20.9006   21.3421   21.9274   21.9301   23.3622   24.2755   24.8912
   25.5224   25.8809   27.8798   28.3120   30.7047   32.7815   33.4166   35.8292   35.9283   36.2623
   36.4152   38.6732   39.9478   40.0067   42.8670   45.4436   45.8190   46.1973   46.4913   48.0842
   48.8600   49.3345   50.0281   51.9042   52.0742   54.6654   55.0548   56.8334   57.8601   59.7222
   59.8091   65.9444   77.6725   88.8918  104.3345  107.3129  114.0929  115.1783  124.7543  126.0466
  127.3556  159.3782  177.0775
   8  1  -27.1292  -21.2592  -21.0959  -20.8097  -20.2712  -20.2709  -19.9433  -18.9686  -18.9438  -18.2307
         -14.8684  -14.8669  -14.4294  -13.9552  -13.5459  -13.5081  -11.3245  -10.3792  -10.1771   -9.4383
   -7.1847   -6.7378   -6.6402   -6.6253   -6.2435   -5.0664   -4.0560   -3.7447   -3.2015   -2.8793
   -1.1223   -0.6575    0.6055    0.6675    1.3634    1.5181    1.6036    2.3975    2.5914    3.0206
    3.2055    4.4058    5.0077    7.3225    7.4022   13.4707   14.5863   15.2371   18.6105   19.0555
   19.2452   19.3796   19.6597   20.9006   21.3422   21.9274   21.9304   23.3621   24.2754   24.8914
   25.5218   25.8810   27.8799   28.3119   30.7048   32.7813   33.4165   35.8292   35.9283   36.2623
   36.4153   38.6731   39.9479   40.0067   42.8670   45.4437   45.8190   46.1973   46.4913   48.0841
   48.8601   49.3346   50.0278   51.9039   52.0744   54.6655   55.0540   56.8335   57.8601   59.7222
   59.8092   65.9443   77.6724   88.8918  104.3346  107.3131  114.0928  115.1781  124.7542  126.0466
  127.3556  159.3781  177.0775
siesta: Fermi energy =     -14.931104 eV

siesta: Program's energy decomposition (eV):
siesta: Ebs     =      -442.524995
siesta: Eions   =       439.895300
siesta: Ena     =        99.804725
siesta: Ekin    =       279.433274
siesta: Enl     =        13.547900
siesta: Eso     =         0.000000
siesta: Edftu   =         0.000000
siesta: DEna    =         9.678234
siesta: DUscf   =         6.721132
siesta: DUext   =         0.000000
siesta: Exc     =      -234.806645
siesta: eta*DQ  =         0.000000
siesta: Emadel  =         0.000000
siesta: Emeta   =         0.000000
siesta: Emolmec =       -11.851066
siesta: Ekinion =         0.000000
siesta: Eharris =      -277.367740
siesta: Etot    =      -277.367745
siesta: FreeEng =      -277.387472

siesta: Final energy (eV):
siesta:  Band Struct. =    -442.524995
siesta:       Kinetic =     279.433274
siesta:       Hartree =      98.383225
siesta:       Edftu   =       0.000000
siesta:       Eso     =       0.000000
siesta:    Ext. field =       0.000000
siesta:   Exch.-corr. =    -234.806645
siesta:  Ion-electron =    -673.281986
siesta:       Ion-ion =     264.755452
siesta:       Ekinion =       0.000000
siesta:         Total =    -277.367745
siesta:         Fermi =     -14.931104

siesta: Atomic forces (eV/Ang):
siesta:      1    0.000000   -0.000000    0.000000
siesta:      2   -0.695957    1.205460    0.349157
siesta:      3    0.695957   -1.205460   -0.349157
siesta:      4   -0.695979   -1.205471    0.349092
siesta:      5    0.695979    1.205471   -0.349092
siesta:      6    1.391937    0.000013    0.349158
siesta:      7   -1.391938   -0.000013   -0.349158
siesta:      8    0.695957   -1.205460    0.349157
siesta:      9   -0.695957    1.205460   -0.349157
siesta:     10    0.695979    1.205471    0.349092
siesta:     11   -0.695979   -1.205471   -0.349092
siesta:     12   -1.391938   -0.000013    0.349158
siesta:     13    1.391937    0.000013   -0.349158
siesta:     14   -0.199663    0.345837    0.000000
siesta:     15    0.199663   -0.345837   -0.000000
siesta:     16   -0.199697   -0.345886    0.000000
siesta:     17    0.199697    0.345886   -0.000000
siesta:     18    0.399335    0.000006    0.000000
siesta:     19   -0.399335   -0.000006   -0.000000
siesta: ----------------------------------------
siesta:    Tot   -0.000000    0.000000    0.000000

siesta: Stress tensor (static) (eV/Ang**3):
siesta:    -0.899202   -0.000010   -0.000000
siesta:    -0.000010   -0.899214    0.000000
siesta:    -0.000000    0.000000    0.100834

siesta: Cell volume =        114.605702 Ang**3

siesta: Pressure (static):
siesta:                Solid            Molecule  Units
siesta:           0.00616294          0.00693237  Ry/Bohr**3
siesta:           0.56586054          0.63650625  eV/Ang**3
siesta:         906.61833960       1019.80647086  kBar
(Free)E+ p_basis*V_orbitals  =        -220.949056
(Free)Eharris+ p_basis*V_orbitals  =        -220.949051

cite: Please see "LiC18_scf.bib" for an exhaustive BiBTeX file.
cite: Please clearly indicate Siesta version in published work: 4.1.5
cite: This calculation has made use of the following articles
cite: which are encouraged to be cited in a published work.
        Primary SIESTA paper
          DOI: www.doi.org/10.1088/0953-8984/14/11/302

>> End of run:   9-NOV-2022   0:54:05
Job completed
