Siesta Version  : 4.1.5
Architecture    : x86_64-unknown-linux-gnu--unknown
Compiler version: GNU Fortran (GCC) 11.3.0
Compiler flags  : mpif90 -g -O2 -fallow-argument-mismatch
PP flags        : -DMPI -DFC_HAVE_FLUSH -DFC_HAVE_ABORT
Libraries       :  -I/global/software/sl-7.x86_64/modules/intel/2020.4.304/mkl/include  /globall/software/sl-7.x86_64/modules/intel/2020.4.304/mkl/lib/intel64/libmkl_scalapack_lp64.a -Wl,--start-group /global/software/sl-7.x86_64/modules/intel/2020.4.304/mkl/lib/intel64/libmkl_intel_lp64.a /global/software/sl-7.x86_64/modules/intel/2020.4.304/mkl/lib/intel64/libmkl_sequential.a /global/software/sl-7.x86_64/modules/intel/2020.4.304/mkl/lib/intel64/libmkl_core.a /global/software/sl-7.x86_64/modules/intel/2020.4.304/mkl/lib/intel64/libmkl_blacs_openmpi_lp64.a -Wl,--end-group -lpthread -lm -ldl
PARALLEL version

* Running on 16 nodes in parallel
>> Start of run:   9-NOV-2022   2:16:07

                           ***********************       
                           *  WELCOME TO SIESTA  *       
                           ***********************       

reinit: Reading from standard input
reinit: Dumped input in INPUT_TMP.42720
************************** Dump of input data file ****************************
SystemName LiC18_scf
SystemLabel LiC18_scf
NumberOfAtoms   19
NumberOfSpecies 2
%block ChemicalSpeciesLabel
1  3   Li-gga
2  6   C-gga
%endblock ChemicalSpeciesLabel
PAO.BasisSize  DZP
PAO.EnergyShift  10 meV
%block PS.Lmax
C-gga   2
Li-gga  2
%endblock PS.Lmax
LatticeConstant 1.000000 Ang
%block LatticeVectors
	4.3161300000	0.0000000000	0.0000000000
	-2.1580650000	3.7378782260	0.0000000000
	0.0000000000	0.0000000000	13.3194972000
%endblock LatticeVectors
AtomicCoordinatesFormat Ang
%block AtomicCoordinatesAndAtomicSpecies
	0.00000000	0.00000000	0.00000000	2
	-0.70288177	1.21742694	2.21992064	1
	-1.45518323	2.52045129	11.09957656	1
	1.45518323	2.52045129	2.21992064	1
	0.70288177	1.21742694	11.09957656	1
	1.40576354	0.00000000	2.21992064	1
	2.91036646	0.00000000	11.09957656	1
	-1.45518323	2.52045129	2.21992064	1
	-0.70288177	1.21742694	11.09957656	1
	0.70288177	1.21742694	2.21992064	1
	1.45518323	2.52045129	11.09957656	1
	2.91036646	0.00000000	2.21992064	1
	1.40576354	0.00000000	11.09957656	1
	-0.70288177	1.21742694	6.65974860	1
	-1.45518323	2.52045129	6.65974860	1
	1.45518323	2.52045129	6.65974860	1
	0.70288177	1.21742694	6.65974860	1
	1.40576354	0.00000000	6.65974860	1
	2.91036646	0.00000000	6.65974860	1
%endblock AtomicCoordinatesAndAtomicSpecies
Kgrid_NoTRS  T
%block kgrid_MonkhorstPack
2       0       0       0.0
0       2       0       0.0
0       0       2       0.0
%endblock kgrid_MonkhorstPack
AtomCoorFormatOut Ang
BlockSize 1
#ProcessorY 12
Diag.ParallelOverK   T
Diag.DivideAndConquer F
MeshCutoff   300 Ry
SCF.FreeE.Tolerance 1E-3 eV
SCF.EDM.Tolerance   5E-3 eV
DM.Tolerance  1E-3
DM.Require.Energy.Convergence T
DM.NumberPulay 4
XC.Functional GGA
XC.Authors    PBE
UseSaveData        F
MD.TypeOfRun       CG
MD.VariableCell    F
MD.NumCGsteps      00
MD.MaxCGDispl      0.200000 Bohr
MD.MaxStressTol    1.000000 GPa
MD.MaxForceTol     0.010000 eV/Ang
WriteMDHistory T
WriteCoorStep T
WriteForces T
WriteCoorStep    T
WriteEigenValues T
WriteDM    F
MM.UnitsDistance Ang  # what this program prints out DO NOT CHANGE
MM.UnitsEnergy    eV  # what this program prints out DO NOT CHANGE
MM.Grimme.S6     0.75 # Grimme-paper for PBE (correct for your functional)
MM.Grimme.D     20.   # Grimme-paper (correct for your functional)
%block MM.Potentials
  1   1 Grimme     16.69      1.650 # Li, 10.1002/jcc.20495
  1   2 Grimme     17.40      2.277 # Li / C
  2   2 Grimme     18.14      2.904 # C, 10.1002/jcc.20495
%endblock MM.Potentials
#%block ProjectedDensityOfStates
# -200.0  120.0  0.4  12800  eV
#%endblock ProjectedDensityOfStates
************************** End of input data file *****************************

reinit: -----------------------------------------------------------------------
reinit: System Name: LiC18_scf
reinit: -----------------------------------------------------------------------
reinit: System Label: LiC18_scf
reinit: -----------------------------------------------------------------------
Reading two-body potentials
Grimme - two-body potential between 1 and 1
Grimme - two-body potential between 1 and 2
Grimme - two-body potential between 2 and 2

initatom: Reading input for the pseudopotentials and atomic orbitals ----------
Species number:   1 Atomic number:    3 Label: Li-gga
Species number:   2 Atomic number:    6 Label: C-gga

Ground state valence configuration:   2s01
Reading pseudopotential information in formatted form from Li-gga.psf

Valence configuration for pseudopotential generation:
2s( 1.00) rc: 2.28
2p( 0.00) rc: 2.28
3d( 0.00) rc: 2.59
4f( 0.00) rc: 2.59
Ground state valence configuration:   2s02  2p02
Reading pseudopotential information in formatted form from C-gga.psf

Valence configuration for pseudopotential generation:
2s( 2.00) rc: 1.56
2p( 2.00) rc: 1.56
3d( 0.00) rc: 1.56
4f( 0.00) rc: 1.56
relmxkb: Read Max KB Ang. Momentum=    2 for species C-gga
relmxkb: Read Max KB Ang. Momentum=    2 for species Li-gga

<basis_specs>
===============================================================================
Li-gga               Z=   3    Mass=  6.9400        Charge= 0.17977+309
Lmxo=0 Lmxkb= 2    BasisType=split      Semic=F
L=0  Nsemic=0  Cnfigmx=2
          i=1  nzeta=2  polorb=1  (2s)
            splnorm:   0.15000    
               vcte:    0.0000    
               rinn:    0.0000    
               qcoe:    0.0000    
               qyuk:    0.0000    
               qwid:   0.10000E-01
                rcs:    0.0000      0.0000    
            lambdas:    1.0000      1.0000    
-------------------------------------------------------------------------------
L=0  Nkbl=1  erefs: 0.17977+309
L=1  Nkbl=1  erefs: 0.17977+309
L=2  Nkbl=1  erefs: 0.17977+309
===============================================================================
</basis_specs>

atom: Called for Li-gga                (Z =   3)

read_vps: Pseudopotential generation method:
read_vps: ATM 3.2.2 Troullier-Martins                       
Valence charge for ps generation:    1.00000

read_vps: Pseudopotential includes a core correction:
read_vps: Pseudo-core for xc-correction

xc_check: Exchange-correlation functional:
xc_check: GGA Perdew, Burke & Ernzerhof 1996
V l=0 = -2*Zval/r beyond r=  2.2278
V l=1 = -2*Zval/r beyond r=  2.2278
V l=2 = -2*Zval/r beyond r=  2.5245
All V_l potentials equal beyond r=  2.4622
This should be close to max(r_c) in ps generation
All pots = -2*Zval/r beyond r=  2.5245

VLOCAL1: 99.0% of the norm of Vloc inside      7.160 Ry
VLOCAL1: 99.9% of the norm of Vloc inside     16.318 Ry
atom: Maximum radius for 4*pi*r*r*local-pseudopot. charge    2.86079
atom: Maximum radius for r*vlocal+2*Zval:    2.43160
GHOST: No ghost state for L =  0
GHOST: No ghost state for L =  1
GHOST: No ghost state for L =  2

KBgen: Kleinman-Bylander projectors: 
   l= 0   rc=  2.654023   el= -0.211234   Ekb=  1.742119   kbcos=  0.228463
   l= 1   rc=  2.721230   el= -0.080095   Ekb= -1.122375   kbcos= -0.147941
   l= 2   rc=  2.825246   el=  0.002001   Ekb= -0.207076   kbcos= -0.031965

KBgen: Total number of Kleinman-Bylander projectors:    9
atom: -------------------------------------------------------------------------

atom: SANKEY-TYPE ORBITALS:
atom: Selected multiple-zeta basis: split     

SPLIT: Orbitals with angular momentum L= 0

SPLIT: Basis orbitals for state 2s

SPLIT: PAO cut-off radius determined from an
SPLIT: energy shift=  0.000735 Ry

   izeta = 1
                 lambda =    1.000000
                     rc =   11.897381
                 energy =   -0.210580
                kinetic =    0.143382
    potential(screened) =   -0.353962
       potential(ionic) =   -0.533453

   izeta = 2
                 rmatch =    8.489163
              splitnorm =    0.150000
                 energy =   -0.186081
                kinetic =    0.225882
    potential(screened) =   -0.411964
       potential(ionic) =   -0.593024

POLgen: Perturbative polarization orbital with L=  1

POLgen: Polarization orbital for state 2s

   izeta = 1
                     rc =   11.897381
                 energy =   -0.027011
                kinetic =    0.282985
    potential(screened) =   -0.309997
       potential(ionic) =   -0.490997
atom: Total number of Sankey-type orbitals:  5

atm_pop: Valence configuration (for local Pseudopot. screening):
 2s( 1.00)                                                            
Vna: chval, zval:    1.00000   1.00000

Vna:  Cut-off radius for the neutral-atom potential:  11.897381
comcore: Pseudo-core radius Rcore=  3.450946

atom: _________________________________________________________________________

<basis_specs>
===============================================================================
C-gga                Z=   6    Mass=  12.010        Charge= 0.17977+309
Lmxo=1 Lmxkb= 2    BasisType=split      Semic=F
L=0  Nsemic=0  Cnfigmx=2
          i=1  nzeta=2  polorb=0  (2s)
            splnorm:   0.15000    
               vcte:    0.0000    
               rinn:    0.0000    
               qcoe:    0.0000    
               qyuk:    0.0000    
               qwid:   0.10000E-01
                rcs:    0.0000      0.0000    
            lambdas:    1.0000      1.0000    
L=1  Nsemic=0  Cnfigmx=2
          i=1  nzeta=2  polorb=1  (2p)
            splnorm:   0.15000    
               vcte:    0.0000    
               rinn:    0.0000    
               qcoe:    0.0000    
               qyuk:    0.0000    
               qwid:   0.10000E-01
                rcs:    0.0000      0.0000    
            lambdas:    1.0000      1.0000    
-------------------------------------------------------------------------------
L=0  Nkbl=1  erefs: 0.17977+309
L=1  Nkbl=1  erefs: 0.17977+309
L=2  Nkbl=1  erefs: 0.17977+309
===============================================================================
</basis_specs>

atom: Called for C-gga                 (Z =   6)

read_vps: Pseudopotential generation method:
read_vps: ATM 3.2.2 Troullier-Martins                       
Valence charge for ps generation:    4.00000

xc_check: Exchange-correlation functional:
xc_check: GGA Perdew, Burke & Ernzerhof 1996
V l=0 = -2*Zval/r beyond r=  1.5227
V l=1 = -2*Zval/r beyond r=  1.5227
V l=2 = -2*Zval/r beyond r=  1.5227
All V_l potentials equal beyond r=  1.4851
This should be close to max(r_c) in ps generation
All pots = -2*Zval/r beyond r=  1.5227

VLOCAL1: 99.0% of the norm of Vloc inside     19.682 Ry
VLOCAL1: 99.9% of the norm of Vloc inside     44.856 Ry
atom: Maximum radius for 4*pi*r*r*local-pseudopot. charge    1.79142
atom: Maximum radius for r*vlocal+2*Zval:    1.54183
GHOST: No ghost state for L =  0
GHOST: No ghost state for L =  1
GHOST: No ghost state for L =  2

KBgen: Kleinman-Bylander projectors: 
   l= 0   rc=  1.661951   el= -1.010689   Ekb=  5.289847   kbcos=  0.316429
   l= 1   rc=  1.661951   el= -0.388490   Ekb= -4.102504   kbcos= -0.351025
   l= 2   rc=  1.747182   el=  0.001971   Ekb= -1.006005   kbcos= -0.008530

KBgen: Total number of Kleinman-Bylander projectors:    9
atom: -------------------------------------------------------------------------

atom: SANKEY-TYPE ORBITALS:
atom: Selected multiple-zeta basis: split     

SPLIT: Orbitals with angular momentum L= 0

SPLIT: Basis orbitals for state 2s

SPLIT: PAO cut-off radius determined from an
SPLIT: energy shift=  0.000735 Ry

   izeta = 1
                 lambda =    1.000000
                     rc =    5.948690
                 energy =   -1.010099
                kinetic =    0.827121
    potential(screened) =   -1.837220
       potential(ionic) =   -5.392783

   izeta = 2
                 rmatch =    3.518811
              splitnorm =    0.150000
                 energy =   -0.877891
                kinetic =    1.289227
    potential(screened) =   -2.167118
       potential(ionic) =   -5.982073

SPLIT: Orbitals with angular momentum L= 1

SPLIT: Basis orbitals for state 2p

SPLIT: PAO cut-off radius determined from an
SPLIT: energy shift=  0.000735 Ry

   izeta = 1
                 lambda =    1.000000
                     rc =    7.638387
                 energy =   -0.387843
                kinetic =    2.314739
    potential(screened) =   -2.702582
       potential(ionic) =   -6.092371

   izeta = 2
                 rmatch =    3.840617
              splitnorm =    0.150000
                 energy =   -0.270479
                kinetic =    3.438347
    potential(screened) =   -3.708826
       potential(ionic) =   -7.497707

POLgen: Perturbative polarization orbital with L=  2

POLgen: Polarization orbital for state 2p

   izeta = 1
                     rc =    7.638387
                 energy =    0.921402
                kinetic =    1.955040
    potential(screened) =   -1.033637
       potential(ionic) =   -3.679558
atom: Total number of Sankey-type orbitals: 13

atm_pop: Valence configuration (for local Pseudopot. screening):
 2s( 2.00)                                                            
 2p( 2.00)                                                            
Vna: chval, zval:    4.00000   4.00000

Vna:  Cut-off radius for the neutral-atom potential:   7.638387

atom: _________________________________________________________________________

prinput: Basis input ----------------------------------------------------------

PAO.BasisType split     

%block ChemicalSpeciesLabel
    1    3 Li-gga                  # Species index, atomic number, species label
    2    6 C-gga                   # Species index, atomic number, species label
%endblock ChemicalSpeciesLabel

%block PAO.Basis                 # Define Basis set
Li-gga                1                    # Species label, number of l-shells
 n=2   0   2 P   1                   # n, l, Nzeta, Polarization, NzetaPol
  11.897      8.489   
   1.000      1.000   
C-gga                 2                    # Species label, number of l-shells
 n=2   0   2                         # n, l, Nzeta 
   5.949      3.519   
   1.000      1.000   
 n=2   1   2 P   1                   # n, l, Nzeta, Polarization, NzetaPol
   7.638      3.841   
   1.000      1.000   
%endblock PAO.Basis

prinput: ----------------------------------------------------------------------

coor:   Atomic-coordinates input format  =     Cartesian coordinates
coor:                                          (in Angstroms)

siesta: Atomic coordinates (Bohr) and species
siesta:      0.00000   0.00000   0.00000  2        1
siesta:     -1.32825   2.30060   4.19504  1        2
siesta:     -2.74990   4.76296  20.97517  1        3
siesta:      2.74990   4.76296   4.19504  1        4
siesta:      1.32825   2.30060  20.97517  1        5
siesta:      2.65651   0.00000   4.19504  1        6
siesta:      5.49980   0.00000  20.97517  1        7
siesta:     -2.74990   4.76296   4.19504  1        8
siesta:     -1.32825   2.30060  20.97517  1        9
siesta:      1.32825   2.30060   4.19504  1       10
siesta:      2.74990   4.76296  20.97517  1       11
siesta:      5.49980   0.00000   4.19504  1       12
siesta:      2.65651   0.00000  20.97517  1       13
siesta:     -1.32825   2.30060  12.58511  1       14
siesta:     -2.74990   4.76296  12.58511  1       15
siesta:      2.74990   4.76296  12.58511  1       16
siesta:      1.32825   2.30060  12.58511  1       17
siesta:      2.65651   0.00000  12.58511  1       18
siesta:      5.49980   0.00000  12.58511  1       19

siesta: System type = bulk      

initatomlists: Number of atoms, orbitals, and projectors:     19   103   171

siesta: ******************** Simulation parameters ****************************
siesta:
siesta: The following are some of the parameters of the simulation.
siesta: A complete list of the parameters used, including default values,
siesta: can be found in file out.fdf
siesta:
redata: Spin configuration                          = none
redata: Number of spin components                   = 1
redata: Time-Reversal Symmetry                      = T
redata: Spin spiral                                 = F
redata: Long output                                 =   F
redata: Number of Atomic Species                    =        2
redata: Charge density info will appear in .RHO file
redata: Write Mulliken Pop.                         = NO
redata: Matel table size (NRTAB)                    =     1024
redata: Mesh Cutoff                                 =   300.0000 Ry
redata: Net charge of the system                    =     0.0000 |e|
redata: Min. number of SCF Iter                     =        0
redata: Max. number of SCF Iter                     =     1000
redata: SCF convergence failure will abort job
redata: SCF mix quantity                            = Hamiltonian
redata: Mix DM or H after convergence               =   F
redata: Recompute H after scf cycle                 =   F
redata: Mix DM in first SCF step                    =   T
redata: Write Pulay info on disk                    =   F
redata: New DM Occupancy tolerance                  = 0.000000000001
redata: No kicks to SCF
redata: DM Mixing Weight for Kicks                  =     0.5000
redata: Require Harris convergence for SCF          =   F
redata: Harris energy tolerance for SCF             =     0.000100 eV
redata: Require DM convergence for SCF              =   T
redata: DM tolerance for SCF                        =     0.001000
redata: Require EDM convergence for SCF             =   F
redata: EDM tolerance for SCF                       =     0.005000 eV
redata: Require H convergence for SCF               =   T
redata: Hamiltonian tolerance for SCF               =     0.001000 eV
redata: Require (free) Energy convergence for SCF   =   T
redata: (free) Energy tolerance for SCF             =     0.001000 eV
redata: Using Saved Data (generic)                  =   F
redata: Use continuation files for DM               =   F
redata: Neglect nonoverlap interactions             =   F
redata: Method of Calculation                       = Diagonalization
redata: Electronic Temperature                      =   299.9869 K
redata: Fix the spin of the system                  =   F
redata: Dynamics option                             = Single-point calculation
mix.SCF: Pulay mixing                            = Pulay
mix.SCF:    Variant                              = stable
mix.SCF:    History steps                        = 4
mix.SCF:    Linear mixing weight                 =     0.250000
mix.SCF:    Mixing weight                        =     0.250000
mix.SCF:    SVD condition                        = 0.1000E-07
redata: ***********************************************************************

%block SCF.Mixers
  Pulay
%endblock SCF.Mixers

%block SCF.Mixer.Pulay
  # Mixing method
  method pulay
  variant stable

  # Mixing options
  weight 0.2500
  weight.linear 0.2500
  history 4
%endblock SCF.Mixer.Pulay

DM_history_depth set to one: no extrapolation allowed by default for geometry relaxation
Size of DM history Fstack: 1
Total number of electrons:    22.000000
Total ionic charge:    22.000000

* ProcessorY, Blocksize:    4   1


* Orbital distribution balance (max,min):     7     6

k-point displ. along   1 input, could be:     0.00    0.50
k-point displ. along   2 input, could be:     0.00    0.50
k-point displ. along   3 input, could be:     0.00    0.50
 Kpoints in:            8 . Kpoints trimmed:            8

siesta: k-grid: Number of k-points =     8
siesta: k-grid: Cutoff (effective) =     4.316 Ang
siesta: k-grid: Supercell and displacements
siesta: k-grid:    2   0   0      0.000
siesta: k-grid:    0   2   0      0.000
siesta: k-grid:    0   0   2      0.000

diag: Algorithm                                     = Expert
diag: Parallel over k                               =   T
diag: Use parallel 2D distribution                  =   T
diag: Parallel block-size                           = 1
diag: Parallel distribution                         =     4 x     4
diag: Used triangular part                          = Lower
diag: Absolute tolerance                            =  0.100E-15
diag: Orthogonalization factor                      =  0.100E-05
diag: Memory factor                                 =  1.0000

superc: Internal auxiliary supercell:     9 x     9 x     3  =     243
superc: Number of atoms, orbitals, and projectors:   4617  25029  41553


ts: **************************************************************
ts: Save H and S matrices                           =    F
ts: Save DM and EDM matrices                        =    F
ts: Only save the overlap matrix S                  =    F
ts: **************************************************************

************************ Begin: TS CHECKS AND WARNINGS ************************
************************ End: TS CHECKS AND WARNINGS **************************


                     ====================================
                        Single-point calculation
                     ====================================

outcoor: Atomic coordinates (Ang):                          
    0.00000000    0.00000000    0.00000000   2       1  C-gga
   -0.70288177    1.21742694    2.21992064   1       2  Li-gga
   -1.45518323    2.52045129   11.09957656   1       3  Li-gga
    1.45518323    2.52045129    2.21992064   1       4  Li-gga
    0.70288177    1.21742694   11.09957656   1       5  Li-gga
    1.40576354    0.00000000    2.21992064   1       6  Li-gga
    2.91036646    0.00000000   11.09957656   1       7  Li-gga
   -1.45518323    2.52045129    2.21992064   1       8  Li-gga
   -0.70288177    1.21742694   11.09957656   1       9  Li-gga
    0.70288177    1.21742694    2.21992064   1      10  Li-gga
    1.45518323    2.52045129   11.09957656   1      11  Li-gga
    2.91036646    0.00000000    2.21992064   1      12  Li-gga
    1.40576354    0.00000000   11.09957656   1      13  Li-gga
   -0.70288177    1.21742694    6.65974860   1      14  Li-gga
   -1.45518323    2.52045129    6.65974860   1      15  Li-gga
    1.45518323    2.52045129    6.65974860   1      16  Li-gga
    0.70288177    1.21742694    6.65974860   1      17  Li-gga
    1.40576354    0.00000000    6.65974860   1      18  Li-gga
    2.91036646    0.00000000    6.65974860   1      19  Li-gga

superc: Internal auxiliary supercell:     9 x     9 x     3  =     243
superc: Number of atoms, orbitals, and projectors:   4617  25029  41553

outcell: Unit cell vectors (Ang):
        4.316130    0.000000    0.000000
       -2.158065    3.737878    0.000000
        0.000000    0.000000   13.319497

outcell: Cell vector modules (Ang)   :    4.316130    4.316130   13.319497
outcell: Cell angles (23,13,12) (deg):     90.0000     90.0000    120.0000
outcell: Cell volume (Ang**3)        :    214.8857
<dSpData1D:S at geom step 0
  <sparsity:sparsity for geom step 0
    nrows_g=103 nrows=7 sparsity=3.0859 nnzs=32738, refcount: 7>
  <dData1D:(new from dSpData1D) n=32738, refcount: 1>
refcount: 1>
new_DM -- step:     1
Initializing Density Matrix...
DM filled with atomic data:
<dSpData2D:DM initialized from atoms
  <sparsity:sparsity for geom step 0
    nrows_g=103 nrows=7 sparsity=3.0859 nnzs=32738, refcount: 8>
  <dData2D:DM n=32738 m=1, refcount: 1>
refcount: 1>
No. of atoms with KB's overlaping orbs in proc 0. Max # of overlaps:     376     778
New grid distribution:   1
           1       1:   20    1:    5    1:   18
           2       1:   20    1:    5   19:   36
           3       1:   20    1:    5   37:   54
           4       1:   20    1:    5   55:   72
           5       1:   20    6:   10    1:   18
           6       1:   20    6:   10   19:   36
           7       1:   20    6:   10   37:   54
           8       1:   20    6:   10   55:   72
           9       1:   20   11:   15    1:   18
          10       1:   20   11:   15   19:   36
          11       1:   20   11:   15   37:   54
          12       1:   20   11:   15   55:   72
          13       1:   20   16:   20    1:   18
          14       1:   20   16:   20   19:   36
          15       1:   20   16:   20   37:   54
          16       1:   20   16:   20   55:   72

InitMesh: MESH =    40 x    40 x   144 =      230400
InitMesh: (bp) =    20 x    20 x    72 =       28800
InitMesh: Mesh cutoff (required, used) =   300.000   316.498 Ry
ExtMesh (bp) on 0 =   156 x   141 x   158 =     3475368
New grid distribution:   2
           1      11:   20    1:   10    1:   17
           2      11:   20    1:   10   18:   36
           3       1:   10    1:   10   37:   55
           4       1:   10    1:   10   56:   72
           5       1:   10    1:   10    1:   17
           6       1:   10    1:   10   18:   36
           7      11:   20    1:   10   37:   55
           8      11:   20    1:   10   56:   72
           9      11:   20   11:   20    1:   17
          10      11:   20   11:   20   18:   36
          11       1:   10   11:   20   37:   55
          12       1:   10   11:   20   56:   72
          13       1:   10   11:   20    1:   17
          14       1:   10   11:   20   18:   36
          15      11:   20   11:   20   37:   55
          16      11:   20   11:   20   56:   72
New grid distribution:   3
           1       1:   10    1:   10    1:   18
           2       1:   10    1:   10   19:   36
           3       1:   10    1:   10   37:   54
           4       1:   10    1:   10   55:   72
           5      11:   20    1:   10    1:   18
           6      11:   20    1:   10   19:   36
           7      11:   20    1:   10   37:   54
           8      11:   20    1:   10   55:   72
           9       1:   10   11:   20    1:   18
          10       1:   10   11:   20   19:   36
          11       1:   10   11:   20   37:   54
          12       1:   10   11:   20   55:   72
          13      11:   20   11:   20    1:   18
          14      11:   20   11:   20   19:   36
          15      11:   20   11:   20   37:   54
          16      11:   20   11:   20   55:   72
Setting up quadratic distribution...
ExtMesh (bp) on 0 =   146 x   146 x   157 =     3346612
PhiOnMesh: Number of (b)points on node 0 =                 1700
PhiOnMesh: nlist on node 0 =               725353

stepf: Fermi-Dirac step function

siesta: Program's energy decomposition (eV):
siesta: Ebs     =      -311.054272
siesta: Eions   =       439.895300
siesta: Ena     =       149.827529
siesta: Ekin    =       185.961174
siesta: Enl     =        54.383514
siesta: Eso     =         0.000000
siesta: Edftu   =         0.000000
siesta: DEna    =         0.718319
siesta: DUscf   =        21.330965
siesta: DUext   =         0.000000
siesta: Exc     =      -203.736053
siesta: eta*DQ  =         0.000000
siesta: Emadel  =         0.000000
siesta: Emeta   =         0.000000
siesta: Emolmec =        -7.721191
siesta: Ekinion =         0.000000
siesta: Eharris =      -206.253846
siesta: Etot    =      -239.131043
siesta: FreeEng =      -239.153622

        iscf     Eharris(eV)        E_KS(eV)     FreeEng(eV)     dDmax    Ef(eV) dHmax(eV)
   scf:    1     -206.253846     -239.131043     -239.153622 32.874958-10.914559 18.887683
timer: Routine,Calls,Time,% = IterSCF        1       8.945  54.05
   scf:    2      492.983981      -26.268319      -26.294512 20.801470-10.824041 72.406809
   scf:    3     -305.178868     -227.908542     -227.954679 15.157138-11.205332 27.885853
   scf:    4     -258.750141     -249.909481     -249.932085  2.979381-11.057547  6.652547
   scf:    5     -247.888699     -250.705904     -250.732675  1.408259-10.709514  4.271560
   scf:    6     -251.561659     -251.234804     -251.264007  0.961006-10.835171  1.948993
   scf:    7     -244.638949     -249.408052     -249.434625  1.722784-10.853029  6.793222
   scf:    8     -249.129526     -249.270567     -249.296984  0.063062-10.861324  7.164817
   scf:    9     -249.770348     -249.524708     -249.553785  0.101451-10.876915  6.739561
   scf:   10     -248.392689     -248.976725     -249.002807  0.408185-10.849269  7.801028
   scf:   11     -220.141356     -243.633464     -243.658916  2.955060-10.622114 14.062707
   scf:   12     -250.020520     -251.277515     -251.316720  2.135731-10.905021  1.498702
   scf:   13     -250.287221     -251.081523     -251.107696  1.095367-10.829674  2.782894
   scf:   14     -251.420911     -251.346150     -251.381450  0.638954-10.880649  0.414510
   scf:   15     -250.538465     -251.112645     -251.150349  0.534260-10.878802  2.459751
   scf:   16     -251.400729     -251.280868     -251.318534  0.185263-10.878489  1.375992
   scf:   17     -251.339328     -251.354934     -251.390692  0.256538-10.874653  0.138795
   scf:   18     -251.338216     -251.351138     -251.387597  0.114287-10.872818  0.329440
   scf:   19     -251.356223     -251.354023     -251.390340  0.021659-10.872540  0.202310
   scf:   20     -251.356503     -251.355556     -251.391654  0.018337-10.871240  0.075457
   scf:   21     -251.355608     -251.355880     -251.391772  0.019768-10.870038  0.050414
   scf:   22     -251.355679     -251.355858     -251.391866  0.009781-10.870780  0.014121
   scf:   23     -251.355897     -251.355879     -251.391873  0.001396-10.870716  0.004464
   scf:   24     -251.355889     -251.355884     -251.391873  0.000888-10.870731  0.001173
   scf:   25     -251.355898     -251.355892     -251.391873  0.000637-10.870738  0.002816
   scf:   26     -251.355881     -251.355886     -251.391873  0.000414-10.870758  0.000163

SCF Convergence by FreeE+DM+H criterion
|FreeE_i-FreeE_(i-1)| (eV) <     0.00100000
max |DM_out - DM_in|         :     0.0004143557
max |H_out - H_in|      (eV) :     0.0001633562
SCF cycle converged after 26 iterations

Using DM_out to compute the final energy and forces
No. of atoms with KB's overlaping orbs in proc 0. Max # of overlaps:     376     778

MM-Stress (kbar):      -10.80      -10.80       24.80       -0.00        0.00       -0.00

siesta: E_KS(eV) =             -251.3559

siesta: E_KS - E_eggbox =      -251.3559

siesta: Atomic forces (eV/Ang):
     1   -0.000000    0.000000    0.000019
     2    0.136486   -0.236423   -0.564001
     3   -0.136506    0.236459    0.563996
     4    0.136456    0.236349   -0.564055
     5   -0.136477   -0.236385    0.564050
     6   -0.272991   -0.000011   -0.564001
     7    0.273032    0.000011    0.563996
     8   -0.136486    0.236423   -0.564001
     9    0.136506   -0.236459    0.563996
    10   -0.136456   -0.236349   -0.564055
    11    0.136477    0.236385    0.564050
    12    0.272991    0.000011   -0.564001
    13   -0.273032   -0.000011    0.563996
    14    0.031998   -0.055489    0.000002
    15   -0.031998    0.055489    0.000002
    16    0.031995    0.055417    0.000002
    17   -0.031995   -0.055417    0.000002
    18   -0.064054   -0.000033    0.000002
    19    0.064054    0.000033    0.000002
----------------------------------------
   Tot   -0.000000   -0.000000    0.000000
----------------------------------------
   Max    0.564055
   Res    0.288257    sqrt( Sum f_i^2 / 3N )
----------------------------------------
   Max    0.564055    constrained

Stress tensor Voigt[x,y,z,yz,xz,xy] (kbar):     -923.61     -923.62      148.38       -0.00        0.00       -0.01
(Free)E + p*V (eV/cell)     -175.4421
Target enthalpy (eV/cell)     -251.3919

siesta: Eigenvalues (eV):
  ik is       eps
   1  1  -19.7437  -14.2085  -13.5196  -13.2558  -12.3793  -11.4989  -11.2633  -10.9675  -10.9301  -10.5593
         -10.5240  -10.5239  -10.4265  -10.3442   -9.5133   -6.2133   -4.4012   -4.4012   -3.8721   -3.8721
   -3.7736   -3.7090   -3.7090   -3.5378   -3.5378   -3.4472   -3.4471   -2.4322   -2.4322   -2.1066
   -2.1066   -1.8755   -1.8755   -1.7156   -1.7156    0.4623    0.4623    0.8327    0.8329    1.1299
    1.1299    3.4241    4.4490   12.7459   12.7460   13.0320   13.0998   13.0999   13.9733   17.5973
   17.5973   18.2726   18.2726   19.9259   19.9260   20.1437   20.1438   20.3699   20.3699   21.1816
   21.1817   21.9689   21.9690   24.7349   24.7900   25.5321   27.0161   27.5869   27.5874   27.9212
   27.9212   30.1358   30.1358   33.3036   33.3036   35.1099   35.1100   38.1100   38.6111   41.7205
   41.7206   45.6517   46.8678   47.1801   47.2850   49.4715   49.4889   53.2849   53.6798   62.4614
   64.0422   64.0422   65.1919   65.1920   66.1706   66.1706   68.1165   68.1165   78.1401   78.1402
   82.6712   82.6712  168.1054
   2  1  -19.4653  -13.9816  -13.3491  -12.4201  -12.3766  -12.0033  -11.4880  -11.2999  -11.2178  -10.9515
         -10.9310  -10.9078  -10.4747   -9.5628   -9.0198   -8.2424   -7.7675   -7.0091   -5.6700   -5.4652
   -5.3176   -4.4417   -4.2496   -3.9089   -3.3222   -3.0489   -2.4087   -2.2567   -1.6444   -0.9058
   -0.5996   -0.2609    0.1513    0.5944    1.4474    1.4998    1.6385    1.6568    1.8768    2.0443
    2.1900    2.6635    2.9422    3.7115    3.8871    6.6199    6.7901    8.9876    9.4677   10.1833
   10.9100   10.9585   12.2022   12.6003   13.2014   14.0533   14.8900   17.0057   18.6772   18.9073
   18.9787   19.3270   20.4654   20.5244   23.0237   23.3772   25.2169   25.3470   25.4042   25.4410
   25.5522   25.8558   26.0930   26.1358   26.5941   26.6932   27.1576   27.2724   29.1812   31.2057
   35.5523   36.2646   36.3032   42.2277   48.5515   48.6553   50.5229   50.6500   50.9102   51.9383
   52.2181   53.7031   55.7965   55.9033   58.0019   58.5370   59.9108   60.8020   61.2034   62.4319
   64.0446   67.9706   78.9650
   3  1  -19.4653  -13.9816  -13.3491  -12.4201  -12.3766  -12.0033  -11.4880  -11.2999  -11.2178  -10.9515
         -10.9310  -10.9078  -10.4747   -9.5628   -9.0198   -8.2424   -7.7675   -7.0091   -5.6700   -5.4652
   -5.3176   -4.4417   -4.2496   -3.9089   -3.3222   -3.0489   -2.4087   -2.2567   -1.6444   -0.9058
   -0.5996   -0.2609    0.1513    0.5944    1.4474    1.4998    1.6385    1.6568    1.8768    2.0443
    2.1900    2.6635    2.9422    3.7115    3.8871    6.6199    6.7901    8.9876    9.4677   10.1833
   10.9100   10.9585   12.2022   12.6003   13.2014   14.0533   14.8900   17.0057   18.6772   18.9073
   18.9787   19.3270   20.4654   20.5244   23.0237   23.3772   25.2169   25.3470   25.4042   25.4410
   25.5522   25.8558   26.0930   26.1358   26.5941   26.6932   27.1576   27.2724   29.1812   31.2057
   35.5523   36.2647   36.3032   42.2277   48.5515   48.6553   50.5229   50.6500   50.9102   51.9383
   52.2181   53.7031   55.7965   55.9033   58.0019   58.5370   59.9108   60.8020   61.2034   62.4319
   64.0446   67.9706   78.9650
   4  1  -19.4653  -13.9816  -13.3492  -12.4201  -12.3766  -12.0033  -11.4880  -11.2999  -11.2178  -10.9515
         -10.9310  -10.9079  -10.4747   -9.5628   -9.0198   -8.2424   -7.7675   -7.0091   -5.6700   -5.4651
   -5.3176   -4.4417   -4.2496   -3.9088   -3.3222   -3.0489   -2.4088   -2.2566   -1.6444   -0.9058
   -0.5996   -0.2609    0.1513    0.5945    1.4474    1.4998    1.6385    1.6568    1.8768    2.0443
    2.1900    2.6635    2.9422    3.7115    3.8871    6.6200    6.7900    8.9877    9.4677   10.1832
   10.9100   10.9585   12.2022   12.6003   13.2014   14.0532   14.8899   17.0056   18.6772   18.9074
   18.9787   19.3270   20.4655   20.5244   23.0238   23.3771   25.2169   25.3471   25.4042   25.4409
   25.5522   25.8558   26.0929   26.1357   26.5941   26.6932   27.1577   27.2724   29.1808   31.2059
   35.5522   36.2646   36.3032   42.2278   48.5515   48.6553   50.5229   50.6499   50.9103   51.9383
   52.2180   53.7031   55.7966   55.9035   58.0019   58.5371   59.9108   60.8020   61.2034   62.4318
   64.0446   67.9706   78.9650
   5  1  -19.6902  -14.1948  -13.5064  -12.9785  -12.2721  -11.6897  -11.2742  -11.0059  -10.9274  -10.5772
         -10.5166  -10.5164  -10.4009  -10.3533   -9.4296   -6.2856   -4.3060   -4.3060   -4.1340   -4.1340
   -3.6744   -3.6744   -3.4720   -3.4720   -3.0518   -3.0518   -2.9295   -2.9295   -2.8595   -2.6067
   -2.2581   -2.2581   -1.0824   -1.0824   -0.9683   -0.9682   -0.3067   -0.3067   -0.2229   -0.2229
    1.4894    1.4896    9.3126   11.2665   14.0733   14.0734   14.2231   14.2233   15.8776   15.8776
   17.7475   17.7475   18.5336   18.5336   18.7807   18.7807   19.1771   20.0831   21.2905   21.2905
   21.3379   21.3380   23.7555   23.7555   24.0421   25.7004   25.7329   27.5622   27.5627   28.0034
   28.0034   29.9346   29.9346   34.0206   34.0206   34.5065   34.5066   37.2773   41.4728   41.4729
   43.7707   45.6321   45.8629   48.1208   48.1931   48.2710   48.2748   48.3215   49.6972   60.5423
   60.5423   61.7821   61.7822   62.7368   62.7368   64.2363   64.2363  115.2375  115.5193  123.4958
  123.4958  132.8504  132.8505
   6  1  -19.4641  -13.9892  -13.3428  -12.5956  -12.2815  -11.9533  -11.7493  -11.2214  -11.2081  -11.0166
         -11.0026  -10.8977  -10.2807   -9.2757   -9.0827   -8.8078   -7.5082   -6.7487   -5.6933   -5.6484
   -5.2041   -4.6957   -3.8302   -3.6560   -3.5740   -2.7014   -2.2164   -2.1947   -1.9638   -1.1486
   -0.5926   -0.5592   -0.3583    0.1606    1.2792    1.6802    1.7700    1.7852    2.1433    2.2313
    2.2426    2.2889    2.9054    3.1819    3.4554    4.5174    5.4527    7.7920    8.3876    9.2649
   11.6017   11.9614   11.9732   13.9628   14.5096   15.1647   15.4713   16.5169   17.1879   17.2561
   19.3404   20.2526   20.7138   21.0228   21.7098   23.4183   24.2218   24.3691   24.6637   24.8190
   25.0436   25.7426   26.1819   26.1951   26.2773   26.5358   27.5923   28.2051   29.1404   30.8231
   33.0806   38.6656   39.2412   41.0863   46.4840   50.3424   50.3849   50.5696   51.7351   53.1924
   53.4587   55.2542   55.3306   57.7521   57.8669   58.0003   58.1040   67.7525   67.7561   68.1265
   69.9894  105.9358  116.9808
   7  1  -19.4641  -13.9892  -13.3428  -12.5956  -12.2815  -11.9533  -11.7493  -11.2214  -11.2081  -11.0166
         -11.0026  -10.8977  -10.2807   -9.2757   -9.0827   -8.8078   -7.5082   -6.7487   -5.6933   -5.6484
   -5.2041   -4.6957   -3.8302   -3.6560   -3.5740   -2.7014   -2.2164   -2.1947   -1.9638   -1.1486
   -0.5926   -0.5592   -0.3583    0.1606    1.2792    1.6802    1.7700    1.7852    2.1433    2.2313
    2.2426    2.2889    2.9054    3.1819    3.4554    4.5174    5.4527    7.7920    8.3876    9.2649
   11.6017   11.9614   11.9732   13.9628   14.5096   15.1647   15.4713   16.5169   17.1879   17.2561
   19.3404   20.2526   20.7138   21.0228   21.7098   23.4183   24.2218   24.3691   24.6637   24.8190
   25.0436   25.7426   26.1819   26.1951   26.2773   26.5358   27.5923   28.2051   29.1404   30.8231
   33.0806   38.6656   39.2412   41.0864   46.4840   50.3424   50.3849   50.5696   51.7350   53.1924
   53.4587   55.2542   55.3306   57.7521   57.8669   58.0003   58.1040   67.7525   67.7561   68.1265
   69.9894  105.9358  116.9808
   8  1  -19.4641  -13.9892  -13.3428  -12.5956  -12.2815  -11.9533  -11.7493  -11.2214  -11.2081  -11.0166
         -11.0026  -10.8978  -10.2807   -9.2757   -9.0827   -8.8078   -7.5081   -6.7486   -5.6933   -5.6484
   -5.2041   -4.6957   -3.8302   -3.6560   -3.5741   -2.7014   -2.2164   -2.1948   -1.9638   -1.1485
   -0.5926   -0.5592   -0.3583    0.1607    1.2792    1.6802    1.7700    1.7852    2.1433    2.2313
    2.2425    2.2889    2.9055    3.1819    3.4555    4.5174    5.4528    7.7920    8.3875    9.2648
   11.6017   11.9614   11.9732   13.9629   14.5096   15.1647   15.4712   16.5169   17.1878   17.2561
   19.3403   20.2526   20.7140   21.0228   21.7098   23.4183   24.2218   24.3689   24.6640   24.8190
   25.0436   25.7425   26.1819   26.1951   26.2773   26.5358   27.5923   28.2051   29.1400   30.8231
   33.0806   38.6657   39.2412   41.0863   46.4841   50.3424   50.3848   50.5696   51.7350   53.1924
   53.4588   55.2541   55.3306   57.7521   57.8671   58.0004   58.1040   67.7525   67.7560   68.1265
   69.9893  105.9358  116.9808
siesta: Fermi energy =     -10.870758 eV

siesta: Program's energy decomposition (eV):
siesta: Ebs     =      -279.204617
siesta: Eions   =       439.895300
siesta: Ena     =       149.827529
siesta: Ekin    =       204.589331
siesta: Enl     =        44.557416
siesta: Eso     =         0.000000
siesta: Edftu   =         0.000000
siesta: DEna    =        -1.562362
siesta: DUscf   =         4.380701
siesta: DUext   =         0.000000
siesta: Exc     =      -205.532010
siesta: eta*DQ  =         0.000000
siesta: Emadel  =         0.000000
siesta: Emeta   =         0.000000
siesta: Emolmec =        -7.721191
siesta: Ekinion =         0.000000
siesta: Eharris =      -251.355881
siesta: Etot    =      -251.355886
siesta: FreeEng =      -251.391873

siesta: Final energy (eV):
siesta:  Band Struct. =    -279.204617
siesta:       Kinetic =     204.589331
siesta:       Hartree =     113.920518
siesta:       Edftu   =       0.000000
siesta:       Eso     =       0.000000
siesta:    Ext. field =       0.000000
siesta:   Exch.-corr. =    -205.532010
siesta:  Ion-electron =    -504.447367
siesta:       Ion-ion =     147.834833
siesta:       Ekinion =       0.000000
siesta:         Total =    -251.355886
siesta:         Fermi =     -10.870758

siesta: Atomic forces (eV/Ang):
siesta:      1   -0.000000    0.000000    0.000019
siesta:      2    0.136486   -0.236423   -0.564001
siesta:      3   -0.136506    0.236459    0.563996
siesta:      4    0.136456    0.236349   -0.564055
siesta:      5   -0.136477   -0.236385    0.564050
siesta:      6   -0.272991   -0.000011   -0.564001
siesta:      7    0.273032    0.000011    0.563996
siesta:      8   -0.136486    0.236423   -0.564001
siesta:      9    0.136506   -0.236459    0.563996
siesta:     10   -0.136456   -0.236349   -0.564055
siesta:     11    0.136477    0.236385    0.564050
siesta:     12    0.272991    0.000011   -0.564001
siesta:     13   -0.273032   -0.000011    0.563996
siesta:     14    0.031998   -0.055489    0.000002
siesta:     15   -0.031998    0.055489    0.000002
siesta:     16    0.031995    0.055417    0.000002
siesta:     17   -0.031995   -0.055417    0.000002
siesta:     18   -0.064054   -0.000033    0.000002
siesta:     19    0.064054    0.000033    0.000002
siesta: ----------------------------------------
siesta:    Tot   -0.000000   -0.000000    0.000000

siesta: Stress tensor (static) (eV/Ang**3):
siesta:    -0.576467   -0.000005    0.000000
siesta:    -0.000005   -0.576473   -0.000000
siesta:     0.000000   -0.000000    0.092612

siesta: Cell volume =        214.885691 Ang**3

siesta: Pressure (static):
siesta:                Solid            Molecule  Units
siesta:           0.00384944          0.00329525  Ry/Bohr**3
siesta:           0.35344261          0.30255825  eV/Ang**3
siesta:         566.28361093        484.75699443  kBar
(Free)E+ p_basis*V_orbitals  =        -194.953458
(Free)Eharris+ p_basis*V_orbitals  =        -194.953453

cite: Please see "LiC18_scf.bib" for an exhaustive BiBTeX file.
cite: Please clearly indicate Siesta version in published work: 4.1.5
cite: This calculation has made use of the following articles
cite: which are encouraged to be cited in a published work.
        Primary SIESTA paper
          DOI: www.doi.org/10.1088/0953-8984/14/11/302

>> End of run:   9-NOV-2022   2:18:48
Job completed
