Siesta Version  : 4.1.5
Architecture    : x86_64-unknown-linux-gnu--unknown
Compiler version: GNU Fortran (GCC) 11.3.0
Compiler flags  : mpif90 -g -O2 -fallow-argument-mismatch
PP flags        : -DMPI -DFC_HAVE_FLUSH -DFC_HAVE_ABORT
Libraries       :  -I/global/software/sl-7.x86_64/modules/intel/2020.4.304/mkl/include  /globall/software/sl-7.x86_64/modules/intel/2020.4.304/mkl/lib/intel64/libmkl_scalapack_lp64.a -Wl,--start-group /global/software/sl-7.x86_64/modules/intel/2020.4.304/mkl/lib/intel64/libmkl_intel_lp64.a /global/software/sl-7.x86_64/modules/intel/2020.4.304/mkl/lib/intel64/libmkl_sequential.a /global/software/sl-7.x86_64/modules/intel/2020.4.304/mkl/lib/intel64/libmkl_core.a /global/software/sl-7.x86_64/modules/intel/2020.4.304/mkl/lib/intel64/libmkl_blacs_openmpi_lp64.a -Wl,--end-group -lpthread -lm -ldl
PARALLEL version

* Running on 16 nodes in parallel
>> Start of run:   9-NOV-2022   1:09:45

                           ***********************       
                           *  WELCOME TO SIESTA  *       
                           ***********************       

reinit: Reading from standard input
reinit: Dumped input in INPUT_TMP.59974
************************** Dump of input data file ****************************
SystemName LiC18_scf
SystemLabel LiC18_scf
NumberOfAtoms   19
NumberOfSpecies 2
%block ChemicalSpeciesLabel
1  3   Li-gga
2  6   C-gga
%endblock ChemicalSpeciesLabel
PAO.BasisSize  DZP
PAO.EnergyShift  10 meV
%block PS.Lmax
C-gga   2
Li-gga  2
%endblock PS.Lmax
LatticeConstant 1.000000 Ang
%block LatticeVectors
	4.3161300000	0.0000000000	0.0000000000
	-2.1580650000	3.7378782260	0.0000000000
	0.0000000000	0.0000000000	6.2157653600
%endblock LatticeVectors
AtomicCoordinatesFormat Ang
%block AtomicCoordinatesAndAtomicSpecies
	0.00000000	0.00000000	0.00000000	2
	-0.70288177	1.21742694	1.03596297	1
	-1.45518323	2.52045129	5.17980239	1
	1.45518323	2.52045129	1.03596297	1
	0.70288177	1.21742694	5.17980239	1
	1.40576354	0.00000000	1.03596297	1
	2.91036646	0.00000000	5.17980239	1
	-1.45518323	2.52045129	1.03596297	1
	-0.70288177	1.21742694	5.17980239	1
	0.70288177	1.21742694	1.03596297	1
	1.45518323	2.52045129	5.17980239	1
	2.91036646	0.00000000	1.03596297	1
	1.40576354	0.00000000	5.17980239	1
	-0.70288177	1.21742694	3.10788268	1
	-1.45518323	2.52045129	3.10788268	1
	1.45518323	2.52045129	3.10788268	1
	0.70288177	1.21742694	3.10788268	1
	1.40576354	0.00000000	3.10788268	1
	2.91036646	0.00000000	3.10788268	1
%endblock AtomicCoordinatesAndAtomicSpecies
Kgrid_NoTRS  T
%block kgrid_MonkhorstPack
2       0       0       0.0
0       2       0       0.0
0       0       2       0.0
%endblock kgrid_MonkhorstPack
AtomCoorFormatOut Ang
BlockSize 1
#ProcessorY 12
Diag.ParallelOverK   T
Diag.DivideAndConquer F
MeshCutoff   300 Ry
SCF.FreeE.Tolerance 1E-3 eV
SCF.EDM.Tolerance   5E-3 eV
DM.Tolerance  1E-3
DM.Require.Energy.Convergence T
DM.NumberPulay 4
XC.Functional GGA
XC.Authors    PBE
UseSaveData        F
MD.TypeOfRun       CG
MD.VariableCell    F
MD.NumCGsteps      00
MD.MaxCGDispl      0.200000 Bohr
MD.MaxStressTol    1.000000 GPa
MD.MaxForceTol     0.010000 eV/Ang
WriteMDHistory T
WriteCoorStep T
WriteForces T
WriteCoorStep    T
WriteEigenValues T
WriteDM    F
MM.UnitsDistance Ang  # what this program prints out DO NOT CHANGE
MM.UnitsEnergy    eV  # what this program prints out DO NOT CHANGE
MM.Grimme.S6     0.75 # Grimme-paper for PBE (correct for your functional)
MM.Grimme.D     20.   # Grimme-paper (correct for your functional)
%block MM.Potentials
  1   1 Grimme     16.69      1.650 # Li, 10.1002/jcc.20495
  1   2 Grimme     17.40      2.277 # Li / C
  2   2 Grimme     18.14      2.904 # C, 10.1002/jcc.20495
%endblock MM.Potentials
#%block ProjectedDensityOfStates
# -200.0  120.0  0.4  12800  eV
#%endblock ProjectedDensityOfStates
************************** End of input data file *****************************

reinit: -----------------------------------------------------------------------
reinit: System Name: LiC18_scf
reinit: -----------------------------------------------------------------------
reinit: System Label: LiC18_scf
reinit: -----------------------------------------------------------------------
Reading two-body potentials
Grimme - two-body potential between 1 and 1
Grimme - two-body potential between 1 and 2
Grimme - two-body potential between 2 and 2

initatom: Reading input for the pseudopotentials and atomic orbitals ----------
Species number:   1 Atomic number:    3 Label: Li-gga
Species number:   2 Atomic number:    6 Label: C-gga

Ground state valence configuration:   2s01
Reading pseudopotential information in formatted form from Li-gga.psf

Valence configuration for pseudopotential generation:
2s( 1.00) rc: 2.28
2p( 0.00) rc: 2.28
3d( 0.00) rc: 2.59
4f( 0.00) rc: 2.59
Ground state valence configuration:   2s02  2p02
Reading pseudopotential information in formatted form from C-gga.psf

Valence configuration for pseudopotential generation:
2s( 2.00) rc: 1.56
2p( 2.00) rc: 1.56
3d( 0.00) rc: 1.56
4f( 0.00) rc: 1.56
relmxkb: Read Max KB Ang. Momentum=    2 for species C-gga
relmxkb: Read Max KB Ang. Momentum=    2 for species Li-gga

<basis_specs>
===============================================================================
Li-gga               Z=   3    Mass=  6.9400        Charge= 0.17977+309
Lmxo=0 Lmxkb= 2    BasisType=split      Semic=F
L=0  Nsemic=0  Cnfigmx=2
          i=1  nzeta=2  polorb=1  (2s)
            splnorm:   0.15000    
               vcte:    0.0000    
               rinn:    0.0000    
               qcoe:    0.0000    
               qyuk:    0.0000    
               qwid:   0.10000E-01
                rcs:    0.0000      0.0000    
            lambdas:    1.0000      1.0000    
-------------------------------------------------------------------------------
L=0  Nkbl=1  erefs: 0.17977+309
L=1  Nkbl=1  erefs: 0.17977+309
L=2  Nkbl=1  erefs: 0.17977+309
===============================================================================
</basis_specs>

atom: Called for Li-gga                (Z =   3)

read_vps: Pseudopotential generation method:
read_vps: ATM 3.2.2 Troullier-Martins                       
Valence charge for ps generation:    1.00000

read_vps: Pseudopotential includes a core correction:
read_vps: Pseudo-core for xc-correction

xc_check: Exchange-correlation functional:
xc_check: GGA Perdew, Burke & Ernzerhof 1996
V l=0 = -2*Zval/r beyond r=  2.2278
V l=1 = -2*Zval/r beyond r=  2.2278
V l=2 = -2*Zval/r beyond r=  2.5245
All V_l potentials equal beyond r=  2.4622
This should be close to max(r_c) in ps generation
All pots = -2*Zval/r beyond r=  2.5245

VLOCAL1: 99.0% of the norm of Vloc inside      7.160 Ry
VLOCAL1: 99.9% of the norm of Vloc inside     16.318 Ry
atom: Maximum radius for 4*pi*r*r*local-pseudopot. charge    2.86079
atom: Maximum radius for r*vlocal+2*Zval:    2.43160
GHOST: No ghost state for L =  0
GHOST: No ghost state for L =  1
GHOST: No ghost state for L =  2

KBgen: Kleinman-Bylander projectors: 
   l= 0   rc=  2.654023   el= -0.211234   Ekb=  1.742119   kbcos=  0.228463
   l= 1   rc=  2.721230   el= -0.080095   Ekb= -1.122375   kbcos= -0.147941
   l= 2   rc=  2.825246   el=  0.002001   Ekb= -0.207076   kbcos= -0.031965

KBgen: Total number of Kleinman-Bylander projectors:    9
atom: -------------------------------------------------------------------------

atom: SANKEY-TYPE ORBITALS:
atom: Selected multiple-zeta basis: split     

SPLIT: Orbitals with angular momentum L= 0

SPLIT: Basis orbitals for state 2s

SPLIT: PAO cut-off radius determined from an
SPLIT: energy shift=  0.000735 Ry

   izeta = 1
                 lambda =    1.000000
                     rc =   11.897381
                 energy =   -0.210580
                kinetic =    0.143382
    potential(screened) =   -0.353962
       potential(ionic) =   -0.533453

   izeta = 2
                 rmatch =    8.489163
              splitnorm =    0.150000
                 energy =   -0.186081
                kinetic =    0.225882
    potential(screened) =   -0.411964
       potential(ionic) =   -0.593024

POLgen: Perturbative polarization orbital with L=  1

POLgen: Polarization orbital for state 2s

   izeta = 1
                     rc =   11.897381
                 energy =   -0.027011
                kinetic =    0.282985
    potential(screened) =   -0.309997
       potential(ionic) =   -0.490997
atom: Total number of Sankey-type orbitals:  5

atm_pop: Valence configuration (for local Pseudopot. screening):
 2s( 1.00)                                                            
Vna: chval, zval:    1.00000   1.00000

Vna:  Cut-off radius for the neutral-atom potential:  11.897381
comcore: Pseudo-core radius Rcore=  3.450946

atom: _________________________________________________________________________

<basis_specs>
===============================================================================
C-gga                Z=   6    Mass=  12.010        Charge= 0.17977+309
Lmxo=1 Lmxkb= 2    BasisType=split      Semic=F
L=0  Nsemic=0  Cnfigmx=2
          i=1  nzeta=2  polorb=0  (2s)
            splnorm:   0.15000    
               vcte:    0.0000    
               rinn:    0.0000    
               qcoe:    0.0000    
               qyuk:    0.0000    
               qwid:   0.10000E-01
                rcs:    0.0000      0.0000    
            lambdas:    1.0000      1.0000    
L=1  Nsemic=0  Cnfigmx=2
          i=1  nzeta=2  polorb=1  (2p)
            splnorm:   0.15000    
               vcte:    0.0000    
               rinn:    0.0000    
               qcoe:    0.0000    
               qyuk:    0.0000    
               qwid:   0.10000E-01
                rcs:    0.0000      0.0000    
            lambdas:    1.0000      1.0000    
-------------------------------------------------------------------------------
L=0  Nkbl=1  erefs: 0.17977+309
L=1  Nkbl=1  erefs: 0.17977+309
L=2  Nkbl=1  erefs: 0.17977+309
===============================================================================
</basis_specs>

atom: Called for C-gga                 (Z =   6)

read_vps: Pseudopotential generation method:
read_vps: ATM 3.2.2 Troullier-Martins                       
Valence charge for ps generation:    4.00000

xc_check: Exchange-correlation functional:
xc_check: GGA Perdew, Burke & Ernzerhof 1996
V l=0 = -2*Zval/r beyond r=  1.5227
V l=1 = -2*Zval/r beyond r=  1.5227
V l=2 = -2*Zval/r beyond r=  1.5227
All V_l potentials equal beyond r=  1.4851
This should be close to max(r_c) in ps generation
All pots = -2*Zval/r beyond r=  1.5227

VLOCAL1: 99.0% of the norm of Vloc inside     19.682 Ry
VLOCAL1: 99.9% of the norm of Vloc inside     44.856 Ry
atom: Maximum radius for 4*pi*r*r*local-pseudopot. charge    1.79142
atom: Maximum radius for r*vlocal+2*Zval:    1.54183
GHOST: No ghost state for L =  0
GHOST: No ghost state for L =  1
GHOST: No ghost state for L =  2

KBgen: Kleinman-Bylander projectors: 
   l= 0   rc=  1.661951   el= -1.010689   Ekb=  5.289847   kbcos=  0.316429
   l= 1   rc=  1.661951   el= -0.388490   Ekb= -4.102504   kbcos= -0.351025
   l= 2   rc=  1.747182   el=  0.001971   Ekb= -1.006005   kbcos= -0.008530

KBgen: Total number of Kleinman-Bylander projectors:    9
atom: -------------------------------------------------------------------------

atom: SANKEY-TYPE ORBITALS:
atom: Selected multiple-zeta basis: split     

SPLIT: Orbitals with angular momentum L= 0

SPLIT: Basis orbitals for state 2s

SPLIT: PAO cut-off radius determined from an
SPLIT: energy shift=  0.000735 Ry

   izeta = 1
                 lambda =    1.000000
                     rc =    5.948690
                 energy =   -1.010099
                kinetic =    0.827121
    potential(screened) =   -1.837220
       potential(ionic) =   -5.392783

   izeta = 2
                 rmatch =    3.518811
              splitnorm =    0.150000
                 energy =   -0.877891
                kinetic =    1.289227
    potential(screened) =   -2.167118
       potential(ionic) =   -5.982073

SPLIT: Orbitals with angular momentum L= 1

SPLIT: Basis orbitals for state 2p

SPLIT: PAO cut-off radius determined from an
SPLIT: energy shift=  0.000735 Ry

   izeta = 1
                 lambda =    1.000000
                     rc =    7.638387
                 energy =   -0.387843
                kinetic =    2.314739
    potential(screened) =   -2.702582
       potential(ionic) =   -6.092371

   izeta = 2
                 rmatch =    3.840617
              splitnorm =    0.150000
                 energy =   -0.270479
                kinetic =    3.438347
    potential(screened) =   -3.708826
       potential(ionic) =   -7.497707

POLgen: Perturbative polarization orbital with L=  2

POLgen: Polarization orbital for state 2p

   izeta = 1
                     rc =    7.638387
                 energy =    0.921402
                kinetic =    1.955040
    potential(screened) =   -1.033637
       potential(ionic) =   -3.679558
atom: Total number of Sankey-type orbitals: 13

atm_pop: Valence configuration (for local Pseudopot. screening):
 2s( 2.00)                                                            
 2p( 2.00)                                                            
Vna: chval, zval:    4.00000   4.00000

Vna:  Cut-off radius for the neutral-atom potential:   7.638387

atom: _________________________________________________________________________

prinput: Basis input ----------------------------------------------------------

PAO.BasisType split     

%block ChemicalSpeciesLabel
    1    3 Li-gga                  # Species index, atomic number, species label
    2    6 C-gga                   # Species index, atomic number, species label
%endblock ChemicalSpeciesLabel

%block PAO.Basis                 # Define Basis set
Li-gga                1                    # Species label, number of l-shells
 n=2   0   2 P   1                   # n, l, Nzeta, Polarization, NzetaPol
  11.897      8.489   
   1.000      1.000   
C-gga                 2                    # Species label, number of l-shells
 n=2   0   2                         # n, l, Nzeta 
   5.949      3.519   
   1.000      1.000   
 n=2   1   2 P   1                   # n, l, Nzeta, Polarization, NzetaPol
   7.638      3.841   
   1.000      1.000   
%endblock PAO.Basis

prinput: ----------------------------------------------------------------------

coor:   Atomic-coordinates input format  =     Cartesian coordinates
coor:                                          (in Angstroms)

siesta: Atomic coordinates (Bohr) and species
siesta:      0.00000   0.00000   0.00000  2        1
siesta:     -1.32825   2.30060   1.95769  1        2
siesta:     -2.74990   4.76296   9.78841  1        3
siesta:      2.74990   4.76296   1.95769  1        4
siesta:      1.32825   2.30060   9.78841  1        5
siesta:      2.65651   0.00000   1.95769  1        6
siesta:      5.49980   0.00000   9.78841  1        7
siesta:     -2.74990   4.76296   1.95769  1        8
siesta:     -1.32825   2.30060   9.78841  1        9
siesta:      1.32825   2.30060   1.95769  1       10
siesta:      2.74990   4.76296   9.78841  1       11
siesta:      5.49980   0.00000   1.95769  1       12
siesta:      2.65651   0.00000   9.78841  1       13
siesta:     -1.32825   2.30060   5.87305  1       14
siesta:     -2.74990   4.76296   5.87305  1       15
siesta:      2.74990   4.76296   5.87305  1       16
siesta:      1.32825   2.30060   5.87305  1       17
siesta:      2.65651   0.00000   5.87305  1       18
siesta:      5.49980   0.00000   5.87305  1       19

siesta: System type = bulk      

initatomlists: Number of atoms, orbitals, and projectors:     19   103   171

siesta: ******************** Simulation parameters ****************************
siesta:
siesta: The following are some of the parameters of the simulation.
siesta: A complete list of the parameters used, including default values,
siesta: can be found in file out.fdf
siesta:
redata: Spin configuration                          = none
redata: Number of spin components                   = 1
redata: Time-Reversal Symmetry                      = T
redata: Spin spiral                                 = F
redata: Long output                                 =   F
redata: Number of Atomic Species                    =        2
redata: Charge density info will appear in .RHO file
redata: Write Mulliken Pop.                         = NO
redata: Matel table size (NRTAB)                    =     1024
redata: Mesh Cutoff                                 =   300.0000 Ry
redata: Net charge of the system                    =     0.0000 |e|
redata: Min. number of SCF Iter                     =        0
redata: Max. number of SCF Iter                     =     1000
redata: SCF convergence failure will abort job
redata: SCF mix quantity                            = Hamiltonian
redata: Mix DM or H after convergence               =   F
redata: Recompute H after scf cycle                 =   F
redata: Mix DM in first SCF step                    =   T
redata: Write Pulay info on disk                    =   F
redata: New DM Occupancy tolerance                  = 0.000000000001
redata: No kicks to SCF
redata: DM Mixing Weight for Kicks                  =     0.5000
redata: Require Harris convergence for SCF          =   F
redata: Harris energy tolerance for SCF             =     0.000100 eV
redata: Require DM convergence for SCF              =   T
redata: DM tolerance for SCF                        =     0.001000
redata: Require EDM convergence for SCF             =   F
redata: EDM tolerance for SCF                       =     0.005000 eV
redata: Require H convergence for SCF               =   T
redata: Hamiltonian tolerance for SCF               =     0.001000 eV
redata: Require (free) Energy convergence for SCF   =   T
redata: (free) Energy tolerance for SCF             =     0.001000 eV
redata: Using Saved Data (generic)                  =   F
redata: Use continuation files for DM               =   F
redata: Neglect nonoverlap interactions             =   F
redata: Method of Calculation                       = Diagonalization
redata: Electronic Temperature                      =   299.9869 K
redata: Fix the spin of the system                  =   F
redata: Dynamics option                             = Single-point calculation
mix.SCF: Pulay mixing                            = Pulay
mix.SCF:    Variant                              = stable
mix.SCF:    History steps                        = 4
mix.SCF:    Linear mixing weight                 =     0.250000
mix.SCF:    Mixing weight                        =     0.250000
mix.SCF:    SVD condition                        = 0.1000E-07
redata: ***********************************************************************

%block SCF.Mixers
  Pulay
%endblock SCF.Mixers

%block SCF.Mixer.Pulay
  # Mixing method
  method pulay
  variant stable

  # Mixing options
  weight 0.2500
  weight.linear 0.2500
  history 4
%endblock SCF.Mixer.Pulay

DM_history_depth set to one: no extrapolation allowed by default for geometry relaxation
Size of DM history Fstack: 1
Total number of electrons:    22.000000
Total ionic charge:    22.000000

* ProcessorY, Blocksize:    4   1


* Orbital distribution balance (max,min):     7     6

k-point displ. along   1 input, could be:     0.00    0.50
k-point displ. along   2 input, could be:     0.00    0.50
k-point displ. along   3 input, could be:     0.00    0.50
 Kpoints in:            8 . Kpoints trimmed:            8

siesta: k-grid: Number of k-points =     8
siesta: k-grid: Cutoff (effective) =     4.316 Ang
siesta: k-grid: Supercell and displacements
siesta: k-grid:    2   0   0      0.000
siesta: k-grid:    0   2   0      0.000
siesta: k-grid:    0   0   2      0.000

diag: Algorithm                                     = Expert
diag: Parallel over k                               =   T
diag: Use parallel 2D distribution                  =   T
diag: Parallel block-size                           = 1
diag: Parallel distribution                         =     4 x     4
diag: Used triangular part                          = Lower
diag: Absolute tolerance                            =  0.100E-15
diag: Orthogonalization factor                      =  0.100E-05
diag: Memory factor                                 =  1.0000

superc: Internal auxiliary supercell:     9 x     9 x     5  =     405
superc: Number of atoms, orbitals, and projectors:   7695  41715  69255


ts: **************************************************************
ts: Save H and S matrices                           =    F
ts: Save DM and EDM matrices                        =    F
ts: Only save the overlap matrix S                  =    F
ts: **************************************************************

************************ Begin: TS CHECKS AND WARNINGS ************************
************************ End: TS CHECKS AND WARNINGS **************************


                     ====================================
                        Single-point calculation
                     ====================================

outcoor: Atomic coordinates (Ang):                          
    0.00000000    0.00000000    0.00000000   2       1  C-gga
   -0.70288177    1.21742694    1.03596297   1       2  Li-gga
   -1.45518323    2.52045129    5.17980239   1       3  Li-gga
    1.45518323    2.52045129    1.03596297   1       4  Li-gga
    0.70288177    1.21742694    5.17980239   1       5  Li-gga
    1.40576354    0.00000000    1.03596297   1       6  Li-gga
    2.91036646    0.00000000    5.17980239   1       7  Li-gga
   -1.45518323    2.52045129    1.03596297   1       8  Li-gga
   -0.70288177    1.21742694    5.17980239   1       9  Li-gga
    0.70288177    1.21742694    1.03596297   1      10  Li-gga
    1.45518323    2.52045129    5.17980239   1      11  Li-gga
    2.91036646    0.00000000    1.03596297   1      12  Li-gga
    1.40576354    0.00000000    5.17980239   1      13  Li-gga
   -0.70288177    1.21742694    3.10788268   1      14  Li-gga
   -1.45518323    2.52045129    3.10788268   1      15  Li-gga
    1.45518323    2.52045129    3.10788268   1      16  Li-gga
    0.70288177    1.21742694    3.10788268   1      17  Li-gga
    1.40576354    0.00000000    3.10788268   1      18  Li-gga
    2.91036646    0.00000000    3.10788268   1      19  Li-gga

superc: Internal auxiliary supercell:     9 x     9 x     5  =     405
superc: Number of atoms, orbitals, and projectors:   7695  41715  69255

outcell: Unit cell vectors (Ang):
        4.316130    0.000000    0.000000
       -2.158065    3.737878    0.000000
        0.000000    0.000000    6.215765

outcell: Cell vector modules (Ang)   :    4.316130    4.316130    6.215765
outcell: Cell angles (23,13,12) (deg):     90.0000     90.0000    120.0000
outcell: Cell volume (Ang**3)        :    100.2800
<dSpData1D:S at geom step 0
  <sparsity:sparsity for geom step 0
    nrows_g=103 nrows=7 sparsity=7.3777 nnzs=78270, refcount: 7>
  <dData1D:(new from dSpData1D) n=78270, refcount: 1>
refcount: 1>
new_DM -- step:     1
Initializing Density Matrix...
DM filled with atomic data:
<dSpData2D:DM initialized from atoms
  <sparsity:sparsity for geom step 0
    nrows_g=103 nrows=7 sparsity=7.3777 nnzs=78270, refcount: 8>
  <dData2D:DM n=78270 m=1, refcount: 1>
refcount: 1>
No. of atoms with KB's overlaping orbs in proc 0. Max # of overlaps:     619    1666
New grid distribution:   1
           1       1:   20    1:    5    1:    9
           2       1:   20    1:    5   10:   18
           3       1:   20    1:    5   19:   27
           4       1:   20    1:    5   28:   36
           5       1:   20    6:   10    1:    9
           6       1:   20    6:   10   10:   18
           7       1:   20    6:   10   19:   27
           8       1:   20    6:   10   28:   36
           9       1:   20   11:   15    1:    9
          10       1:   20   11:   15   10:   18
          11       1:   20   11:   15   19:   27
          12       1:   20   11:   15   28:   36
          13       1:   20   16:   20    1:    9
          14       1:   20   16:   20   10:   18
          15       1:   20   16:   20   19:   27
          16       1:   20   16:   20   28:   36

InitMesh: MESH =    40 x    40 x    72 =      115200
InitMesh: (bp) =    20 x    20 x    36 =       14400
InitMesh: Mesh cutoff (required, used) =   300.000   316.498 Ry
ExtMesh (bp) on 0 =   156 x   141 x   157 =     3453372
New grid distribution:   2
           1       1:   10   11:   20   19:   27
           2      11:   20    1:   10    1:    9
           3      11:   20    1:   10   19:   27
           4      11:   20   11:   20    1:    9
           5       1:   10   11:   20   28:   36
           6      11:   20    1:   10   10:   18
           7      11:   20   11:   20   10:   18
           8      11:   20    1:   10   28:   36
           9       1:   10    1:   10   19:   27
          10       1:   10    1:   10    1:    9
          11      11:   20   11:   20   19:   27
          12       1:   10   11:   20    1:    9
          13       1:   10    1:   10   28:   36
          14       1:   10    1:   10   10:   18
          15       1:   10   11:   20   10:   18
          16      11:   20   11:   20   28:   36
New grid distribution:   3
           1       1:   10   11:   20   19:   27
           2      11:   20    1:   10    1:    9
           3      11:   20    1:   10   19:   27
           4      11:   20   11:   20    1:    9
           5       1:   10   11:   20   28:   36
           6      11:   20    1:   10   10:   18
           7      11:   20   11:   20   10:   18
           8      11:   20    1:   10   28:   36
           9       1:   10    1:   10   19:   27
          10       1:   10    1:   10    1:    9
          11      11:   20   11:   20   19:   27
          12       1:   10   11:   20    1:    9
          13       1:   10    1:   10   28:   36
          14       1:   10    1:   10   10:   18
          15       1:   10   11:   20   10:   18
          16      11:   20   11:   20   28:   36
Setting up quadratic distribution...
ExtMesh (bp) on 0 =   146 x   146 x   157 =     3346612
PhiOnMesh: Number of (b)points on node 0 =                  900
PhiOnMesh: nlist on node 0 =               790600

stepf: Fermi-Dirac step function

siesta: Program's energy decomposition (eV):
siesta: Ebs     =      -400.607139
siesta: Eions   =       439.895300
siesta: Ena     =        90.153131
siesta: Ekin    =       364.650065
siesta: Enl     =        -4.554116
siesta: Eso     =         0.000000
siesta: Edftu   =         0.000000
siesta: DEna    =       -34.358984
siesta: DUscf   =        35.947940
siesta: DUext   =         0.000000
siesta: Exc     =      -255.877564
siesta: eta*DQ  =         0.000000
siesta: Emadel  =         0.000000
siesta: Emeta   =         0.000000
siesta: Emolmec =       -15.358789
siesta: Ekinion =         0.000000
siesta: Eharris =      -212.704627
siesta: Etot    =      -259.293619
siesta: FreeEng =      -259.294441

        iscf     Eharris(eV)        E_KS(eV)     FreeEng(eV)     dDmax    Ef(eV) dHmax(eV)
   scf:    1     -212.704627     -259.293619     -259.294441 21.461191-17.784618 23.436791
timer: Routine,Calls,Time,% = IterSCF        1      27.066  59.67
   scf:    2     -283.967545     -273.914824     -273.927661  2.331610-17.680834  8.179382
   scf:    3     -259.686176     -272.030070     -272.043151  2.111543-17.368714  8.704896
   scf:    4     -266.512054     -269.406713     -269.424434  0.477821-17.308275 11.139288
   scf:    5     -279.028275     -275.829467     -275.847220  1.236611-17.455428  3.091672
   scf:    6     -276.566432     -276.284628     -276.301963  0.279043-17.586509  1.115393
   scf:    7     -275.232937     -276.066248     -276.081740  0.568999-17.616368  2.158654
   scf:    8     -276.377027     -276.241443     -276.263967  0.128049-17.621887  1.318236
   scf:    9     -276.057650     -276.305220     -276.321651  0.362897-17.587922  0.964798
   scf:   10     -276.371605     -276.352372     -276.374642  0.107871-17.608994  0.261532
   scf:   11     -276.336945     -276.351506     -276.375757  0.076410-17.615203  0.221482
   scf:   12     -276.354558     -276.355388     -276.378666  0.043659-17.611679  0.059182
   scf:   13     -276.351024     -276.354109     -276.378052  0.031884-17.613542  0.114957
   scf:   14     -276.355844     -276.355358     -276.378892  0.017573-17.612102  0.001930
   scf:   15     -276.355368     -276.355363     -276.378892  0.001408-17.612089  0.000099
   scf:   16     -276.355361     -276.355362     -276.378892  0.000222-17.612099  0.000263

SCF Convergence by FreeE+DM+H criterion
|FreeE_i-FreeE_(i-1)| (eV) <     0.00100000
max |DM_out - DM_in|         :     0.0002222400
max |H_out - H_in|      (eV) :     0.0002627340
SCF cycle converged after 16 iterations

Using DM_out to compute the final energy and forces
No. of atoms with KB's overlaping orbs in proc 0. Max # of overlaps:     619    1666

MM-Stress (kbar):       88.67       88.67      549.60       -0.00       -0.00       -0.00

siesta: E_KS(eV) =             -276.3554

siesta: E_KS - E_eggbox =      -276.3554

siesta: Atomic forces (eV/Ang):
     1   -0.000000    0.000000    0.000000
     2   -1.024915    1.775339    0.236427
     3    1.024915   -1.775339   -0.236427
     4   -1.025057   -1.775451    0.236227
     5    1.025057    1.775451   -0.236227
     6    2.049945    0.000067    0.236428
     7   -2.049946   -0.000067   -0.236428
     8    1.024915   -1.775339    0.236427
     9   -1.024915    1.775339   -0.236427
    10    1.025057    1.775451    0.236227
    11   -1.025057   -1.775451   -0.236228
    12   -2.049946   -0.000067    0.236428
    13    2.049946    0.000067   -0.236428
    14   -0.324668    0.562451    0.000000
    15    0.324668   -0.562451   -0.000000
    16   -0.324752   -0.562487    0.000000
    17    0.324752    0.562487    0.000000
    18    0.649431    0.000055   -0.000000
    19   -0.649431   -0.000055    0.000000
----------------------------------------
   Tot    0.000000   -0.000000   -0.000000
----------------------------------------
   Max    2.049946
   Res    0.969999    sqrt( Sum f_i^2 / 3N )
----------------------------------------
   Max    2.049946    constrained

Stress tensor Voigt[x,y,z,yz,xz,xy] (kbar):    -1686.96    -1687.00     -428.72        0.00       -0.00       -0.03
(Free)E + p*V (eV/cell)     -197.0431
Target enthalpy (eV/cell)     -276.3789

siesta: Eigenvalues (eV):
  ik is       eps
   1  1  -29.6289  -24.9315  -24.5754  -23.1508  -22.3095  -21.8130  -21.0416  -21.0415  -20.0527  -18.0417
         -17.8813  -15.6404  -15.6403  -15.0698  -15.0698  -14.8448  -14.8448  -14.7541  -14.7541  -14.3311
  -14.1868  -14.1867  -11.4703   -4.1246   -2.3734   -2.3730   -2.3495    0.1249    0.1250    2.0381
    2.0381    3.7304    3.7305    4.4474    4.4475    5.2603    5.2603    9.1519    9.1520   10.3961
   10.8028   10.8028   11.6522   11.6524   12.1971   13.1267   13.3741   13.3741   14.2502   14.3281
   14.6459   17.9366   19.2419   19.2419   21.1537   21.1539   21.6067   22.0580   22.6481   22.6481
   24.8386   25.0965   26.6530   26.6531   27.7832   27.7837   31.0117   31.0118   32.2895   33.2331
   33.2332   33.7045   33.7046   37.8282   39.1269   39.2146   39.6094   40.6248   40.6262   41.4108
   41.6258   43.4940   43.4941   48.3398   48.3412   50.5694   50.6484   50.6489   62.3802   83.3439
   83.3462  102.0429  102.0431  105.6503  105.6504  121.0543  121.0544  123.8586  123.8587  131.6890
  131.6893  133.8109  133.8111
   2  1  -29.5077  -23.5809  -23.4628  -23.4130  -23.3104  -22.6736  -22.5828  -21.4048  -21.2864  -19.6908
         -17.8626  -17.3392  -17.3240  -16.9189  -13.1115  -12.8790  -12.8345  -12.6489  -12.5921  -11.0381
  -10.4997   -8.5856   -8.0858   -7.4337   -7.1451   -6.5117   -6.4070   -5.9343   -4.8582   -4.7829
   -3.8659   -3.5711   -3.0085    0.3608    1.3468    2.2344    2.2498    2.5697    6.0533    8.1053
   10.4271   11.7694   11.8881   12.6615   14.0590   14.8638   15.3001   15.7548   16.8443   16.9122
   17.5732   18.5968   19.2238   19.9772   20.9190   21.4678   22.0795   22.5217   23.0268   23.3347
   23.4494   25.2416   26.7737   26.8125   27.1884   27.4635   31.1633   32.1205   33.5292   35.6295
   36.3236   38.4802   40.3152   41.4233   41.7028   41.9942   43.2469   43.3140   43.5428   44.0707
   44.2365   46.0009   47.9952   48.3672   49.0282   49.8661   50.3581   51.1259   55.2764   56.1419
   57.6576   60.2331   60.8333   65.1524   67.7664   70.5585   74.2139   74.7738   83.9240   86.9079
  102.7528  111.7021  118.2711
   3  1  -29.5077  -23.5809  -23.4628  -23.4130  -23.3104  -22.6736  -22.5828  -21.4048  -21.2864  -19.6908
         -17.8626  -17.3392  -17.3240  -16.9189  -13.1115  -12.8790  -12.8345  -12.6489  -12.5921  -11.0381
  -10.4997   -8.5856   -8.0858   -7.4337   -7.1451   -6.5117   -6.4070   -5.9343   -4.8582   -4.7829
   -3.8659   -3.5711   -3.0085    0.3608    1.3468    2.2344    2.2498    2.5697    6.0533    8.1053
   10.4271   11.7694   11.8881   12.6615   14.0590   14.8638   15.3001   15.7548   16.8443   16.9122
   17.5732   18.5968   19.2238   19.9772   20.9190   21.4678   22.0795   22.5217   23.0268   23.3346
   23.4494   25.2416   26.7737   26.8125   27.1884   27.4635   31.1633   32.1205   33.5292   35.6295
   36.3236   38.4802   40.3153   41.4233   41.7028   41.9942   43.2469   43.3140   43.5428   44.0707
   44.2365   46.0008   47.9952   48.3670   49.0282   49.8661   50.3581   51.1259   55.2764   56.1420
   57.6576   60.2331   60.8333   65.1526   67.7664   70.5585   74.2139   74.7739   83.9240   86.9079
  102.7528  111.7021  118.2712
   4  1  -29.5077  -23.5810  -23.4628  -23.4130  -23.3104  -22.6737  -22.5828  -21.4049  -21.2864  -19.6908
         -17.8625  -17.3393  -17.3239  -16.9189  -13.1115  -12.8790  -12.8346  -12.6489  -12.5921  -11.0381
  -10.4997   -8.5856   -8.0858   -7.4337   -7.1450   -6.5117   -6.4071   -5.9343   -4.8582   -4.7829
   -3.8659   -3.5710   -3.0085    0.3608    1.3468    2.2341    2.2498    2.5697    6.0537    8.1056
   10.4271   11.7691   11.8882   12.6615   14.0592   14.8638   15.3001   15.7547   16.8443   16.9122
   17.5732   18.5968   19.2237   19.9771   20.9190   21.4678   22.0795   22.5218   23.0268   23.3347
   23.4494   25.2417   26.7740   26.8124   27.1882   27.4635   31.1633   32.1205   33.5292   35.6298
   36.3235   38.4801   40.3148   41.4233   41.7028   41.9941   43.2470   43.3139   43.5428   44.0708
   44.2366   46.0007   47.9952   48.3673   49.0282   49.8662   50.3581   51.1259   55.2765   56.1419
   57.6568   60.2331   60.8334   65.1523   67.7656   70.5584   74.2139   74.7738   83.9241   86.9080
  102.7526  111.7020  118.2710
   5  1  -29.6971  -24.9059  -24.4130  -23.1846  -22.6773  -21.1981  -21.0927  -21.0926  -20.6245  -19.4805
         -15.6862  -15.6862  -15.2459  -15.2458  -15.2298  -15.2298  -15.1917  -15.1917  -14.3874  -14.1880
  -14.1879  -13.6592  -10.0455   -5.9977   -3.1385   -3.1384   -2.6896   -2.3396   -2.3396   -2.2020
   -2.2015    1.8650    1.8651    2.7391    2.7481    2.7481    7.2997   10.3979   10.3979   14.3042
   14.7932   14.8349   15.2455   15.2455   15.9446   15.9447   16.1473   16.1473   16.2831   16.2832
   16.7927   20.6538   22.2830   22.2832   22.3180   22.3191   23.2236   23.2236   23.6146   27.1754
   29.4098   29.4099   33.1704   33.1704   36.7459   36.7460   36.9948   37.3121   39.3263   39.4977
   39.7326   40.3391   40.9058   42.9406   44.2632   44.2637   44.2926   44.2931   51.0479   51.0494
   52.8392   52.8393   60.6568   60.6572   61.0301   62.3125   62.8085   66.2428   66.2429   66.7562
   70.8898   70.8898   75.6363   75.6366   76.0071   76.0071   84.4776   84.4777  168.5039  168.5040
  182.3200  182.3201  218.2687
   6  1  -29.4983  -23.8453  -23.4374  -23.4057  -22.8463  -22.7913  -22.5228  -21.6895  -21.4655  -19.8257
         -17.6451  -17.6175  -16.8613  -15.7842  -14.5082  -13.5980  -12.6942  -12.4760  -12.3780  -12.2237
  -10.4055  -10.0107   -9.7965   -8.8718   -7.8548   -4.8654   -3.9385   -3.6096   -1.9312   -1.7674
   -1.1664    0.6065    1.3935    2.0284    2.9116    3.0280    4.1257    4.4689    4.5322    4.8760
    5.5124    6.7835    8.9190    9.4998   11.0592   12.7839   13.9395   14.9736   16.2185   16.5908
   17.0891   17.4092   18.2724   19.7124   20.1526   20.2289   20.2850   21.8152   22.5010   24.9958
   27.3466   30.2085   30.3166   31.0180   32.1770   32.7469   33.1487   33.7607   36.5939   39.0703
   39.6243   40.1166   41.1476   41.2394   45.0110   45.7838   46.0144   47.2477   47.3751   47.7661
   47.9900   48.1153   49.2139   49.5358   51.1965   53.0383   53.3249   53.8575   54.2047   60.0407
   63.0969   66.6926   67.8515   68.9929   69.0617   79.4876   80.5380  121.0303  126.5232  127.4285
  127.5666  194.0363  216.3002
   7  1  -29.4983  -23.8453  -23.4374  -23.4056  -22.8463  -22.7913  -22.5228  -21.6895  -21.4655  -19.8257
         -17.6451  -17.6175  -16.8613  -15.7842  -14.5082  -13.5980  -12.6942  -12.4760  -12.3780  -12.2237
  -10.4055  -10.0107   -9.7965   -8.8718   -7.8548   -4.8654   -3.9385   -3.6096   -1.9312   -1.7674
   -1.1664    0.6065    1.3935    2.0284    2.9116    3.0280    4.1257    4.4689    4.5322    4.8760
    5.5124    6.7835    8.9190    9.4998   11.0592   12.7839   13.9395   14.9736   16.2185   16.5908
   17.0891   17.4092   18.2724   19.7124   20.1526   20.2289   20.2850   21.8152   22.5010   24.9958
   27.3466   30.2085   30.3160   31.0180   32.1770   32.7469   33.1487   33.7607   36.5939   39.0703
   39.6243   40.1167   41.1476   41.2394   45.0109   45.7838   46.0144   47.2477   47.3751   47.7661
   47.9900   48.1153   49.2139   49.5358   51.1964   53.0387   53.3249   53.8575   54.2047   60.0407
   63.0971   66.6926   67.8515   68.9929   69.0617   79.4876   80.5380  121.0307  126.5231  127.4285
  127.5666  194.0363  216.3002
   8  1  -29.4983  -23.8453  -23.4374  -23.4057  -22.8463  -22.7913  -22.5228  -21.6895  -21.4655  -19.8257
         -17.6451  -17.6174  -16.8613  -15.7842  -14.5082  -13.5980  -12.6942  -12.4761  -12.3780  -12.2237
  -10.4056  -10.0107   -9.7965   -8.8717   -7.8548   -4.8654   -3.9386   -3.6096   -1.9312   -1.7674
   -1.1664    0.6070    1.3935    2.0284    2.9115    3.0280    4.1258    4.4686    4.5324    4.8760
    5.5124    6.7835    8.9190    9.4998   11.0591   12.7842   13.9395   14.9733   16.2184   16.5908
   17.0891   17.4092   18.2725   19.7123   20.1527   20.2289   20.2848   21.8146   22.5009   24.9961
   27.3466   30.2085   30.3167   31.0180   32.1771   32.7469   33.1488   33.7607   36.5940   39.0702
   39.6243   40.1163   41.1476   41.2394   45.0107   45.7839   46.0145   47.2476   47.3752   47.7662
   47.9901   48.1154   49.2139   49.5358   51.1965   53.0383   53.3249   53.8575   54.2047   60.0405
   63.0963   66.6921   67.8514   68.9928   69.0616   79.4878   80.5382  121.0304  126.5232  127.4285
  127.5667  194.0365  216.3003
siesta: Fermi energy =     -17.612099 eV

siesta: Program's energy decomposition (eV):
siesta: Ebs     =      -495.919488
siesta: Eions   =       439.895300
siesta: Ena     =        90.153131
siesta: Ekin    =       303.689045
siesta: Enl     =        15.425309
siesta: Eso     =         0.000000
siesta: Edftu   =         0.000000
siesta: DEna    =         5.062679
siesta: DUscf   =         8.391257
siesta: DUext   =         0.000000
siesta: Exc     =      -243.822692
siesta: eta*DQ  =         0.000000
siesta: Emadel  =         0.000000
siesta: Emeta   =         0.000000
siesta: Emolmec =       -15.358789
siesta: Ekinion =         0.000000
siesta: Eharris =      -276.355361
siesta: Etot    =      -276.355362
siesta: FreeEng =      -276.378892

siesta: Final energy (eV):
siesta:  Band Struct. =    -495.919488
siesta:       Kinetic =     303.689045
siesta:       Hartree =      97.549812
siesta:       Edftu   =       0.000000
siesta:       Eso     =       0.000000
siesta:    Ext. field =       0.000000
siesta:   Exch.-corr. =    -243.822692
siesta:  Ion-electron =    -738.470344
siesta:       Ion-ion =     320.057608
siesta:       Ekinion =       0.000000
siesta:         Total =    -276.355362
siesta:         Fermi =     -17.612099

siesta: Atomic forces (eV/Ang):
siesta:      1   -0.000000    0.000000    0.000000
siesta:      2   -1.024915    1.775339    0.236427
siesta:      3    1.024915   -1.775339   -0.236427
siesta:      4   -1.025057   -1.775451    0.236227
siesta:      5    1.025057    1.775451   -0.236227
siesta:      6    2.049945    0.000067    0.236428
siesta:      7   -2.049946   -0.000067   -0.236428
siesta:      8    1.024915   -1.775339    0.236427
siesta:      9   -1.024915    1.775339   -0.236427
siesta:     10    1.025057    1.775451    0.236227
siesta:     11   -1.025057   -1.775451   -0.236228
siesta:     12   -2.049946   -0.000067    0.236428
siesta:     13    2.049946    0.000067   -0.236428
siesta:     14   -0.324668    0.562451    0.000000
siesta:     15    0.324668   -0.562451   -0.000000
siesta:     16   -0.324752   -0.562487    0.000000
siesta:     17    0.324752    0.562487    0.000000
siesta:     18    0.649431    0.000055   -0.000000
siesta:     19   -0.649431   -0.000055    0.000000
siesta: ----------------------------------------
siesta:    Tot    0.000000   -0.000000   -0.000000

siesta: Stress tensor (static) (eV/Ang**3):
siesta:    -1.052909   -0.000020   -0.000000
siesta:    -0.000020   -1.052933    0.000000
siesta:    -0.000000    0.000000   -0.267586

siesta: Cell volume =        100.279989 Ang**3

siesta: Pressure (static):
siesta:                Solid            Molecule  Units
siesta:           0.00861655          0.00960543  Ry/Bohr**3
siesta:           0.79114249          0.88193760  eV/Ang**3
siesta:        1267.56370835       1413.03508648  kBar
(Free)E+ p_basis*V_orbitals  =        -219.940476
(Free)Eharris+ p_basis*V_orbitals  =        -219.940475

cite: Please see "LiC18_scf.bib" for an exhaustive BiBTeX file.
cite: Please clearly indicate Siesta version in published work: 4.1.5
cite: This calculation has made use of the following articles
cite: which are encouraged to be cited in a published work.
        Primary SIESTA paper
          DOI: www.doi.org/10.1088/0953-8984/14/11/302

>> End of run:   9-NOV-2022   1:15:59
Job completed
