Siesta Version  : 4.1.5
Architecture    : x86_64-unknown-linux-gnu--unknown
Compiler version: GNU Fortran (GCC) 11.3.0
Compiler flags  : mpif90 -g -O2 -fallow-argument-mismatch
PP flags        : -DMPI -DFC_HAVE_FLUSH -DFC_HAVE_ABORT
Libraries       :  -I/global/software/sl-7.x86_64/modules/intel/2020.4.304/mkl/include  /globall/software/sl-7.x86_64/modules/intel/2020.4.304/mkl/lib/intel64/libmkl_scalapack_lp64.a -Wl,--start-group /global/software/sl-7.x86_64/modules/intel/2020.4.304/mkl/lib/intel64/libmkl_intel_lp64.a /global/software/sl-7.x86_64/modules/intel/2020.4.304/mkl/lib/intel64/libmkl_sequential.a /global/software/sl-7.x86_64/modules/intel/2020.4.304/mkl/lib/intel64/libmkl_core.a /global/software/sl-7.x86_64/modules/intel/2020.4.304/mkl/lib/intel64/libmkl_blacs_openmpi_lp64.a -Wl,--end-group -lpthread -lm -ldl
PARALLEL version

* Running on 16 nodes in parallel
>> Start of run:   9-NOV-2022   0:07:41

                           ***********************       
                           *  WELCOME TO SIESTA  *       
                           ***********************       

reinit: Reading from standard input
reinit: Dumped input in INPUT_TMP.36958
************************** Dump of input data file ****************************
SystemName LiC18_scf
SystemLabel LiC18_scf
NumberOfAtoms   19
NumberOfSpecies 2
%block ChemicalSpeciesLabel
1  3   Li-gga
2  6   C-gga
%endblock ChemicalSpeciesLabel
PAO.BasisSize  DZP
PAO.EnergyShift  10 meV
%block PS.Lmax
C-gga   2
Li-gga  2
%endblock PS.Lmax
LatticeConstant 1.000000 Ang
%block LatticeVectors
	4.3161300000	0.0000000000	0.0000000000
	-2.1580650000	3.7378782260	0.0000000000
	0.0000000000	0.0000000000	10.4336061400
%endblock LatticeVectors
AtomicCoordinatesFormat Ang
%block AtomicCoordinatesAndAtomicSpecies
	0.00000000	0.00000000	0.00000000	2
	-0.70288177	1.21742694	1.73893783	1
	-1.45518323	2.52045129	8.69466831	1
	1.45518323	2.52045129	1.73893783	1
	0.70288177	1.21742694	8.69466831	1
	1.40576354	0.00000000	1.73893783	1
	2.91036646	0.00000000	8.69466831	1
	-1.45518323	2.52045129	1.73893783	1
	-0.70288177	1.21742694	8.69466831	1
	0.70288177	1.21742694	1.73893783	1
	1.45518323	2.52045129	8.69466831	1
	2.91036646	0.00000000	1.73893783	1
	1.40576354	0.00000000	8.69466831	1
	-0.70288177	1.21742694	5.21680307	1
	-1.45518323	2.52045129	5.21680307	1
	1.45518323	2.52045129	5.21680307	1
	0.70288177	1.21742694	5.21680307	1
	1.40576354	0.00000000	5.21680307	1
	2.91036646	0.00000000	5.21680307	1
%endblock AtomicCoordinatesAndAtomicSpecies
Kgrid_NoTRS  T
%block kgrid_MonkhorstPack
2       0       0       0.0
0       2       0       0.0
0       0       2       0.0
%endblock kgrid_MonkhorstPack
AtomCoorFormatOut Ang
BlockSize 1
#ProcessorY 12
Diag.ParallelOverK   T
Diag.DivideAndConquer F
MeshCutoff   300 Ry
SCF.FreeE.Tolerance 1E-3 eV
SCF.EDM.Tolerance   5E-3 eV
DM.Tolerance  1E-3
DM.Require.Energy.Convergence T
DM.NumberPulay 4
XC.Functional GGA
XC.Authors    PBE
UseSaveData        F
MD.TypeOfRun       CG
MD.VariableCell    F
MD.NumCGsteps      00
MD.MaxCGDispl      0.200000 Bohr
MD.MaxStressTol    1.000000 GPa
MD.MaxForceTol     0.010000 eV/Ang
WriteMDHistory T
WriteCoorStep T
WriteForces T
WriteCoorStep    T
WriteEigenValues T
WriteDM    F
MM.UnitsDistance Ang  # what this program prints out DO NOT CHANGE
MM.UnitsEnergy    eV  # what this program prints out DO NOT CHANGE
MM.Grimme.S6     0.75 # Grimme-paper for PBE (correct for your functional)
MM.Grimme.D     20.   # Grimme-paper (correct for your functional)
%block MM.Potentials
  1   1 Grimme     16.69      1.650 # Li, 10.1002/jcc.20495
  1   2 Grimme     17.40      2.277 # Li / C
  2   2 Grimme     18.14      2.904 # C, 10.1002/jcc.20495
%endblock MM.Potentials
#%block ProjectedDensityOfStates
# -200.0  120.0  0.4  12800  eV
#%endblock ProjectedDensityOfStates
************************** End of input data file *****************************

reinit: -----------------------------------------------------------------------
reinit: System Name: LiC18_scf
reinit: -----------------------------------------------------------------------
reinit: System Label: LiC18_scf
reinit: -----------------------------------------------------------------------
Reading two-body potentials
Grimme - two-body potential between 1 and 1
Grimme - two-body potential between 1 and 2
Grimme - two-body potential between 2 and 2

initatom: Reading input for the pseudopotentials and atomic orbitals ----------
Species number:   1 Atomic number:    3 Label: Li-gga
Species number:   2 Atomic number:    6 Label: C-gga

Ground state valence configuration:   2s01
Reading pseudopotential information in formatted form from Li-gga.psf

Valence configuration for pseudopotential generation:
2s( 1.00) rc: 2.28
2p( 0.00) rc: 2.28
3d( 0.00) rc: 2.59
4f( 0.00) rc: 2.59
Ground state valence configuration:   2s02  2p02
Reading pseudopotential information in formatted form from C-gga.psf

Valence configuration for pseudopotential generation:
2s( 2.00) rc: 1.56
2p( 2.00) rc: 1.56
3d( 0.00) rc: 1.56
4f( 0.00) rc: 1.56
relmxkb: Read Max KB Ang. Momentum=    2 for species C-gga
relmxkb: Read Max KB Ang. Momentum=    2 for species Li-gga

<basis_specs>
===============================================================================
Li-gga               Z=   3    Mass=  6.9400        Charge= 0.17977+309
Lmxo=0 Lmxkb= 2    BasisType=split      Semic=F
L=0  Nsemic=0  Cnfigmx=2
          i=1  nzeta=2  polorb=1  (2s)
            splnorm:   0.15000    
               vcte:    0.0000    
               rinn:    0.0000    
               qcoe:    0.0000    
               qyuk:    0.0000    
               qwid:   0.10000E-01
                rcs:    0.0000      0.0000    
            lambdas:    1.0000      1.0000    
-------------------------------------------------------------------------------
L=0  Nkbl=1  erefs: 0.17977+309
L=1  Nkbl=1  erefs: 0.17977+309
L=2  Nkbl=1  erefs: 0.17977+309
===============================================================================
</basis_specs>

atom: Called for Li-gga                (Z =   3)

read_vps: Pseudopotential generation method:
read_vps: ATM 3.2.2 Troullier-Martins                       
Valence charge for ps generation:    1.00000

read_vps: Pseudopotential includes a core correction:
read_vps: Pseudo-core for xc-correction

xc_check: Exchange-correlation functional:
xc_check: GGA Perdew, Burke & Ernzerhof 1996
V l=0 = -2*Zval/r beyond r=  2.2278
V l=1 = -2*Zval/r beyond r=  2.2278
V l=2 = -2*Zval/r beyond r=  2.5245
All V_l potentials equal beyond r=  2.4622
This should be close to max(r_c) in ps generation
All pots = -2*Zval/r beyond r=  2.5245

VLOCAL1: 99.0% of the norm of Vloc inside      7.160 Ry
VLOCAL1: 99.9% of the norm of Vloc inside     16.318 Ry
atom: Maximum radius for 4*pi*r*r*local-pseudopot. charge    2.86079
atom: Maximum radius for r*vlocal+2*Zval:    2.43160
GHOST: No ghost state for L =  0
GHOST: No ghost state for L =  1
GHOST: No ghost state for L =  2

KBgen: Kleinman-Bylander projectors: 
   l= 0   rc=  2.654023   el= -0.211234   Ekb=  1.742119   kbcos=  0.228463
   l= 1   rc=  2.721230   el= -0.080095   Ekb= -1.122375   kbcos= -0.147941
   l= 2   rc=  2.825246   el=  0.002001   Ekb= -0.207076   kbcos= -0.031965

KBgen: Total number of Kleinman-Bylander projectors:    9
atom: -------------------------------------------------------------------------

atom: SANKEY-TYPE ORBITALS:
atom: Selected multiple-zeta basis: split     

SPLIT: Orbitals with angular momentum L= 0

SPLIT: Basis orbitals for state 2s

SPLIT: PAO cut-off radius determined from an
SPLIT: energy shift=  0.000735 Ry

   izeta = 1
                 lambda =    1.000000
                     rc =   11.897381
                 energy =   -0.210580
                kinetic =    0.143382
    potential(screened) =   -0.353962
       potential(ionic) =   -0.533453

   izeta = 2
                 rmatch =    8.489163
              splitnorm =    0.150000
                 energy =   -0.186081
                kinetic =    0.225882
    potential(screened) =   -0.411964
       potential(ionic) =   -0.593024

POLgen: Perturbative polarization orbital with L=  1

POLgen: Polarization orbital for state 2s

   izeta = 1
                     rc =   11.897381
                 energy =   -0.027011
                kinetic =    0.282985
    potential(screened) =   -0.309997
       potential(ionic) =   -0.490997
atom: Total number of Sankey-type orbitals:  5

atm_pop: Valence configuration (for local Pseudopot. screening):
 2s( 1.00)                                                            
Vna: chval, zval:    1.00000   1.00000

Vna:  Cut-off radius for the neutral-atom potential:  11.897381
comcore: Pseudo-core radius Rcore=  3.450946

atom: _________________________________________________________________________

<basis_specs>
===============================================================================
C-gga                Z=   6    Mass=  12.010        Charge= 0.17977+309
Lmxo=1 Lmxkb= 2    BasisType=split      Semic=F
L=0  Nsemic=0  Cnfigmx=2
          i=1  nzeta=2  polorb=0  (2s)
            splnorm:   0.15000    
               vcte:    0.0000    
               rinn:    0.0000    
               qcoe:    0.0000    
               qyuk:    0.0000    
               qwid:   0.10000E-01
                rcs:    0.0000      0.0000    
            lambdas:    1.0000      1.0000    
L=1  Nsemic=0  Cnfigmx=2
          i=1  nzeta=2  polorb=1  (2p)
            splnorm:   0.15000    
               vcte:    0.0000    
               rinn:    0.0000    
               qcoe:    0.0000    
               qyuk:    0.0000    
               qwid:   0.10000E-01
                rcs:    0.0000      0.0000    
            lambdas:    1.0000      1.0000    
-------------------------------------------------------------------------------
L=0  Nkbl=1  erefs: 0.17977+309
L=1  Nkbl=1  erefs: 0.17977+309
L=2  Nkbl=1  erefs: 0.17977+309
===============================================================================
</basis_specs>

atom: Called for C-gga                 (Z =   6)

read_vps: Pseudopotential generation method:
read_vps: ATM 3.2.2 Troullier-Martins                       
Valence charge for ps generation:    4.00000

xc_check: Exchange-correlation functional:
xc_check: GGA Perdew, Burke & Ernzerhof 1996
V l=0 = -2*Zval/r beyond r=  1.5227
V l=1 = -2*Zval/r beyond r=  1.5227
V l=2 = -2*Zval/r beyond r=  1.5227
All V_l potentials equal beyond r=  1.4851
This should be close to max(r_c) in ps generation
All pots = -2*Zval/r beyond r=  1.5227

VLOCAL1: 99.0% of the norm of Vloc inside     19.682 Ry
VLOCAL1: 99.9% of the norm of Vloc inside     44.856 Ry
atom: Maximum radius for 4*pi*r*r*local-pseudopot. charge    1.79142
atom: Maximum radius for r*vlocal+2*Zval:    1.54183
GHOST: No ghost state for L =  0
GHOST: No ghost state for L =  1
GHOST: No ghost state for L =  2

KBgen: Kleinman-Bylander projectors: 
   l= 0   rc=  1.661951   el= -1.010689   Ekb=  5.289847   kbcos=  0.316429
   l= 1   rc=  1.661951   el= -0.388490   Ekb= -4.102504   kbcos= -0.351025
   l= 2   rc=  1.747182   el=  0.001971   Ekb= -1.006005   kbcos= -0.008530

KBgen: Total number of Kleinman-Bylander projectors:    9
atom: -------------------------------------------------------------------------

atom: SANKEY-TYPE ORBITALS:
atom: Selected multiple-zeta basis: split     

SPLIT: Orbitals with angular momentum L= 0

SPLIT: Basis orbitals for state 2s

SPLIT: PAO cut-off radius determined from an
SPLIT: energy shift=  0.000735 Ry

   izeta = 1
                 lambda =    1.000000
                     rc =    5.948690
                 energy =   -1.010099
                kinetic =    0.827121
    potential(screened) =   -1.837220
       potential(ionic) =   -5.392783

   izeta = 2
                 rmatch =    3.518811
              splitnorm =    0.150000
                 energy =   -0.877891
                kinetic =    1.289227
    potential(screened) =   -2.167118
       potential(ionic) =   -5.982073

SPLIT: Orbitals with angular momentum L= 1

SPLIT: Basis orbitals for state 2p

SPLIT: PAO cut-off radius determined from an
SPLIT: energy shift=  0.000735 Ry

   izeta = 1
                 lambda =    1.000000
                     rc =    7.638387
                 energy =   -0.387843
                kinetic =    2.314739
    potential(screened) =   -2.702582
       potential(ionic) =   -6.092371

   izeta = 2
                 rmatch =    3.840617
              splitnorm =    0.150000
                 energy =   -0.270479
                kinetic =    3.438347
    potential(screened) =   -3.708826
       potential(ionic) =   -7.497707

POLgen: Perturbative polarization orbital with L=  2

POLgen: Polarization orbital for state 2p

   izeta = 1
                     rc =    7.638387
                 energy =    0.921402
                kinetic =    1.955040
    potential(screened) =   -1.033637
       potential(ionic) =   -3.679558
atom: Total number of Sankey-type orbitals: 13

atm_pop: Valence configuration (for local Pseudopot. screening):
 2s( 2.00)                                                            
 2p( 2.00)                                                            
Vna: chval, zval:    4.00000   4.00000

Vna:  Cut-off radius for the neutral-atom potential:   7.638387

atom: _________________________________________________________________________

prinput: Basis input ----------------------------------------------------------

PAO.BasisType split     

%block ChemicalSpeciesLabel
    1    3 Li-gga                  # Species index, atomic number, species label
    2    6 C-gga                   # Species index, atomic number, species label
%endblock ChemicalSpeciesLabel

%block PAO.Basis                 # Define Basis set
Li-gga                1                    # Species label, number of l-shells
 n=2   0   2 P   1                   # n, l, Nzeta, Polarization, NzetaPol
  11.897      8.489   
   1.000      1.000   
C-gga                 2                    # Species label, number of l-shells
 n=2   0   2                         # n, l, Nzeta 
   5.949      3.519   
   1.000      1.000   
 n=2   1   2 P   1                   # n, l, Nzeta, Polarization, NzetaPol
   7.638      3.841   
   1.000      1.000   
%endblock PAO.Basis

prinput: ----------------------------------------------------------------------

coor:   Atomic-coordinates input format  =     Cartesian coordinates
coor:                                          (in Angstroms)

siesta: Atomic coordinates (Bohr) and species
siesta:      0.00000   0.00000   0.00000  2        1
siesta:     -1.32825   2.30060   3.28612  1        2
siesta:     -2.74990   4.76296  16.43055  1        3
siesta:      2.74990   4.76296   3.28612  1        4
siesta:      1.32825   2.30060  16.43055  1        5
siesta:      2.65651   0.00000   3.28612  1        6
siesta:      5.49980   0.00000  16.43055  1        7
siesta:     -2.74990   4.76296   3.28612  1        8
siesta:     -1.32825   2.30060  16.43055  1        9
siesta:      1.32825   2.30060   3.28612  1       10
siesta:      2.74990   4.76296  16.43055  1       11
siesta:      5.49980   0.00000   3.28612  1       12
siesta:      2.65651   0.00000  16.43055  1       13
siesta:     -1.32825   2.30060   9.85833  1       14
siesta:     -2.74990   4.76296   9.85833  1       15
siesta:      2.74990   4.76296   9.85833  1       16
siesta:      1.32825   2.30060   9.85833  1       17
siesta:      2.65651   0.00000   9.85833  1       18
siesta:      5.49980   0.00000   9.85833  1       19

siesta: System type = bulk      

initatomlists: Number of atoms, orbitals, and projectors:     19   103   171

siesta: ******************** Simulation parameters ****************************
siesta:
siesta: The following are some of the parameters of the simulation.
siesta: A complete list of the parameters used, including default values,
siesta: can be found in file out.fdf
siesta:
redata: Spin configuration                          = none
redata: Number of spin components                   = 1
redata: Time-Reversal Symmetry                      = T
redata: Spin spiral                                 = F
redata: Long output                                 =   F
redata: Number of Atomic Species                    =        2
redata: Charge density info will appear in .RHO file
redata: Write Mulliken Pop.                         = NO
redata: Matel table size (NRTAB)                    =     1024
redata: Mesh Cutoff                                 =   300.0000 Ry
redata: Net charge of the system                    =     0.0000 |e|
redata: Min. number of SCF Iter                     =        0
redata: Max. number of SCF Iter                     =     1000
redata: SCF convergence failure will abort job
redata: SCF mix quantity                            = Hamiltonian
redata: Mix DM or H after convergence               =   F
redata: Recompute H after scf cycle                 =   F
redata: Mix DM in first SCF step                    =   T
redata: Write Pulay info on disk                    =   F
redata: New DM Occupancy tolerance                  = 0.000000000001
redata: No kicks to SCF
redata: DM Mixing Weight for Kicks                  =     0.5000
redata: Require Harris convergence for SCF          =   F
redata: Harris energy tolerance for SCF             =     0.000100 eV
redata: Require DM convergence for SCF              =   T
redata: DM tolerance for SCF                        =     0.001000
redata: Require EDM convergence for SCF             =   F
redata: EDM tolerance for SCF                       =     0.005000 eV
redata: Require H convergence for SCF               =   T
redata: Hamiltonian tolerance for SCF               =     0.001000 eV
redata: Require (free) Energy convergence for SCF   =   T
redata: (free) Energy tolerance for SCF             =     0.001000 eV
redata: Using Saved Data (generic)                  =   F
redata: Use continuation files for DM               =   F
redata: Neglect nonoverlap interactions             =   F
redata: Method of Calculation                       = Diagonalization
redata: Electronic Temperature                      =   299.9869 K
redata: Fix the spin of the system                  =   F
redata: Dynamics option                             = Single-point calculation
mix.SCF: Pulay mixing                            = Pulay
mix.SCF:    Variant                              = stable
mix.SCF:    History steps                        = 4
mix.SCF:    Linear mixing weight                 =     0.250000
mix.SCF:    Mixing weight                        =     0.250000
mix.SCF:    SVD condition                        = 0.1000E-07
redata: ***********************************************************************

%block SCF.Mixers
  Pulay
%endblock SCF.Mixers

%block SCF.Mixer.Pulay
  # Mixing method
  method pulay
  variant stable

  # Mixing options
  weight 0.2500
  weight.linear 0.2500
  history 4
%endblock SCF.Mixer.Pulay

DM_history_depth set to one: no extrapolation allowed by default for geometry relaxation
Size of DM history Fstack: 1
Total number of electrons:    22.000000
Total ionic charge:    22.000000

* ProcessorY, Blocksize:    4   1


* Orbital distribution balance (max,min):     7     6

k-point displ. along   1 input, could be:     0.00    0.50
k-point displ. along   2 input, could be:     0.00    0.50
k-point displ. along   3 input, could be:     0.00    0.50
 Kpoints in:            8 . Kpoints trimmed:            8

siesta: k-grid: Number of k-points =     8
siesta: k-grid: Cutoff (effective) =     4.316 Ang
siesta: k-grid: Supercell and displacements
siesta: k-grid:    2   0   0      0.000
siesta: k-grid:    0   2   0      0.000
siesta: k-grid:    0   0   2      0.000

diag: Algorithm                                     = Expert
diag: Parallel over k                               =   T
diag: Use parallel 2D distribution                  =   T
diag: Parallel block-size                           = 1
diag: Parallel distribution                         =     4 x     4
diag: Used triangular part                          = Lower
diag: Absolute tolerance                            =  0.100E-15
diag: Orthogonalization factor                      =  0.100E-05
diag: Memory factor                                 =  1.0000

superc: Internal auxiliary supercell:     9 x     9 x     5  =     405
superc: Number of atoms, orbitals, and projectors:   7695  41715  69255


ts: **************************************************************
ts: Save H and S matrices                           =    F
ts: Save DM and EDM matrices                        =    F
ts: Only save the overlap matrix S                  =    F
ts: **************************************************************

************************ Begin: TS CHECKS AND WARNINGS ************************
************************ End: TS CHECKS AND WARNINGS **************************


                     ====================================
                        Single-point calculation
                     ====================================

outcoor: Atomic coordinates (Ang):                          
    0.00000000    0.00000000    0.00000000   2       1  C-gga
   -0.70288177    1.21742694    1.73893783   1       2  Li-gga
   -1.45518323    2.52045129    8.69466831   1       3  Li-gga
    1.45518323    2.52045129    1.73893783   1       4  Li-gga
    0.70288177    1.21742694    8.69466831   1       5  Li-gga
    1.40576354    0.00000000    1.73893783   1       6  Li-gga
    2.91036646    0.00000000    8.69466831   1       7  Li-gga
   -1.45518323    2.52045129    1.73893783   1       8  Li-gga
   -0.70288177    1.21742694    8.69466831   1       9  Li-gga
    0.70288177    1.21742694    1.73893783   1      10  Li-gga
    1.45518323    2.52045129    8.69466831   1      11  Li-gga
    2.91036646    0.00000000    1.73893783   1      12  Li-gga
    1.40576354    0.00000000    8.69466831   1      13  Li-gga
   -0.70288177    1.21742694    5.21680307   1      14  Li-gga
   -1.45518323    2.52045129    5.21680307   1      15  Li-gga
    1.45518323    2.52045129    5.21680307   1      16  Li-gga
    0.70288177    1.21742694    5.21680307   1      17  Li-gga
    1.40576354    0.00000000    5.21680307   1      18  Li-gga
    2.91036646    0.00000000    5.21680307   1      19  Li-gga

superc: Internal auxiliary supercell:     9 x     9 x     5  =     405
superc: Number of atoms, orbitals, and projectors:   7695  41715  69255

outcell: Unit cell vectors (Ang):
        4.316130    0.000000    0.000000
       -2.158065    3.737878    0.000000
        0.000000    0.000000   10.433606

outcell: Cell vector modules (Ang)   :    4.316130    4.316130   10.433606
outcell: Cell angles (23,13,12) (deg):     90.0000     90.0000    120.0000
outcell: Cell volume (Ang**3)        :    168.3271
<dSpData1D:S at geom step 0
  <sparsity:sparsity for geom step 0
    nrows_g=103 nrows=7 sparsity=4.2135 nnzs=44701, refcount: 7>
  <dData1D:(new from dSpData1D) n=44701, refcount: 1>
refcount: 1>
new_DM -- step:     1
Initializing Density Matrix...
DM filled with atomic data:
<dSpData2D:DM initialized from atoms
  <sparsity:sparsity for geom step 0
    nrows_g=103 nrows=7 sparsity=4.2135 nnzs=44701, refcount: 8>
  <dData2D:DM n=44701 m=1, refcount: 1>
refcount: 1>
No. of atoms with KB's overlaping orbs in proc 0. Max # of overlaps:     435    1009
New grid distribution:   1
           1       1:   20    1:    5    1:   15
           2       1:   20    1:    5   16:   30
           3       1:   20    1:    5   31:   45
           4       1:   20    1:    5   46:   60
           5       1:   20    6:   10    1:   15
           6       1:   20    6:   10   16:   30
           7       1:   20    6:   10   31:   45
           8       1:   20    6:   10   46:   60
           9       1:   20   11:   15    1:   15
          10       1:   20   11:   15   16:   30
          11       1:   20   11:   15   31:   45
          12       1:   20   11:   15   46:   60
          13       1:   20   16:   20    1:   15
          14       1:   20   16:   20   16:   30
          15       1:   20   16:   20   31:   45
          16       1:   20   16:   20   46:   60

InitMesh: MESH =    40 x    40 x   120 =      192000
InitMesh: (bp) =    20 x    20 x    60 =       24000
InitMesh: Mesh cutoff (required, used) =   300.000   316.498 Ry
ExtMesh (bp) on 0 =   156 x   141 x   163 =     3585348
New grid distribution:   2
           1       1:   10    1:   10    1:   15
           2       1:   10    1:   10   16:   30
           3       1:   10    1:   10   31:   45
           4       1:   10    1:   10   46:   60
           5      11:   20    1:   10    1:   15
           6      11:   20    1:   10   16:   30
           7      11:   20    1:   10   31:   45
           8      11:   20    1:   10   46:   60
           9       1:   10   11:   20    1:   15
          10       1:   10   11:   20   16:   30
          11       1:   10   11:   20   31:   45
          12       1:   10   11:   20   46:   60
          13      11:   20   11:   20    1:   15
          14      11:   20   11:   20   16:   30
          15      11:   20   11:   20   31:   45
          16      11:   20   11:   20   46:   60
New grid distribution:   3
           1       1:   10    1:   10    1:   15
           2       1:   10    1:   10   16:   30
           3       1:   10    1:   10   31:   45
           4       1:   10    1:   10   46:   60
           5      11:   20    1:   10    1:   15
           6      11:   20    1:   10   16:   30
           7      11:   20    1:   10   31:   45
           8      11:   20    1:   10   46:   60
           9       1:   10   11:   20    1:   15
          10       1:   10   11:   20   16:   30
          11       1:   10   11:   20   31:   45
          12       1:   10   11:   20   46:   60
          13      11:   20   11:   20    1:   15
          14      11:   20   11:   20   16:   30
          15      11:   20   11:   20   31:   45
          16      11:   20   11:   20   46:   60
Setting up quadratic distribution...
ExtMesh (bp) on 0 =   146 x   146 x   163 =     3474508
PhiOnMesh: Number of (b)points on node 0 =                 1500
PhiOnMesh: nlist on node 0 =               793655

stepf: Fermi-Dirac step function

siesta: Program's energy decomposition (eV):
siesta: Ebs     =      -263.191597
siesta: Eions   =       439.895300
siesta: Ena     =       134.160664
siesta: Ekin    =       248.000895
siesta: Enl     =        21.713248
siesta: Eso     =         0.000000
siesta: Edftu   =         0.000000
siesta: DEna    =        -2.230222
siesta: DUscf   =        11.797651
siesta: DUext   =         0.000000
siesta: Exc     =      -218.622339
siesta: eta*DQ  =         0.000000
siesta: Emadel  =         0.000000
siesta: Emeta   =         0.000000
siesta: Emolmec =        -8.458936
siesta: Ekinion =         0.000000
siesta: Eharris =      -224.321989
siesta: Etot    =      -253.534340
siesta: FreeEng =      -253.560451

        iscf     Eharris(eV)        E_KS(eV)     FreeEng(eV)     dDmax    Ef(eV) dHmax(eV)
   scf:    1     -224.321989     -253.534340     -253.560451 18.620579-12.194852 15.153830
timer: Routine,Calls,Time,% = IterSCF        1      13.092  55.91
   scf:    2     -143.435584     -228.383186     -228.420825  2.834805-11.896681 25.829184
   scf:    3     -240.889464     -258.363993     -258.393294  2.387136-12.191101  6.741170
   scf:    4     -258.746111     -259.857994     -259.881906  0.770236-12.173048  1.424296
   scf:    5     -259.924278     -259.891401     -259.915316  0.022855-12.175163  1.338686
   scf:    6     -260.410217     -260.248797     -260.278083  0.266437-12.199302  1.147601
   scf:    7     -253.442549     -258.192634     -258.231358  0.926432-12.161284  7.468185
   scf:    8     -259.469990     -260.250647     -260.280496  0.855751-12.205005  1.393474
   scf:    9     -260.270123     -260.263121     -260.294199  0.088413-12.209970  1.244665
   scf:   10     -260.320773     -260.296307     -260.330143  0.040934-12.209575  0.721703
   scf:   11     -260.312414     -260.305221     -260.340187  0.018285-12.209307  0.502168
   scf:   12     -260.312127     -260.312529     -260.349685  0.053618-12.209661  0.052257
   scf:   13     -260.312241     -260.312479     -260.349325  0.022261-12.211041  0.115057
   scf:   14     -260.312574     -260.312557     -260.349600  0.003865-12.210878  0.074101
   scf:   15     -260.311880     -260.312372     -260.349776  0.008999-12.210603  0.019076
   scf:   16     -260.312628     -260.312510     -260.349792  0.002625-12.210578  0.004692
   scf:   17     -260.312481     -260.312496     -260.349793  0.001091-12.210500  0.003092
   scf:   18     -260.312542     -260.312519     -260.349793  0.001645-12.210253  0.003233
   scf:   19     -260.312515     -260.312517     -260.349793  0.000760-12.210354  0.003877
   scf:   20     -260.312499     -260.312508     -260.349793  0.000438-12.210419  0.003712
   scf:   21     -260.312509     -260.312509     -260.349793  0.000290-12.210405  0.002558
   scf:   22     -260.312455     -260.312483     -260.349792  0.001250-12.210189  0.006432
   scf:   23     -260.312536     -260.312511     -260.349793  0.001030-12.210326  0.002279
   scf:   24     -260.312525     -260.312518     -260.349793  0.000222-12.210302  0.002479
   scf:   25     -260.312517     -260.312517     -260.349793  0.000141-12.210276  0.001592
   scf:   26     -260.312516     -260.312516     -260.349793  0.000183-12.210244  0.000729

SCF Convergence by FreeE+DM+H criterion
|FreeE_i-FreeE_(i-1)| (eV) <     0.00100000
max |DM_out - DM_in|         :     0.0001828644
max |H_out - H_in|      (eV) :     0.0007286537
SCF cycle converged after 26 iterations

Using DM_out to compute the final energy and forces
No. of atoms with KB's overlaping orbs in proc 0. Max # of overlaps:     435    1009

MM-Stress (kbar):      -14.88      -14.88       23.65        0.00        0.00        0.00

siesta: E_KS(eV) =             -260.3125

siesta: E_KS - E_eggbox =      -260.3125

siesta: Atomic forces (eV/Ang):
     1    0.000000   -0.000000   -0.000001
     2    0.088883   -0.153941   -0.536283
     3   -0.088883    0.153941    0.536284
     4    0.088822    0.153843   -0.536360
     5   -0.088822   -0.153844    0.536361
     6   -0.177758    0.000005   -0.536282
     7    0.177758   -0.000005    0.536283
     8   -0.088883    0.153941   -0.536283
     9    0.088883   -0.153941    0.536284
    10   -0.088822   -0.153843   -0.536360
    11    0.088822    0.153844    0.536361
    12    0.177758   -0.000005   -0.536282
    13   -0.177758    0.000005    0.536283
    14   -0.084342    0.146038   -0.000001
    15    0.084342   -0.146038   -0.000001
    16   -0.084342   -0.146085   -0.000001
    17    0.084342    0.146085   -0.000001
    18    0.168644   -0.000023   -0.000001
    19   -0.168644    0.000023   -0.000001
----------------------------------------
   Tot    0.000000   -0.000000   -0.000000
----------------------------------------
   Max    0.536361
   Res    0.264947    sqrt( Sum f_i^2 / 3N )
----------------------------------------
   Max    0.536361    constrained

Stress tensor Voigt[x,y,z,yz,xz,xy] (kbar):    -1158.58    -1158.60      525.12       -0.00        0.00       -0.01
(Free)E + p*V (eV/cell)     -197.5917
Target enthalpy (eV/cell)     -260.3498

siesta: Eigenvalues (eV):
  ik is       eps
   1  1  -21.6748  -16.4934  -16.4019  -16.0738  -14.1102  -12.9615  -12.6428  -12.2746  -12.2745  -12.2379
         -12.2000  -12.1745  -12.0749  -11.0544   -8.7158   -6.8675   -6.8675   -6.3790   -6.3790   -5.9377
   -5.9377   -5.9095   -5.9095   -5.7615   -5.7615   -3.9580   -2.5454   -2.5454   -2.4511   -2.4511
   -2.2885   -2.2885   -2.0501   -2.0501    1.0734    1.0734    2.3051    2.3052    3.3402    3.3407
    6.9360    7.8041    9.7424   14.1193   14.1194   14.7504   14.7505   15.8932   15.8932   16.1070
   16.1070   18.2951   18.2951   22.2300   22.2300   23.5128   23.5653   23.6092   23.9712   24.9120
   24.9120   25.0635   25.0635   25.2582   25.2583   25.4099   27.8097   29.7328   29.7328   30.7600
   30.7601   32.1111   32.1112   32.4160   32.6442   32.6454   38.6804   38.8225   43.3561   43.3564
   44.5439   44.5543   45.2216   46.3282   46.3758   48.5827   50.2586   50.2588   62.5006   62.5007
   63.1899   63.1900   66.4709   66.4709   68.9365   68.9366   69.7677   78.0360   78.1700   78.4168
   78.4170   87.4343   87.4345
   2  1  -21.3604  -16.1972  -15.3338  -14.7123  -14.4772  -14.0587  -13.7816  -13.3494  -12.7397  -12.7018
         -12.2294  -12.0833  -12.0813  -11.0577   -9.2267   -8.4232   -8.2142   -7.7364   -7.6845   -7.5346
   -5.8843   -4.4404   -4.2441   -4.1327   -2.9896   -2.2563   -2.1885   -1.9077   -1.5283   -1.4674
   -1.2574   -1.0286   -0.5937   -0.4051    0.1300    0.4383    0.9912    1.0518    1.4438    1.6700
    2.9135    2.9831    3.1539    7.1838    8.9089    9.5547   10.6203   11.2772   11.6230   13.3855
   13.5794   15.9697   18.4524   18.5556   18.6160   18.8974   19.0274   19.9384   20.2557   21.2798
   22.5177   22.5821   22.8727   23.5497   24.5136   24.6683   24.9226   25.1039   25.3134   25.8055
   26.9978   28.5883   30.7293   34.6257   42.7136   44.5821   45.5212   46.7063   46.8342   47.5900
   48.1247   48.7066   50.0200   51.2738   56.1635   56.1972   56.2486   56.4148   57.5198   60.4525
   64.8413   65.6619   67.4478   69.9881   71.1646   71.7360   72.4595   76.2127   78.3142   88.6424
   92.4853  122.7913  128.4545
   3  1  -21.3604  -16.1972  -15.3338  -14.7123  -14.4772  -14.0587  -13.7816  -13.3494  -12.7397  -12.7018
         -12.2294  -12.0833  -12.0813  -11.0577   -9.2267   -8.4232   -8.2142   -7.7364   -7.6845   -7.5346
   -5.8843   -4.4404   -4.2441   -4.1327   -2.9896   -2.2563   -2.1885   -1.9077   -1.5283   -1.4674
   -1.2574   -1.0286   -0.5937   -0.4051    0.1300    0.4383    0.9912    1.0518    1.4438    1.6700
    2.9135    2.9831    3.1539    7.1838    8.9089    9.5547   10.6203   11.2772   11.6230   13.3855
   13.5794   15.9697   18.4524   18.5556   18.6160   18.8974   19.0274   19.9384   20.2557   21.2798
   22.5177   22.5821   22.8727   23.5497   24.5136   24.6683   24.9226   25.1039   25.3134   25.8055
   26.9978   28.5883   30.7293   34.6257   42.7137   44.5821   45.5212   46.7063   46.8341   47.5901
   48.1247   48.7066   50.0200   51.2738   56.1635   56.1972   56.2486   56.4148   57.5198   60.4525
   64.8413   65.6619   67.4478   69.9881   71.1646   71.7360   72.4594   76.2127   78.3142   88.6424
   92.4853  122.7913  128.4544
   4  1  -21.3604  -16.1972  -15.3338  -14.7123  -14.4772  -14.0587  -13.7816  -13.3493  -12.7397  -12.7019
         -12.2294  -12.0833  -12.0813  -11.0577   -9.2267   -8.4232   -8.2142   -7.7363   -7.6843   -7.5346
   -5.8843   -4.4404   -4.2440   -4.1327   -2.9897   -2.2563   -2.1885   -1.9076   -1.5283   -1.4674
   -1.2574   -1.0286   -0.5937   -0.4052    0.1300    0.4383    0.9912    1.0518    1.4438    1.6700
    2.9137    2.9829    3.1539    7.1839    8.9089    9.5546   10.6202   11.2772   11.6230   13.3855
   13.5794   15.9697   18.4525   18.5557   18.6161   18.8975   19.0274   19.9387   20.2557   21.2798
   22.5176   22.5821   22.8729   23.5497   24.5136   24.6683   24.9225   25.1038   25.3134   25.8055
   26.9979   28.5884   30.7293   34.6249   42.7135   44.5821   45.5210   46.7063   46.8342   47.5899
   48.1247   48.7066   50.0201   51.2737   56.1635   56.1973   56.2488   56.4149   57.5198   60.4526
   64.8412   65.6618   67.4476   69.9881   71.1644   71.7361   72.4596   76.2128   78.3141   88.6424
   92.4853  122.7912  128.4544
   5  1  -21.6644  -16.5830  -16.1979  -16.0838  -14.0508  -13.0769  -12.9701  -12.2650  -12.2626  -12.2625
         -12.1419  -12.0193  -11.8202  -11.1803   -8.7149   -6.6674   -6.6674   -6.5569   -6.5568   -6.4215
   -6.4215   -5.7554   -5.7554   -4.8053   -4.8053   -4.1160   -3.8260   -3.8260   -3.3940   -3.3940
   -0.7906   -0.7906   -0.7268   -0.7268    0.0283    0.0283    0.2449    0.2449    3.7765    3.7770
    7.3209    7.6931    9.9087   15.0523   15.0523   16.4332   16.4333   18.0272   18.0272   18.2881
   18.5501   18.5501   19.2783   19.2784   19.6327   19.6328   19.9023   19.9024   23.5811   23.6519
   23.7841   23.9780   24.9530   24.9530   26.6808   26.6809   26.9900   29.3342   29.3343   31.3852
   31.3853   31.8709   31.8710   32.8349   32.8361   33.3239   33.3903   43.0743   43.0746   43.4036
   44.9960   45.3365   45.6046   46.9491   47.7936   47.8381   49.7752   49.7754   65.7141   65.7141
   65.9862   65.9862   68.8291   68.8292   70.0916   70.0917   71.7825   71.7825   77.5481   77.5481
  112.2738  112.5182  211.4655
   6  1  -21.3536  -16.1963  -15.2907  -14.6926  -14.5857  -14.0044  -13.5923  -13.2100  -13.0680  -12.7727
         -12.7083  -12.4911  -11.2552  -10.1771  -10.0151   -9.0736   -8.4182   -8.2598   -7.8975   -6.5630
   -4.8083   -4.5631   -4.3042   -3.7946   -3.0098   -2.7411   -2.3290   -2.2069   -2.1309   -0.9688
   -0.8588   -0.6804   -0.6136   -0.3907   -0.0216    0.4647    0.9276    1.1368    1.7815    2.0055
    2.1401    2.5481    2.6364    7.7039   10.5146   10.6273   10.7896   10.8627   11.7021   14.8840
   15.3817   16.2639   17.3966   17.4028   18.2247   18.3160   18.4503   18.9245   19.1125   20.9426
   22.3201   22.4937   23.3266   23.4872   24.6009   24.6797   24.8040   25.0148   25.1842   25.7549
   27.8538   30.0951   32.5093   35.5051   41.6179   41.8600   44.1036   46.4680   46.7993   47.3754
   48.7180   48.9247   49.1689   50.1848   52.2537   53.2090   55.1469   57.2251   57.8152   57.8858
   59.5885   60.0575   60.9796   62.2451   63.7932   63.9023   67.9396   68.8102   69.0722   70.6651
   74.6064   76.9156   96.4185
   7  1  -21.3536  -16.1963  -15.2907  -14.6926  -14.5857  -14.0044  -13.5923  -13.2100  -13.0680  -12.7727
         -12.7083  -12.4911  -11.2552  -10.1771  -10.0151   -9.0736   -8.4182   -8.2598   -7.8975   -6.5630
   -4.8083   -4.5631   -4.3042   -3.7946   -3.0098   -2.7411   -2.3290   -2.2069   -2.1309   -0.9688
   -0.8588   -0.6804   -0.6136   -0.3907   -0.0216    0.4647    0.9276    1.1368    1.7815    2.0055
    2.1401    2.5481    2.6364    7.7039   10.5145   10.6273   10.7896   10.8627   11.7021   14.8840
   15.3817   16.2639   17.3966   17.4028   18.2247   18.3160   18.4503   18.9245   19.1125   20.9426
   22.3201   22.4937   23.3266   23.4872   24.6009   24.6797   24.8040   25.0148   25.1842   25.7549
   27.8538   30.0951   32.5093   35.5051   41.6179   41.8600   44.1037   46.4680   46.7993   47.3753
   48.7180   48.9247   49.1689   50.1848   52.2537   53.2090   55.1469   57.2251   57.8152   57.8858
   59.5885   60.0575   60.9796   62.2451   63.7932   63.9023   67.9396   68.8101   69.0722   70.6651
   74.6064   76.9156   96.4185
   8  1  -21.3536  -16.1963  -15.2907  -14.6926  -14.5857  -14.0044  -13.5923  -13.2099  -13.0680  -12.7727
         -12.7084  -12.4911  -11.2552  -10.1770  -10.0151   -9.0736   -8.4182   -8.2598   -7.8974   -6.5629
   -4.8083   -4.5631   -4.3042   -3.7947   -3.0098   -2.7411   -2.3289   -2.2069   -2.1309   -0.9688
   -0.8588   -0.6803   -0.6137   -0.3907   -0.0215    0.4646    0.9276    1.1368    1.7815    2.0055
    2.1399    2.5481    2.6366    7.7038   10.5146   10.6272   10.7896   10.8627   11.7021   14.8840
   15.3816   16.2638   17.3966   17.4028   18.2247   18.3162   18.4504   18.9244   19.1126   20.9426
   22.3201   22.4941   23.3266   23.4872   24.6009   24.6797   24.8039   25.0147   25.1841   25.7549
   27.8539   30.0951   32.5095   35.5043   41.6180   41.8601   44.1035   46.4680   46.7993   47.3753
   48.7180   48.9246   49.1689   50.1848   52.2539   53.2090   55.1469   57.2251   57.8152   57.8858
   59.5885   60.0573   60.9796   62.2449   63.7932   63.9021   67.9394   68.8100   69.0722   70.6651
   74.6064   76.9157   96.4185
siesta: Fermi energy =     -12.210244 eV

siesta: Program's energy decomposition (eV):
siesta: Ebs     =      -321.746427
siesta: Eions   =       439.895300
siesta: Ena     =       134.160664
siesta: Ekin    =       220.186343
siesta: Enl     =        29.890447
siesta: Eso     =         0.000000
siesta: Edftu   =         0.000000
siesta: DEna    =        13.399952
siesta: DUscf   =         2.952483
siesta: DUext   =         0.000000
siesta: Exc     =      -212.548169
siesta: eta*DQ  =         0.000000
siesta: Emadel  =         0.000000
siesta: Emeta   =         0.000000
siesta: Emolmec =        -8.458936
siesta: Ekinion =         0.000000
siesta: Eharris =      -260.312516
siesta: Etot    =      -260.312516
siesta: FreeEng =      -260.349793

siesta: Final energy (eV):
siesta:  Band Struct. =    -321.746427
siesta:       Kinetic =     220.186343
siesta:       Hartree =     101.370195
siesta:       Edftu   =       0.000000
siesta:       Eso     =       0.000000
siesta:    Ext. field =       0.000000
siesta:   Exch.-corr. =    -212.548169
siesta:  Ion-electron =    -527.705977
siesta:       Ion-ion =     166.844028
siesta:       Ekinion =       0.000000
siesta:         Total =    -260.312516
siesta:         Fermi =     -12.210244

siesta: Atomic forces (eV/Ang):
siesta:      1    0.000000   -0.000000   -0.000001
siesta:      2    0.088883   -0.153941   -0.536283
siesta:      3   -0.088883    0.153941    0.536284
siesta:      4    0.088822    0.153843   -0.536360
siesta:      5   -0.088822   -0.153844    0.536361
siesta:      6   -0.177758    0.000005   -0.536282
siesta:      7    0.177758   -0.000005    0.536283
siesta:      8   -0.088883    0.153941   -0.536283
siesta:      9    0.088883   -0.153941    0.536284
siesta:     10   -0.088822   -0.153843   -0.536360
siesta:     11    0.088822    0.153844    0.536361
siesta:     12    0.177758   -0.000005   -0.536282
siesta:     13   -0.177758    0.000005    0.536283
siesta:     14   -0.084342    0.146038   -0.000001
siesta:     15    0.084342   -0.146038   -0.000001
siesta:     16   -0.084342   -0.146085   -0.000001
siesta:     17    0.084342    0.146085   -0.000001
siesta:     18    0.168644   -0.000023   -0.000001
siesta:     19   -0.168644    0.000023   -0.000001
siesta: ----------------------------------------
siesta:    Tot    0.000000   -0.000000   -0.000000

siesta: Stress tensor (static) (eV/Ang**3):
siesta:    -0.723122   -0.000008   -0.000000
siesta:    -0.000008   -0.723131    0.000000
siesta:     0.000000   -0.000000    0.327751

siesta: Cell volume =        168.327124 Ang**3

siesta: Pressure (static):
siesta:                Solid            Molecule  Units
siesta:           0.00406064          0.00355972  Ry/Bohr**3
siesta:           0.37283408          0.32684105  eV/Ang**3
siesta:         597.35251513        523.66274889  kBar
(Free)E+ p_basis*V_orbitals  =        -203.911378
(Free)Eharris+ p_basis*V_orbitals  =        -203.911377

cite: Please see "LiC18_scf.bib" for an exhaustive BiBTeX file.
cite: Please clearly indicate Siesta version in published work: 4.1.5
cite: This calculation has made use of the following articles
cite: which are encouraged to be cited in a published work.
        Primary SIESTA paper
          DOI: www.doi.org/10.1088/0953-8984/14/11/302

>> End of run:   9-NOV-2022   0:11:47
Job completed
