Created by /home/rramji/scripts/createLammpsInput.pl on Wed Oct 12 19:14:35 2022

         189 atoms
         207 bonds
         420 angles
         727 dihedrals
         243 impropers

           4 atom types
           6 bond types
           3 angle types
          18 dihedral types
           2 improper types

		  -7.507805  20.786930 xlo xhi
		  -1.736495  13.469200 ylo yhi
		  -1.091796  12.077942 zlo zhi

Masses

    1 6.9410E+00 # Li     
    2 1.2011E+01 # C_2    
    3 1.2011E+01 # C_3    
    4 1.2011E+01 # C_R    

Pair Coeffs

    1    0.02500    2.18359 # Li Li 
    2    0.09510    3.47299 # C_2 C_2 
    3    0.09510    3.47299 # C_3 C_3 
    4    0.09510    3.47299 # C_R C_R 

Bond Coeffs

    1      700     1.33 # C_2 C_2 
    2      350     1.43 # C_2 C_3 
    3      350     1.53 # C_3 C_3 
    4      350     1.46 # C_R C_3 
    5      700     1.36 # C_R C_2 
    6      525     1.39 # C_R C_R 

Angle Coeffs

    1       50      120 # X C_2 X 
    2       50  109.471 # X C_3 X 
    3       50      120 # X C_R X 

Dihedral Coeffs

    1 0.0833333       -1        6 # C_2 C_2 C_3 X 
    2    0.125       -1        6 # C_R C_R C_3 X 
    3    11.25       -1        2 # X C_2 C_2 X 
    4 0.166667        1        3 # X C_2 C_3 X 
    5      0.5        1        3 # X C_3 C_3 X 
    6    3.125       -1        2 # X C_R C_2 X 
    7    3.125       -1        2 # X C_R C_R X 
    8 0.333333        1        3 # X C_3 C_3 X 
    9 0.166667        1        3 # X C_3 C_3 X 
   10 0.166667       -1        6 # C_2 C_2 C_3 X 
   11 0.0833333       -1        6 # C_R C_R C_3 X 
   12    0.125       -1        6 # C_2 C_2 C_3 X 
   13 0.111111        1        3 # X C_3 C_3 X 
   14     6.25       -1        2 # X C_R C_2 X 
   15    5.625       -1        2 # X C_2 C_2 X 
   16      0.5        1        3 # X C_2 C_3 X 
   17     0.25       -1        6 # C_2 C_2 C_3 X 
   18     0.25        1        3 # X C_2 C_3 X 

Improper Coeffs

    1  13.3333        0 # C_2 X X X 
    2  13.3333        0 # C_R X X X 

Atoms

       1        1        1  0.00000000    0.00000    0.00000    0.00000    0    0    0
       2        2        1  0.00000000    0.00000    0.00000    3.69986    0    0    0
       3        3        1  0.00000000    0.00000    0.00000    7.39972    0    0    0
       4        1        1  0.00000000   -2.15807    3.73788    0.00000    0    0    0
       5        1        1  0.00000000   -4.31613    7.47576    0.00000    0    0    0
       6        1        1  0.00000000    4.31613    7.47576    0.00000    0    0    0
       7        1        1  0.00000000    2.15807    3.73788    0.00000    0    0    0
       8        1        1  0.00000000    4.31613    0.00000    0.00000    0    0    0
       9        1        1  0.00000000    8.63226    0.00000    0.00000    0    0    0
      10        2        1  0.00000000   -2.15807    3.73788    3.69986    0    0    0
      11        3        1  0.00000000   -4.31613    7.47576    7.39972    0    0    0
      12        2        1  0.00000000    4.31613    7.47576    3.69986    0    0    0
      13        3        1  0.00000000    2.15807    3.73788    7.39972    0    0    0
      14        2        1  0.00000000    4.31613    0.00000    3.69986    0    0    0
      15        3        1  0.00000000    8.63226    0.00000    7.39972    0    0    0
      16        2        1  0.00000000   -4.31613    7.47576    3.69986    0    0    0
      17        3        1  0.00000000   -2.15807    3.73788    7.39972    0    0    0
      18        2        1  0.00000000    2.15807    3.73788    3.69986    0    0    0
      19        3        1  0.00000000    4.31613    7.47576    7.39972    0    0    0
      20        2        1  0.00000000    8.63226    0.00000    3.69986    0    0    0
      21        3        1  0.00000000    4.31613    0.00000    7.39972    0    0    0
      22        1        1  0.00000000    0.00000    7.47576    0.00000    0    0    0
      23        1        1  0.00000000    6.47420    3.73788    0.00000    0    0    0
      24        2        1  0.00000000    0.00000    7.47576    3.69986    0    0    0
      25        3        1  0.00000000    6.47420    3.73788    7.39972    0    0    0
      26        2        1  0.00000000    6.47420    3.73788    3.69986    0    0    0
      27        3        1  0.00000000    0.00000    7.47576    7.39972    0    0    0
      28        1        2  0.00000000   -0.70288    1.21743    1.84993    0    0    0
      29        3        3  0.00000000   -5.77131    9.99621    9.24965    0    0    0
      30        1        3  0.00000000    5.77131    9.99621    1.84993    0    0    0
      31        3        2  0.00000000    0.70288    1.21743    9.24965    0    0    0
      32        1        2  0.00000000    1.40576    0.00000    1.84993    0    0    0
      33        3        3  0.00000000   11.54263    0.00000    9.24965    0    0    0
      34        1        3  0.00000000   -5.77131    9.99621    1.84993    0    0    0
      35        3        2  0.00000000   -0.70288    1.21743    9.24965    0    0    0
      36        1        2  0.00000000    0.70288    1.21743    1.84993    0    0    0
      37        3        3  0.00000000    5.77131    9.99621    9.24965    0    0    0
      38        1        3  0.00000000   11.54263    0.00000    1.84993    0    0    0
      39        3        2  0.00000000    1.40576    0.00000    9.24965    0    0    0
      40        2        2  0.00000000   -0.70288    1.21743    5.54979    0    0    0
      41        2        3  0.00000000   -5.77131    9.99621    5.54979    0    0    0
      42        2        3  0.00000000    5.77131    9.99621    5.54979    0    0    0
      43        2        2  0.00000000    0.70288    1.21743    5.54979    0    0    0
      44        2        2  0.00000000    1.40576    0.00000    5.54979    0    0    0
      45        2        3  0.00000000   11.54263    0.00000    5.54979    0    0    0
      46        1        3  0.00000000   -2.86095    4.95531    1.84993    0    0    0
      47        3        3  0.00000000   -3.61325    6.25833    9.24965    0    0    0
      48        1        2  0.00000000    3.61325    6.25833    1.84993    0    0    0
      49        3        3  0.00000000    2.86095    4.95531    9.24965    0    0    0
      50        1        2  0.00000000    5.72189    0.00000    1.84993    0    0    0
      51        3        2  0.00000000    7.22650    0.00000    9.24965    0    0    0
      52        1        3  0.00000000   -3.61325    6.25833    1.84993    0    0    0
      53        3        3  0.00000000   -2.86095    4.95531    9.24965    0    0    0
      54        1        3  0.00000000    2.86095    4.95531    1.84993    0    0    0
      55        3        2  0.00000000    3.61325    6.25833    9.24965    0    0    0
      56        1        2  0.00000000    7.22650    0.00000    1.84993    0    0    0
      57        3        2  0.00000000    5.72189    0.00000    9.24965    0    0    0
      58        2        3  0.00000000   -2.86095    4.95531    5.54979    0    0    0
      59        2        3  0.00000000   -3.61325    6.25833    5.54979    0    0    0
      60        2        2  0.00000000    3.61325    6.25833    5.54979    0    0    0
      61        2        3  0.00000000    2.86095    4.95531    5.54979    0    0    0
      62        2        2  0.00000000    5.72189    0.00000    5.54979    0    0    0
      63        2        2  0.00000000    7.22650    0.00000    5.54979    0    0    0
      64        1        2  0.00000000   -5.01901    8.69318    1.84993    0    0    0
      65        3        2  0.00000000   -1.45518    2.52045    9.24965    0    0    0
      66        1        2  0.00000000    1.45518    2.52045    1.84993    0    0    0
      67        3        3  0.00000000    5.01901    8.69318    9.24965    0    0    0
      68        1        3  0.00000000   10.03802    0.00000    1.84993    0    0    0
      69        3        2  0.00000000    2.91037    0.00000    9.24965    0    0    0
      70        1        2  0.00000000   -1.45518    2.52045    1.84993    0    0    0
      71        3        2  0.00000000   -5.01901    8.69318    9.24965    0    0    0
      72        1        3  0.00000000    5.01901    8.69318    1.84993    0    0    0
      73        3        2  0.00000000    1.45518    2.52045    9.24965    0    0    0
      74        1        2  0.00000000    2.91037    0.00000    1.84993    0    0    0
      75        3        3  0.00000000   10.03802    0.00000    9.24965    0    0    0
      76        2        3  0.00000000   -5.01901    8.69318    5.54979    0    0    0
      77        2        2  0.00000000   -1.45518    2.52045    5.54979    0    0    0
      78        2        2  0.00000000    1.45518    2.52045    5.54979    0    0    0
      79        2        2  0.00000000    5.01901    8.69318    5.54979    0    0    0
      80        2        3  0.00000000   10.03802    0.00000    5.54979    0    0    0
      81        2        2  0.00000000    2.91037    0.00000    5.54979    0    0    0
      82        1        4  0.00000000    3.61325    1.21743    1.84993    0    0    0
      83        3        2  0.00000000    2.86095    9.99621    9.24965    0    0    0
      84        1        2  0.00000000   10.08744    2.52045    1.84993    0    0    0
      85        3        2  0.00000000   -3.61325    8.69318    9.24965    0    0    0
      86        1        3  0.00000000    5.72189    7.47576    1.84993    0    0    0
      87        3        4  0.00000000    0.75230    3.73788    9.24965    0    0    0
      88        1        2  0.00000000    2.86095    9.99621    1.84993    0    0    0
      89        3        4  0.00000000    3.61325    1.21743    9.24965    0    0    0
      90        1        2  0.00000000   -3.61325    8.69318    1.84993    0    0    0
      91        3        2  0.00000000   10.08744    2.52045    9.24965    0    0    0
      92        1        4  0.00000000    0.75230    3.73788    1.84993    0    0    0
      93        3        3  0.00000000    5.72189    7.47576    9.24965    0    0    0
      94        3        4  0.00000000   -0.75230    3.73788    9.24965    0    0    0
      95        1        2  0.00000000    7.22650    7.47576    1.84993    0    0    0
      96        3        2  0.00000000   -2.86095    9.99621    9.24965    0    0    0
      97        1        2  0.00000000    9.33514    1.21743    1.84993    0    0    0
      98        3        2  0.00000000    3.61325    8.69318    9.24965    0    0    0
      99        1        4  0.00000000    2.86095    2.52045    1.84993    0    0    0
     100        3        2  0.00000000    7.22650    7.47576    9.24965    0    0    0
     101        1        4  0.00000000   -0.75230    3.73788    1.84993    0    0    0
     102        3        2  0.00000000    9.33514    1.21743    9.24965    0    0    0
     103        1        2  0.00000000   -2.86095    9.99621    1.84993    0    0    0
     104        3        4  0.00000000    2.86095    2.52045    9.24965    0    0    0
     105        1        2  0.00000000    3.61325    8.69318    1.84993    0    0    0
     106        2        4  0.00000000    3.61325    1.21743    5.54979    0    0    0
     107        2        2  0.00000000    2.86095    9.99621    5.54979    0    0    0
     108        2        2  0.00000000   10.08744    2.52045    5.54979    0    0    0
     109        2        2  0.00000000   -3.61325    8.69318    5.54979    0    0    0
     110        2        3  0.00000000    5.72189    7.47576    5.54979    0    0    0
     111        2        4  0.00000000    0.75230    3.73788    5.54979    0    0    0
     112        2        4  0.00000000   -0.75230    3.73788    5.54979    0    0    0
     113        2        2  0.00000000    7.22650    7.47576    5.54979    0    0    0
     114        2        2  0.00000000   -2.86095    9.99621    5.54979    0    0    0
     115        2        2  0.00000000    9.33514    1.21743    5.54979    0    0    0
     116        2        2  0.00000000    3.61325    8.69318    5.54979    0    0    0
     117        2        4  0.00000000    2.86095    2.52045    5.54979    0    0    0
     118        1        4  0.00000000    1.45518    4.95531    1.84993    0    0    0
     119        3        2  0.00000000    5.01901    6.25833    9.24965    0    0    0
     120        1        2  0.00000000    1.45518    9.99621    1.84993    0    0    0
     121        3        4  0.00000000    5.01901    1.21743    9.24965    0    0    0
     122        1        3  0.00000000   -2.91037    7.47576    1.84993    0    0    0
     123        3        2  0.00000000    9.38456    3.73788    9.24965    0    0    0
     124        1        2  0.00000000    5.01901    6.25833    1.84993    0    0    0
     125        3        4  0.00000000    1.45518    4.95531    9.24965    0    0    0
     126        1        4  0.00000000    5.01901    1.21743    1.84993    0    0    0
     127        3        2  0.00000000    1.45518    9.99621    9.24965    0    0    0
     128        1        2  0.00000000    9.38456    3.73788    1.84993    0    0    0
     129        3        3  0.00000000   -2.91037    7.47576    9.24965    0    0    0
     130        3        4  0.00000000    3.56383    3.73788    9.24965    0    0    0
     131        1        2  0.00000000    2.91037    7.47576    1.84993    0    0    0
     132        3        2  0.00000000    7.92938    6.25833    9.24965    0    0    0
     133        1        4  0.00000000   -1.45518    4.95531    1.84993    0    0    0
     134        3        2  0.00000000    7.92938    1.21743    9.24965    0    0    0
     135        1        2  0.00000000   -1.45518    9.99621    1.84993    0    0    0
     136        3        2  0.00000000    2.91037    7.47576    9.24965    0    0    0
     137        1        4  0.00000000    3.56383    3.73788    1.84993    0    0    0
     138        3        4  0.00000000   -1.45518    4.95531    9.24965    0    0    0
     139        1        2  0.00000000    7.92938    6.25833    1.84993    0    0    0
     140        3        2  0.00000000   -1.45518    9.99621    9.24965    0    0    0
     141        1        2  0.00000000    7.92938    1.21743    1.84993    0    0    0
     142        2        4  0.00000000    1.45518    4.95531    5.54979    0    0    0
     143        2        2  0.00000000    5.01901    6.25833    5.54979    0    0    0
     144        2        2  0.00000000    1.45518    9.99621    5.54979    0    0    0
     145        2        4  0.00000000    5.01901    1.21743    5.54979    0    0    0
     146        2        3  0.00000000   -2.91037    7.47576    5.54979    0    0    0
     147        2        2  0.00000000    9.38456    3.73788    5.54979    0    0    0
     148        2        4  0.00000000    3.56383    3.73788    5.54979    0    0    0
     149        2        3  0.00000000    2.91037    7.47576    5.54979    0    0    0
     150        2        2  0.00000000    7.92938    6.25833    5.54979    0    0    0
     151        2        4  0.00000000   -1.45518    4.95531    5.54979    0    0    0
     152        2        2  0.00000000    7.92938    1.21743    5.54979    0    0    0
     153        2        3  0.00000000   -1.45518    9.99621    5.54979    0    0    0
     154        1        2  0.00000000   -0.70288    8.69318    1.84993    0    0    0
     155        3        2  0.00000000    7.17708    2.52045    9.24965    0    0    0
     156        1        4  0.00000000   -0.70288    6.25833    1.84993    0    0    0
     157        3        3  0.00000000    7.17708    4.95531    9.24965    0    0    0
     158        1        3  0.00000000    1.40576    7.47576    1.84993    0    0    0
     159        3        4  0.00000000    5.06843    3.73788    9.24965    0    0    0
     160        1        2  0.00000000    7.17708    2.52045    1.84993    0    0    0
     161        3        3  0.00000000   -0.70288    8.69318    9.24965    0    0    0
     162        1        3  0.00000000    7.17708    4.95531    1.84993    0    0    0
     163        3        4  0.00000000   -0.70288    6.25833    9.24965    0    0    0
     164        1        4  0.00000000    5.06843    3.73788    1.84993    0    0    0
     165        3        2  0.00000000    1.40576    7.47576    9.24965    0    0    0
     166        3        2  0.00000000    7.87996    3.73788    9.24965    0    0    0
     167        1        3  0.00000000   -1.40576    7.47576    1.84993    0    0    0
     168        3        4  0.00000000    5.77131    2.52045    9.24965    0    0    0
     169        1        2  0.00000000    0.70288    8.69318    1.84993    0    0    0
     170        3        3  0.00000000    5.77131    4.95531    9.24965    0    0    0
     171        1        4  0.00000000    0.70288    6.25833    1.84993    0    0    0
     172        3        3  0.00000000   -1.40576    7.47576    9.24965    0    0    0
     173        1        2  0.00000000    7.87996    3.73788    1.84993    0    0    0
     174        3        2  0.00000000    0.70288    8.69318    9.24965    0    0    0
     175        1        4  0.00000000    5.77131    2.52045    1.84993    0    0    0
     176        3        4  0.00000000    0.70288    6.25833    9.24965    0    0    0
     177        1        3  0.00000000    5.77131    4.95531    1.84993    0    0    0
     178        2        2  0.00000000   -0.70288    8.69318    5.54979    0    0    0
     179        2        2  0.00000000    7.17708    2.52045    5.54979    0    0    0
     180        2        4  0.00000000   -0.70288    6.25833    5.54979    0    0    0
     181        2        3  0.00000000    7.17708    4.95531    5.54979    0    0    0
     182        2        3  0.00000000    1.40576    7.47576    5.54979    0    0    0
     183        2        4  0.00000000    5.06843    3.73788    5.54979    0    0    0
     184        2        2  0.00000000    7.87996    3.73788    5.54979    0    0    0
     185        2        3  0.00000000   -1.40576    7.47576    5.54979    0    0    0
     186        2        4  0.00000000    5.77131    2.52045    5.54979    0    0    0
     187        2        2  0.00000000    0.70288    8.69318    5.54979    0    0    0
     188        2        3  0.00000000    5.77131    4.95531    5.54979    0    0    0
     189        2        4  0.00000000    0.70288    6.25833    5.54979    0    0    0


Bonds

       1        1       28       70 
       2        1       28       36 
       3        2       29       71 
       4        3       30       72 
       5        1       31       73 
       6        1       31       35 
       7        1       31       39 
       8        1       32       74 
       9        1       32       36 
      10        3       33       75 
      11        2       34       64 
      12        1       35       65 
      13        1       36       66 
      14        3       37       67 
      15        3       38       68 
      16        1       39       69 
      17        1       40       77 
      18        1       40       43 
      19        3       41       76 
      20        2       42       79 
      21        1       43       78 
      22        1       43       44 
      23        1       44       81 
      24        3       45       80 
      25        3       46       52 
      26        4       46      133 
      27        3       47      129 
      28        3       47       53 
      29        2       48       54 
      30        1       48      131 
      31        1       48      124 
      32        4       49      130 
      33        4       49      125 
      34        2       49       55 
      35        1       50       56 
      36        5       50      126 
      37        1       51       57 
      38        1       51      134 
      39        3       52      122 
      40        4       53      138 
      41        4       54      118 
      42        4       54      137 
      43        1       55      119 
      44        1       55      136 
      45        1       56      141 
      46        5       57      121 
      47        4       58      151 
      48        3       58       59 
      49        3       59      146 
      50        1       60      143 
      51        2       60      149 
      52        2       60       61 
      53        4       61      142 
      54        4       61      148 
      55        5       62      145 
      56        1       62       63 
      57        1       63      152 
      58        1       64       90 
      59        5       65       94 
      60        5       66       92 
      61        5       66       99 
      62        2       67       98 
      63        3       67       93 
      64        2       68       97 
      65        5       69       89 
      66        5       70      101 
      67        1       71       85 
      68        2       72      105 
      69        3       72       86 
      70        5       73      104 
      71        5       73       87 
      72        5       74       82 
      73        2       75      102 
      74        2       76      109 
      75        5       77      112 
      76        5       78      117 
      77        5       78      111 
      78        1       79      116 
      79        2       79      110 
      80        2       80      115 
      81        5       81      106 
      82        6       82       99 
      83        6       82      126 
      84        1       83      127 
      85        1       83       98 
      86        1       84       97 
      87        1       84      128 
      88        2       85      129 
      89        1       85       96 
      90        2       86       95 
      91        2       86      124 
      92        6       87      125 
      93        6       87       94 
      94        1       88      105 
      95        1       88      120 
      96        6       89      121 
      97        6       89      104 
      98        1       90      103 
      99        2       90      122 
     100        1       91      123 
     101        1       91      102 
     102        6       92      101 
     103        6       92      118 
     104        2       93      119 
     105        2       93      100 
     106        6       94      138 
     107        1       95      139 
     108        1       96      140 
     109        1       97      141 
     110        1       98      136 
     111        6       99      137 
     112        1      100      132 
     113        6      101      133 
     114        1      102      134 
     115        1      103      135 
     116        6      104      130 
     117        1      105      131 
     118        6      106      145 
     119        6      106      117 
     120        1      107      144 
     121        1      107      116 
     122        1      108      147 
     123        1      108      115 
     124        2      109      146 
     125        1      109      114 
     126        2      110      143 
     127        2      110      113 
     128        6      111      142 
     129        6      111      112 
     130        6      112      151 
     131        1      113      150 
     132        2      114      153 
     133        1      115      152 
     134        2      116      149 
     135        6      117      148 
     136        6      118      171 
     137        2      119      170 
     138        1      120      169 
     139        6      121      168 
     140        3      122      167 
     141        1      123      166 
     142        2      124      177 
     143        6      125      176 
     144        6      126      175 
     145        1      127      174 
     146        1      128      173 
     147        3      129      172 
     148        6      130      159 
     149        2      131      158 
     150        2      132      157 
     151        6      133      156 
     152        1      134      155 
     153        1      135      154 
     154        1      136      165 
     155        6      137      164 
     156        6      138      163 
     157        2      139      162 
     158        2      140      161 
     159        1      141      160 
     160        6      142      189 
     161        2      143      188 
     162        1      144      187 
     163        6      145      186 
     164        3      146      185 
     165        1      147      184 
     166        6      148      183 
     167        3      149      182 
     168        2      150      181 
     169        6      151      180 
     170        1      152      179 
     171        2      153      178 
     172        1      154      169 
     173        2      154      167 
     174        1      155      166 
     175        5      155      168 
     176        6      156      171 
     177        4      156      167 
     178        2      157      166 
     179        3      157      170 
     180        4      158      171 
     181        2      158      169 
     182        6      159      168 
     183        4      159      170 
     184        5      160      175 
     185        1      160      173 
     186        2      161      174 
     187        3      161      172 
     188        3      162      177 
     189        2      162      173 
     190        6      163      176 
     191        4      163      172 
     192        4      164      177 
     193        6      164      175 
     194        5      165      176 
     195        1      165      174 
     196        1      178      187 
     197        2      178      185 
     198        5      179      186 
     199        1      179      184 
     200        6      180      189 
     201        4      180      185 
     202        3      181      188 
     203        2      181      184 
     204        4      182      189 
     205        2      182      187 
     206        4      183      188 
     207        6      183      186 

Angles

       1        1        3       39       31 
       2        2        4       46      133 
       3        2        5      122      167 
       4        2        6       86      124 
       5        2        7       54       48 
       6        2        7       54      118 
       7        2        7       54      137 
       8        1        8       50       56 
       9        1        8       50      126 
      10        2        9       68       38 
      11        2       12      110      113 
      12        2       13       49      130 
      13        2       13       49      125 
      14        1       14       62      145 
      15        2       15       75      102 
      16        2       16      146      109 
      17        2       17       53      138 
      18        2       18       61      142 
      19        2       18       61      148 
      20        2       19       93      119 
      21        2       19       93      100 
      22        2       20       80      115 
      23        1       21       57      121 
      24        2       22      158      171 
      25        2       22      158      169 
      26        2       22      158      131 
      27        2       23      162      177 
      28        2       23      162      173 
      29        2       23      162      139 
      30        2       24      182      189 
      31        2       24      182      187 
      32        2       24      182      149 
      33        2       25      157      166 
      34        2       25      157      170 
      35        2       25      157      132 
      36        2       26      181      188 
      37        2       26      181      184 
      38        2       26      181      150 
      39        2       27      172      161 
      40        2       27      172      163 
      41        2       27      172      129 
      42        1       28       70      101 
      43        2       30       72      105 
      44        1       31       73      104 
      45        1       32       36       28 
      46        2       33       75       15 
      47        2       33       75      102 
      48        1       36       32        1 
      49        1       39       31       35 
      50        1       40       77      112 
      51        2       41       76      109 
      52        1       42       79      116 
      53        1       42       79      110 
      54        1       43       78      117 
      55        1       43       78      111 
      56        1       43       44        2 
      57        1       44       81      106 
      58        1       44       43       40 
      59        2       45       80       20 
      60        2       45       80      115 
      61        2       46       52      122 
      62        3       46      133      101 
      63        3       46      133      156 
      64        2       47      129       11 
      65        2       47      129      172 
      66        2       47       53       17 
      67        2       47       53      138 
      68        2       48       54      118 
      69        2       48       54      137 
      70        1       48      131      105 
      71        1       48      131      158 