189 atoms
4 atom types
		  
-7.507805  20.786930 xlo xhi		  
-1.736495  13.469200 ylo yhi		  
-1.091796  12.077942 zlo zhi

Masses

    1 6.9410E+00 # Li     
    2 1.2011E+01 # C_2    
    3 1.2011E+01 # C_3    
    4 1.2011E+01 # C_R    

Atoms

       1        1        1  0.00000000    0.00000    0.00000    0.00000    0    0    0
       2        2        1  0.00000000    0.00000    0.00000    3.69986    0    0    0
       3        3        1  0.00000000    0.00000    0.00000    7.39972    0    0    0
       4        1        1  0.00000000   -2.15807    3.73788    0.00000    0    0    0
       5        1        1  0.00000000   -4.31613    7.47576    0.00000    0    0    0
       6        1        1  0.00000000    4.31613    7.47576    0.00000    0    0    0
       7        1        1  0.00000000    2.15807    3.73788    0.00000    0    0    0
       8        1        1  0.00000000    4.31613    0.00000    0.00000    0    0    0
       9        1        1  0.00000000    8.63226    0.00000    0.00000    0    0    0
      10        2        1  0.00000000   -2.15807    3.73788    3.69986    0    0    0
      11        3        1  0.00000000   -4.31613    7.47576    7.39972    0    0    0
      12        2        1  0.00000000    4.31613    7.47576    3.69986    0    0    0
      13        3        1  0.00000000    2.15807    3.73788    7.39972    0    0    0
      14        2        1  0.00000000    4.31613    0.00000    3.69986    0    0    0
      15        3        1  0.00000000    8.63226    0.00000    7.39972    0    0    0
      16        2        1  0.00000000   -4.31613    7.47576    3.69986    0    0    0
      17        3        1  0.00000000   -2.15807    3.73788    7.39972    0    0    0
      18        2        1  0.00000000    2.15807    3.73788    3.69986    0    0    0
      19        3        1  0.00000000    4.31613    7.47576    7.39972    0    0    0
      20        2        1  0.00000000    8.63226    0.00000    3.69986    0    0    0
      21        3        1  0.00000000    4.31613    0.00000    7.39972    0    0    0
      22        1        1  0.00000000    0.00000    7.47576    0.00000    0    0    0
      23        1        1  0.00000000    6.47420    3.73788    0.00000    0    0    0
      24        2        1  0.00000000    0.00000    7.47576    3.69986    0    0    0
      25        3        1  0.00000000    6.47420    3.73788    7.39972    0    0    0
      26        2        1  0.00000000    6.47420    3.73788    3.69986    0    0    0
      27        3        1  0.00000000    0.00000    7.47576    7.39972    0    0    0
      28        1        2  0.00000000   -0.70288    1.21743    1.84993    0    0    0
      29        3        3  0.00000000   -5.77131    9.99621    9.24965    0    0    0
      30        1        3  0.00000000    5.77131    9.99621    1.84993    0    0    0
      31        3        2  0.00000000    0.70288    1.21743    9.24965    0    0    0
      32        1        2  0.00000000    1.40576    0.00000    1.84993    0    0    0
      33        3        3  0.00000000   11.54263    0.00000    9.24965    0    0    0
      34        1        3  0.00000000   -5.77131    9.99621    1.84993    0    0    0
      35        3        2  0.00000000   -0.70288    1.21743    9.24965    0    0    0
      36        1        2  0.00000000    0.70288    1.21743    1.84993    0    0    0
      37        3        3  0.00000000    5.77131    9.99621    9.24965    0    0    0
      38        1        3  0.00000000   11.54263    0.00000    1.84993    0    0    0
      39        3        2  0.00000000    1.40576    0.00000    9.24965    0    0    0
      40        2        2  0.00000000   -0.70288    1.21743    5.54979    0    0    0
      41        2        3  0.00000000   -5.77131    9.99621    5.54979    0    0    0
      42        2        3  0.00000000    5.77131    9.99621    5.54979    0    0    0
      43        2        2  0.00000000    0.70288    1.21743    5.54979    0    0    0
      44        2        2  0.00000000    1.40576    0.00000    5.54979    0    0    0
      45        2        3  0.00000000   11.54263    0.00000    5.54979    0    0    0
      46        1        3  0.00000000   -2.86095    4.95531    1.84993    0    0    0
      47        3        3  0.00000000   -3.61325    6.25833    9.24965    0    0    0
      48        1        2  0.00000000    3.61325    6.25833    1.84993    0    0    0
      49        3        3  0.00000000    2.86095    4.95531    9.24965    0    0    0
      50        1        2  0.00000000    5.72189    0.00000    1.84993    0    0    0
      51        3        2  0.00000000    7.22650    0.00000    9.24965    0    0    0
      52        1        3  0.00000000   -3.61325    6.25833    1.84993    0    0    0
      53        3        3  0.00000000   -2.86095    4.95531    9.24965    0    0    0
      54        1        3  0.00000000    2.86095    4.95531    1.84993    0    0    0
      55        3        2  0.00000000    3.61325    6.25833    9.24965    0    0    0
      56        1        2  0.00000000    7.22650    0.00000    1.84993    0    0    0
      57        3        2  0.00000000    5.72189    0.00000    9.24965    0    0    0
      58        2        3  0.00000000   -2.86095    4.95531    5.54979    0    0    0
      59        2        3  0.00000000   -3.61325    6.25833    5.54979    0    0    0
      60        2        2  0.00000000    3.61325    6.25833    5.54979    0    0    0
      61        2        3  0.00000000    2.86095    4.95531    5.54979    0    0    0
      62        2        2  0.00000000    5.72189    0.00000    5.54979    0    0    0
      63        2        2  0.00000000    7.22650    0.00000    5.54979    0    0    0
      64        1        2  0.00000000   -5.01901    8.69318    1.84993    0    0    0
      65        3        2  0.00000000   -1.45518    2.52045    9.24965    0    0    0
      66        1        2  0.00000000    1.45518    2.52045    1.84993    0    0    0
      67        3        3  0.00000000    5.01901    8.69318    9.24965    0    0    0
      68        1        3  0.00000000   10.03802    0.00000    1.84993    0    0    0
      69        3        2  0.00000000    2.91037    0.00000    9.24965    0    0    0
      70        1        2  0.00000000   -1.45518    2.52045    1.84993    0    0    0
      71        3        2  0.00000000   -5.01901    8.69318    9.24965    0    0    0
      72        1        3  0.00000000    5.01901    8.69318    1.84993    0    0    0
      73        3        2  0.00000000    1.45518    2.52045    9.24965    0    0    0
      74        1        2  0.00000000    2.91037    0.00000    1.84993    0    0    0
      75        3        3  0.00000000   10.03802    0.00000    9.24965    0    0    0
      76        2        3  0.00000000   -5.01901    8.69318    5.54979    0    0    0
      77        2        2  0.00000000   -1.45518    2.52045    5.54979    0    0    0
      78        2        2  0.00000000    1.45518    2.52045    5.54979    0    0    0
      79        2        2  0.00000000    5.01901    8.69318    5.54979    0    0    0
      80        2        3  0.00000000   10.03802    0.00000    5.54979    0    0    0
      81        2        2  0.00000000    2.91037    0.00000    5.54979    0    0    0
      82        1        4  0.00000000    3.61325    1.21743    1.84993    0    0    0
      83        3        2  0.00000000    2.86095    9.99621    9.24965    0    0    0
      84        1        2  0.00000000   10.08744    2.52045    1.84993    0    0    0
      85        3        2  0.00000000   -3.61325    8.69318    9.24965    0    0    0
      86        1        3  0.00000000    5.72189    7.47576    1.84993    0    0    0
      87        3        4  0.00000000    0.75230    3.73788    9.24965    0    0    0
      88        1        2  0.00000000    2.86095    9.99621    1.84993    0    0    0
      89        3        4  0.00000000    3.61325    1.21743    9.24965    0    0    0
      90        1        2  0.00000000   -3.61325    8.69318    1.84993    0    0    0
      91        3        2  0.00000000   10.08744    2.52045    9.24965    0    0    0
      92        1        4  0.00000000    0.75230    3.73788    1.84993    0    0    0
      93        3        3  0.00000000    5.72189    7.47576    9.24965    0    0    0
      94        3        4  0.00000000   -0.75230    3.73788    9.24965    0    0    0
      95        1        2  0.00000000    7.22650    7.47576    1.84993    0    0    0
      96        3        2  0.00000000   -2.86095    9.99621    9.24965    0    0    0
      97        1        2  0.00000000    9.33514    1.21743    1.84993    0    0    0
      98        3        2  0.00000000    3.61325    8.69318    9.24965    0    0    0
      99        1        4  0.00000000    2.86095    2.52045    1.84993    0    0    0
     100        3        2  0.00000000    7.22650    7.47576    9.24965    0    0    0
     101        1        4  0.00000000   -0.75230    3.73788    1.84993    0    0    0
     102        3        2  0.00000000    9.33514    1.21743    9.24965    0    0    0
     103        1        2  0.00000000   -2.86095    9.99621    1.84993    0    0    0
     104        3        4  0.00000000    2.86095    2.52045    9.24965    0    0    0
     105        1        2  0.00000000    3.61325    8.69318    1.84993    0    0    0
     106        2        4  0.00000000    3.61325    1.21743    5.54979    0    0    0
     107        2        2  0.00000000    2.86095    9.99621    5.54979    0    0    0
     108        2        2  0.00000000   10.08744    2.52045    5.54979    0    0    0
     109        2        2  0.00000000   -3.61325    8.69318    5.54979    0    0    0
     110        2        3  0.00000000    5.72189    7.47576    5.54979    0    0    0
     111        2        4  0.00000000    0.75230    3.73788    5.54979    0    0    0
     112        2        4  0.00000000   -0.75230    3.73788    5.54979    0    0    0
     113        2        2  0.00000000    7.22650    7.47576    5.54979    0    0    0
     114        2        2  0.00000000   -2.86095    9.99621    5.54979    0    0    0
     115        2        2  0.00000000    9.33514    1.21743    5.54979    0    0    0
     116        2        2  0.00000000    3.61325    8.69318    5.54979    0    0    0
     117        2        4  0.00000000    2.86095    2.52045    5.54979    0    0    0
     118        1        4  0.00000000    1.45518    4.95531    1.84993    0    0    0
     119        3        2  0.00000000    5.01901    6.25833    9.24965    0    0    0
     120        1        2  0.00000000    1.45518    9.99621    1.84993    0    0    0
     121        3        4  0.00000000    5.01901    1.21743    9.24965    0    0    0
     122        1        3  0.00000000   -2.91037    7.47576    1.84993    0    0    0
     123        3        2  0.00000000    9.38456    3.73788    9.24965    0    0    0
     124        1        2  0.00000000    5.01901    6.25833    1.84993    0    0    0
     125        3        4  0.00000000    1.45518    4.95531    9.24965    0    0    0
     126        1        4  0.00000000    5.01901    1.21743    1.84993    0    0    0
     127        3        2  0.00000000    1.45518    9.99621    9.24965    0    0    0
     128        1        2  0.00000000    9.38456    3.73788    1.84993    0    0    0
     129        3        3  0.00000000   -2.91037    7.47576    9.24965    0    0    0
     130        3        4  0.00000000    3.56383    3.73788    9.24965    0    0    0
     131        1        2  0.00000000    2.91037    7.47576    1.84993    0    0    0
     132        3        2  0.00000000    7.92938    6.25833    9.24965    0    0    0
     133        1        4  0.00000000   -1.45518    4.95531    1.84993    0    0    0
     134        3        2  0.00000000    7.92938    1.21743    9.24965    0    0    0
     135        1        2  0.00000000   -1.45518    9.99621    1.84993    0    0    0
     136        3        2  0.00000000    2.91037    7.47576    9.24965    0    0    0
     137        1        4  0.00000000    3.56383    3.73788    1.84993    0    0    0
     138        3        4  0.00000000   -1.45518    4.95531    9.24965    0    0    0
     139        1        2  0.00000000    7.92938    6.25833    1.84993    0    0    0
     140        3        2  0.00000000   -1.45518    9.99621    9.24965    0    0    0
     141        1        2  0.00000000    7.92938    1.21743    1.84993    0    0    0
     142        2        4  0.00000000    1.45518    4.95531    5.54979    0    0    0
     143        2        2  0.00000000    5.01901    6.25833    5.54979    0    0    0
     144        2        2  0.00000000    1.45518    9.99621    5.54979    0    0    0
     145        2        4  0.00000000    5.01901    1.21743    5.54979    0    0    0
     146        2        3  0.00000000   -2.91037    7.47576    5.54979    0    0    0
     147        2        2  0.00000000    9.38456    3.73788    5.54979    0    0    0
     148        2        4  0.00000000    3.56383    3.73788    5.54979    0    0    0
     149        2        3  0.00000000    2.91037    7.47576    5.54979    0    0    0
     150        2        2  0.00000000    7.92938    6.25833    5.54979    0    0    0
     151        2        4  0.00000000   -1.45518    4.95531    5.54979    0    0    0
     152        2        2  0.00000000    7.92938    1.21743    5.54979    0    0    0
     153        2        3  0.00000000   -1.45518    9.99621    5.54979    0    0    0
     154        1        2  0.00000000   -0.70288    8.69318    1.84993    0    0    0
     155        3        2  0.00000000    7.17708    2.52045    9.24965    0    0    0
     156        1        4  0.00000000   -0.70288    6.25833    1.84993    0    0    0
     157        3        3  0.00000000    7.17708    4.95531    9.24965    0    0    0
     158        1        3  0.00000000    1.40576    7.47576    1.84993    0    0    0
     159        3        4  0.00000000    5.06843    3.73788    9.24965    0    0    0
     160        1        2  0.00000000    7.17708    2.52045    1.84993    0    0    0
     161        3        3  0.00000000   -0.70288    8.69318    9.24965    0    0    0
     162        1        3  0.00000000    7.17708    4.95531    1.84993    0    0    0
     163        3        4  0.00000000   -0.70288    6.25833    9.24965    0    0    0
     164        1        4  0.00000000    5.06843    3.73788    1.84993    0    0    0
     165        3        2  0.00000000    1.40576    7.47576    9.24965    0    0    0
     166        3        2  0.00000000    7.87996    3.73788    9.24965    0    0    0
     167        1        3  0.00000000   -1.40576    7.47576    1.84993    0    0    0
     168        3        4  0.00000000    5.77131    2.52045    9.24965    0    0    0
     169        1        2  0.00000000    0.70288    8.69318    1.84993    0    0    0
     170        3        3  0.00000000    5.77131    4.95531    9.24965    0    0    0
     171        1        4  0.00000000    0.70288    6.25833    1.84993    0    0    0
     172        3        3  0.00000000   -1.40576    7.47576    9.24965    0    0    0
     173        1        2  0.00000000    7.87996    3.73788    1.84993    0    0    0
     174        3        2  0.00000000    0.70288    8.69318    9.24965    0    0    0
     175        1        4  0.00000000    5.77131    2.52045    1.84993    0    0    0
     176        3        4  0.00000000    0.70288    6.25833    9.24965    0    0    0
     177        1        3  0.00000000    5.77131    4.95531    1.84993    0    0    0
     178        2        2  0.00000000   -0.70288    8.69318    5.54979    0    0    0
     179        2        2  0.00000000    7.17708    2.52045    5.54979    0    0    0
     180        2        4  0.00000000   -0.70288    6.25833    5.54979    0    0    0
     181        2        3  0.00000000    7.17708    4.95531    5.54979    0    0    0
     182        2        3  0.00000000    1.40576    7.47576    5.54979    0    0    0
     183        2        4  0.00000000    5.06843    3.73788    5.54979    0    0    0
     184        2        2  0.00000000    7.87996    3.73788    5.54979    0    0    0
     185        2        3  0.00000000   -1.40576    7.47576    5.54979    0    0    0
     186        2        4  0.00000000    5.77131    2.52045    5.54979    0    0    0
     187        2        2  0.00000000    0.70288    8.69318    5.54979    0    0    0
     188        2        3  0.00000000    5.77131    4.95531    5.54979    0    0    0
     189        2        4  0.00000000    0.70288    6.25833    5.54979    0    0    0

