
0.000000000 11.245454082 xlo xhi
0.000000000 4.339277298 ylo yhi
0.000000000 6.597971626 zlo zhi
-10.387326835 1.450493822 0.457867791 xy xz yz

108 atoms

1 atom types

Masses

1 1.2011E+01 # C

Atoms

     1     1         -6.24038450          4.21180619          0.23787897
     2     1         -5.51037652          3.31458858          1.60896960
     3     1          3.91877343          1.41627334          0.15023605
     4     1         10.06561045          0.23475015          0.80802917
     5     1         -1.45354191          1.74201681          0.82638810
     6     1          0.41239852          2.09166284          4.89463180
     7     1         -0.73212937          3.08883703          6.01709694
     8     1         -5.00320019          3.94932233          2.94023797
     9     1         -1.72707868          1.80417817          3.38826448
    10     1          5.44553472          1.11684248          0.35360045
    11     1          8.21441477          0.55294486          3.24671098
    12     1          5.65939731          1.80768194          4.24001828
    13     1          1.16324182          4.22576721          1.10311137
    14     1          2.53439486          2.36430947          4.01553455
    15     1          2.38108868          1.74365165          0.01438440
    16     1         -0.94322346          2.37605947          2.15650699
    17     1         -1.14572348          3.95597343          2.06759883
    18     1          0.76517687          2.82337653          6.25838233
    19     1         -2.01720964          1.87063705          5.89645417
    20     1          0.86616823          4.26751920          3.59982513
    21     1         -0.49097806          1.53977023          6.10498976
    22     1         -4.50160575          2.36250182          0.46336541
    23     1          6.45740449          2.39931869          3.02701430
    24     1         -4.27202641          3.06237081          4.34184114
    25     1          2.90264836          2.40861791          1.35050620
    26     1          3.37153780          2.98570200          2.73047024
    27     1          2.62741727          0.18794022          0.04562489
    28     1          1.88658019          3.33396159          2.43538916
    29     1          9.73169365          0.25378551          3.43448529
    30     1          2.03501117          0.49918746          5.12778811
    31     1         -2.97175654          4.30838604          4.46455384
    32     1          7.19670523          1.52153426          4.40000143
    33     1         -3.47711817          3.65124156          3.13464813
    34     1         -6.02272114          2.66750608          0.29178891
    35     1         -6.52013276          4.28530071          2.79093465
    36     1          6.16819382          2.49589181          5.55444490
    37     1          5.17194563          1.17009821          2.88828923
    38     1          2.87701080          0.85494247          3.87809012
    39     1         -3.77338239          3.70921052          5.67191955
    40     1          1.59758352          1.12055048          1.21894335
    41     1         -1.17589684          2.43594124          4.70018290
    42     1          2.27265565          2.41697207          6.22649265
    43     1         -2.98025146          2.05035394          0.65021018
    44     1         -1.95524848          3.34792231          3.30062186
    45     1         -0.94810590          4.65318467          5.96864078
    46     1          6.97974377          0.82113347          0.51148512
    47     1         -3.25384145          2.10360937          3.18489926
    48     1          6.37936318          0.93193301          5.60690340
    49     1          4.42743382          2.04235957          1.48567131
    50     1          4.13316573          2.13854877          4.03148269
    51     1          4.81808452          1.24237776          5.43628955
    52     1         -0.71095487          0.81183421          2.18799445
    53     1         -0.43572342          3.03251099          3.49287593
    54     1          2.10854750          4.03812909          6.30279328
    55     1          3.63414669          3.75007710          6.53664732
    56     1          9.00971390          1.17809136          2.05282858
    57     1          1.36953202          1.26134692          3.90997980
    58     1          7.69093631          2.15678447          5.73647009
    59     1          5.95884943          1.77726293          1.68047365
    60     1         -5.79703326          3.36441163          4.16783167
    61     1         -8.55570111          3.94327500          1.23932077
    62     1          0.83767713          0.58332226          2.48250608
    63     1          2.39176742          3.97946720          3.83367917
    64     1          2.56883828          0.92703879          6.51635663
    65     1          2.11015179          1.76528427          2.56784960
    66     1         -6.83654694          4.32933890          5.31565337
    67     1         -2.73717550          2.74638599          4.52956905
    68     1         -2.46364033          2.71547184          1.97395856
    69     1         -0.18939392          1.47679986          3.52411612
    70     1         -2.25362942          3.41733309          5.86655258
    71     1         -3.19243279          3.61040618          0.59826286
    72     1         -4.49150951          4.60026348          4.26992081
    73     1          4.65533383          0.50498028          1.56454209
    74     1          6.69329960          0.85794939          3.07513541
    75     1          4.37431705          0.58948197          4.11937552
    76     1          4.62483068          2.76346373          5.37471844
    77     1          3.64523577          1.47843439          2.71211272
    78     1          3.14517884          3.22528578          5.19880399
    79     1         -0.14825614          3.01885728          0.95484366
    80     1          8.50365753          0.49004628          0.72826067
    81     1          8.71944794          1.18242719          4.58202756
    82     1          3.70545483          2.96666691          0.10401505
    83     1          1.07334939          2.75128021          3.62011583
    84     1         11.74246382          0.45303352          4.93766816
    85     1          1.10779281          1.31400953          6.12093790
    86     1          7.47829883          1.44318922          1.85802576
    87     1         10.26281086          0.91485500          4.76175308
    88     1         -7.04990950          3.60375508          1.47090200
    89     1          4.93349094          2.73040614          2.81023968
    90     1          3.92762734          3.68094599          3.98046800
    91     1         -4.71851391          3.90848724          0.40385240
    92     1          6.18703369          0.22290122          1.73121037
    93     1         -5.29506822          4.04641170          5.49449107
    94     1          0.08154296          1.45516724          0.97065093
    95     1          0.59411088          2.09990194          2.31955700
    96     1          1.60717650          3.17913154          5.00868435
    97     1         -1.67550022          3.27442779          0.74756617
    98     1         -3.99533984          2.99754998          1.80729046
    99     1          0.09140814          3.68825648          4.82081926
   100     1          7.91421409          0.61594819          5.79463131
   101     1         -2.68525646          4.24513992          1.92953123
   102     1         -1.45007094          3.97118459          4.64198138
   103     1          3.13491731          0.84439173          1.38199384
   104     1          2.33994999          0.20159393          2.58365717
   105     1          3.22978915          1.58665616          5.24184065
   106     1          1.35401763          2.63712925          1.05599445
   107     1          0.36006903          3.61645380          2.29917975
   108     1          0.57268736          4.33665003          6.15600352
