
0.000000000 7.723734729 xlo xhi
0.000000000 6.542569201 ylo yhi
0.000000000 15.352087040 zlo zhi
-4.103978759 -0.012528824 0.011379562 xy xz yz

108 atoms

1 atom types

Masses

1 1.2011E+01 # C

Atoms

     1     1          1.17861419          0.73031344          2.71173493
     2     1          1.17409927          0.73391088          7.82633485
     3     1          1.17020622          0.73631957         12.94003468
     4     1         -0.18704516          2.91054911          2.68714292
     5     1         -0.19176584          2.91444257          7.80354285
     6     1         -0.19609382          2.91874327         12.91974292
     7     1         -1.55251848          5.09128399          2.68905102
     8     1         -1.55764334          5.09536959          7.80885091
     9     1         -1.56057466          5.09989618         12.92215127
    10     1          3.75343283          0.73092922          2.68900507
    11     1          3.74860304          0.73532075          7.80560506
    12     1          3.74357340          0.73970874         12.92160502
    13     1          2.38795770          2.91176409          2.69091319
    14     1          2.38253464          2.91574420          7.81101301
    15     1          2.37931787          2.91946543         12.92461319
    16     1          1.01917051          5.09303573          2.71202078
    17     1          1.01414291          5.09732393          7.82682072
    18     1          1.01144059          5.10025438         12.94042086
    19     1          6.32957045          0.73026488          2.69057525
    20     1          6.32454742          0.73425235          7.81017514
    21     1          6.32061076          0.73906066         12.92377536
    22     1          4.96068510          2.91143472          2.71168280
    23     1          4.95606117          2.91553033          7.82588278
    24     1          4.95325149          2.91885879         12.94008297
    25     1          3.59522024          5.09197396          2.68719088
    26     1          3.59000156          5.09575843          7.80309070
    27     1          3.58508277          5.09954830         12.91929058
    28     1         -4.04744360          6.45854897          2.70469663
    29     1         -4.05265592          6.46203430          7.81559641
    30     1         -4.05697134          6.46553335         12.94269635
    31     1         -1.31053707          2.09617822          2.75190436
    32     1         -1.31556381          2.10036558          7.87190428
    33     1         -1.31908594          2.10448296         12.97530447
    34     1         -2.67814567          4.27857039          2.77971235
    35     1         -2.68337232          4.28285580          7.88941225
    36     1         -2.68709812          4.28706783         13.00311242
    37     1         -1.47270689          6.45745168          2.75236648
    38     1         -1.47753379          6.46164257          7.87306644
    39     1         -1.48165203          6.46554921         12.97556649
    40     1          1.26295758          2.09756157          2.78207439
    41     1          1.25773983          2.10134687          7.89287421
    42     1          1.25393231          2.10455734         13.00607420
    43     1         -0.10187779          4.27702050          2.70508240
    44     1         -0.10719573          4.28080381          7.81698221
    45     1         -0.11011859          4.28472831         12.94368247
    46     1          1.09975893          6.46041667          2.78203658
    47     1          1.09452854          6.46490194          7.89233652
    48     1          1.09020838          6.46880320         13.00553652
    49     1          3.83809842          2.09749148          2.70714448
    50     1          3.83277514          2.10157484          7.81844433
    51     1          3.82985218          2.10549924         12.94574459
    52     1          2.47182639          4.27770477          2.75255236
    53     1          2.46619786          4.28198115          7.87295218
    54     1          2.46259579          4.28499694         12.97605217
    55     1          0.00450341          1.45775030         15.21502718
    56     1          0.01313179          1.44917925          4.97734004
    57     1          0.00942265          1.45239009         10.09934004
    58     1         -1.36015124          3.63770368         15.19363530
    59     1         -1.35094425          3.63034382          4.95304847
    60     1         -1.35547593          3.63473914         10.07974852
    61     1         -2.73155249          5.81993119         15.19454257
    62     1         -2.72352957          5.81164909          4.95745537
    63     1         -2.72795728          5.81584658         10.08225541
    64     1          2.58111396          1.45879829         15.19509772
    65     1          2.58983193          1.45082942          4.95461070
    66     1          2.58519112          1.45572280         10.08161081
    67     1          1.20953495          3.63982271         15.19390476
    68     1          1.21774693          3.63214415          4.95681769
    69     1          1.21322637          3.63593977         10.08231764
    70     1         -0.15735065          5.82102898         15.21461269
    71     1         -0.14893497          5.81315418          4.97692562
    72     1         -0.15275325          5.81686305         10.09932569
    73     1          5.15090909          1.46041909         15.19616711
    74     1          5.15961374          1.45314958          4.95888020
    75     1          5.15508775          1.45724517         10.08428020
    76     1          3.78481648          3.64204020         15.21467525
    77     1          3.79294856          3.63326008          4.97708799
    78     1          3.78972474          3.63727982         10.09938821
    79     1          2.41897799          5.82107155         15.19548301
    80     1          2.42769050          5.81340263          4.95499604
    81     1          2.42266254          5.81758890         10.08169596
    82     1         -0.07112074          0.10555581         15.19059177
    83     1          7.66073409          0.09747625          4.94890462
    84     1          7.65601210          0.10136853         10.07250455
    85     1         -1.43929285          2.28644552         15.16839941
    86     1         -1.43037981          2.27888235          4.91491249
    87     1         -1.43460249          2.28278318         10.04181251
    88     1         -2.80605187          4.46686455         15.12310723
    89     1         -2.79773569          4.45888676          4.89272013
    90     1         -2.80126112          4.46289956         10.02412030
    91     1          2.50337606          0.10736588         15.16826205
    92     1          2.51120018          0.09918281          4.91477483
    93     1          2.50696480          0.10378354         10.04157497
    94     1          1.13464110          2.28644886         15.12236929
    95     1          1.14324817          2.27897646          4.89188233
    96     1          1.13903004          2.28257652         10.02378231
    97     1         -0.23316890          4.46853128         15.18787720
    98     1         -0.22476335          4.46125707          4.94599023
    99     1         -0.22909279          4.46555646         10.07019030
   100     1          5.07670959          0.10735786         15.12503182
   101     1          5.08520580          0.10048356          4.89434494
   102     1          5.08108402          0.10428541         10.02624497
   103     1          3.70809080          2.28992579         15.18963966
   104     1          3.71611274          2.28174442          4.94795247
   105     1          3.71197774          2.28634733         10.07255263
   106     1          2.34053487          4.46992648         15.16794726
   107     1          2.34875525          4.46195061          4.91466015
   108     1          2.34453434          4.46575141         10.04186016
