BEGIN_CFG
Size
108
Supercell
        7.722458   -0.140423   -0.001410
       -3.984352    6.616101   -0.000323
       -0.009472    0.014070   15.352087
AtomData: id type cartes_x cartes_y cartes_z     fx     fy     fz
           1    0   1.1922   0.7092   2.7114  6.1346 -4.3651 -1.9384
           2    0   1.1887   0.7137   7.8260  6.1186 -4.3537 -1.8499
           3    0   1.1858   0.7170  12.9397  6.1315 -4.3162 -1.8716
           4    0  -0.1336   2.9139   2.6867  6.1176 -4.2307 -1.5809
           5    0  -0.1373   2.9187   7.8031  6.1119 -4.2560 -1.5336
           6    0  -0.1406   2.9239  12.9193  6.1275 -4.2706 -1.5596
           7    0  -1.4592   5.1191   2.6885  6.0962 -4.3086 -1.8719
           8    0  -1.4633   5.1241   7.8083  6.1044 -4.3084 -1.8673
           9    0  -1.4652   5.1295  12.9216  6.0926 -4.3391 -1.8139
          10    0   3.7666   0.6630   2.6882  6.1345 -4.2410 -1.5908
          11    0   3.7628   0.6683   7.8048  6.1286 -4.2726 -1.5444
          12    0   3.7588   0.6736  12.9208  6.1509 -4.2869 -1.5712
          13    0   2.4410   2.8683   2.6900  6.1111 -4.3235 -1.8821
          14    0   2.4366   2.8732   7.8101  6.1222 -4.3227 -1.8795
          15    0   2.4344   2.8778  12.9237  6.1164 -4.3432 -1.8307
          16    0   1.1121   5.0741   2.7110  6.1165 -4.3758 -1.9393
          17    0   1.1081   5.0793   7.8258  6.1043 -4.3701 -1.8530
          18    0   1.1064   5.0831  12.9394  6.1076 -4.3382 -1.8734
          19    0   6.3423   0.6155   2.6893  6.1189 -4.3150 -1.8780
          20    0   6.3383   0.6204   7.8089  6.1260 -4.3139 -1.8728
          21    0   6.3354   0.6261  12.9225  6.1237 -4.3453 -1.8228
          22    0   5.0133   2.8212   2.7103  6.1269 -4.3696 -1.9354
          23    0   5.0097   2.8262   7.8245  6.1105 -4.3627 -1.8439
          24    0   5.0079   2.8304  12.9387  6.1129 -4.3370 -1.8695
          25    0   3.6877   5.0262   2.6857  6.1083 -4.2366 -1.5799
          26    0   3.6835   5.0309   7.8016  6.1061 -4.2606 -1.5319
          27    0   3.6796   5.0356  12.9178  6.1289 -4.2684 -1.5567
          28    0   0.0555  -0.0846   2.7047 -5.8646  4.1515 -1.4620
          29    0   0.0513  -0.0802   7.8156 -5.8558  4.1947 -1.3614
          30    0   0.0480  -0.0758  12.9427 -5.8619  4.2141 -1.4635
          31    0  -1.2717   2.1201   2.7518 -5.8893  4.1302 -1.7831
          32    0  -1.2757   2.1252   7.8718 -5.8945  4.1378 -1.7812
          33    0  -1.2782   2.1302  12.9752 -5.9077  4.1382 -1.7015
          34    0  -2.5994   4.3270   2.7795 -5.8205  4.1941 -2.0667
          35    0  -2.6036   4.3322   7.8892 -5.8311  4.1760 -1.9877
          36    0  -2.6063   4.3373  13.0029 -5.8236  4.1567 -1.9535
          37    0   2.6298  -0.1325   2.7519 -5.8844  4.1353 -1.7881
          38    0   2.6260  -0.1274   7.8726 -5.8915  4.1421 -1.7903
          39    0   2.6229  -0.1226  12.9751 -5.8987  4.1463 -1.7060
          40    0   1.3014   2.0747   2.7815 -5.8065  4.1978 -2.0829
          41    0   1.2972   2.0794   7.8923 -5.8163  4.1859 -2.0097
          42    0   1.2944   2.0835  13.0055 -5.8056  4.1775 -1.9720
          43    0  -0.0236   4.2786   2.7044 -5.8881  4.1549 -1.4817
          44    0  -0.0279   4.2833   7.8163 -5.8785  4.1944 -1.3873
          45    0  -0.0298   4.2881  12.9430 -5.8990  4.2080 -1.4870
          46    0   5.2019  -0.1763   2.7811 -5.7944  4.1869 -2.0723
          47    0   5.1977  -0.1709   7.8914 -5.8071  4.1678 -1.9950
          48    0   5.1944  -0.1661  13.0046 -5.7956  4.1503 -1.9571
          49    0   3.8761   2.0278   2.7061 -5.8700  4.1437 -1.4833
          50    0   3.8718   2.0328   7.8174 -5.8632  4.1785 -1.3826
          51    0   3.8699   2.0376  12.9447 -5.8815  4.1941 -1.4867
          52    0   2.5497   4.2325   2.7514 -5.9018  4.1197 -1.7894
          53    0   2.5451   4.2377   7.8718 -5.9024  4.1273 -1.7867
          54    0   2.5425   4.2416  12.9749 -5.9130  4.1376 -1.7081
          55    0   0.0433   1.4458  -0.1373 -5.5599  5.4159  1.6726
          56    0   0.0404   1.4495   4.9771 -5.5556  5.4351  1.6778
          57    0   0.0377   1.4536  10.0991 -5.5684  5.4826  1.6553
          58    0  -1.2815   3.6502  -0.1588 -5.5692  5.5768  1.7712
          59    0  -1.2838   3.6551   4.9527 -5.5862  5.5605  1.8788
          60    0  -1.2873   3.6604  10.0794 -5.5798  5.5472  1.8108
          61    0  -2.6130   5.8570  -0.1580 -5.4877  5.5633  2.0213
          62    0  -2.6165   5.8610   4.9570 -5.4894  5.5861  2.0389
          63    0  -2.6199   5.8661  10.0818 -5.4962  5.5676  1.9685
          64    0   2.6195   1.4000  -0.1577 -5.5619  5.5548  1.7683
          65    0   2.6167   1.4043   4.9539 -5.5722  5.5464  1.8732
          66    0   2.6131   1.4101  10.0809 -5.5654  5.5288  1.8065
          67    0   1.2878   3.6056  -0.1590 -5.4786  5.5555  2.0298
          68    0   1.2845   3.6102   4.9560 -5.4809  5.5714  2.0425
          69    0   1.2810   3.6149  10.0815 -5.4854  5.5556  1.9708
          70    0  -0.0392   5.8113  -0.1384 -5.5594  5.3947  1.6792
          71    0  -0.0423   5.8157   4.9760 -5.5551  5.4084  1.6848
          72    0  -0.0451   5.8203  10.0984 -5.5677  5.4497  1.6606
          73    0   5.1889   1.3549  -0.1571 -5.4666  5.5434  2.0105
          74    0   5.1861   1.3599   4.9577 -5.4759  5.5540  2.0277
          75    0   5.1826   1.3649  10.0831 -5.4797  5.5367  1.9554
          76    0   3.8627   3.5610  -0.1387 -5.5553  5.3780  1.6732
          77    0   3.8593   3.5645   4.9758 -5.5470  5.4021  1.6784
          78    0   3.8571   3.5694  10.0981 -5.5633  5.4404  1.6516
          79    0   2.5367   5.7645  -0.1580 -5.5534  5.5523  1.7639
          80    0   2.5339   5.7691   4.9536 -5.5637  5.5401  1.8705
          81    0   2.5299   5.7742  10.0803 -5.5526  5.5308  1.8040
          82    0  -0.0569   0.0952  -0.1615  5.3191 -5.2696  1.3737
          83    0  -0.0603   0.0994   4.9489  5.3227 -5.2654  1.4413
          84    0  -0.0640   0.1042  10.0725  5.3310 -5.3137  1.4048
          85    0  -1.3852   2.3006  -0.1838  5.2219 -5.4684  1.6596
          86    0  -1.3878   2.3053   4.9148  5.2212 -5.4641  1.8179
          87    0  -1.3910   2.3101  10.0417  5.2280 -5.4541  1.7334
          88    0  -2.7121   4.5055  -0.2292  5.2752 -5.2938  1.9068
          89    0  -2.7153   4.5098   4.8925  5.2672 -5.3120  1.8741
          90    0  -2.7178   4.5147  10.0239  5.2704 -5.2915  1.7990
          91    0   2.5172   0.0502  -0.1843  5.2220 -5.4884  1.6590
          92    0   2.5135   0.0543   4.9143  5.2294 -5.4778  1.8183
          93    0   2.5103   0.0598  10.0411  5.2364 -5.4745  1.7353
          94    0   1.1883   2.2538  -0.2303  5.2917 -5.2935  1.9255
          95    0   1.1854   2.2586   4.8913  5.2808 -5.3154  1.8934
          96    0   1.1822   2.2631  10.0232  5.2904 -5.2892  1.8165
          97    0  -0.1396   4.4604  -0.1649  5.3247 -5.2782  1.3933
          98    0  -0.1427   4.4654   4.9453  5.3239 -5.2850  1.4629
          99    0  -0.1460   4.4706  10.0695  5.3289 -5.3373  1.4265
         100    0   5.0901   0.0034  -0.2280  5.2929 -5.3187  1.9082
         101    0   5.0871   0.0088   4.8934  5.2806 -5.3476  1.8774
         102    0   5.0840   0.0135  10.0253  5.2888 -5.3238  1.7982
         103    0   3.7614   2.2105  -0.1635  5.3291 -5.3042  1.3968
         104    0   3.7579   2.2146   4.9469  5.3328 -5.3011  1.4630
         105    0   3.7548   2.2201  10.0715  5.3364 -5.3592  1.4213
         106    0   2.4337   4.4150  -0.1853  5.2286 -5.5013  1.6595
         107    0   2.4304   4.4193   4.9135  5.2338 -5.4918  1.8175
         108    0   2.4272   4.4240  10.0407  5.2417 -5.4813  1.7318
Energy
-16569.9592
PlusStress: xx yy zz yz xz xy
     66.070 -188.614 -140.324 -21.499 32.854 -187.142
Feature    EFS_by   siesta
END_CFG
