Siesta Version  : 4.1.5
Architecture    : x86_64-unknown-linux-gnu--unknown
Compiler version: GNU Fortran (GCC) 11.3.0
Compiler flags  : mpif90 -g -O2 -fallow-argument-mismatch
PP flags        : -DMPI -DFC_HAVE_FLUSH -DFC_HAVE_ABORT
Libraries       :  -I/global/software/sl-7.x86_64/modules/intel/2020.4.304/mkl/include  /globall/software/sl-7.x86_64/modules/intel/2020.4.304/mkl/lib/intel64/libmkl_scalapack_lp64.a -Wl,--start-group /global/software/sl-7.x86_64/modules/intel/2020.4.304/mkl/lib/intel64/libmkl_intel_lp64.a /global/software/sl-7.x86_64/modules/intel/2020.4.304/mkl/lib/intel64/libmkl_sequential.a /global/software/sl-7.x86_64/modules/intel/2020.4.304/mkl/lib/intel64/libmkl_core.a /global/software/sl-7.x86_64/modules/intel/2020.4.304/mkl/lib/intel64/libmkl_blacs_openmpi_lp64.a -Wl,--end-group -lpthread -lm -ldl
PARALLEL version

* Running on 16 nodes in parallel
>> Start of run:   9-NOV-2022  15:06:33

                           ***********************       
                           *  WELCOME TO SIESTA  *       
                           ***********************       

reinit: Reading from standard input
reinit: Dumped input in INPUT_TMP.68617
************************** Dump of input data file ****************************
SystemName LiC18_scf
SystemLabel LiC18_scf
NumberOfAtoms   19
NumberOfSpecies 2
%block ChemicalSpeciesLabel
1  3   Li-gga
2  6   C-gga
%endblock ChemicalSpeciesLabel
PAO.BasisSize  SZ
PAO.EnergyShift  10 meV
%block PS.Lmax
C-gga   2
Li-gga  2
%endblock PS.Lmax
LatticeConstant 1.000000 Ang
%block LatticeVectors
	4.3161300000	0.0000000000	0.0000000000
	-2.1580650000	3.7378782260	0.0000000000
	0.0000000000	0.0000000000	9.3236480400
%endblock LatticeVectors
AtomicCoordinatesFormat Ang
%block AtomicCoordinatesAndAtomicSpecies
	0.00000000	0.00000000	0.00000000	2
	-0.70288177	1.21742694	1.55394445	1
	-1.45518323	2.52045129	7.76970359	1
	1.45518323	2.52045129	1.55394445	1
	0.70288177	1.21742694	7.76970359	1
	1.40576354	0.00000000	1.55394445	1
	2.91036646	0.00000000	7.76970359	1
	-1.45518323	2.52045129	1.55394445	1
	-0.70288177	1.21742694	7.76970359	1
	0.70288177	1.21742694	1.55394445	1
	1.45518323	2.52045129	7.76970359	1
	2.91036646	0.00000000	1.55394445	1
	1.40576354	0.00000000	7.76970359	1
	-0.70288177	1.21742694	4.66182402	1
	-1.45518323	2.52045129	4.66182402	1
	1.45518323	2.52045129	4.66182402	1
	0.70288177	1.21742694	4.66182402	1
	1.40576354	0.00000000	4.66182402	1
	2.91036646	0.00000000	4.66182402	1
%endblock AtomicCoordinatesAndAtomicSpecies
Kgrid_NoTRS  T
%block kgrid_MonkhorstPack
4       0       0       0.0
0       4       0       0.0
0       0       4       0.0
%endblock kgrid_MonkhorstPack
AtomCoorFormatOut Ang
BlockSize 1
#ProcessorY 12
Diag.ParallelOverK   T
Diag.DivideAndConquer F
MeshCutoff   300 Ry
SCF.FreeE.Tolerance 1E-3 eV
SCF.EDM.Tolerance   5E-3 eV
DM.Tolerance  1E-3
DM.Require.Energy.Convergence T
DM.NumberPulay 4
XC.Functional GGA
XC.Authors    PBE
UseSaveData        F
MD.TypeOfRun       CG
MD.VariableCell    F
MD.NumCGsteps      00
MD.MaxCGDispl      0.200000 Bohr
MD.MaxStressTol    1.000000 GPa
MD.MaxForceTol     0.010000 eV/Ang
WriteMDHistory T
WriteCoorStep T
WriteForces T
WriteCoorStep    T
WriteEigenValues T
WriteDM    F
MM.UnitsDistance Ang  # what this program prints out DO NOT CHANGE
MM.UnitsEnergy    eV  # what this program prints out DO NOT CHANGE
MM.Grimme.S6     0.75 # Grimme-paper for PBE (correct for your functional)
MM.Grimme.D     20.   # Grimme-paper (correct for your functional)
%block MM.Potentials
  1   1 Grimme     16.69      1.650 # Li, 10.1002/jcc.20495
  1   2 Grimme     17.40      2.277 # Li / C
  2   2 Grimme     18.14      2.904 # C, 10.1002/jcc.20495
%endblock MM.Potentials
#%block ProjectedDensityOfStates
# -200.0  120.0  0.4  12800  eV
#%endblock ProjectedDensityOfStates
************************** End of input data file *****************************

reinit: -----------------------------------------------------------------------
reinit: System Name: LiC18_scf
reinit: -----------------------------------------------------------------------
reinit: System Label: LiC18_scf
reinit: -----------------------------------------------------------------------
Reading two-body potentials
Grimme - two-body potential between 1 and 1
Grimme - two-body potential between 1 and 2
Grimme - two-body potential between 2 and 2

initatom: Reading input for the pseudopotentials and atomic orbitals ----------
Species number:   1 Atomic number:    3 Label: Li-gga
Species number:   2 Atomic number:    6 Label: C-gga

Ground state valence configuration:   2s01
Reading pseudopotential information in formatted form from Li-gga.psf

Valence configuration for pseudopotential generation:
2s( 1.00) rc: 2.28
2p( 0.00) rc: 2.28
3d( 0.00) rc: 2.59
4f( 0.00) rc: 2.59
Ground state valence configuration:   2s02  2p02
Reading pseudopotential information in formatted form from C-gga.psf

Valence configuration for pseudopotential generation:
2s( 2.00) rc: 1.56
2p( 2.00) rc: 1.56
3d( 0.00) rc: 1.56
4f( 0.00) rc: 1.56
relmxkb: Read Max KB Ang. Momentum=    2 for species C-gga
relmxkb: Read Max KB Ang. Momentum=    2 for species Li-gga

<basis_specs>
===============================================================================
Li-gga               Z=   3    Mass=  6.9400        Charge= 0.17977+309
Lmxo=0 Lmxkb= 2    BasisType=split      Semic=F
L=0  Nsemic=0  Cnfigmx=2
          i=1  nzeta=1  polorb=0  (2s)
            splnorm:   0.15000    
               vcte:    0.0000    
               rinn:    0.0000    
               qcoe:    0.0000    
               qyuk:    0.0000    
               qwid:   0.10000E-01
                rcs:    0.0000    
            lambdas:    1.0000    
-------------------------------------------------------------------------------
L=0  Nkbl=1  erefs: 0.17977+309
L=1  Nkbl=1  erefs: 0.17977+309
L=2  Nkbl=1  erefs: 0.17977+309
===============================================================================
</basis_specs>

atom: Called for Li-gga                (Z =   3)

read_vps: Pseudopotential generation method:
read_vps: ATM 3.2.2 Troullier-Martins                       
Valence charge for ps generation:    1.00000

read_vps: Pseudopotential includes a core correction:
read_vps: Pseudo-core for xc-correction

xc_check: Exchange-correlation functional:
xc_check: GGA Perdew, Burke & Ernzerhof 1996
V l=0 = -2*Zval/r beyond r=  2.2278
V l=1 = -2*Zval/r beyond r=  2.2278
V l=2 = -2*Zval/r beyond r=  2.5245
All V_l potentials equal beyond r=  2.4622
This should be close to max(r_c) in ps generation
All pots = -2*Zval/r beyond r=  2.5245

VLOCAL1: 99.0% of the norm of Vloc inside      7.160 Ry
VLOCAL1: 99.9% of the norm of Vloc inside     16.318 Ry
atom: Maximum radius for 4*pi*r*r*local-pseudopot. charge    2.86079
atom: Maximum radius for r*vlocal+2*Zval:    2.43160
GHOST: No ghost state for L =  0
GHOST: No ghost state for L =  1
GHOST: No ghost state for L =  2

KBgen: Kleinman-Bylander projectors: 
   l= 0   rc=  2.654023   el= -0.211234   Ekb=  1.742119   kbcos=  0.228463
   l= 1   rc=  2.721230   el= -0.080095   Ekb= -1.122375   kbcos= -0.147941
   l= 2   rc=  2.825246   el=  0.002001   Ekb= -0.207076   kbcos= -0.031965

KBgen: Total number of Kleinman-Bylander projectors:    9
atom: -------------------------------------------------------------------------

atom: SANKEY-TYPE ORBITALS:

SPLIT: Orbitals with angular momentum L= 0

SPLIT: Basis orbitals for state 2s

SPLIT: PAO cut-off radius determined from an
SPLIT: energy shift=  0.000735 Ry

   izeta = 1
                 lambda =    1.000000
                     rc =   11.897381
                 energy =   -0.210580
                kinetic =    0.143382
    potential(screened) =   -0.353962
       potential(ionic) =   -0.533453
atom: Total number of Sankey-type orbitals:  1

atm_pop: Valence configuration (for local Pseudopot. screening):
 2s( 1.00)                                                            
Vna: chval, zval:    1.00000   1.00000

Vna:  Cut-off radius for the neutral-atom potential:  11.897381
comcore: Pseudo-core radius Rcore=  3.450946

atom: _________________________________________________________________________

<basis_specs>
===============================================================================
C-gga                Z=   6    Mass=  12.010        Charge= 0.17977+309
Lmxo=1 Lmxkb= 2    BasisType=split      Semic=F
L=0  Nsemic=0  Cnfigmx=2
          i=1  nzeta=1  polorb=0  (2s)
            splnorm:   0.15000    
               vcte:    0.0000    
               rinn:    0.0000    
               qcoe:    0.0000    
               qyuk:    0.0000    
               qwid:   0.10000E-01
                rcs:    0.0000    
            lambdas:    1.0000    
L=1  Nsemic=0  Cnfigmx=2
          i=1  nzeta=1  polorb=0  (2p)
            splnorm:   0.15000    
               vcte:    0.0000    
               rinn:    0.0000    
               qcoe:    0.0000    
               qyuk:    0.0000    
               qwid:   0.10000E-01
                rcs:    0.0000    
            lambdas:    1.0000    
-------------------------------------------------------------------------------
L=0  Nkbl=1  erefs: 0.17977+309
L=1  Nkbl=1  erefs: 0.17977+309
L=2  Nkbl=1  erefs: 0.17977+309
===============================================================================
</basis_specs>

atom: Called for C-gga                 (Z =   6)

read_vps: Pseudopotential generation method:
read_vps: ATM 3.2.2 Troullier-Martins                       
Valence charge for ps generation:    4.00000

xc_check: Exchange-correlation functional:
xc_check: GGA Perdew, Burke & Ernzerhof 1996
V l=0 = -2*Zval/r beyond r=  1.5227
V l=1 = -2*Zval/r beyond r=  1.5227
V l=2 = -2*Zval/r beyond r=  1.5227
All V_l potentials equal beyond r=  1.4851
This should be close to max(r_c) in ps generation
All pots = -2*Zval/r beyond r=  1.5227

VLOCAL1: 99.0% of the norm of Vloc inside     19.682 Ry
VLOCAL1: 99.9% of the norm of Vloc inside     44.856 Ry
atom: Maximum radius for 4*pi*r*r*local-pseudopot. charge    1.79142
atom: Maximum radius for r*vlocal+2*Zval:    1.54183
GHOST: No ghost state for L =  0
GHOST: No ghost state for L =  1
GHOST: No ghost state for L =  2

KBgen: Kleinman-Bylander projectors: 
   l= 0   rc=  1.661951   el= -1.010689   Ekb=  5.289847   kbcos=  0.316429
   l= 1   rc=  1.661951   el= -0.388490   Ekb= -4.102504   kbcos= -0.351025
   l= 2   rc=  1.747182   el=  0.001971   Ekb= -1.006005   kbcos= -0.008530

KBgen: Total number of Kleinman-Bylander projectors:    9
atom: -------------------------------------------------------------------------

atom: SANKEY-TYPE ORBITALS:

SPLIT: Orbitals with angular momentum L= 0

SPLIT: Basis orbitals for state 2s

SPLIT: PAO cut-off radius determined from an
SPLIT: energy shift=  0.000735 Ry

   izeta = 1
                 lambda =    1.000000
                     rc =    5.948690
                 energy =   -1.010099
                kinetic =    0.827121
    potential(screened) =   -1.837220
       potential(ionic) =   -5.392783

SPLIT: Orbitals with angular momentum L= 1

SPLIT: Basis orbitals for state 2p

SPLIT: PAO cut-off radius determined from an
SPLIT: energy shift=  0.000735 Ry

   izeta = 1
                 lambda =    1.000000
                     rc =    7.638387
                 energy =   -0.387843
                kinetic =    2.314739
    potential(screened) =   -2.702582
       potential(ionic) =   -6.092371
atom: Total number of Sankey-type orbitals:  4

atm_pop: Valence configuration (for local Pseudopot. screening):
 2s( 2.00)                                                            
 2p( 2.00)                                                            
Vna: chval, zval:    4.00000   4.00000

Vna:  Cut-off radius for the neutral-atom potential:   7.638387

atom: _________________________________________________________________________

prinput: Basis input ----------------------------------------------------------

PAO.BasisType split     

%block ChemicalSpeciesLabel
    1    3 Li-gga                  # Species index, atomic number, species label
    2    6 C-gga                   # Species index, atomic number, species label
%endblock ChemicalSpeciesLabel

%block PAO.Basis                 # Define Basis set
Li-gga                1                    # Species label, number of l-shells
 n=2   0   1                         # n, l, Nzeta 
  11.897   
   1.000   
C-gga                 2                    # Species label, number of l-shells
 n=2   0   1                         # n, l, Nzeta 
   5.949   
   1.000   
 n=2   1   1                         # n, l, Nzeta 
   7.638   
   1.000   
%endblock PAO.Basis

prinput: ----------------------------------------------------------------------

coor:   Atomic-coordinates input format  =     Cartesian coordinates
coor:                                          (in Angstroms)

siesta: Atomic coordinates (Bohr) and species
siesta:      0.00000   0.00000   0.00000  2        1
siesta:     -1.32825   2.30060   2.93653  1        2
siesta:     -2.74990   4.76296  14.68262  1        3
siesta:      2.74990   4.76296   2.93653  1        4
siesta:      1.32825   2.30060  14.68262  1        5
siesta:      2.65651   0.00000   2.93653  1        6
siesta:      5.49980   0.00000  14.68262  1        7
siesta:     -2.74990   4.76296   2.93653  1        8
siesta:     -1.32825   2.30060  14.68262  1        9
siesta:      1.32825   2.30060   2.93653  1       10
siesta:      2.74990   4.76296  14.68262  1       11
siesta:      5.49980   0.00000   2.93653  1       12
siesta:      2.65651   0.00000  14.68262  1       13
siesta:     -1.32825   2.30060   8.80957  1       14
siesta:     -2.74990   4.76296   8.80957  1       15
siesta:      2.74990   4.76296   8.80957  1       16
siesta:      1.32825   2.30060   8.80957  1       17
siesta:      2.65651   0.00000   8.80957  1       18
siesta:      5.49980   0.00000   8.80957  1       19

siesta: System type = bulk      

initatomlists: Number of atoms, orbitals, and projectors:     19    22   171

siesta: ******************** Simulation parameters ****************************
siesta:
siesta: The following are some of the parameters of the simulation.
siesta: A complete list of the parameters used, including default values,
siesta: can be found in file out.fdf
siesta:
redata: Spin configuration                          = none
redata: Number of spin components                   = 1
redata: Time-Reversal Symmetry                      = T
redata: Spin spiral                                 = F
redata: Long output                                 =   F
redata: Number of Atomic Species                    =        2
redata: Charge density info will appear in .RHO file
redata: Write Mulliken Pop.                         = NO
redata: Matel table size (NRTAB)                    =     1024
redata: Mesh Cutoff                                 =   300.0000 Ry
redata: Net charge of the system                    =     0.0000 |e|
redata: Min. number of SCF Iter                     =        0
redata: Max. number of SCF Iter                     =     1000
redata: SCF convergence failure will abort job
redata: SCF mix quantity                            = Hamiltonian
redata: Mix DM or H after convergence               =   F
redata: Recompute H after scf cycle                 =   F
redata: Mix DM in first SCF step                    =   T
redata: Write Pulay info on disk                    =   F
redata: New DM Occupancy tolerance                  = 0.000000000001
redata: No kicks to SCF
redata: DM Mixing Weight for Kicks                  =     0.5000
redata: Require Harris convergence for SCF          =   F
redata: Harris energy tolerance for SCF             =     0.000100 eV
redata: Require DM convergence for SCF              =   T
redata: DM tolerance for SCF                        =     0.001000
redata: Require EDM convergence for SCF             =   F
redata: EDM tolerance for SCF                       =     0.005000 eV
redata: Require H convergence for SCF               =   T
redata: Hamiltonian tolerance for SCF               =     0.001000 eV
redata: Require (free) Energy convergence for SCF   =   T
redata: (free) Energy tolerance for SCF             =     0.001000 eV
redata: Using Saved Data (generic)                  =   F
redata: Use continuation files for DM               =   F
redata: Neglect nonoverlap interactions             =   F
redata: Method of Calculation                       = Diagonalization
redata: Electronic Temperature                      =   299.9869 K
redata: Fix the spin of the system                  =   F
redata: Dynamics option                             = Single-point calculation
mix.SCF: Pulay mixing                            = Pulay
mix.SCF:    Variant                              = stable
mix.SCF:    History steps                        = 4
mix.SCF:    Linear mixing weight                 =     0.250000
mix.SCF:    Mixing weight                        =     0.250000
mix.SCF:    SVD condition                        = 0.1000E-07
redata: ***********************************************************************

%block SCF.Mixers
  Pulay
%endblock SCF.Mixers

%block SCF.Mixer.Pulay
  # Mixing method
  method pulay
  variant stable

  # Mixing options
  weight 0.2500
  weight.linear 0.2500
  history 4
%endblock SCF.Mixer.Pulay

DM_history_depth set to one: no extrapolation allowed by default for geometry relaxation
Size of DM history Fstack: 1
Total number of electrons:    22.000000
Total ionic charge:    22.000000

* ProcessorY, Blocksize:    4   1


* Orbital distribution balance (max,min):     2     1

k-point displ. along   1 input, could be:     0.00    0.50
k-point displ. along   2 input, could be:     0.00    0.50
k-point displ. along   3 input, could be:     0.00    0.50
 Kpoints in:           48 . Kpoints trimmed:           44

siesta: k-grid: Number of k-points =    44
siesta: k-grid: Cutoff (effective) =     8.632 Ang
siesta: k-grid: Supercell and displacements
siesta: k-grid:    4   0   0      0.000
siesta: k-grid:    0   4   0      0.000
siesta: k-grid:    0   0   4      0.000

diag: Algorithm                                     = Expert
diag: Parallel over k                               =   T
diag: Use parallel 2D distribution                  =   T
diag: Parallel block-size                           = 1
diag: Parallel distribution                         =     4 x     4
diag: Used triangular part                          = Lower
diag: Absolute tolerance                            =  0.100E-15
diag: Orthogonalization factor                      =  0.100E-05
diag: Memory factor                                 =  1.0000

superc: Internal auxiliary supercell:     9 x     9 x     5  =     405
superc: Number of atoms, orbitals, and projectors:   7695   8910  69255


ts: **************************************************************
ts: Save H and S matrices                           =    F
ts: Save DM and EDM matrices                        =    F
ts: Only save the overlap matrix S                  =    F
ts: **************************************************************

************************ Begin: TS CHECKS AND WARNINGS ************************
************************ End: TS CHECKS AND WARNINGS **************************


                     ====================================
                        Single-point calculation
                     ====================================

outcoor: Atomic coordinates (Ang):                          
    0.00000000    0.00000000    0.00000000   2       1  C-gga
   -0.70288177    1.21742694    1.55394445   1       2  Li-gga
   -1.45518323    2.52045129    7.76970359   1       3  Li-gga
    1.45518323    2.52045129    1.55394445   1       4  Li-gga
    0.70288177    1.21742694    7.76970359   1       5  Li-gga
    1.40576354    0.00000000    1.55394445   1       6  Li-gga
    2.91036646    0.00000000    7.76970359   1       7  Li-gga
   -1.45518323    2.52045129    1.55394445   1       8  Li-gga
   -0.70288177    1.21742694    7.76970359   1       9  Li-gga
    0.70288177    1.21742694    1.55394445   1      10  Li-gga
    1.45518323    2.52045129    7.76970359   1      11  Li-gga
    2.91036646    0.00000000    1.55394445   1      12  Li-gga
    1.40576354    0.00000000    7.76970359   1      13  Li-gga
   -0.70288177    1.21742694    4.66182402   1      14  Li-gga
   -1.45518323    2.52045129    4.66182402   1      15  Li-gga
    1.45518323    2.52045129    4.66182402   1      16  Li-gga
    0.70288177    1.21742694    4.66182402   1      17  Li-gga
    1.40576354    0.00000000    4.66182402   1      18  Li-gga
    2.91036646    0.00000000    4.66182402   1      19  Li-gga

superc: Internal auxiliary supercell:     9 x     9 x     5  =     405
superc: Number of atoms, orbitals, and projectors:   7695   8910  69255

outcell: Unit cell vectors (Ang):
        4.316130    0.000000    0.000000
       -2.158065    3.737878    0.000000
        0.000000    0.000000    9.323648

outcell: Cell vector modules (Ang)   :    4.316130    4.316130    9.323648
outcell: Cell angles (23,13,12) (deg):     90.0000     90.0000    120.0000
outcell: Cell volume (Ang**3)        :    150.4200
<dSpData1D:S at geom step 0
  <sparsity:sparsity for geom step 0
    nrows_g=22 nrows=2 sparsity=5.4731 nnzs=2649, refcount: 7>
  <dData1D:(new from dSpData1D) n=2649, refcount: 1>
refcount: 1>
new_DM -- step:     1
Initializing Density Matrix...
DM filled with atomic data:
<dSpData2D:DM initialized from atoms
  <sparsity:sparsity for geom step 0
    nrows_g=22 nrows=2 sparsity=5.4731 nnzs=2649, refcount: 8>
  <dData2D:DM n=2649 m=1, refcount: 1>
refcount: 1>
No. of atoms with KB's overlaping orbs in proc 0. Max # of overlaps:     257     263
New grid distribution:   1
           1       1:   20    1:    5    1:   13
           2       1:   20    1:    5   14:   26
           3       1:   20    1:    5   27:   38
           4       1:   20    1:    5   39:   50
           5       1:   20    6:   10    1:   13
           6       1:   20    6:   10   14:   26
           7       1:   20    6:   10   27:   38
           8       1:   20    6:   10   39:   50
           9       1:   20   11:   15    1:   13
          10       1:   20   11:   15   14:   26
          11       1:   20   11:   15   27:   38
          12       1:   20   11:   15   39:   50
          13       1:   20   16:   20    1:   13
          14       1:   20   16:   20   14:   26
          15       1:   20   16:   20   27:   38
          16       1:   20   16:   20   39:   50

InitMesh: MESH =    40 x    40 x   100 =      160000
InitMesh: (bp) =    20 x    20 x    50 =       20000
InitMesh: Mesh cutoff (required, used) =   300.000   316.498 Ry
ExtMesh (bp) on 0 =   156 x   141 x   149 =     3277404
New grid distribution:   2
           1      11:   20    1:   10    1:   12
           2      11:   20    1:   10   13:   25
           3       1:   10    1:   10   26:   38
           4       1:   10    1:   10   39:   50
           5       1:   10    1:   10    1:   12
           6       1:   10    1:   10   13:   25
           7      11:   20    1:   10   26:   38
           8      11:   20    1:   10   39:   50
           9      11:   20   11:   20    1:   12
          10      11:   20   11:   20   13:   25
          11       1:   10   11:   20   26:   38
          12       1:   10   11:   20   39:   50
          13       1:   10   11:   20    1:   12
          14       1:   10   11:   20   13:   25
          15      11:   20   11:   20   26:   38
          16      11:   20   11:   20   39:   50
New grid distribution:   3
           1       1:   10    1:   10    1:   13
           2      11:   20    1:   10   14:   25
           3      11:   20    1:   10   26:   38
           4       1:   10    1:   10   39:   50
           5      11:   20    1:   10    1:   13
           6       1:   10    1:   10   14:   25
           7       1:   10    1:   10   26:   38
           8      11:   20    1:   10   39:   50
           9       1:   10   11:   20    1:   13
          10      11:   20   11:   20   14:   25
          11      11:   20   11:   20   26:   38
          12       1:   10   11:   20   39:   50
          13      11:   20   11:   20    1:   13
          14       1:   10   11:   20   14:   25
          15       1:   10   11:   20   26:   38
          16      11:   20   11:   20   39:   50
Setting up quadratic distribution...
ExtMesh (bp) on 0 =   146 x   146 x   148 =     3154768
PhiOnMesh: Number of (b)points on node 0 =                 1200
PhiOnMesh: nlist on node 0 =               168169

stepf: Fermi-Dirac step function

siesta: Program's energy decomposition (eV):
siesta: Ebs     =       -83.527670
siesta: Eions   =       439.895300
siesta: Ena     =       124.396906
siesta: Ekin    =       334.326380
siesta: Enl     =        52.708084
siesta: Eso     =         0.000000
siesta: Edftu   =         0.000000
siesta: DEna    =       -61.054233
siesta: DUscf   =        63.242654
siesta: DUext   =         0.000000
siesta: Exc     =      -241.875486
siesta: eta*DQ  =         0.000000
siesta: Emadel  =         0.000000
siesta: Emeta   =         0.000000
siesta: Emolmec =        -8.851516
siesta: Ekinion =         0.000000
siesta: Eharris =       -15.560153
siesta: Etot    =      -177.002510
siesta: FreeEng =      -177.011611

        iscf     Eharris(eV)        E_KS(eV)     FreeEng(eV)     dDmax    Ef(eV) dHmax(eV)
   scf:    1      -15.560153     -177.002510     -177.011611  3.550168 -8.099555 33.880809
timer: Routine,Calls,Time,% = IterSCF        1       0.734  14.41
   scf:    2     -228.199213     -212.484272     -212.496798  7.361424 -6.448197  5.570212
   scf:    3     -210.616352     -213.150750     -213.157392  2.134747 -5.272160  4.007105
   scf:    4     -182.978700     -204.658447     -204.666345  6.057799 -7.330190 15.307019
   scf:    5     -208.278817     -213.205817     -213.212133  5.013269 -4.953865  4.575173
   scf:    6     -214.287379     -214.064755     -214.070351  1.202743 -5.465464  0.379317
   scf:    7     -214.072692     -214.069284     -214.074571  0.035915 -5.504457  0.184839
   scf:    8     -214.071237     -214.070430     -214.075658  0.031302 -5.523662  0.080282
   scf:    9     -214.070834     -214.070722     -214.075910  0.024472 -5.536819  0.005970
   scf:   10     -214.070722     -214.070722     -214.075912  0.001217 -5.537967  0.001347
   scf:   11     -214.070720     -214.070721     -214.075912  0.000353 -5.538351  0.000436

SCF Convergence by FreeE+DM+H criterion
|FreeE_i-FreeE_(i-1)| (eV) <     0.00100000
max |DM_out - DM_in|         :     0.0003528713
max |H_out - H_in|      (eV) :     0.0004359579
SCF cycle converged after 11 iterations

Using DM_out to compute the final energy and forces
No. of atoms with KB's overlaping orbs in proc 0. Max # of overlaps:     257     263

MM-Stress (kbar):      -10.81      -10.81       52.47        0.00        0.00       -0.00

siesta: E_KS(eV) =             -214.0707

siesta: E_KS - E_eggbox =      -214.0707

siesta: Atomic forces (eV/Ang):
     1   -0.000000   -0.000000    0.000000
     2   -0.208048    0.360361   -0.831481
     3    0.208048   -0.360361    0.831481
     4   -0.208061   -0.360372   -0.831519
     5    0.208061    0.360372    0.831519
     6    0.416106    0.000005   -0.831481
     7   -0.416106   -0.000005    0.831481
     8    0.208048   -0.360361   -0.831481
     9   -0.208048    0.360361    0.831481
    10    0.208061    0.360372   -0.831519
    11   -0.208061   -0.360372    0.831519
    12   -0.416106   -0.000005   -0.831481
    13    0.416106    0.000005    0.831481
    14   -0.333367    0.577327   -0.000000
    15    0.333367   -0.577327   -0.000000
    16   -0.333374   -0.577420   -0.000000
    17    0.333374    0.577420   -0.000000
    18    0.666663   -0.000041    0.000000
    19   -0.666663    0.000041    0.000000
----------------------------------------
   Tot   -0.000000    0.000000    0.000000
----------------------------------------
   Max    0.831519
   Res    0.478323    sqrt( Sum f_i^2 / 3N )
----------------------------------------
   Max    0.831519    constrained

Stress tensor Voigt[x,y,z,yz,xz,xy] (kbar):    -2176.29    -2176.30      425.46       -0.00        0.00       -0.01
(Free)E + p*V (eV/cell)      -91.1781
Target enthalpy (eV/cell)     -214.0759

siesta: Eigenvalues (eV):
  ik is       eps
   1  1  -17.6191  -16.4859  -15.1244  -15.0437  -14.5453  -13.9904  -13.5150  -13.1517  -13.0481   -6.4034
          -6.1919   -5.2837   -4.2152   14.6202   15.0444   17.6897   17.8975   18.2406   18.2780   18.6066
   19.3634   20.5337
   2  1  -17.9881  -17.0735  -15.2071  -14.0765  -13.1497  -12.5756   -9.9134   -8.9322   -8.1567   -7.9329
          -5.8289   -5.7842   -3.9851    3.1197    3.1701    5.5201   17.5490   18.9640   20.5352   21.0247
   22.3941   22.4580
   3  1  -17.9881  -17.0735  -15.2071  -14.0765  -13.1498  -12.5756   -9.9134   -8.9322   -8.1567   -7.9329
          -5.8289   -5.7842   -3.9850    3.1195    3.1702    5.5202   17.5490   18.9640   20.5352   21.0247
   22.3941   22.4580
   4  1  -17.6191  -16.4859  -15.1244  -15.0437  -14.5453  -13.9904  -13.5150  -13.1517  -13.0481   -6.4034
          -6.1919   -5.2839   -4.2151   14.6203   15.0444   17.6897   17.8975   18.2406   18.2779   18.6066
   19.3634   20.5337
   5  1  -17.9881  -17.0735  -15.2071  -14.0765  -13.1497  -12.5756   -9.9134   -8.9322   -8.1567   -7.9329
          -5.8289   -5.7842   -3.9851    3.1197    3.1701    5.5201   17.5490   18.9640   20.5352   21.0247
   22.3941   22.4580
   6  1  -18.2649  -17.3977  -15.5905   -9.7876   -8.8471   -8.4311   -8.4311   -2.8167   -2.8167   -1.7287
          -1.7287    6.2125    6.2125    7.8426    7.8427    8.3414    8.3414   21.9505   21.9508   22.0777
   23.9371   24.0004
   7  1  -17.5803  -16.3326  -16.0807  -14.3775  -14.3507  -14.1857  -10.5626  -10.0285   -9.2432   -8.3722
          -7.4494   -6.9063   -4.8357   -0.0127    1.7586    2.0851   16.3461   16.6621   18.0396   18.2616
   18.6812   19.1119
   8  1  -17.6191  -16.4859  -15.1244  -15.0437  -14.5453  -13.9904  -13.5150  -13.1517  -13.0481   -6.4034
          -6.1919   -5.2839   -4.2151   14.6203   15.0444   17.6897   17.8975   18.2406   18.2779   18.6066
   19.3634   20.5337
   9  1  -17.6191  -16.4859  -15.1244  -15.0437  -14.5453  -13.9904  -13.5150  -13.1517  -13.0481   -6.4034
          -6.1919   -5.2839   -4.2151   14.6203   15.0444   17.6897   17.8975   18.2406   18.2779   18.6066
   19.3634   20.5337
  10  1  -17.5803  -16.3326  -16.0807  -14.3775  -14.3507  -14.1857  -10.5626  -10.0285   -9.2432   -8.3722
          -7.4494   -6.9063   -4.8357   -0.0127    1.7586    2.0851   16.3461   16.6621   18.0396   18.2616
   18.6812   19.1119
  11  1  -17.6191  -16.4859  -15.1244  -15.0437  -14.5453  -13.9904  -13.5150  -13.1517  -13.0481   -6.4034
          -6.1919   -5.2839   -4.2151   14.6203   15.0444   17.6897   17.8975   18.2406   18.2779   18.6066
   19.3634   20.5337
  12  1  -17.5803  -16.3326  -16.0807  -14.3776  -14.3507  -14.1857  -10.5626  -10.0285   -9.2432   -8.3722
          -7.4494   -6.9063   -4.8355   -0.0127    1.7586    2.0849   16.3461   16.6621   18.0396   18.2617
   18.6811   19.1120
  13  1  -17.6045  -16.5664  -15.1997  -15.0596  -14.5669  -13.6767  -13.5799  -12.6420  -11.9795   -7.7087
          -5.5898   -5.3356   -4.2707   14.7574   15.2156   17.6011   17.8598   18.0786   18.2136   18.4319
   19.4919   20.4756
  14  1  -17.9528  -17.2294  -14.4846  -14.0428  -13.3891  -11.7179   -9.8746   -9.5586   -8.7801   -7.3164
          -5.6700   -4.2372   -3.6643    1.1265    3.4815    7.7795   16.9198   19.3697   20.5325   21.2268
   22.3138   22.5443
  15  1  -17.9528  -17.2294  -14.4846  -14.0428  -13.3891  -11.7179   -9.8746   -9.5586   -8.7801   -7.3164
          -5.6698   -4.2371   -3.6644    1.1265    3.4814    7.7795   16.9198   19.3697   20.5325   21.2268
   22.3138   22.5443
  16  1  -17.6044  -16.5664  -15.1997  -15.0596  -14.5669  -13.6767  -13.5799  -12.6420  -11.9794   -7.7087
          -5.5899   -5.3354   -4.2706   14.7574   15.2156   17.6011   17.8598   18.0786   18.2136   18.4319
   19.4919   20.4756
  17  1  -17.9528  -17.2294  -14.4846  -14.0428  -13.3891  -11.7179   -9.8746   -9.5586   -8.7801   -7.3164
          -5.6700   -4.2372   -3.6643    1.1265    3.4815    7.7795   16.9198   19.3697   20.5325   21.2268
   22.3138   22.5443
  18  1  -18.2214  -17.5857  -14.6026  -10.5148   -8.4089   -8.4088   -8.1012   -2.3507   -2.3506   -2.1082
          -2.1082    2.5056    2.5056    7.5041    7.5042   18.9902   18.9902   22.0735   23.8415   24.1186
   24.7551   24.7553
  19  1  -17.9528  -17.2294  -14.4846  -14.0428  -13.3891  -11.7179   -9.8746   -9.5586   -8.7801   -7.3164
          -5.6700   -4.2372   -3.6643    1.1265    3.4815    7.7795   16.9198   19.3697   20.5325   21.2268
   22.3138   22.5443
  20  1  -17.5698  -16.3214  -16.2095  -14.8972  -13.6704  -13.0716  -10.5261  -10.2797   -9.8533   -8.6262
          -6.1963   -5.3741   -5.3604   -2.1622    1.4096    4.5763   16.2839   16.5716   18.0864   18.3339
   18.7394   19.1520
  21  1  -17.9528  -17.2294  -14.4846  -14.0428  -13.3891  -11.7179   -9.8746   -9.5586   -8.7801   -7.3164
          -5.6698   -4.2371   -3.6644    1.1265    3.4814    7.7795   16.9198   19.3697   20.5325   21.2268
   22.3138   22.5443
  22  1  -17.9528  -17.2294  -14.4846  -14.0428  -13.3891  -11.7179   -9.8746   -9.5586   -8.7801   -7.3164
          -5.6700   -4.2372   -3.6643    1.1265    3.4815    7.7795   16.9198   19.3697   20.5325   21.2268
   22.3138   22.5443
  23  1  -17.6045  -16.5664  -15.1997  -15.0596  -14.5669  -13.6767  -13.5799  -12.6420  -11.9795   -7.7087
          -5.5898   -5.3356   -4.2707   14.7574   15.2156   17.6011   17.8598   18.0786   18.2136   18.4319
   19.4919   20.4756
  24  1  -17.6044  -16.5664  -15.1997  -15.0596  -14.5669  -13.6767  -13.5799  -12.6420  -11.9794   -7.7087
          -5.5899   -5.3354   -4.2706   14.7574   15.2156   17.6011   17.8598   18.0786   18.2136   18.4319
   19.4919   20.4756
  25  1  -17.6044  -16.5664  -15.1997  -15.0596  -14.5669  -13.6767  -13.5799  -12.6420  -11.9794   -7.7087
          -5.5899   -5.3354   -4.2706   14.7574   15.2156   17.6011   17.8598   18.0786   18.2136   18.4319
   19.4919   20.4756
  26  1  -17.5698  -16.3214  -16.2095  -14.8972  -13.6704  -13.0716  -10.5261  -10.2797   -9.8533   -8.6262
          -6.1963   -5.3741   -5.3604   -2.1622    1.4096    4.5763   16.2839   16.5716   18.0864   18.3339
   18.7394   19.1520
  27  1  -17.6044  -16.5664  -15.1997  -15.0596  -14.5669  -13.6767  -13.5799  -12.6420  -11.9794   -7.7087
          -5.5899   -5.3354   -4.2706   14.7574   15.2156   17.6011   17.8598   18.0786   18.2136   18.4319
   19.4919   20.4756
  28  1  -17.5698  -16.3214  -16.2095  -14.8972  -13.6704  -13.0716  -10.5261  -10.2797   -9.8533   -8.6262
          -6.1963   -5.3741   -5.3602   -2.1622    1.4094    4.5764   16.2839   16.5716   18.0864   18.3339
   18.7394   19.1521
  29  1  -17.5888  -16.6367  -15.2198  -15.0751  -14.7142  -13.8332  -12.6525  -11.7209  -11.1358   -8.6591
          -6.0129   -5.7185   -3.7734   14.9175   15.4070   17.5298   17.7701   17.9380   17.9992   18.3476
   19.6271   20.4017
  30  1  -17.9082  -17.3617  -14.1256  -13.9423  -12.6371  -10.8546  -10.3917   -9.8117   -9.1594   -6.5262
          -6.0255   -4.1817   -1.4496   -0.3055    4.4279    9.2714   16.4957   19.6066   20.5269   21.3438
   22.2707   22.5942
  31  1  -17.9082  -17.3617  -14.1256  -13.9423  -12.6371  -10.8546  -10.3917   -9.8117   -9.1594   -6.5262
          -6.0253   -4.1817   -1.4498   -0.3054    4.4279    9.2714   16.4957   19.6066   20.5269   21.3437
   22.2707   22.5942
  32  1  -17.5888  -16.6367  -15.2198  -15.0751  -14.7142  -13.8331  -12.6525  -11.7209  -11.1358   -8.6591
          -6.0131   -5.7183   -3.7734   14.9175   15.4070   17.5298   17.7701   17.9380   17.9992   18.3476
   19.6271   20.4017
  33  1  -17.9082  -17.3617  -14.1256  -13.9423  -12.6371  -10.8546  -10.3917   -9.8117   -9.1594   -6.5262
          -6.0255   -4.1817   -1.4496   -0.3055    4.4279    9.2714   16.4957   19.6066   20.5269   21.3438
   22.2707   22.5942
  34  1  -18.1596  -17.7469  -12.7048  -11.7954   -8.3857   -8.3856   -7.2684   -2.4217   -2.4217   -1.3567
          -1.3567    0.0785    0.0785    8.6082    8.6085   22.0727   23.7833   24.1962   29.0542   29.0542
   29.1159   29.1160
  35  1  -17.9082  -17.3617  -14.1256  -13.9423  -12.6371  -10.8546  -10.3917   -9.8117   -9.1594   -6.5262
          -6.0255   -4.1817   -1.4496   -0.3055    4.4279    9.2714   16.4957   19.6066   20.5269   21.3438
   22.2707   22.5942
  36  1  -17.5587  -16.3100  -16.3066  -15.0794  -12.6880  -12.0095  -10.9071  -10.4226  -10.2438   -8.4791
          -6.1513   -5.5798   -3.4500   -1.8206   -0.7895    6.4538   16.2257   16.4890   18.1303   18.4011
   18.7967   19.1825
  37  1  -17.9082  -17.3617  -14.1256  -13.9423  -12.6371  -10.8546  -10.3917   -9.8117   -9.1594   -6.5262
          -6.0253   -4.1817   -1.4498   -0.3054    4.4279    9.2714   16.4957   19.6066   20.5269   21.3437
   22.2707   22.5942
  38  1  -17.9082  -17.3617  -14.1256  -13.9423  -12.6371  -10.8546  -10.3917   -9.8117   -9.1594   -6.5262
          -6.0255   -4.1817   -1.4496   -0.3055    4.4279    9.2714   16.4957   19.6066   20.5269   21.3438
   22.2707   22.5942
  39  1  -17.5888  -16.6367  -15.2198  -15.0751  -14.7142  -13.8332  -12.6525  -11.7209  -11.1358   -8.6591
          -6.0129   -5.7185   -3.7734   14.9175   15.4070   17.5298   17.7701   17.9380   17.9992   18.3476
   19.6271   20.4017
  40  1  -17.5888  -16.6367  -15.2198  -15.0751  -14.7142  -13.8331  -12.6525  -11.7209  -11.1358   -8.6591
          -6.0131   -5.7183   -3.7734   14.9175   15.4070   17.5298   17.7701   17.9380   17.9992   18.3476
   19.6271   20.4017
  41  1  -17.5888  -16.6367  -15.2198  -15.0751  -14.7142  -13.8331  -12.6525  -11.7209  -11.1358   -8.6591
          -6.0131   -5.7183   -3.7734   14.9175   15.4070   17.5298   17.7701   17.9380   17.9992   18.3476
   19.6271   20.4017
  42  1  -17.5587  -16.3100  -16.3066  -15.0794  -12.6880  -12.0095  -10.9071  -10.4226  -10.2438   -8.4791
          -6.1513   -5.5798   -3.4500   -1.8206   -0.7895    6.4538   16.2257   16.4890   18.1303   18.4011
   18.7967   19.1825
  43  1  -17.5888  -16.6367  -15.2198  -15.0751  -14.7142  -13.8331  -12.6525  -11.7209  -11.1358   -8.6591
          -6.0131   -5.7183   -3.7734   14.9175   15.4070   17.5298   17.7701   17.9380   17.9992   18.3476
   19.6271   20.4017
  44  1  -17.5587  -16.3100  -16.3066  -15.0794  -12.6880  -12.0095  -10.9070  -10.4226  -10.2438   -8.4791
          -6.1511   -5.5798   -3.4499   -1.8208   -0.7895    6.4539   16.2257   16.4890   18.1303   18.4011
   18.7966   19.1826
siesta: Fermi energy =      -5.538351 eV

siesta: Program's energy decomposition (eV):
siesta: Ebs     =      -270.743110
siesta: Eions   =       439.895300
siesta: Ena     =       124.396906
siesta: Ekin    =       269.236938
siesta: Enl     =        74.690576
siesta: Eso     =         0.000000
siesta: Edftu   =         0.000000
siesta: DEna    =       -16.255781
siesta: DUscf   =         6.927935
siesta: DUext   =         0.000000
siesta: Exc     =      -224.320479
siesta: eta*DQ  =         0.000000
siesta: Emadel  =         0.000000
siesta: Emeta   =         0.000000
siesta: Emolmec =        -8.851516
siesta: Ekinion =         0.000000
siesta: Eharris =      -214.070720
siesta: Etot    =      -214.070721
siesta: FreeEng =      -214.075912

siesta: Final energy (eV):
siesta:  Band Struct. =    -270.743110
siesta:       Kinetic =     269.236938
siesta:       Hartree =     127.219999
siesta:       Edftu   =       0.000000
siesta:       Eso     =       0.000000
siesta:    Ext. field =       0.000000
siesta:   Exch.-corr. =    -224.320479
siesta:  Ion-electron =    -564.021677
siesta:       Ion-ion =     186.666012
siesta:       Ekinion =       0.000000
siesta:         Total =    -214.070721
siesta:         Fermi =      -5.538351

siesta: Atomic forces (eV/Ang):
siesta:      1   -0.000000   -0.000000    0.000000
siesta:      2   -0.208048    0.360361   -0.831481
siesta:      3    0.208048   -0.360361    0.831481
siesta:      4   -0.208061   -0.360372   -0.831519
siesta:      5    0.208061    0.360372    0.831519
siesta:      6    0.416106    0.000005   -0.831481
siesta:      7   -0.416106   -0.000005    0.831481
siesta:      8    0.208048   -0.360361   -0.831481
siesta:      9   -0.208048    0.360361    0.831481
siesta:     10    0.208061    0.360372   -0.831519
siesta:     11   -0.208061   -0.360372    0.831519
siesta:     12   -0.416106   -0.000005   -0.831481
siesta:     13    0.416106    0.000005    0.831481
siesta:     14   -0.333367    0.577327   -0.000000
siesta:     15    0.333367   -0.577327   -0.000000
siesta:     16   -0.333374   -0.577420   -0.000000
siesta:     17    0.333374    0.577420   -0.000000
siesta:     18    0.666663   -0.000041    0.000000
siesta:     19   -0.666663    0.000041    0.000000
siesta: ----------------------------------------
siesta:    Tot   -0.000000    0.000000    0.000000

siesta: Stress tensor (static) (eV/Ang**3):
siesta:    -1.358316   -0.000009    0.000000
siesta:    -0.000009   -1.358326   -0.000000
siesta:     0.000000   -0.000000    0.265548

siesta: Cell volume =        150.419983 Ang**3

siesta: Pressure (static):
siesta:                Solid            Molecule  Units
siesta:           0.00889851          0.00831337  Ry/Bohr**3
siesta:           0.81703135          0.76330540  eV/Ang**3
siesta:        1309.04268329       1222.96330190  kBar
(Free)E+ p_basis*V_orbitals  =        -190.080201
(Free)Eharris+ p_basis*V_orbitals  =        -190.080200

cite: Please see "LiC18_scf.bib" for an exhaustive BiBTeX file.
cite: Please clearly indicate Siesta version in published work: 4.1.5
cite: This calculation has made use of the following articles
cite: which are encouraged to be cited in a published work.
        Primary SIESTA paper
          DOI: www.doi.org/10.1088/0953-8984/14/11/302

>> End of run:   9-NOV-2022  15:06:46
Job completed
