Siesta Version  : 4.1.5
Architecture    : x86_64-unknown-linux-gnu--unknown
Compiler version: GNU Fortran (GCC) 11.3.0
Compiler flags  : mpif90 -g -O2 -fallow-argument-mismatch
PP flags        : -DMPI -DFC_HAVE_FLUSH -DFC_HAVE_ABORT
Libraries       :  -I/global/software/sl-7.x86_64/modules/intel/2020.4.304/mkl/include  /globall/software/sl-7.x86_64/modules/intel/2020.4.304/mkl/lib/intel64/libmkl_scalapack_lp64.a -Wl,--start-group /global/software/sl-7.x86_64/modules/intel/2020.4.304/mkl/lib/intel64/libmkl_intel_lp64.a /global/software/sl-7.x86_64/modules/intel/2020.4.304/mkl/lib/intel64/libmkl_sequential.a /global/software/sl-7.x86_64/modules/intel/2020.4.304/mkl/lib/intel64/libmkl_core.a /global/software/sl-7.x86_64/modules/intel/2020.4.304/mkl/lib/intel64/libmkl_blacs_openmpi_lp64.a -Wl,--end-group -lpthread -lm -ldl
PARALLEL version

* Running on 16 nodes in parallel
>> Start of run:   9-NOV-2022  15:16:57

                           ***********************       
                           *  WELCOME TO SIESTA  *       
                           ***********************       

reinit: Reading from standard input
reinit: Dumped input in INPUT_TMP.92141
************************** Dump of input data file ****************************
SystemName LiC18_scf
SystemLabel LiC18_scf
NumberOfAtoms   19
NumberOfSpecies 2
%block ChemicalSpeciesLabel
1  3   Li-gga
2  6   C-gga
%endblock ChemicalSpeciesLabel
PAO.BasisSize  SZ
PAO.EnergyShift  10 meV
%block PS.Lmax
C-gga   2
Li-gga  2
%endblock PS.Lmax
LatticeConstant 1.000000 Ang
%block LatticeVectors
	4.3161300000	0.0000000000	0.0000000000
	-2.1580650000	3.7378782260	0.0000000000
	0.0000000000	0.0000000000	15.9833966400
%endblock LatticeVectors
AtomicCoordinatesFormat Ang
%block AtomicCoordinatesAndAtomicSpecies
	0.00000000	0.00000000	0.00000000	2
	-0.70288177	1.21742694	2.66390477	1
	-1.45518323	2.52045129	13.31949187	1
	1.45518323	2.52045129	2.66390477	1
	0.70288177	1.21742694	13.31949187	1
	1.40576354	0.00000000	2.66390477	1
	2.91036646	0.00000000	13.31949187	1
	-1.45518323	2.52045129	2.66390477	1
	-0.70288177	1.21742694	13.31949187	1
	0.70288177	1.21742694	2.66390477	1
	1.45518323	2.52045129	13.31949187	1
	2.91036646	0.00000000	2.66390477	1
	1.40576354	0.00000000	13.31949187	1
	-0.70288177	1.21742694	7.99169832	1
	-1.45518323	2.52045129	7.99169832	1
	1.45518323	2.52045129	7.99169832	1
	0.70288177	1.21742694	7.99169832	1
	1.40576354	0.00000000	7.99169832	1
	2.91036646	0.00000000	7.99169832	1
%endblock AtomicCoordinatesAndAtomicSpecies
Kgrid_NoTRS  T
%block kgrid_MonkhorstPack
4       0       0       0.0
0       4       0       0.0
0       0       4       0.0
%endblock kgrid_MonkhorstPack
AtomCoorFormatOut Ang
BlockSize 1
#ProcessorY 12
Diag.ParallelOverK   T
Diag.DivideAndConquer F
MeshCutoff   300 Ry
SCF.FreeE.Tolerance 1E-3 eV
SCF.EDM.Tolerance   5E-3 eV
DM.Tolerance  1E-3
DM.Require.Energy.Convergence T
DM.NumberPulay 4
XC.Functional GGA
XC.Authors    PBE
UseSaveData        F
MD.TypeOfRun       CG
MD.VariableCell    F
MD.NumCGsteps      00
MD.MaxCGDispl      0.200000 Bohr
MD.MaxStressTol    1.000000 GPa
MD.MaxForceTol     0.010000 eV/Ang
WriteMDHistory T
WriteCoorStep T
WriteForces T
WriteCoorStep    T
WriteEigenValues T
WriteDM    F
MM.UnitsDistance Ang  # what this program prints out DO NOT CHANGE
MM.UnitsEnergy    eV  # what this program prints out DO NOT CHANGE
MM.Grimme.S6     0.75 # Grimme-paper for PBE (correct for your functional)
MM.Grimme.D     20.   # Grimme-paper (correct for your functional)
%block MM.Potentials
  1   1 Grimme     16.69      1.650 # Li, 10.1002/jcc.20495
  1   2 Grimme     17.40      2.277 # Li / C
  2   2 Grimme     18.14      2.904 # C, 10.1002/jcc.20495
%endblock MM.Potentials
#%block ProjectedDensityOfStates
# -200.0  120.0  0.4  12800  eV
#%endblock ProjectedDensityOfStates
************************** End of input data file *****************************

reinit: -----------------------------------------------------------------------
reinit: System Name: LiC18_scf
reinit: -----------------------------------------------------------------------
reinit: System Label: LiC18_scf
reinit: -----------------------------------------------------------------------
Reading two-body potentials
Grimme - two-body potential between 1 and 1
Grimme - two-body potential between 1 and 2
Grimme - two-body potential between 2 and 2

initatom: Reading input for the pseudopotentials and atomic orbitals ----------
Species number:   1 Atomic number:    3 Label: Li-gga
Species number:   2 Atomic number:    6 Label: C-gga

Ground state valence configuration:   2s01
Reading pseudopotential information in formatted form from Li-gga.psf

Valence configuration for pseudopotential generation:
2s( 1.00) rc: 2.28
2p( 0.00) rc: 2.28
3d( 0.00) rc: 2.59
4f( 0.00) rc: 2.59
Ground state valence configuration:   2s02  2p02
Reading pseudopotential information in formatted form from C-gga.psf

Valence configuration for pseudopotential generation:
2s( 2.00) rc: 1.56
2p( 2.00) rc: 1.56
3d( 0.00) rc: 1.56
4f( 0.00) rc: 1.56
relmxkb: Read Max KB Ang. Momentum=    2 for species C-gga
relmxkb: Read Max KB Ang. Momentum=    2 for species Li-gga

<basis_specs>
===============================================================================
Li-gga               Z=   3    Mass=  6.9400        Charge= 0.17977+309
Lmxo=0 Lmxkb= 2    BasisType=split      Semic=F
L=0  Nsemic=0  Cnfigmx=2
          i=1  nzeta=1  polorb=0  (2s)
            splnorm:   0.15000    
               vcte:    0.0000    
               rinn:    0.0000    
               qcoe:    0.0000    
               qyuk:    0.0000    
               qwid:   0.10000E-01
                rcs:    0.0000    
            lambdas:    1.0000    
-------------------------------------------------------------------------------
L=0  Nkbl=1  erefs: 0.17977+309
L=1  Nkbl=1  erefs: 0.17977+309
L=2  Nkbl=1  erefs: 0.17977+309
===============================================================================
</basis_specs>

atom: Called for Li-gga                (Z =   3)

read_vps: Pseudopotential generation method:
read_vps: ATM 3.2.2 Troullier-Martins                       
Valence charge for ps generation:    1.00000

read_vps: Pseudopotential includes a core correction:
read_vps: Pseudo-core for xc-correction

xc_check: Exchange-correlation functional:
xc_check: GGA Perdew, Burke & Ernzerhof 1996
V l=0 = -2*Zval/r beyond r=  2.2278
V l=1 = -2*Zval/r beyond r=  2.2278
V l=2 = -2*Zval/r beyond r=  2.5245
All V_l potentials equal beyond r=  2.4622
This should be close to max(r_c) in ps generation
All pots = -2*Zval/r beyond r=  2.5245

VLOCAL1: 99.0% of the norm of Vloc inside      7.160 Ry
VLOCAL1: 99.9% of the norm of Vloc inside     16.318 Ry
atom: Maximum radius for 4*pi*r*r*local-pseudopot. charge    2.86079
atom: Maximum radius for r*vlocal+2*Zval:    2.43160
GHOST: No ghost state for L =  0
GHOST: No ghost state for L =  1
GHOST: No ghost state for L =  2

KBgen: Kleinman-Bylander projectors: 
   l= 0   rc=  2.654023   el= -0.211234   Ekb=  1.742119   kbcos=  0.228463
   l= 1   rc=  2.721230   el= -0.080095   Ekb= -1.122375   kbcos= -0.147941
   l= 2   rc=  2.825246   el=  0.002001   Ekb= -0.207076   kbcos= -0.031965

KBgen: Total number of Kleinman-Bylander projectors:    9
atom: -------------------------------------------------------------------------

atom: SANKEY-TYPE ORBITALS:

SPLIT: Orbitals with angular momentum L= 0

SPLIT: Basis orbitals for state 2s

SPLIT: PAO cut-off radius determined from an
SPLIT: energy shift=  0.000735 Ry

   izeta = 1
                 lambda =    1.000000
                     rc =   11.897381
                 energy =   -0.210580
                kinetic =    0.143382
    potential(screened) =   -0.353962
       potential(ionic) =   -0.533453
atom: Total number of Sankey-type orbitals:  1

atm_pop: Valence configuration (for local Pseudopot. screening):
 2s( 1.00)                                                            
Vna: chval, zval:    1.00000   1.00000

Vna:  Cut-off radius for the neutral-atom potential:  11.897381
comcore: Pseudo-core radius Rcore=  3.450946

atom: _________________________________________________________________________

<basis_specs>
===============================================================================
C-gga                Z=   6    Mass=  12.010        Charge= 0.17977+309
Lmxo=1 Lmxkb= 2    BasisType=split      Semic=F
L=0  Nsemic=0  Cnfigmx=2
          i=1  nzeta=1  polorb=0  (2s)
            splnorm:   0.15000    
               vcte:    0.0000    
               rinn:    0.0000    
               qcoe:    0.0000    
               qyuk:    0.0000    
               qwid:   0.10000E-01
                rcs:    0.0000    
            lambdas:    1.0000    
L=1  Nsemic=0  Cnfigmx=2
          i=1  nzeta=1  polorb=0  (2p)
            splnorm:   0.15000    
               vcte:    0.0000    
               rinn:    0.0000    
               qcoe:    0.0000    
               qyuk:    0.0000    
               qwid:   0.10000E-01
                rcs:    0.0000    
            lambdas:    1.0000    
-------------------------------------------------------------------------------
L=0  Nkbl=1  erefs: 0.17977+309
L=1  Nkbl=1  erefs: 0.17977+309
L=2  Nkbl=1  erefs: 0.17977+309
===============================================================================
</basis_specs>

atom: Called for C-gga                 (Z =   6)

read_vps: Pseudopotential generation method:
read_vps: ATM 3.2.2 Troullier-Martins                       
Valence charge for ps generation:    4.00000

xc_check: Exchange-correlation functional:
xc_check: GGA Perdew, Burke & Ernzerhof 1996
V l=0 = -2*Zval/r beyond r=  1.5227
V l=1 = -2*Zval/r beyond r=  1.5227
V l=2 = -2*Zval/r beyond r=  1.5227
All V_l potentials equal beyond r=  1.4851
This should be close to max(r_c) in ps generation
All pots = -2*Zval/r beyond r=  1.5227

VLOCAL1: 99.0% of the norm of Vloc inside     19.682 Ry
VLOCAL1: 99.9% of the norm of Vloc inside     44.856 Ry
atom: Maximum radius for 4*pi*r*r*local-pseudopot. charge    1.79142
atom: Maximum radius for r*vlocal+2*Zval:    1.54183
GHOST: No ghost state for L =  0
GHOST: No ghost state for L =  1
GHOST: No ghost state for L =  2

KBgen: Kleinman-Bylander projectors: 
   l= 0   rc=  1.661951   el= -1.010689   Ekb=  5.289847   kbcos=  0.316429
   l= 1   rc=  1.661951   el= -0.388490   Ekb= -4.102504   kbcos= -0.351025
   l= 2   rc=  1.747182   el=  0.001971   Ekb= -1.006005   kbcos= -0.008530

KBgen: Total number of Kleinman-Bylander projectors:    9
atom: -------------------------------------------------------------------------

atom: SANKEY-TYPE ORBITALS:

SPLIT: Orbitals with angular momentum L= 0

SPLIT: Basis orbitals for state 2s

SPLIT: PAO cut-off radius determined from an
SPLIT: energy shift=  0.000735 Ry

   izeta = 1
                 lambda =    1.000000
                     rc =    5.948690
                 energy =   -1.010099
                kinetic =    0.827121
    potential(screened) =   -1.837220
       potential(ionic) =   -5.392783

SPLIT: Orbitals with angular momentum L= 1

SPLIT: Basis orbitals for state 2p

SPLIT: PAO cut-off radius determined from an
SPLIT: energy shift=  0.000735 Ry

   izeta = 1
                 lambda =    1.000000
                     rc =    7.638387
                 energy =   -0.387843
                kinetic =    2.314739
    potential(screened) =   -2.702582
       potential(ionic) =   -6.092371
atom: Total number of Sankey-type orbitals:  4

atm_pop: Valence configuration (for local Pseudopot. screening):
 2s( 2.00)                                                            
 2p( 2.00)                                                            
Vna: chval, zval:    4.00000   4.00000

Vna:  Cut-off radius for the neutral-atom potential:   7.638387

atom: _________________________________________________________________________

prinput: Basis input ----------------------------------------------------------

PAO.BasisType split     

%block ChemicalSpeciesLabel
    1    3 Li-gga                  # Species index, atomic number, species label
    2    6 C-gga                   # Species index, atomic number, species label
%endblock ChemicalSpeciesLabel

%block PAO.Basis                 # Define Basis set
Li-gga                1                    # Species label, number of l-shells
 n=2   0   1                         # n, l, Nzeta 
  11.897   
   1.000   
C-gga                 2                    # Species label, number of l-shells
 n=2   0   1                         # n, l, Nzeta 
   5.949   
   1.000   
 n=2   1   1                         # n, l, Nzeta 
   7.638   
   1.000   
%endblock PAO.Basis

prinput: ----------------------------------------------------------------------

coor:   Atomic-coordinates input format  =     Cartesian coordinates
coor:                                          (in Angstroms)

siesta: Atomic coordinates (Bohr) and species
siesta:      0.00000   0.00000   0.00000  2        1
siesta:     -1.32825   2.30060   5.03405  1        2
siesta:     -2.74990   4.76296  25.17020  1        3
siesta:      2.74990   4.76296   5.03405  1        4
siesta:      1.32825   2.30060  25.17020  1        5
siesta:      2.65651   0.00000   5.03405  1        6
siesta:      5.49980   0.00000  25.17020  1        7
siesta:     -2.74990   4.76296   5.03405  1        8
siesta:     -1.32825   2.30060  25.17020  1        9
siesta:      1.32825   2.30060   5.03405  1       10
siesta:      2.74990   4.76296  25.17020  1       11
siesta:      5.49980   0.00000   5.03405  1       12
siesta:      2.65651   0.00000  25.17020  1       13
siesta:     -1.32825   2.30060  15.10213  1       14
siesta:     -2.74990   4.76296  15.10213  1       15
siesta:      2.74990   4.76296  15.10213  1       16
siesta:      1.32825   2.30060  15.10213  1       17
siesta:      2.65651   0.00000  15.10213  1       18
siesta:      5.49980   0.00000  15.10213  1       19

siesta: System type = bulk      

initatomlists: Number of atoms, orbitals, and projectors:     19    22   171

siesta: ******************** Simulation parameters ****************************
siesta:
siesta: The following are some of the parameters of the simulation.
siesta: A complete list of the parameters used, including default values,
siesta: can be found in file out.fdf
siesta:
redata: Spin configuration                          = none
redata: Number of spin components                   = 1
redata: Time-Reversal Symmetry                      = T
redata: Spin spiral                                 = F
redata: Long output                                 =   F
redata: Number of Atomic Species                    =        2
redata: Charge density info will appear in .RHO file
redata: Write Mulliken Pop.                         = NO
redata: Matel table size (NRTAB)                    =     1024
redata: Mesh Cutoff                                 =   300.0000 Ry
redata: Net charge of the system                    =     0.0000 |e|
redata: Min. number of SCF Iter                     =        0
redata: Max. number of SCF Iter                     =     1000
redata: SCF convergence failure will abort job
redata: SCF mix quantity                            = Hamiltonian
redata: Mix DM or H after convergence               =   F
redata: Recompute H after scf cycle                 =   F
redata: Mix DM in first SCF step                    =   T
redata: Write Pulay info on disk                    =   F
redata: New DM Occupancy tolerance                  = 0.000000000001
redata: No kicks to SCF
redata: DM Mixing Weight for Kicks                  =     0.5000
redata: Require Harris convergence for SCF          =   F
redata: Harris energy tolerance for SCF             =     0.000100 eV
redata: Require DM convergence for SCF              =   T
redata: DM tolerance for SCF                        =     0.001000
redata: Require EDM convergence for SCF             =   F
redata: EDM tolerance for SCF                       =     0.005000 eV
redata: Require H convergence for SCF               =   T
redata: Hamiltonian tolerance for SCF               =     0.001000 eV
redata: Require (free) Energy convergence for SCF   =   T
redata: (free) Energy tolerance for SCF             =     0.001000 eV
redata: Using Saved Data (generic)                  =   F
redata: Use continuation files for DM               =   F
redata: Neglect nonoverlap interactions             =   F
redata: Method of Calculation                       = Diagonalization
redata: Electronic Temperature                      =   299.9869 K
redata: Fix the spin of the system                  =   F
redata: Dynamics option                             = Single-point calculation
mix.SCF: Pulay mixing                            = Pulay
mix.SCF:    Variant                              = stable
mix.SCF:    History steps                        = 4
mix.SCF:    Linear mixing weight                 =     0.250000
mix.SCF:    Mixing weight                        =     0.250000
mix.SCF:    SVD condition                        = 0.1000E-07
redata: ***********************************************************************

%block SCF.Mixers
  Pulay
%endblock SCF.Mixers

%block SCF.Mixer.Pulay
  # Mixing method
  method pulay
  variant stable

  # Mixing options
  weight 0.2500
  weight.linear 0.2500
  history 4
%endblock SCF.Mixer.Pulay

DM_history_depth set to one: no extrapolation allowed by default for geometry relaxation
Size of DM history Fstack: 1
Total number of electrons:    22.000000
Total ionic charge:    22.000000

* ProcessorY, Blocksize:    4   1


* Orbital distribution balance (max,min):     2     1

k-point displ. along   1 input, could be:     0.00    0.50
k-point displ. along   2 input, could be:     0.00    0.50
k-point displ. along   3 input, could be:     0.00    0.50
 Kpoints in:           48 . Kpoints trimmed:           44

siesta: k-grid: Number of k-points =    44
siesta: k-grid: Cutoff (effective) =     8.632 Ang
siesta: k-grid: Supercell and displacements
siesta: k-grid:    4   0   0      0.000
siesta: k-grid:    0   4   0      0.000
siesta: k-grid:    0   0   4      0.000

diag: Algorithm                                     = Expert
diag: Parallel over k                               =   T
diag: Use parallel 2D distribution                  =   T
diag: Parallel block-size                           = 1
diag: Parallel distribution                         =     4 x     4
diag: Used triangular part                          = Lower
diag: Absolute tolerance                            =  0.100E-15
diag: Orthogonalization factor                      =  0.100E-05
diag: Memory factor                                 =  1.0000

superc: Internal auxiliary supercell:     9 x     9 x     3  =     243
superc: Number of atoms, orbitals, and projectors:   4617   5346  41553


ts: **************************************************************
ts: Save H and S matrices                           =    F
ts: Save DM and EDM matrices                        =    F
ts: Only save the overlap matrix S                  =    F
ts: **************************************************************

************************ Begin: TS CHECKS AND WARNINGS ************************
************************ End: TS CHECKS AND WARNINGS **************************


                     ====================================
                        Single-point calculation
                     ====================================

outcoor: Atomic coordinates (Ang):                          
    0.00000000    0.00000000    0.00000000   2       1  C-gga
   -0.70288177    1.21742694    2.66390477   1       2  Li-gga
   -1.45518323    2.52045129   13.31949187   1       3  Li-gga
    1.45518323    2.52045129    2.66390477   1       4  Li-gga
    0.70288177    1.21742694   13.31949187   1       5  Li-gga
    1.40576354    0.00000000    2.66390477   1       6  Li-gga
    2.91036646    0.00000000   13.31949187   1       7  Li-gga
   -1.45518323    2.52045129    2.66390477   1       8  Li-gga
   -0.70288177    1.21742694   13.31949187   1       9  Li-gga
    0.70288177    1.21742694    2.66390477   1      10  Li-gga
    1.45518323    2.52045129   13.31949187   1      11  Li-gga
    2.91036646    0.00000000    2.66390477   1      12  Li-gga
    1.40576354    0.00000000   13.31949187   1      13  Li-gga
   -0.70288177    1.21742694    7.99169832   1      14  Li-gga
   -1.45518323    2.52045129    7.99169832   1      15  Li-gga
    1.45518323    2.52045129    7.99169832   1      16  Li-gga
    0.70288177    1.21742694    7.99169832   1      17  Li-gga
    1.40576354    0.00000000    7.99169832   1      18  Li-gga
    2.91036646    0.00000000    7.99169832   1      19  Li-gga

superc: Internal auxiliary supercell:     9 x     9 x     3  =     243
superc: Number of atoms, orbitals, and projectors:   4617   5346  41553

outcell: Unit cell vectors (Ang):
        4.316130    0.000000    0.000000
       -2.158065    3.737878    0.000000
        0.000000    0.000000   15.983397

outcell: Cell vector modules (Ang)   :    4.316130    4.316130   15.983397
outcell: Cell angles (23,13,12) (deg):     90.0000     90.0000    120.0000
outcell: Cell volume (Ang**3)        :    257.8628
<dSpData1D:S at geom step 0
  <sparsity:sparsity for geom step 0
    nrows_g=22 nrows=2 sparsity=3.0021 nnzs=1453, refcount: 7>
  <dData1D:(new from dSpData1D) n=1453, refcount: 1>
refcount: 1>
new_DM -- step:     1
Initializing Density Matrix...
DM filled with atomic data:
<dSpData2D:DM initialized from atoms
  <sparsity:sparsity for geom step 0
    nrows_g=22 nrows=2 sparsity=3.0021 nnzs=1453, refcount: 8>
  <dData2D:DM n=1453 m=1, refcount: 1>
refcount: 1>
No. of atoms with KB's overlaping orbs in proc 0. Max # of overlaps:     160     161
New grid distribution:   1
           1       1:   20    1:    5    1:   23
           2       1:   20    1:    5   24:   46
           3       1:   20    1:    5   47:   68
           4       1:   20    1:    5   69:   90
           5       1:   20    6:   10    1:   23
           6       1:   20    6:   10   24:   46
           7       1:   20    6:   10   47:   68
           8       1:   20    6:   10   69:   90
           9       1:   20   11:   15    1:   23
          10       1:   20   11:   15   24:   46
          11       1:   20   11:   15   47:   68
          12       1:   20   11:   15   69:   90
          13       1:   20   16:   20    1:   23
          14       1:   20   16:   20   24:   46
          15       1:   20   16:   20   47:   68
          16       1:   20   16:   20   69:   90

InitMesh: MESH =    40 x    40 x   180 =      288000
InitMesh: (bp) =    20 x    20 x    90 =       36000
InitMesh: Mesh cutoff (required, used) =   300.000   316.498 Ry
ExtMesh (bp) on 0 =   156 x   141 x   167 =     3673332
New grid distribution:   2
           1       1:   20    1:   10    1:    9
           2       1:   20    1:   10   21:   32
           3       1:   20    1:   10   46:   58
           4       1:   20    1:   10   71:   81
           5       1:   20    1:   10   10:   20
           6       1:   20    1:   10   33:   45
           7       1:   20    1:   10   59:   70
           8       1:   20    1:   10   82:   90
           9       1:   20   11:   20    1:    9
          10       1:   20   11:   20   21:   32
          11       1:   20   11:   20   46:   58
          12       1:   20   11:   20   71:   81
          13       1:   20   11:   20   10:   20
          14       1:   20   11:   20   33:   45
          15       1:   20   11:   20   59:   70
          16       1:   20   11:   20   82:   90
New grid distribution:   3
           1       1:   20    1:   10   13:   23
           2       1:   20    1:   10   24:   34
           3       1:   20    1:   10   46:   57
           4       1:   20    1:   10   80:   90
           5       1:   20    1:   10    1:   12
           6       1:   20    1:   10   35:   45
           7       1:   20    1:   10   58:   68
           8       1:   20    1:   10   69:   79
           9       1:   20   11:   20   13:   23
          10       1:   20   11:   20   35:   45
          11       1:   20   11:   20   46:   57
          12       1:   20   11:   20   80:   90
          13       1:   20   11:   20    1:   12
          14       1:   20   11:   20   24:   34
          15       1:   20   11:   20   58:   68
          16       1:   20   11:   20   69:   79
Setting up quadratic distribution...
ExtMesh (bp) on 0 =   156 x   146 x   153 =     3484728
PhiOnMesh: Number of (b)points on node 0 =                 1800
PhiOnMesh: nlist on node 0 =               158165

stepf: Fermi-Dirac step function

siesta: Program's energy decomposition (eV):
siesta: Ebs     =       190.984852
siesta: Eions   =       439.895300
siesta: Ena     =       155.901913
siesta: Ekin    =       287.031281
siesta: Enl     =        46.870103
siesta: Eso     =         0.000000
siesta: Edftu   =         0.000000
siesta: DEna    =       -34.136676
siesta: DUscf   =       109.485044
siesta: DUext   =         0.000000
siesta: Exc     =      -223.240796
siesta: eta*DQ  =         0.000000
siesta: Emadel  =         0.000000
siesta: Emeta   =         0.000000
siesta: Emolmec =        -7.244196
siesta: Ekinion =         0.000000
siesta: Eharris =       141.965658
siesta: Etot    =      -105.228627
siesta: FreeEng =      -105.232551

        iscf     Eharris(eV)        E_KS(eV)     FreeEng(eV)     dDmax    Ef(eV) dHmax(eV)
   scf:    1      141.965658     -105.228627     -105.232551  1.750571 -4.271427 57.932742
timer: Routine,Calls,Time,% = IterSCF        1       0.516  15.47
   scf:    2      164.342322     -119.052183     -119.065224 25.101607  3.341560 53.808550
   scf:    3     -205.458659     -167.340699     -167.340700  8.238092 -0.566150 29.711665
   scf:    4      712.873652       68.641146       68.631856 19.266082 -4.658027 92.420032
   scf:    5     -244.567477     -118.676892     -118.679887  6.624111 -4.275469 50.979402
   scf:    6     -184.805993     -154.440188     -154.463207  1.284186 -3.407620 36.645101
   scf:    7     -204.315400     -192.314361     -192.314910  7.072938 -1.995053  7.271924
   scf:    8      -68.333525     -146.415621     -146.440372  7.436747 -3.693622 40.190688
   scf:    9     -162.746113     -190.782947     -190.796302  7.757044 -1.434822 11.111545
   scf:   10     -195.583766     -194.086140     -194.097389  2.007589 -1.770076  3.131489
   scf:   11     -192.950218     -193.581845     -193.593296  0.493075 -1.713863  5.285352
   scf:   12     -191.130441     -193.724708     -193.742641  2.134090 -1.999269  4.161241
   scf:   13     -178.257182     -189.919551     -189.937275  3.970774 -1.264698 12.336822
   scf:   14     -188.164674     -189.060130     -189.073328  0.297785 -0.758948 13.521743
   scf:   15     -193.648804     -191.499906     -191.514821  0.710614 -1.708884  9.679126
   scf:   16     -194.910006     -193.467276     -193.485051  0.994576 -1.925994  5.243641
   scf:   17     -193.875949     -193.812879     -193.835214  0.770503 -1.835860  3.753116
   scf:   18     -194.101763     -193.968492     -193.992537  0.219846 -1.825720  2.993463
   scf:   19     -192.000761     -193.719018     -193.739434  1.356643 -2.073516  4.176954
   scf:   20     -193.674046     -194.284875     -194.305152  1.518305 -1.982510  1.607793
   scf:   21     -194.388109     -194.371234     -194.395324  0.374118 -1.991250  0.195242
   scf:   22     -194.372684     -194.372529     -194.396510  0.032989 -1.996141  0.006226
   scf:   23     -194.372709     -194.372621     -194.396517  0.005463 -1.994117  0.002685
   scf:   24     -194.372735     -194.372680     -194.396517  0.003832 -1.994306  0.008410
   scf:   25     -194.372672     -194.372677     -194.396520  0.002065 -1.994446  0.000448
   scf:   26     -194.372676     -194.372677     -194.396520  0.000314 -1.994519  0.000982

SCF Convergence by FreeE+DM+H criterion
|FreeE_i-FreeE_(i-1)| (eV) <     0.00100000
max |DM_out - DM_in|         :     0.0003139017
max |H_out - H_in|      (eV) :     0.0009821932
SCF cycle converged after 26 iterations

Using DM_out to compute the final energy and forces
No. of atoms with KB's overlaping orbs in proc 0. Max # of overlaps:     160     161

MM-Stress (kbar):      -11.98      -11.98       11.65        0.00        0.00        0.00

siesta: E_KS(eV) =             -194.3727

siesta: E_KS - E_eggbox =      -194.3727

siesta: Atomic forces (eV/Ang):
     1    0.000000   -0.000000    0.000000
     2   -0.321461    0.556761   -0.380507
     3    0.321461   -0.556761    0.380507
     4   -0.321472   -0.556806   -0.380478
     5    0.321472    0.556806    0.380478
     6    0.642900   -0.000013   -0.380507
     7   -0.642900    0.000013    0.380507
     8    0.321461   -0.556761   -0.380507
     9   -0.321461    0.556761    0.380507
    10    0.321472    0.556806   -0.380478
    11   -0.321472   -0.556806    0.380478
    12   -0.642900    0.000013   -0.380507
    13    0.642900   -0.000013    0.380507
    14   -0.379319    0.656952   -0.000000
    15    0.379319   -0.656952    0.000000
    16   -0.379329   -0.657016    0.000000
    17    0.379329    0.657016   -0.000000
    18    0.758597   -0.000024    0.000000
    19   -0.758597    0.000024   -0.000000
----------------------------------------
   Tot    0.000000   -0.000000    0.000000
----------------------------------------
   Max    0.758597
   Res    0.421992    sqrt( Sum f_i^2 / 3N )
----------------------------------------
   Max    0.758597    constrained

Stress tensor Voigt[x,y,z,yz,xz,xy] (kbar):    -1478.65    -1478.65      134.57        0.00       -0.00       -0.00
(Free)E + p*V (eV/cell)      -42.9632
Target enthalpy (eV/cell)     -194.3965

siesta: Eigenvalues (eV):
  ik is       eps
   1  1  -12.3911  -12.0458  -11.8570  -10.9057  -10.8474  -10.6330  -10.2913  -10.1731  -10.0587   -8.3067
          -2.0728   -1.9949   -1.6287   17.7497   18.0812   18.9655   19.0368   19.1515   19.3588   19.6954
   20.2269   20.3755
   2  1  -13.0723  -12.6732  -12.5359   -9.8055   -9.6052   -8.8938   -8.2961   -3.7030   -3.0034   -2.7112
          -2.1112   -1.7542    0.1545    0.3508    1.5052    2.1251   19.6065   21.3887   21.5100   22.2740
   22.8664   22.8757
   3  1  -13.0723  -12.6732  -12.5359   -9.8055   -9.6052   -8.8938   -8.2961   -3.7030   -3.0034   -2.7112
          -2.1112   -1.7541    0.1544    0.3509    1.5052    2.1252   19.6065   21.3887   21.5100   22.2740
   22.8664   22.8757
   4  1  -12.3911  -12.0458  -11.8570  -10.9057  -10.8474  -10.6330  -10.2913  -10.1731  -10.0587   -8.3067
          -2.0727   -1.9949   -1.6289   17.7497   18.0812   18.9655   19.0368   19.1515   19.3588   19.6954
   20.2269   20.3755
   5  1  -13.0723  -12.6732  -12.5359   -9.8055   -9.6052   -8.8938   -8.2961   -3.7030   -3.0034   -2.7112
          -2.1112   -1.7542    0.1545    0.3508    1.5052    2.1251   19.6065   21.3887   21.5100   22.2740
   22.8664   22.8757
   6  1  -13.4469  -13.0485  -12.8985   -9.1127   -2.8085   -1.6623   -1.6622    5.7691    5.7691    6.4392
           6.4393    7.1129    7.1129    7.8390    7.8390    8.1706    8.1706    9.2523    9.2524   23.7392
   24.3532   24.5533
   7  1  -12.1102  -12.0880  -11.9215  -11.5610  -11.5257  -11.2175   -8.7110   -5.0590   -4.3592   -3.7270
          -3.1998   -2.9953   -2.3209   -1.6785   -0.4446   -0.1095   18.0408   18.3332   18.5442   18.8270
   18.9617   19.2431
   8  1  -12.3911  -12.0458  -11.8570  -10.9057  -10.8474  -10.6330  -10.2913  -10.1731  -10.0587   -8.3067
          -2.0727   -1.9949   -1.6289   17.7497   18.0812   18.9655   19.0368   19.1515   19.3588   19.6954
   20.2269   20.3755
   9  1  -12.3911  -12.0458  -11.8570  -10.9057  -10.8474  -10.6330  -10.2913  -10.1731  -10.0587   -8.3067
          -2.0727   -1.9949   -1.6289   17.7497   18.0812   18.9655   19.0368   19.1515   19.3588   19.6954
   20.2269   20.3755
  10  1  -12.1102  -12.0880  -11.9215  -11.5610  -11.5257  -11.2175   -8.7110   -5.0590   -4.3592   -3.7270
          -3.1998   -2.9953   -2.3209   -1.6785   -0.4446   -0.1095   18.0408   18.3332   18.5442   18.8270
   18.9617   19.2431
  11  1  -12.3911  -12.0458  -11.8570  -10.9057  -10.8474  -10.6330  -10.2913  -10.1731  -10.0587   -8.3067
          -2.0727   -1.9949   -1.6289   17.7497   18.0812   18.9655   19.0368   19.1515   19.3588   19.6954
   20.2269   20.3755
  12  1  -12.1102  -12.0880  -11.9215  -11.5610  -11.5257  -11.2175   -8.7110   -5.0590   -4.3592   -3.7270
          -3.1998   -2.9953   -2.3207   -1.6785   -0.4447   -0.1094   18.0408   18.3332   18.5442   18.8270
   18.9617   19.2431
  13  1  -12.3934  -12.0473  -11.8575  -10.9058  -10.8474  -10.6352  -10.2884  -10.1694  -10.0630   -8.3208
          -2.0809   -1.9775   -1.6326   17.7662   18.1191   18.8283   19.0036   19.1573   19.4220   19.7363
   20.2435   20.3660
  14  1  -13.0736  -12.6729  -12.5362   -9.7865   -9.6474   -8.8614   -8.3185   -3.6316   -3.1560   -2.6959
          -2.0092   -1.7590    0.1332    0.3698    1.4454    2.1707   19.6951   20.8978   21.9097   22.2833
   22.8696   22.8766
  15  1  -13.0736  -12.6729  -12.5362   -9.7865   -9.6474   -8.8614   -8.3185   -3.6316   -3.1560   -2.6959
          -2.0092   -1.7589    0.1331    0.3698    1.4454    2.1707   19.6951   20.8977   21.9096   22.2833
   22.8696   22.8766
  16  1  -12.3934  -12.0473  -11.8575  -10.9058  -10.8474  -10.6352  -10.2884  -10.1694  -10.0630   -8.3208
          -2.0808   -1.9775   -1.6327   17.7662   18.1191   18.8283   19.0036   19.1573   19.4220   19.7363
   20.2435   20.3659
  17  1  -13.0736  -12.6729  -12.5362   -9.7865   -9.6474   -8.8614   -8.3185   -3.6316   -3.1560   -2.6959
          -2.0092   -1.7590    0.1332    0.3698    1.4454    2.1707   19.6951   20.8978   21.9097   22.2833
   22.8696   22.8766
  18  1  -13.4473  -13.0485  -12.8969   -9.1296   -2.7885   -1.6622   -1.6621    5.6851    5.6852    6.5046
           6.5046    7.3022    7.3022    7.5405    7.5405    8.4110    8.4111    9.1415    9.1416   23.7510
   24.3133   24.5815
  19  1  -13.0736  -12.6729  -12.5362   -9.7865   -9.6474   -8.8614   -8.3185   -3.6316   -3.1560   -2.6959
          -2.0092   -1.7590    0.1332    0.3698    1.4454    2.1707   19.6951   20.8978   21.9097   22.2833
   22.8696   22.8766
  20  1  -12.1188  -12.0722  -11.9398  -11.5613  -11.5262  -11.2167   -8.7230   -5.0074   -4.4916   -3.6356
          -3.3038   -2.7827   -2.3312   -1.8340   -0.4558   -0.0459   18.0221   18.3136   18.5958   18.8786
   18.9291   19.2113
  21  1  -13.0736  -12.6729  -12.5362   -9.7865   -9.6474   -8.8614   -8.3185   -3.6316   -3.1560   -2.6959
          -2.0092   -1.7589    0.1331    0.3698    1.4454    2.1707   19.6951   20.8977   21.9096   22.2833
   22.8696   22.8766
  22  1  -13.0736  -12.6729  -12.5362   -9.7865   -9.6474   -8.8614   -8.3185   -3.6316   -3.1560   -2.6959
          -2.0092   -1.7590    0.1332    0.3698    1.4454    2.1707   19.6951   20.8978   21.9097   22.2833
   22.8696   22.8766
  23  1  -12.3934  -12.0473  -11.8575  -10.9058  -10.8474  -10.6352  -10.2884  -10.1694  -10.0630   -8.3208
          -2.0809   -1.9775   -1.6326   17.7662   18.1191   18.8283   19.0036   19.1573   19.4220   19.7363
   20.2435   20.3660
  24  1  -12.3934  -12.0473  -11.8575  -10.9058  -10.8474  -10.6352  -10.2884  -10.1694  -10.0630   -8.3208
          -2.0808   -1.9775   -1.6327   17.7662   18.1191   18.8283   19.0036   19.1573   19.4220   19.7363
   20.2435   20.3659
  25  1  -12.3934  -12.0473  -11.8575  -10.9058  -10.8474  -10.6352  -10.2884  -10.1694  -10.0630   -8.3208
          -2.0808   -1.9775   -1.6327   17.7662   18.1191   18.8283   19.0036   19.1573   19.4220   19.7363
   20.2435   20.3659
  26  1  -12.1188  -12.0722  -11.9398  -11.5613  -11.5262  -11.2167   -8.7230   -5.0074   -4.4916   -3.6356
          -3.3038   -2.7827   -2.3312   -1.8340   -0.4558   -0.0459   18.0221   18.3136   18.5958   18.8786
   18.9291   19.2113
  27  1  -12.3934  -12.0473  -11.8575  -10.9058  -10.8474  -10.6352  -10.2884  -10.1694  -10.0630   -8.3208
          -2.0808   -1.9775   -1.6327   17.7662   18.1191   18.8283   19.0036   19.1573   19.4220   19.7363
   20.2435   20.3659
  28  1  -12.1188  -12.0722  -11.9398  -11.5613  -11.5262  -11.2167   -8.7230   -5.0074   -4.4917   -3.6356
          -3.3038   -2.7827   -2.3311   -1.8340   -0.4559   -0.0459   18.0221   18.3136   18.5957   18.8786
   18.9290   19.2113
  29  1  -12.3957  -12.0489  -11.8580  -10.9058  -10.8475  -10.6374  -10.2855  -10.1653  -10.0677   -8.3349
          -2.0888   -1.9602   -1.6364   17.7838   18.1640   18.7519   18.8888   19.2159   19.4464   19.7758
   20.2630   20.3536
  30  1  -13.0748  -12.6726  -12.5365   -9.7407   -9.7151   -8.8288   -8.3425   -3.4673   -3.3859   -2.6806
          -1.9219   -1.7639    0.1111    0.3901    1.3900    2.2106   19.8204   20.5980   22.0705   22.3025
   22.8715   22.8799
  31  1  -13.0748  -12.6726  -12.5365   -9.7407   -9.7151   -8.8288   -8.3425   -3.4673   -3.3859   -2.6806
          -1.9219   -1.7638    0.1110    0.3901    1.3900    2.2106   19.8204   20.5980   22.0705   22.3025
   22.8715   22.8799
  32  1  -12.3957  -12.0489  -11.8580  -10.9058  -10.8475  -10.6374  -10.2855  -10.1653  -10.0677   -8.3349
          -2.0887   -1.9602   -1.6365   17.7838   18.1640   18.7519   18.8888   19.2159   19.4464   19.7758
   20.2630   20.3536
  33  1  -13.0748  -12.6726  -12.5365   -9.7407   -9.7151   -8.8288   -8.3425   -3.4673   -3.3859   -2.6806
          -1.9219   -1.7639    0.1111    0.3901    1.3900    2.2106   19.8204   20.5980   22.0705   22.3025
   22.8715   22.8799
  34  1  -13.4477  -13.0486  -12.8954   -9.1466   -2.7683   -1.6620   -1.6619    5.6142    5.6142    6.5914
           6.5914    7.3238    7.3239    7.4984    7.4984    8.5482    8.5482    9.0107    9.0108   23.7636
   24.2787   24.6034
  35  1  -13.0748  -12.6726  -12.5365   -9.7407   -9.7151   -8.8288   -8.3425   -3.4673   -3.3859   -2.6806
          -1.9219   -1.7639    0.1111    0.3901    1.3900    2.2106   19.8204   20.5980   22.0705   22.3025
   22.8715   22.8799
  36  1  -12.1274  -12.0497  -11.9647  -11.5616  -11.5266  -11.2159   -8.7350   -4.9276   -4.6342   -3.5622
          -3.3560   -2.5676   -2.3415   -2.0376   -0.4670    0.0117   18.0054   18.2961   18.6571   18.8847
   18.9393   19.1683
  37  1  -13.0748  -12.6726  -12.5365   -9.7407   -9.7151   -8.8288   -8.3425   -3.4673   -3.3859   -2.6806
          -1.9219   -1.7638    0.1110    0.3901    1.3900    2.2106   19.8204   20.5980   22.0705   22.3025
   22.8715   22.8799
  38  1  -13.0748  -12.6726  -12.5365   -9.7407   -9.7151   -8.8288   -8.3425   -3.4673   -3.3859   -2.6806
          -1.9219   -1.7639    0.1111    0.3901    1.3900    2.2106   19.8204   20.5980   22.0705   22.3025
   22.8715   22.8799
  39  1  -12.3957  -12.0489  -11.8580  -10.9058  -10.8475  -10.6374  -10.2855  -10.1653  -10.0677   -8.3349
          -2.0888   -1.9602   -1.6364   17.7838   18.1640   18.7519   18.8888   19.2159   19.4464   19.7758
   20.2630   20.3536
  40  1  -12.3957  -12.0489  -11.8580  -10.9058  -10.8475  -10.6374  -10.2855  -10.1653  -10.0677   -8.3349
          -2.0887   -1.9602   -1.6365   17.7838   18.1640   18.7519   18.8888   19.2159   19.4464   19.7758
   20.2630   20.3536
  41  1  -12.3957  -12.0489  -11.8580  -10.9058  -10.8475  -10.6374  -10.2855  -10.1653  -10.0677   -8.3349
          -2.0887   -1.9602   -1.6365   17.7838   18.1640   18.7519   18.8888   19.2159   19.4464   19.7758
   20.2630   20.3536
  42  1  -12.1274  -12.0497  -11.9647  -11.5616  -11.5266  -11.2159   -8.7350   -4.9276   -4.6342   -3.5622
          -3.3560   -2.5676   -2.3415   -2.0376   -0.4670    0.0117   18.0054   18.2961   18.6571   18.8847
   18.9393   19.1683
  43  1  -12.3957  -12.0489  -11.8580  -10.9058  -10.8475  -10.6374  -10.2855  -10.1653  -10.0677   -8.3349
          -2.0887   -1.9602   -1.6365   17.7838   18.1640   18.7519   18.8888   19.2159   19.4464   19.7758
   20.2630   20.3536
  44  1  -12.1274  -12.0497  -11.9647  -11.5616  -11.5266  -11.2159   -8.7350   -4.9276   -4.6342   -3.5622
          -3.3560   -2.5676   -2.3414   -2.0376   -0.4671    0.0117   18.0053   18.2961   18.6571   18.8847
   18.9393   19.1683
siesta: Fermi energy =      -1.994519 eV

siesta: Program's energy decomposition (eV):
siesta: Ebs     =      -191.183134
siesta: Eions   =       439.895300
siesta: Ena     =       155.901913
siesta: Ekin    =       219.664016
siesta: Enl     =        75.029973
siesta: Eso     =         0.000000
siesta: Edftu   =         0.000000
siesta: DEna    =         0.980662
siesta: DUscf   =         2.347217
siesta: DUext   =         0.000000
siesta: Exc     =      -201.156961
siesta: eta*DQ  =         0.000000
siesta: Emadel  =         0.000000
siesta: Emeta   =         0.000000
siesta: Emolmec =        -7.244196
siesta: Ekinion =         0.000000
siesta: Eharris =      -194.372676
siesta: Etot    =      -194.372677
siesta: FreeEng =      -194.396520

siesta: Final energy (eV):
siesta:  Band Struct. =    -191.183134
siesta:       Kinetic =     219.664016
siesta:       Hartree =     150.531221
siesta:       Edftu   =       0.000000
siesta:       Eso     =       0.000000
siesta:    Ext. field =       0.000000
siesta:   Exch.-corr. =    -201.156961
siesta:  Ion-electron =    -511.234204
siesta:       Ion-ion =     155.067448
siesta:       Ekinion =       0.000000
siesta:         Total =    -194.372677
siesta:         Fermi =      -1.994519

siesta: Atomic forces (eV/Ang):
siesta:      1    0.000000   -0.000000    0.000000
siesta:      2   -0.321461    0.556761   -0.380507
siesta:      3    0.321461   -0.556761    0.380507
siesta:      4   -0.321472   -0.556806   -0.380478
siesta:      5    0.321472    0.556806    0.380478
siesta:      6    0.642900   -0.000013   -0.380507
siesta:      7   -0.642900    0.000013    0.380507
siesta:      8    0.321461   -0.556761   -0.380507
siesta:      9   -0.321461    0.556761    0.380507
siesta:     10    0.321472    0.556806   -0.380478
siesta:     11   -0.321472   -0.556806    0.380478
siesta:     12   -0.642900    0.000013   -0.380507
siesta:     13    0.642900   -0.000013    0.380507
siesta:     14   -0.379319    0.656952   -0.000000
siesta:     15    0.379319   -0.656952    0.000000
siesta:     16   -0.379329   -0.657016    0.000000
siesta:     17    0.379329    0.657016   -0.000000
siesta:     18    0.758597   -0.000024    0.000000
siesta:     19   -0.758597    0.000024   -0.000000
siesta: ----------------------------------------
siesta:    Tot    0.000000   -0.000000    0.000000

siesta: Stress tensor (static) (eV/Ang**3):
siesta:    -0.922889   -0.000001   -0.000000
siesta:    -0.000001   -0.922890    0.000000
siesta:    -0.000000    0.000000    0.083989

siesta: Cell volume =        257.862829 Ang**3

siesta: Pressure (static):
siesta:                Solid            Molecule  Units
siesta:           0.00639605          0.00618348  Ry/Bohr**3
siesta:           0.58726318          0.56774598  eV/Ang**3
siesta:         940.90951093        909.63917389  kBar
(Free)E+ p_basis*V_orbitals  =        -170.400808
(Free)Eharris+ p_basis*V_orbitals  =        -170.400808

cite: Please see "LiC18_scf.bib" for an exhaustive BiBTeX file.
cite: Please clearly indicate Siesta version in published work: 4.1.5
cite: This calculation has made use of the following articles
cite: which are encouraged to be cited in a published work.
        Primary SIESTA paper
          DOI: www.doi.org/10.1088/0953-8984/14/11/302

>> End of run:   9-NOV-2022  15:17:09
Job completed
