Siesta Version  : 4.1.5
Architecture    : x86_64-unknown-linux-gnu--unknown
Compiler version: GNU Fortran (GCC) 11.3.0
Compiler flags  : mpif90 -g -O2 -fallow-argument-mismatch
PP flags        : -DMPI -DFC_HAVE_FLUSH -DFC_HAVE_ABORT
Libraries       :  -I/global/software/sl-7.x86_64/modules/intel/2020.4.304/mkl/include  /globall/software/sl-7.x86_64/modules/intel/2020.4.304/mkl/lib/intel64/libmkl_scalapack_lp64.a -Wl,--start-group /global/software/sl-7.x86_64/modules/intel/2020.4.304/mkl/lib/intel64/libmkl_intel_lp64.a /global/software/sl-7.x86_64/modules/intel/2020.4.304/mkl/lib/intel64/libmkl_sequential.a /global/software/sl-7.x86_64/modules/intel/2020.4.304/mkl/lib/intel64/libmkl_core.a /global/software/sl-7.x86_64/modules/intel/2020.4.304/mkl/lib/intel64/libmkl_blacs_openmpi_lp64.a -Wl,--end-group -lpthread -lm -ldl
PARALLEL version

* Running on 16 nodes in parallel
>> Start of run:   9-NOV-2022  15:05:26

                           ***********************       
                           *  WELCOME TO SIESTA  *       
                           ***********************       

reinit: Reading from standard input
reinit: Dumped input in INPUT_TMP.01820
************************** Dump of input data file ****************************
SystemName LiC18_scf
SystemLabel LiC18_scf
NumberOfAtoms   19
NumberOfSpecies 2
%block ChemicalSpeciesLabel
1  3   Li-gga
2  6   C-gga
%endblock ChemicalSpeciesLabel
PAO.BasisSize  SZ
PAO.EnergyShift  10 meV
%block PS.Lmax
C-gga   2
Li-gga  2
%endblock PS.Lmax
LatticeConstant 1.000000 Ang
%block LatticeVectors
	4.3161300000	0.0000000000	0.0000000000
	-2.1580650000	3.7378782260	0.0000000000
	0.0000000000	0.0000000000	10.6555977600
%endblock LatticeVectors
AtomicCoordinatesFormat Ang
%block AtomicCoordinatesAndAtomicSpecies
	0.00000000	0.00000000	0.00000000	2
	-0.70288177	1.21742694	1.77593651	1
	-1.45518323	2.52045129	8.87966125	1
	1.45518323	2.52045129	1.77593651	1
	0.70288177	1.21742694	8.87966125	1
	1.40576354	0.00000000	1.77593651	1
	2.91036646	0.00000000	8.87966125	1
	-1.45518323	2.52045129	1.77593651	1
	-0.70288177	1.21742694	8.87966125	1
	0.70288177	1.21742694	1.77593651	1
	1.45518323	2.52045129	8.87966125	1
	2.91036646	0.00000000	1.77593651	1
	1.40576354	0.00000000	8.87966125	1
	-0.70288177	1.21742694	5.32779888	1
	-1.45518323	2.52045129	5.32779888	1
	1.45518323	2.52045129	5.32779888	1
	0.70288177	1.21742694	5.32779888	1
	1.40576354	0.00000000	5.32779888	1
	2.91036646	0.00000000	5.32779888	1
%endblock AtomicCoordinatesAndAtomicSpecies
Kgrid_NoTRS  T
%block kgrid_MonkhorstPack
4       0       0       0.0
0       4       0       0.0
0       0       4       0.0
%endblock kgrid_MonkhorstPack
AtomCoorFormatOut Ang
BlockSize 1
#ProcessorY 12
Diag.ParallelOverK   T
Diag.DivideAndConquer F
MeshCutoff   300 Ry
SCF.FreeE.Tolerance 1E-3 eV
SCF.EDM.Tolerance   5E-3 eV
DM.Tolerance  1E-3
DM.Require.Energy.Convergence T
DM.NumberPulay 4
XC.Functional GGA
XC.Authors    PBE
UseSaveData        F
MD.TypeOfRun       CG
MD.VariableCell    F
MD.NumCGsteps      00
MD.MaxCGDispl      0.200000 Bohr
MD.MaxStressTol    1.000000 GPa
MD.MaxForceTol     0.010000 eV/Ang
WriteMDHistory T
WriteCoorStep T
WriteForces T
WriteCoorStep    T
WriteEigenValues T
WriteDM    F
MM.UnitsDistance Ang  # what this program prints out DO NOT CHANGE
MM.UnitsEnergy    eV  # what this program prints out DO NOT CHANGE
MM.Grimme.S6     0.75 # Grimme-paper for PBE (correct for your functional)
MM.Grimme.D     20.   # Grimme-paper (correct for your functional)
%block MM.Potentials
  1   1 Grimme     16.69      1.650 # Li, 10.1002/jcc.20495
  1   2 Grimme     17.40      2.277 # Li / C
  2   2 Grimme     18.14      2.904 # C, 10.1002/jcc.20495
%endblock MM.Potentials
#%block ProjectedDensityOfStates
# -200.0  120.0  0.4  12800  eV
#%endblock ProjectedDensityOfStates
************************** End of input data file *****************************

reinit: -----------------------------------------------------------------------
reinit: System Name: LiC18_scf
reinit: -----------------------------------------------------------------------
reinit: System Label: LiC18_scf
reinit: -----------------------------------------------------------------------
Reading two-body potentials
Grimme - two-body potential between 1 and 1
Grimme - two-body potential between 1 and 2
Grimme - two-body potential between 2 and 2

initatom: Reading input for the pseudopotentials and atomic orbitals ----------
Species number:   1 Atomic number:    3 Label: Li-gga
Species number:   2 Atomic number:    6 Label: C-gga

Ground state valence configuration:   2s01
Reading pseudopotential information in formatted form from Li-gga.psf

Valence configuration for pseudopotential generation:
2s( 1.00) rc: 2.28
2p( 0.00) rc: 2.28
3d( 0.00) rc: 2.59
4f( 0.00) rc: 2.59
Ground state valence configuration:   2s02  2p02
Reading pseudopotential information in formatted form from C-gga.psf

Valence configuration for pseudopotential generation:
2s( 2.00) rc: 1.56
2p( 2.00) rc: 1.56
3d( 0.00) rc: 1.56
4f( 0.00) rc: 1.56
relmxkb: Read Max KB Ang. Momentum=    2 for species C-gga
relmxkb: Read Max KB Ang. Momentum=    2 for species Li-gga

<basis_specs>
===============================================================================
Li-gga               Z=   3    Mass=  6.9400        Charge= 0.17977+309
Lmxo=0 Lmxkb= 2    BasisType=split      Semic=F
L=0  Nsemic=0  Cnfigmx=2
          i=1  nzeta=1  polorb=0  (2s)
            splnorm:   0.15000    
               vcte:    0.0000    
               rinn:    0.0000    
               qcoe:    0.0000    
               qyuk:    0.0000    
               qwid:   0.10000E-01
                rcs:    0.0000    
            lambdas:    1.0000    
-------------------------------------------------------------------------------
L=0  Nkbl=1  erefs: 0.17977+309
L=1  Nkbl=1  erefs: 0.17977+309
L=2  Nkbl=1  erefs: 0.17977+309
===============================================================================
</basis_specs>

atom: Called for Li-gga                (Z =   3)

read_vps: Pseudopotential generation method:
read_vps: ATM 3.2.2 Troullier-Martins                       
Valence charge for ps generation:    1.00000

read_vps: Pseudopotential includes a core correction:
read_vps: Pseudo-core for xc-correction

xc_check: Exchange-correlation functional:
xc_check: GGA Perdew, Burke & Ernzerhof 1996
V l=0 = -2*Zval/r beyond r=  2.2278
V l=1 = -2*Zval/r beyond r=  2.2278
V l=2 = -2*Zval/r beyond r=  2.5245
All V_l potentials equal beyond r=  2.4622
This should be close to max(r_c) in ps generation
All pots = -2*Zval/r beyond r=  2.5245

VLOCAL1: 99.0% of the norm of Vloc inside      7.160 Ry
VLOCAL1: 99.9% of the norm of Vloc inside     16.318 Ry
atom: Maximum radius for 4*pi*r*r*local-pseudopot. charge    2.86079
atom: Maximum radius for r*vlocal+2*Zval:    2.43160
GHOST: No ghost state for L =  0
GHOST: No ghost state for L =  1
GHOST: No ghost state for L =  2

KBgen: Kleinman-Bylander projectors: 
   l= 0   rc=  2.654023   el= -0.211234   Ekb=  1.742119   kbcos=  0.228463
   l= 1   rc=  2.721230   el= -0.080095   Ekb= -1.122375   kbcos= -0.147941
   l= 2   rc=  2.825246   el=  0.002001   Ekb= -0.207076   kbcos= -0.031965

KBgen: Total number of Kleinman-Bylander projectors:    9
atom: -------------------------------------------------------------------------

atom: SANKEY-TYPE ORBITALS:

SPLIT: Orbitals with angular momentum L= 0

SPLIT: Basis orbitals for state 2s

SPLIT: PAO cut-off radius determined from an
SPLIT: energy shift=  0.000735 Ry

   izeta = 1
                 lambda =    1.000000
                     rc =   11.897381
                 energy =   -0.210580
                kinetic =    0.143382
    potential(screened) =   -0.353962
       potential(ionic) =   -0.533453
atom: Total number of Sankey-type orbitals:  1

atm_pop: Valence configuration (for local Pseudopot. screening):
 2s( 1.00)                                                            
Vna: chval, zval:    1.00000   1.00000

Vna:  Cut-off radius for the neutral-atom potential:  11.897381
comcore: Pseudo-core radius Rcore=  3.450946

atom: _________________________________________________________________________

<basis_specs>
===============================================================================
C-gga                Z=   6    Mass=  12.010        Charge= 0.17977+309
Lmxo=1 Lmxkb= 2    BasisType=split      Semic=F
L=0  Nsemic=0  Cnfigmx=2
          i=1  nzeta=1  polorb=0  (2s)
            splnorm:   0.15000    
               vcte:    0.0000    
               rinn:    0.0000    
               qcoe:    0.0000    
               qyuk:    0.0000    
               qwid:   0.10000E-01
                rcs:    0.0000    
            lambdas:    1.0000    
L=1  Nsemic=0  Cnfigmx=2
          i=1  nzeta=1  polorb=0  (2p)
            splnorm:   0.15000    
               vcte:    0.0000    
               rinn:    0.0000    
               qcoe:    0.0000    
               qyuk:    0.0000    
               qwid:   0.10000E-01
                rcs:    0.0000    
            lambdas:    1.0000    
-------------------------------------------------------------------------------
L=0  Nkbl=1  erefs: 0.17977+309
L=1  Nkbl=1  erefs: 0.17977+309
L=2  Nkbl=1  erefs: 0.17977+309
===============================================================================
</basis_specs>

atom: Called for C-gga                 (Z =   6)

read_vps: Pseudopotential generation method:
read_vps: ATM 3.2.2 Troullier-Martins                       
Valence charge for ps generation:    4.00000

xc_check: Exchange-correlation functional:
xc_check: GGA Perdew, Burke & Ernzerhof 1996
V l=0 = -2*Zval/r beyond r=  1.5227
V l=1 = -2*Zval/r beyond r=  1.5227
V l=2 = -2*Zval/r beyond r=  1.5227
All V_l potentials equal beyond r=  1.4851
This should be close to max(r_c) in ps generation
All pots = -2*Zval/r beyond r=  1.5227

VLOCAL1: 99.0% of the norm of Vloc inside     19.682 Ry
VLOCAL1: 99.9% of the norm of Vloc inside     44.856 Ry
atom: Maximum radius for 4*pi*r*r*local-pseudopot. charge    1.79142
atom: Maximum radius for r*vlocal+2*Zval:    1.54183
GHOST: No ghost state for L =  0
GHOST: No ghost state for L =  1
GHOST: No ghost state for L =  2

KBgen: Kleinman-Bylander projectors: 
   l= 0   rc=  1.661951   el= -1.010689   Ekb=  5.289847   kbcos=  0.316429
   l= 1   rc=  1.661951   el= -0.388490   Ekb= -4.102504   kbcos= -0.351025
   l= 2   rc=  1.747182   el=  0.001971   Ekb= -1.006005   kbcos= -0.008530

KBgen: Total number of Kleinman-Bylander projectors:    9
atom: -------------------------------------------------------------------------

atom: SANKEY-TYPE ORBITALS:

SPLIT: Orbitals with angular momentum L= 0

SPLIT: Basis orbitals for state 2s

SPLIT: PAO cut-off radius determined from an
SPLIT: energy shift=  0.000735 Ry

   izeta = 1
                 lambda =    1.000000
                     rc =    5.948690
                 energy =   -1.010099
                kinetic =    0.827121
    potential(screened) =   -1.837220
       potential(ionic) =   -5.392783

SPLIT: Orbitals with angular momentum L= 1

SPLIT: Basis orbitals for state 2p

SPLIT: PAO cut-off radius determined from an
SPLIT: energy shift=  0.000735 Ry

   izeta = 1
                 lambda =    1.000000
                     rc =    7.638387
                 energy =   -0.387843
                kinetic =    2.314739
    potential(screened) =   -2.702582
       potential(ionic) =   -6.092371
atom: Total number of Sankey-type orbitals:  4

atm_pop: Valence configuration (for local Pseudopot. screening):
 2s( 2.00)                                                            
 2p( 2.00)                                                            
Vna: chval, zval:    4.00000   4.00000

Vna:  Cut-off radius for the neutral-atom potential:   7.638387

atom: _________________________________________________________________________

prinput: Basis input ----------------------------------------------------------

PAO.BasisType split     

%block ChemicalSpeciesLabel
    1    3 Li-gga                  # Species index, atomic number, species label
    2    6 C-gga                   # Species index, atomic number, species label
%endblock ChemicalSpeciesLabel

%block PAO.Basis                 # Define Basis set
Li-gga                1                    # Species label, number of l-shells
 n=2   0   1                         # n, l, Nzeta 
  11.897   
   1.000   
C-gga                 2                    # Species label, number of l-shells
 n=2   0   1                         # n, l, Nzeta 
   5.949   
   1.000   
 n=2   1   1                         # n, l, Nzeta 
   7.638   
   1.000   
%endblock PAO.Basis

prinput: ----------------------------------------------------------------------

coor:   Atomic-coordinates input format  =     Cartesian coordinates
coor:                                          (in Angstroms)

siesta: Atomic coordinates (Bohr) and species
siesta:      0.00000   0.00000   0.00000  2        1
siesta:     -1.32825   2.30060   3.35603  1        2
siesta:     -2.74990   4.76296  16.78013  1        3
siesta:      2.74990   4.76296   3.35603  1        4
siesta:      1.32825   2.30060  16.78013  1        5
siesta:      2.65651   0.00000   3.35603  1        6
siesta:      5.49980   0.00000  16.78013  1        7
siesta:     -2.74990   4.76296   3.35603  1        8
siesta:     -1.32825   2.30060  16.78013  1        9
siesta:      1.32825   2.30060   3.35603  1       10
siesta:      2.74990   4.76296  16.78013  1       11
siesta:      5.49980   0.00000   3.35603  1       12
siesta:      2.65651   0.00000  16.78013  1       13
siesta:     -1.32825   2.30060  10.06808  1       14
siesta:     -2.74990   4.76296  10.06808  1       15
siesta:      2.74990   4.76296  10.06808  1       16
siesta:      1.32825   2.30060  10.06808  1       17
siesta:      2.65651   0.00000  10.06808  1       18
siesta:      5.49980   0.00000  10.06808  1       19

siesta: System type = bulk      

initatomlists: Number of atoms, orbitals, and projectors:     19    22   171

siesta: ******************** Simulation parameters ****************************
siesta:
siesta: The following are some of the parameters of the simulation.
siesta: A complete list of the parameters used, including default values,
siesta: can be found in file out.fdf
siesta:
redata: Spin configuration                          = none
redata: Number of spin components                   = 1
redata: Time-Reversal Symmetry                      = T
redata: Spin spiral                                 = F
redata: Long output                                 =   F
redata: Number of Atomic Species                    =        2
redata: Charge density info will appear in .RHO file
redata: Write Mulliken Pop.                         = NO
redata: Matel table size (NRTAB)                    =     1024
redata: Mesh Cutoff                                 =   300.0000 Ry
redata: Net charge of the system                    =     0.0000 |e|
redata: Min. number of SCF Iter                     =        0
redata: Max. number of SCF Iter                     =     1000
redata: SCF convergence failure will abort job
redata: SCF mix quantity                            = Hamiltonian
redata: Mix DM or H after convergence               =   F
redata: Recompute H after scf cycle                 =   F
redata: Mix DM in first SCF step                    =   T
redata: Write Pulay info on disk                    =   F
redata: New DM Occupancy tolerance                  = 0.000000000001
redata: No kicks to SCF
redata: DM Mixing Weight for Kicks                  =     0.5000
redata: Require Harris convergence for SCF          =   F
redata: Harris energy tolerance for SCF             =     0.000100 eV
redata: Require DM convergence for SCF              =   T
redata: DM tolerance for SCF                        =     0.001000
redata: Require EDM convergence for SCF             =   F
redata: EDM tolerance for SCF                       =     0.005000 eV
redata: Require H convergence for SCF               =   T
redata: Hamiltonian tolerance for SCF               =     0.001000 eV
redata: Require (free) Energy convergence for SCF   =   T
redata: (free) Energy tolerance for SCF             =     0.001000 eV
redata: Using Saved Data (generic)                  =   F
redata: Use continuation files for DM               =   F
redata: Neglect nonoverlap interactions             =   F
redata: Method of Calculation                       = Diagonalization
redata: Electronic Temperature                      =   299.9869 K
redata: Fix the spin of the system                  =   F
redata: Dynamics option                             = Single-point calculation
mix.SCF: Pulay mixing                            = Pulay
mix.SCF:    Variant                              = stable
mix.SCF:    History steps                        = 4
mix.SCF:    Linear mixing weight                 =     0.250000
mix.SCF:    Mixing weight                        =     0.250000
mix.SCF:    SVD condition                        = 0.1000E-07
redata: ***********************************************************************

%block SCF.Mixers
  Pulay
%endblock SCF.Mixers

%block SCF.Mixer.Pulay
  # Mixing method
  method pulay
  variant stable

  # Mixing options
  weight 0.2500
  weight.linear 0.2500
  history 4
%endblock SCF.Mixer.Pulay

DM_history_depth set to one: no extrapolation allowed by default for geometry relaxation
Size of DM history Fstack: 1
Total number of electrons:    22.000000
Total ionic charge:    22.000000

* ProcessorY, Blocksize:    4   1


* Orbital distribution balance (max,min):     2     1

k-point displ. along   1 input, could be:     0.00    0.50
k-point displ. along   2 input, could be:     0.00    0.50
k-point displ. along   3 input, could be:     0.00    0.50
 Kpoints in:           48 . Kpoints trimmed:           44

siesta: k-grid: Number of k-points =    44
siesta: k-grid: Cutoff (effective) =     8.632 Ang
siesta: k-grid: Supercell and displacements
siesta: k-grid:    4   0   0      0.000
siesta: k-grid:    0   4   0      0.000
siesta: k-grid:    0   0   4      0.000

diag: Algorithm                                     = Expert
diag: Parallel over k                               =   T
diag: Use parallel 2D distribution                  =   T
diag: Parallel block-size                           = 1
diag: Parallel distribution                         =     4 x     4
diag: Used triangular part                          = Lower
diag: Absolute tolerance                            =  0.100E-15
diag: Orthogonalization factor                      =  0.100E-05
diag: Memory factor                                 =  1.0000

superc: Internal auxiliary supercell:     9 x     9 x     5  =     405
superc: Number of atoms, orbitals, and projectors:   7695   8910  69255


ts: **************************************************************
ts: Save H and S matrices                           =    F
ts: Save DM and EDM matrices                        =    F
ts: Only save the overlap matrix S                  =    F
ts: **************************************************************

************************ Begin: TS CHECKS AND WARNINGS ************************
************************ End: TS CHECKS AND WARNINGS **************************


                     ====================================
                        Single-point calculation
                     ====================================

outcoor: Atomic coordinates (Ang):                          
    0.00000000    0.00000000    0.00000000   2       1  C-gga
   -0.70288177    1.21742694    1.77593651   1       2  Li-gga
   -1.45518323    2.52045129    8.87966125   1       3  Li-gga
    1.45518323    2.52045129    1.77593651   1       4  Li-gga
    0.70288177    1.21742694    8.87966125   1       5  Li-gga
    1.40576354    0.00000000    1.77593651   1       6  Li-gga
    2.91036646    0.00000000    8.87966125   1       7  Li-gga
   -1.45518323    2.52045129    1.77593651   1       8  Li-gga
   -0.70288177    1.21742694    8.87966125   1       9  Li-gga
    0.70288177    1.21742694    1.77593651   1      10  Li-gga
    1.45518323    2.52045129    8.87966125   1      11  Li-gga
    2.91036646    0.00000000    1.77593651   1      12  Li-gga
    1.40576354    0.00000000    8.87966125   1      13  Li-gga
   -0.70288177    1.21742694    5.32779888   1      14  Li-gga
   -1.45518323    2.52045129    5.32779888   1      15  Li-gga
    1.45518323    2.52045129    5.32779888   1      16  Li-gga
    0.70288177    1.21742694    5.32779888   1      17  Li-gga
    1.40576354    0.00000000    5.32779888   1      18  Li-gga
    2.91036646    0.00000000    5.32779888   1      19  Li-gga

superc: Internal auxiliary supercell:     9 x     9 x     5  =     405
superc: Number of atoms, orbitals, and projectors:   7695   8910  69255

outcell: Unit cell vectors (Ang):
        4.316130    0.000000    0.000000
       -2.158065    3.737878    0.000000
        0.000000    0.000000   10.655598

outcell: Cell vector modules (Ang)   :    4.316130    4.316130   10.655598
outcell: Cell angles (23,13,12) (deg):     90.0000     90.0000    120.0000
outcell: Cell volume (Ang**3)        :    171.9086
<dSpData1D:S at geom step 0
  <sparsity:sparsity for geom step 0
    nrows_g=22 nrows=2 sparsity=4.9938 nnzs=2417, refcount: 7>
  <dData1D:(new from dSpData1D) n=2417, refcount: 1>
refcount: 1>
new_DM -- step:     1
Initializing Density Matrix...
DM filled with atomic data:
<dSpData2D:DM initialized from atoms
  <sparsity:sparsity for geom step 0
    nrows_g=22 nrows=2 sparsity=4.9938 nnzs=2417, refcount: 8>
  <dData2D:DM n=2417 m=1, refcount: 1>
refcount: 1>
No. of atoms with KB's overlaping orbs in proc 0. Max # of overlaps:     234     237
New grid distribution:   1
           1       1:   20    1:    5    1:   15
           2       1:   20    1:    5   16:   30
           3       1:   20    1:    5   31:   45
           4       1:   20    1:    5   46:   60
           5       1:   20    6:   10    1:   15
           6       1:   20    6:   10   16:   30
           7       1:   20    6:   10   31:   45
           8       1:   20    6:   10   46:   60
           9       1:   20   11:   15    1:   15
          10       1:   20   11:   15   16:   30
          11       1:   20   11:   15   31:   45
          12       1:   20   11:   15   46:   60
          13       1:   20   16:   20    1:   15
          14       1:   20   16:   20   16:   30
          15       1:   20   16:   20   31:   45
          16       1:   20   16:   20   46:   60

InitMesh: MESH =    40 x    40 x   120 =      192000
InitMesh: (bp) =    20 x    20 x    60 =       24000
InitMesh: Mesh cutoff (required, used) =   300.000   316.498 Ry
ExtMesh (bp) on 0 =   156 x   141 x   159 =     3497364
New grid distribution:   2
           1      11:   20    1:   10    1:   14
           2      11:   20    1:   10   15:   30
           3       1:   10    1:   10   31:   46
           4       1:   10    1:   10   47:   60
           5       1:   10    1:   10    1:   14
           6       1:   10    1:   10   15:   30
           7      11:   20    1:   10   31:   46
           8      11:   20    1:   10   47:   60
           9      11:   20   11:   20    1:   14
          10      11:   20   11:   20   15:   30
          11       1:   10   11:   20   31:   46
          12       1:   10   11:   20   47:   60
          13       1:   10   11:   20    1:   14
          14       1:   10   11:   20   15:   30
          15      11:   20   11:   20   31:   46
          16      11:   20   11:   20   47:   60
New grid distribution:   3
           1       1:   10    1:   10    1:   15
           2       1:   10    1:   10   16:   30
           3       1:   10    1:   10   31:   45
           4       1:   10    1:   10   46:   60
           5      11:   20    1:   10    1:   15
           6      11:   20    1:   10   16:   30
           7      11:   20    1:   10   31:   45
           8      11:   20    1:   10   46:   60
           9       1:   10   11:   20    1:   15
          10       1:   10   11:   20   16:   30
          11       1:   10   11:   20   31:   45
          12       1:   10   11:   20   46:   60
          13      11:   20   11:   20    1:   15
          14      11:   20   11:   20   16:   30
          15      11:   20   11:   20   31:   45
          16      11:   20   11:   20   46:   60
Setting up quadratic distribution...
ExtMesh (bp) on 0 =   146 x   146 x   158 =     3367928
PhiOnMesh: Number of (b)points on node 0 =                 1400
PhiOnMesh: nlist on node 0 =               173849

stepf: Fermi-Dirac step function

siesta: Program's energy decomposition (eV):
siesta: Ebs     =       -10.153725
siesta: Eions   =       439.895300
siesta: Ena     =       135.845475
siesta: Ekin    =       320.899363
siesta: Enl     =        51.377029
siesta: Eso     =         0.000000
siesta: Edftu   =         0.000000
siesta: DEna    =       -57.767991
siesta: DUscf   =        72.248883
siesta: DUext   =         0.000000
siesta: Exc     =      -236.687584
siesta: eta*DQ  =         0.000000
siesta: Emadel  =         0.000000
siesta: Emeta   =         0.000000
siesta: Emolmec =        -8.407587
siesta: Ekinion =         0.000000
siesta: Eharris =        14.598480
siesta: Etot    =      -162.387712
siesta: FreeEng =      -162.390155

        iscf     Eharris(eV)        E_KS(eV)     FreeEng(eV)     dDmax    Ef(eV) dHmax(eV)
   scf:    1       14.598480     -162.387712     -162.390155  2.629001 -6.957946 38.687744
timer: Routine,Calls,Time,% = IterSCF        1       0.690  14.40
   scf:    2     -177.189407     -203.327718     -203.333182 13.875300 -3.404862  9.627739
   scf:    3     -198.475236     -206.235709     -206.245005  6.980001 -4.567532  7.369638
   scf:    4     -139.042389     -187.881701     -187.888326  7.932269 -0.905297 23.913335
   scf:    5     -216.565897     -206.769773     -206.783886  5.113758 -3.038310  6.625286
   scf:    6     -208.577148     -208.455427     -208.476955  2.704805 -3.782110  0.237505
   scf:    7     -208.410199     -208.437484     -208.458926  0.104136 -3.878671  0.749339
   scf:    8     -208.465393     -208.455715     -208.477901  0.240582 -3.811427  0.277278
   scf:    9     -208.460629     -208.458605     -208.480805  0.028223 -3.791231  0.123258
   scf:   10     -208.459477     -208.459365     -208.481514  0.050454 -3.776042  0.014058
   scf:   11     -208.459364     -208.459368     -208.481521  0.005592 -3.777529  0.001524
   scf:   12     -208.459379     -208.459374     -208.481522  0.001475 -3.776968  0.002685
   scf:   13     -208.459373     -208.459374     -208.481522  0.001143 -3.777110  0.000783
   scf:   14     -208.459371     -208.459373     -208.481522  0.000298 -3.777185  0.000176

SCF Convergence by FreeE+DM+H criterion
|FreeE_i-FreeE_(i-1)| (eV) <     0.00100000
max |DM_out - DM_in|         :     0.0002983244
max |H_out - H_in|      (eV) :     0.0001757579
SCF cycle converged after 14 iterations

Using DM_out to compute the final energy and forces
No. of atoms with KB's overlaping orbs in proc 0. Max # of overlaps:     234     237

MM-Stress (kbar):      -14.58      -14.58       22.21        0.00       -0.00       -0.00

siesta: E_KS(eV) =             -208.4594

siesta: E_KS - E_eggbox =      -208.4594

siesta: Atomic forces (eV/Ang):
     1   -0.000000   -0.000000    0.000000
     2   -0.232170    0.402204   -0.697331
     3    0.232170   -0.402204    0.697331
     4   -0.232169   -0.402128   -0.697127
     5    0.232169    0.402128    0.697127
     6    0.464404    0.000037   -0.697331
     7   -0.464404   -0.000037    0.697331
     8    0.232170   -0.402204   -0.697331
     9   -0.232170    0.402204    0.697331
    10    0.232169    0.402128   -0.697127
    11   -0.232169   -0.402128    0.697127
    12   -0.464404   -0.000037   -0.697331
    13    0.464404    0.000037    0.697331
    14   -0.377545    0.654015   -0.000000
    15    0.377545   -0.654015   -0.000000
    16   -0.377553   -0.653940   -0.000000
    17    0.377553    0.653940   -0.000000
    18    0.755166    0.000044    0.000000
    19   -0.755166   -0.000044    0.000000
----------------------------------------
   Tot   -0.000000   -0.000000   -0.000000
----------------------------------------
   Max    0.755166
   Res    0.455827    sqrt( Sum f_i^2 / 3N )
----------------------------------------
   Max    0.755166    constrained

Stress tensor Voigt[x,y,z,yz,xz,xy] (kbar):    -1973.90    -1973.90      400.91        0.00       -0.00        0.00
(Free)E + p*V (eV/cell)      -81.6265
Target enthalpy (eV/cell)     -208.4815

siesta: Eigenvalues (eV):
  ik is       eps
   1  1  -15.5683  -15.0485  -13.6069  -13.5395  -13.3057  -12.5053  -11.9941  -11.6630  -11.6316   -6.2514
          -4.4422   -3.5658   -3.2864   15.6061   15.9730   18.3293   18.8195   19.2397   19.2688   19.3679
   20.1793   20.8199
   2  1  -16.1990  -15.5421  -13.9984  -12.3974  -11.5614  -10.9163   -7.7243   -7.4559   -6.2070   -5.9741
          -4.0898   -3.7566   -2.5479    2.7333    3.0538    3.6506   18.4495   20.2021   21.0343   21.1984
   22.9458   23.1426
   3  1  -16.1990  -15.5421  -13.9984  -12.3974  -11.5614  -10.9163   -7.7243   -7.4559   -6.2070   -5.9741
          -4.0898   -3.7566   -2.5479    2.7332    3.0538    3.6506   18.4495   20.2021   21.0343   21.1984
   22.9458   23.1426
   4  1  -15.5683  -15.0485  -13.6069  -13.5395  -13.3057  -12.5053  -11.9942  -11.6629  -11.6316   -6.2514
          -4.4423   -3.5660   -3.2862   15.6062   15.9730   18.3293   18.8195   19.2396   19.2688   19.3679
   20.1793   20.8199
   5  1  -16.1990  -15.5421  -13.9984  -12.3974  -11.5614  -10.9163   -7.7243   -7.4559   -6.2070   -5.9741
          -4.0898   -3.7566   -2.5479    2.7333    3.0538    3.6506   18.4495   20.2021   21.0343   21.1984
   22.9458   23.1426
   6  1  -16.5813  -15.8423  -14.3709   -8.8625   -6.6321   -5.7806   -5.7806    0.3750    0.3750    0.8753
           0.8753    7.1668    7.1668    8.6938    8.6938    8.9327    8.9327   19.8177   19.8179   22.5484
   24.3888   24.8361
   7  1  -15.4760  -14.9164  -14.7017  -13.0477  -12.9466  -12.9461   -8.4231   -8.3693   -7.3162   -6.4963
          -5.6251   -5.4819   -3.4989    0.0304    0.1474    1.6967   16.8807   17.1593   18.6544   18.8773
   19.3248   19.6786
   8  1  -15.5683  -15.0485  -13.6069  -13.5395  -13.3057  -12.5053  -11.9942  -11.6629  -11.6316   -6.2514
          -4.4423   -3.5660   -3.2862   15.6062   15.9730   18.3293   18.8195   19.2396   19.2688   19.3679
   20.1793   20.8199
   9  1  -15.5683  -15.0485  -13.6069  -13.5395  -13.3057  -12.5053  -11.9942  -11.6629  -11.6316   -6.2514
          -4.4423   -3.5660   -3.2862   15.6062   15.9730   18.3293   18.8195   19.2396   19.2688   19.3679
   20.1793   20.8199
  10  1  -15.4760  -14.9164  -14.7017  -13.0477  -12.9466  -12.9461   -8.4231   -8.3693   -7.3162   -6.4963
          -5.6251   -5.4819   -3.4989    0.0304    0.1474    1.6967   16.8807   17.1593   18.6544   18.8773
   19.3248   19.6786
  11  1  -15.5683  -15.0485  -13.6069  -13.5395  -13.3057  -12.5053  -11.9942  -11.6629  -11.6316   -6.2514
          -4.4423   -3.5660   -3.2862   15.6062   15.9730   18.3293   18.8195   19.2396   19.2688   19.3679
   20.1793   20.8199
  12  1  -15.4760  -14.9164  -14.7017  -13.0477  -12.9466  -12.9461   -8.4230   -8.3693   -7.3162   -6.4963
          -5.6251   -5.4819   -3.4988    0.0304    0.1474    1.6965   16.8806   17.1593   18.6544   18.8774
   19.3248   19.6786
  13  1  -15.5309  -15.1440  -13.6335  -13.5433  -13.0224  -12.5158  -11.9539  -11.6354  -11.1556   -6.9995
          -3.7723   -3.7378   -3.5564   15.5812   15.9716   18.3232   18.5179   18.6715   19.6122   19.8773
   20.2944   20.7870
  14  1  -16.1469  -15.7224  -13.3819  -12.4108  -11.7399  -10.5698   -8.2594   -7.4279   -6.7062   -5.5291
          -3.7852   -2.6890   -2.6043    1.6511    2.0725    5.2170   18.4406   20.2833   21.0286   21.0837
   22.9487   23.1400
  15  1  -16.1469  -15.7224  -13.3819  -12.4108  -11.7399  -10.5698   -8.2594   -7.4279   -6.7062   -5.5291
          -3.7851   -2.6890   -2.6043    1.6511    2.0723    5.2170   18.4406   20.2833   21.0286   21.0837
   22.9487   23.1400
  16  1  -15.5309  -15.1440  -13.6335  -13.5433  -13.0224  -12.5159  -11.9538  -11.6354  -11.1556   -6.9995
          -3.7723   -3.7379   -3.5562   15.5812   15.9716   18.3232   18.5179   18.6715   19.6123   19.8772
   20.2944   20.7870
  17  1  -16.1469  -15.7224  -13.3819  -12.4108  -11.7399  -10.5698   -8.2594   -7.4279   -6.7062   -5.5291
          -3.7852   -2.6890   -2.6043    1.6511    2.0725    5.2170   18.4406   20.2833   21.0286   21.0837
   22.9487   23.1400
  18  1  -16.5324  -16.0512  -13.6505   -9.4126   -6.1588   -5.7907   -5.7906    0.3471    0.3471    0.5714
           0.5714    4.2175    4.2175    8.6815    8.6816   16.5223   16.5224   20.1348   20.1349   22.5456
   24.4209   24.8027
  19  1  -16.1469  -15.7224  -13.3819  -12.4108  -11.7399  -10.5698   -8.2594   -7.4279   -6.7062   -5.5291
          -3.7852   -2.6890   -2.6043    1.6511    2.0725    5.2170   18.4406   20.2833   21.0286   21.0837
   22.9487   23.1400
  20  1  -15.4568  -14.9116  -14.7898  -13.3011  -12.6456  -12.3320   -8.8353   -8.3394   -7.7742   -6.4727
          -5.0660   -4.4082   -3.8498   -1.4646    0.9837    1.7959   16.8655   17.1411   18.6926   18.9280
   19.2691   19.6137
  21  1  -16.1469  -15.7224  -13.3819  -12.4108  -11.7399  -10.5698   -8.2594   -7.4279   -6.7062   -5.5291
          -3.7851   -2.6890   -2.6043    1.6511    2.0723    5.2170   18.4406   20.2833   21.0286   21.0837
   22.9487   23.1400
  22  1  -16.1469  -15.7224  -13.3819  -12.4108  -11.7399  -10.5698   -8.2594   -7.4279   -6.7062   -5.5291
          -3.7852   -2.6890   -2.6043    1.6511    2.0725    5.2170   18.4406   20.2833   21.0286   21.0837
   22.9487   23.1400
  23  1  -15.5309  -15.1440  -13.6335  -13.5433  -13.0224  -12.5158  -11.9539  -11.6354  -11.1556   -6.9995
          -3.7723   -3.7378   -3.5564   15.5812   15.9716   18.3232   18.5179   18.6715   19.6122   19.8773
   20.2944   20.7870
  24  1  -15.5309  -15.1440  -13.6335  -13.5433  -13.0224  -12.5159  -11.9538  -11.6354  -11.1556   -6.9995
          -3.7723   -3.7379   -3.5562   15.5812   15.9716   18.3232   18.5179   18.6715   19.6123   19.8772
   20.2944   20.7870
  25  1  -15.5309  -15.1440  -13.6335  -13.5433  -13.0224  -12.5159  -11.9538  -11.6354  -11.1556   -6.9995
          -3.7723   -3.7379   -3.5562   15.5812   15.9716   18.3232   18.5179   18.6715   19.6123   19.8772
   20.2944   20.7870
  26  1  -15.4568  -14.9116  -14.7898  -13.3011  -12.6456  -12.3320   -8.8353   -8.3394   -7.7742   -6.4727
          -5.0660   -4.4082   -3.8498   -1.4646    0.9837    1.7959   16.8655   17.1411   18.6926   18.9280
   19.2691   19.6137
  27  1  -15.5309  -15.1440  -13.6335  -13.5433  -13.0224  -12.5159  -11.9538  -11.6354  -11.1556   -6.9995
          -3.7723   -3.7379   -3.5562   15.5812   15.9716   18.3232   18.5179   18.6715   19.6123   19.8772
   20.2944   20.7870
  28  1  -15.4568  -14.9116  -14.7898  -13.3012  -12.6456  -12.3320   -8.8353   -8.3394   -7.7742   -6.4727
          -5.0660   -4.4082   -3.8497   -1.4646    0.9836    1.7959   16.8655   17.1412   18.6925   18.9280
   19.2691   19.6138
  29  1  -15.4737  -15.2492  -13.6395  -13.5470  -12.9557  -12.1653  -12.0480  -11.3114  -10.8551   -7.6592
          -3.9319   -3.9306   -3.1898   15.5595   15.9739   18.3304   18.3362   18.3634   19.8364   20.0485
   20.4711   20.7413
  30  1  -16.0303  -15.9297  -12.5018  -12.3976  -12.0226  -10.2552   -8.8207   -7.3713   -7.0300   -5.1225
          -3.9539   -2.7233   -0.2553    0.3658    0.9717    6.0515   18.4329   20.3754   20.9283   21.0485
   22.9517   23.1374
  31  1  -16.0303  -15.9297  -12.5018  -12.3976  -12.0226  -10.2552   -8.8207   -7.3713   -7.0300   -5.1225
          -3.9538   -2.7233   -0.2553    0.3656    0.9718    6.0515   18.4328   20.3754   20.9283   21.0485
   22.9517   23.1375
  32  1  -15.4737  -15.2492  -13.6395  -13.5470  -12.9558  -12.1653  -12.0479  -11.3115  -10.8551   -7.6592
          -3.9318   -3.9307   -3.1898   15.5595   15.9739   18.3304   18.3362   18.3634   19.8365   20.0485
   20.4711   20.7413
  33  1  -16.0303  -15.9297  -12.5018  -12.3976  -12.0226  -10.2552   -8.8207   -7.3713   -7.0300   -5.1225
          -3.9539   -2.7233   -0.2553    0.3658    0.9717    6.0515   18.4329   20.3754   20.9283   21.0485
   22.9517   23.1374
  34  1  -16.4400  -16.2500  -12.6657  -10.1717   -5.8005   -5.8005   -5.6598   -0.0338   -0.0338    0.9390
           0.9391    2.5683    2.5683   10.0383   10.0385   20.5513   20.5513   21.6554   21.6554   22.5429
   24.4598   24.7625
  35  1  -16.0303  -15.9297  -12.5018  -12.3976  -12.0226  -10.2552   -8.8207   -7.3713   -7.0300   -5.1225
          -3.9539   -2.7233   -0.2553    0.3658    0.9717    6.0515   18.4329   20.3754   20.9283   21.0485
   22.9517   23.1374
  36  1  -15.4350  -14.9068  -14.8669  -13.4102  -12.1358  -11.9018   -9.3221   -8.2567   -8.0977   -6.4187
          -4.6810   -4.2728   -2.9434   -2.1097   -0.1621    2.5866   16.8505   17.1234   18.7393   18.9895
   19.2046   19.5376
  37  1  -16.0303  -15.9297  -12.5018  -12.3976  -12.0226  -10.2552   -8.8207   -7.3713   -7.0300   -5.1225
          -3.9538   -2.7233   -0.2553    0.3656    0.9718    6.0515   18.4328   20.3754   20.9283   21.0485
   22.9517   23.1375
  38  1  -16.0303  -15.9297  -12.5018  -12.3976  -12.0226  -10.2552   -8.8207   -7.3713   -7.0300   -5.1225
          -3.9539   -2.7233   -0.2553    0.3658    0.9717    6.0515   18.4329   20.3754   20.9283   21.0485
   22.9517   23.1374
  39  1  -15.4737  -15.2492  -13.6395  -13.5470  -12.9557  -12.1653  -12.0480  -11.3114  -10.8551   -7.6592
          -3.9319   -3.9306   -3.1898   15.5595   15.9739   18.3304   18.3362   18.3634   19.8364   20.0485
   20.4711   20.7413
  40  1  -15.4737  -15.2492  -13.6395  -13.5470  -12.9558  -12.1653  -12.0479  -11.3115  -10.8551   -7.6592
          -3.9318   -3.9307   -3.1898   15.5595   15.9739   18.3304   18.3362   18.3634   19.8365   20.0485
   20.4711   20.7413
  41  1  -15.4737  -15.2492  -13.6395  -13.5470  -12.9558  -12.1653  -12.0479  -11.3115  -10.8551   -7.6592
          -3.9318   -3.9307   -3.1898   15.5595   15.9739   18.3304   18.3362   18.3634   19.8365   20.0485
   20.4711   20.7413
  42  1  -15.4350  -14.9068  -14.8669  -13.4102  -12.1358  -11.9018   -9.3221   -8.2567   -8.0977   -6.4187
          -4.6810   -4.2728   -2.9434   -2.1097   -0.1621    2.5866   16.8505   17.1234   18.7393   18.9895
   19.2046   19.5376
  43  1  -15.4737  -15.2492  -13.6395  -13.5470  -12.9558  -12.1653  -12.0479  -11.3115  -10.8551   -7.6592
          -3.9318   -3.9307   -3.1898   15.5595   15.9739   18.3304   18.3362   18.3634   19.8365   20.0485
   20.4711   20.7413
  44  1  -15.4350  -14.9068  -14.8669  -13.4103  -12.1358  -11.9018   -9.3221   -8.2567   -8.0976   -6.4187
          -4.6810   -4.2727   -2.9434   -2.1097   -0.1622    2.5866   16.8505   17.1234   18.7393   18.9896
   19.2046   19.5376
siesta: Fermi energy =      -3.777185 eV

siesta: Program's energy decomposition (eV):
siesta: Ebs     =      -236.952899
siesta: Eions   =       439.895300
siesta: Ena     =       135.845475
siesta: Ekin    =       253.262245
siesta: Enl     =        75.538102
siesta: Eso     =         0.000000
siesta: Edftu   =         0.000000
siesta: DEna    =       -13.015889
siesta: DUscf   =         5.586178
siesta: DUext   =         0.000000
siesta: Exc     =      -217.372596
siesta: eta*DQ  =         0.000000
siesta: Emadel  =         0.000000
siesta: Emeta   =         0.000000
siesta: Emolmec =        -8.407587
siesta: Ekinion =         0.000000
siesta: Eharris =      -208.459371
siesta: Etot    =      -208.459373
siesta: FreeEng =      -208.481522

siesta: Final energy (eV):
siesta:  Band Struct. =    -236.952899
siesta:       Kinetic =     253.262245
siesta:       Hartree =     131.231685
siesta:       Edftu   =       0.000000
siesta:       Eso     =       0.000000
siesta:    Ext. field =       0.000000
siesta:   Exch.-corr. =    -217.372596
siesta:  Ion-electron =    -531.087869
siesta:       Ion-ion =     163.914749
siesta:       Ekinion =       0.000000
siesta:         Total =    -208.459373
siesta:         Fermi =      -3.777185

siesta: Atomic forces (eV/Ang):
siesta:      1   -0.000000   -0.000000    0.000000
siesta:      2   -0.232170    0.402204   -0.697331
siesta:      3    0.232170   -0.402204    0.697331
siesta:      4   -0.232169   -0.402128   -0.697127
siesta:      5    0.232169    0.402128    0.697127
siesta:      6    0.464404    0.000037   -0.697331
siesta:      7   -0.464404   -0.000037    0.697331
siesta:      8    0.232170   -0.402204   -0.697331
siesta:      9   -0.232170    0.402204    0.697331
siesta:     10    0.232169    0.402128   -0.697127
siesta:     11   -0.232169   -0.402128    0.697127
siesta:     12   -0.464404   -0.000037   -0.697331
siesta:     13    0.464404    0.000037    0.697331
siesta:     14   -0.377545    0.654015   -0.000000
siesta:     15    0.377545   -0.654015   -0.000000
siesta:     16   -0.377553   -0.653940   -0.000000
siesta:     17    0.377553    0.653940   -0.000000
siesta:     18    0.755166    0.000044    0.000000
siesta:     19   -0.755166   -0.000044    0.000000
siesta: ----------------------------------------
siesta:    Tot   -0.000000   -0.000000   -0.000000

siesta: Stress tensor (static) (eV/Ang**3):
siesta:    -1.231996    0.000000   -0.000000
siesta:     0.000000   -1.231995    0.000000
siesta:    -0.000000    0.000000    0.250226

siesta: Cell volume =        171.908553 Ang**3

siesta: Pressure (static):
siesta:                Solid            Molecule  Units
siesta:           0.00803691          0.00756981  Ry/Bohr**3
siesta:           0.73792158          0.69503418  eV/Ang**3
siesta:        1182.29349891       1113.57955419  kBar
(Free)E+ p_basis*V_orbitals  =        -184.485811
(Free)Eharris+ p_basis*V_orbitals  =        -184.485810

cite: Please see "LiC18_scf.bib" for an exhaustive BiBTeX file.
cite: Please clearly indicate Siesta version in published work: 4.1.5
cite: This calculation has made use of the following articles
cite: which are encouraged to be cited in a published work.
        Primary SIESTA paper
          DOI: www.doi.org/10.1088/0953-8984/14/11/302

>> End of run:   9-NOV-2022  15:05:39
Job completed
