Siesta Version  : 4.1.5
Architecture    : x86_64-unknown-linux-gnu--unknown
Compiler version: GNU Fortran (GCC) 11.3.0
Compiler flags  : mpif90 -g -O2 -fallow-argument-mismatch
PP flags        : -DMPI -DFC_HAVE_FLUSH -DFC_HAVE_ABORT
Libraries       :  -I/global/software/sl-7.x86_64/modules/intel/2020.4.304/mkl/include  /globall/software/sl-7.x86_64/modules/intel/2020.4.304/mkl/lib/intel64/libmkl_scalapack_lp64.a -Wl,--start-group /global/software/sl-7.x86_64/modules/intel/2020.4.304/mkl/lib/intel64/libmkl_intel_lp64.a /global/software/sl-7.x86_64/modules/intel/2020.4.304/mkl/lib/intel64/libmkl_sequential.a /global/software/sl-7.x86_64/modules/intel/2020.4.304/mkl/lib/intel64/libmkl_core.a /global/software/sl-7.x86_64/modules/intel/2020.4.304/mkl/lib/intel64/libmkl_blacs_openmpi_lp64.a -Wl,--end-group -lpthread -lm -ldl
PARALLEL version

* Running on 16 nodes in parallel
>> Start of run:   9-NOV-2022  15:10:09

                           ***********************       
                           *  WELCOME TO SIESTA  *       
                           ***********************       

reinit: Reading from standard input
reinit: Dumped input in INPUT_TMP.84175
************************** Dump of input data file ****************************
SystemName LiC18_scf
SystemLabel LiC18_scf
NumberOfAtoms   19
NumberOfSpecies 2
%block ChemicalSpeciesLabel
1  3   Li-gga
2  6   C-gga
%endblock ChemicalSpeciesLabel
PAO.BasisSize  SZ
PAO.EnergyShift  10 meV
%block PS.Lmax
C-gga   2
Li-gga  2
%endblock PS.Lmax
LatticeConstant 1.000000 Ang
%block LatticeVectors
	4.3161300000	0.0000000000	0.0000000000
	-2.1580650000	3.7378782260	0.0000000000
	0.0000000000	0.0000000000	6.4377569800
%endblock LatticeVectors
AtomicCoordinatesFormat Ang
%block AtomicCoordinatesAndAtomicSpecies
	0.00000000	0.00000000	0.00000000	2
	-0.70288177	1.21742694	1.07296164	1
	-1.45518323	2.52045129	5.36479534	1
	1.45518323	2.52045129	1.07296164	1
	0.70288177	1.21742694	5.36479534	1
	1.40576354	0.00000000	1.07296164	1
	2.91036646	0.00000000	5.36479534	1
	-1.45518323	2.52045129	1.07296164	1
	-0.70288177	1.21742694	5.36479534	1
	0.70288177	1.21742694	1.07296164	1
	1.45518323	2.52045129	5.36479534	1
	2.91036646	0.00000000	1.07296164	1
	1.40576354	0.00000000	5.36479534	1
	-0.70288177	1.21742694	3.21887849	1
	-1.45518323	2.52045129	3.21887849	1
	1.45518323	2.52045129	3.21887849	1
	0.70288177	1.21742694	3.21887849	1
	1.40576354	0.00000000	3.21887849	1
	2.91036646	0.00000000	3.21887849	1
%endblock AtomicCoordinatesAndAtomicSpecies
Kgrid_NoTRS  T
%block kgrid_MonkhorstPack
4       0       0       0.0
0       4       0       0.0
0       0       4       0.0
%endblock kgrid_MonkhorstPack
AtomCoorFormatOut Ang
BlockSize 1
#ProcessorY 12
Diag.ParallelOverK   T
Diag.DivideAndConquer F
MeshCutoff   300 Ry
SCF.FreeE.Tolerance 1E-3 eV
SCF.EDM.Tolerance   5E-3 eV
DM.Tolerance  1E-3
DM.Require.Energy.Convergence T
DM.NumberPulay 4
XC.Functional GGA
XC.Authors    PBE
UseSaveData        F
MD.TypeOfRun       CG
MD.VariableCell    F
MD.NumCGsteps      00
MD.MaxCGDispl      0.200000 Bohr
MD.MaxStressTol    1.000000 GPa
MD.MaxForceTol     0.010000 eV/Ang
WriteMDHistory T
WriteCoorStep T
WriteForces T
WriteCoorStep    T
WriteEigenValues T
WriteDM    F
MM.UnitsDistance Ang  # what this program prints out DO NOT CHANGE
MM.UnitsEnergy    eV  # what this program prints out DO NOT CHANGE
MM.Grimme.S6     0.75 # Grimme-paper for PBE (correct for your functional)
MM.Grimme.D     20.   # Grimme-paper (correct for your functional)
%block MM.Potentials
  1   1 Grimme     16.69      1.650 # Li, 10.1002/jcc.20495
  1   2 Grimme     17.40      2.277 # Li / C
  2   2 Grimme     18.14      2.904 # C, 10.1002/jcc.20495
%endblock MM.Potentials
#%block ProjectedDensityOfStates
# -200.0  120.0  0.4  12800  eV
#%endblock ProjectedDensityOfStates
************************** End of input data file *****************************

reinit: -----------------------------------------------------------------------
reinit: System Name: LiC18_scf
reinit: -----------------------------------------------------------------------
reinit: System Label: LiC18_scf
reinit: -----------------------------------------------------------------------
Reading two-body potentials
Grimme - two-body potential between 1 and 1
Grimme - two-body potential between 1 and 2
Grimme - two-body potential between 2 and 2

initatom: Reading input for the pseudopotentials and atomic orbitals ----------
Species number:   1 Atomic number:    3 Label: Li-gga
Species number:   2 Atomic number:    6 Label: C-gga

Ground state valence configuration:   2s01
Reading pseudopotential information in formatted form from Li-gga.psf

Valence configuration for pseudopotential generation:
2s( 1.00) rc: 2.28
2p( 0.00) rc: 2.28
3d( 0.00) rc: 2.59
4f( 0.00) rc: 2.59
Ground state valence configuration:   2s02  2p02
Reading pseudopotential information in formatted form from C-gga.psf

Valence configuration for pseudopotential generation:
2s( 2.00) rc: 1.56
2p( 2.00) rc: 1.56
3d( 0.00) rc: 1.56
4f( 0.00) rc: 1.56
relmxkb: Read Max KB Ang. Momentum=    2 for species C-gga
relmxkb: Read Max KB Ang. Momentum=    2 for species Li-gga

<basis_specs>
===============================================================================
Li-gga               Z=   3    Mass=  6.9400        Charge= 0.17977+309
Lmxo=0 Lmxkb= 2    BasisType=split      Semic=F
L=0  Nsemic=0  Cnfigmx=2
          i=1  nzeta=1  polorb=0  (2s)
            splnorm:   0.15000    
               vcte:    0.0000    
               rinn:    0.0000    
               qcoe:    0.0000    
               qyuk:    0.0000    
               qwid:   0.10000E-01
                rcs:    0.0000    
            lambdas:    1.0000    
-------------------------------------------------------------------------------
L=0  Nkbl=1  erefs: 0.17977+309
L=1  Nkbl=1  erefs: 0.17977+309
L=2  Nkbl=1  erefs: 0.17977+309
===============================================================================
</basis_specs>

atom: Called for Li-gga                (Z =   3)

read_vps: Pseudopotential generation method:
read_vps: ATM 3.2.2 Troullier-Martins                       
Valence charge for ps generation:    1.00000

read_vps: Pseudopotential includes a core correction:
read_vps: Pseudo-core for xc-correction

xc_check: Exchange-correlation functional:
xc_check: GGA Perdew, Burke & Ernzerhof 1996
V l=0 = -2*Zval/r beyond r=  2.2278
V l=1 = -2*Zval/r beyond r=  2.2278
V l=2 = -2*Zval/r beyond r=  2.5245
All V_l potentials equal beyond r=  2.4622
This should be close to max(r_c) in ps generation
All pots = -2*Zval/r beyond r=  2.5245

VLOCAL1: 99.0% of the norm of Vloc inside      7.160 Ry
VLOCAL1: 99.9% of the norm of Vloc inside     16.318 Ry
atom: Maximum radius for 4*pi*r*r*local-pseudopot. charge    2.86079
atom: Maximum radius for r*vlocal+2*Zval:    2.43160
GHOST: No ghost state for L =  0
GHOST: No ghost state for L =  1
GHOST: No ghost state for L =  2

KBgen: Kleinman-Bylander projectors: 
   l= 0   rc=  2.654023   el= -0.211234   Ekb=  1.742119   kbcos=  0.228463
   l= 1   rc=  2.721230   el= -0.080095   Ekb= -1.122375   kbcos= -0.147941
   l= 2   rc=  2.825246   el=  0.002001   Ekb= -0.207076   kbcos= -0.031965

KBgen: Total number of Kleinman-Bylander projectors:    9
atom: -------------------------------------------------------------------------

atom: SANKEY-TYPE ORBITALS:

SPLIT: Orbitals with angular momentum L= 0

SPLIT: Basis orbitals for state 2s

SPLIT: PAO cut-off radius determined from an
SPLIT: energy shift=  0.000735 Ry

   izeta = 1
                 lambda =    1.000000
                     rc =   11.897381
                 energy =   -0.210580
                kinetic =    0.143382
    potential(screened) =   -0.353962
       potential(ionic) =   -0.533453
atom: Total number of Sankey-type orbitals:  1

atm_pop: Valence configuration (for local Pseudopot. screening):
 2s( 1.00)                                                            
Vna: chval, zval:    1.00000   1.00000

Vna:  Cut-off radius for the neutral-atom potential:  11.897381
comcore: Pseudo-core radius Rcore=  3.450946

atom: _________________________________________________________________________

<basis_specs>
===============================================================================
C-gga                Z=   6    Mass=  12.010        Charge= 0.17977+309
Lmxo=1 Lmxkb= 2    BasisType=split      Semic=F
L=0  Nsemic=0  Cnfigmx=2
          i=1  nzeta=1  polorb=0  (2s)
            splnorm:   0.15000    
               vcte:    0.0000    
               rinn:    0.0000    
               qcoe:    0.0000    
               qyuk:    0.0000    
               qwid:   0.10000E-01
                rcs:    0.0000    
            lambdas:    1.0000    
L=1  Nsemic=0  Cnfigmx=2
          i=1  nzeta=1  polorb=0  (2p)
            splnorm:   0.15000    
               vcte:    0.0000    
               rinn:    0.0000    
               qcoe:    0.0000    
               qyuk:    0.0000    
               qwid:   0.10000E-01
                rcs:    0.0000    
            lambdas:    1.0000    
-------------------------------------------------------------------------------
L=0  Nkbl=1  erefs: 0.17977+309
L=1  Nkbl=1  erefs: 0.17977+309
L=2  Nkbl=1  erefs: 0.17977+309
===============================================================================
</basis_specs>

atom: Called for C-gga                 (Z =   6)

read_vps: Pseudopotential generation method:
read_vps: ATM 3.2.2 Troullier-Martins                       
Valence charge for ps generation:    4.00000

xc_check: Exchange-correlation functional:
xc_check: GGA Perdew, Burke & Ernzerhof 1996
V l=0 = -2*Zval/r beyond r=  1.5227
V l=1 = -2*Zval/r beyond r=  1.5227
V l=2 = -2*Zval/r beyond r=  1.5227
All V_l potentials equal beyond r=  1.4851
This should be close to max(r_c) in ps generation
All pots = -2*Zval/r beyond r=  1.5227

VLOCAL1: 99.0% of the norm of Vloc inside     19.682 Ry
VLOCAL1: 99.9% of the norm of Vloc inside     44.856 Ry
atom: Maximum radius for 4*pi*r*r*local-pseudopot. charge    1.79142
atom: Maximum radius for r*vlocal+2*Zval:    1.54183
GHOST: No ghost state for L =  0
GHOST: No ghost state for L =  1
GHOST: No ghost state for L =  2

KBgen: Kleinman-Bylander projectors: 
   l= 0   rc=  1.661951   el= -1.010689   Ekb=  5.289847   kbcos=  0.316429
   l= 1   rc=  1.661951   el= -0.388490   Ekb= -4.102504   kbcos= -0.351025
   l= 2   rc=  1.747182   el=  0.001971   Ekb= -1.006005   kbcos= -0.008530

KBgen: Total number of Kleinman-Bylander projectors:    9
atom: -------------------------------------------------------------------------

atom: SANKEY-TYPE ORBITALS:

SPLIT: Orbitals with angular momentum L= 0

SPLIT: Basis orbitals for state 2s

SPLIT: PAO cut-off radius determined from an
SPLIT: energy shift=  0.000735 Ry

   izeta = 1
                 lambda =    1.000000
                     rc =    5.948690
                 energy =   -1.010099
                kinetic =    0.827121
    potential(screened) =   -1.837220
       potential(ionic) =   -5.392783

SPLIT: Orbitals with angular momentum L= 1

SPLIT: Basis orbitals for state 2p

SPLIT: PAO cut-off radius determined from an
SPLIT: energy shift=  0.000735 Ry

   izeta = 1
                 lambda =    1.000000
                     rc =    7.638387
                 energy =   -0.387843
                kinetic =    2.314739
    potential(screened) =   -2.702582
       potential(ionic) =   -6.092371
atom: Total number of Sankey-type orbitals:  4

atm_pop: Valence configuration (for local Pseudopot. screening):
 2s( 2.00)                                                            
 2p( 2.00)                                                            
Vna: chval, zval:    4.00000   4.00000

Vna:  Cut-off radius for the neutral-atom potential:   7.638387

atom: _________________________________________________________________________

prinput: Basis input ----------------------------------------------------------

PAO.BasisType split     

%block ChemicalSpeciesLabel
    1    3 Li-gga                  # Species index, atomic number, species label
    2    6 C-gga                   # Species index, atomic number, species label
%endblock ChemicalSpeciesLabel

%block PAO.Basis                 # Define Basis set
Li-gga                1                    # Species label, number of l-shells
 n=2   0   1                         # n, l, Nzeta 
  11.897   
   1.000   
C-gga                 2                    # Species label, number of l-shells
 n=2   0   1                         # n, l, Nzeta 
   5.949   
   1.000   
 n=2   1   1                         # n, l, Nzeta 
   7.638   
   1.000   
%endblock PAO.Basis

prinput: ----------------------------------------------------------------------

coor:   Atomic-coordinates input format  =     Cartesian coordinates
coor:                                          (in Angstroms)

siesta: Atomic coordinates (Bohr) and species
siesta:      0.00000   0.00000   0.00000  2        1
siesta:     -1.32825   2.30060   2.02760  1        2
siesta:     -2.74990   4.76296  10.13800  1        3
siesta:      2.74990   4.76296   2.02760  1        4
siesta:      1.32825   2.30060  10.13800  1        5
siesta:      2.65651   0.00000   2.02760  1        6
siesta:      5.49980   0.00000  10.13800  1        7
siesta:     -2.74990   4.76296   2.02760  1        8
siesta:     -1.32825   2.30060  10.13800  1        9
siesta:      1.32825   2.30060   2.02760  1       10
siesta:      2.74990   4.76296  10.13800  1       11
siesta:      5.49980   0.00000   2.02760  1       12
siesta:      2.65651   0.00000  10.13800  1       13
siesta:     -1.32825   2.30060   6.08280  1       14
siesta:     -2.74990   4.76296   6.08280  1       15
siesta:      2.74990   4.76296   6.08280  1       16
siesta:      1.32825   2.30060   6.08280  1       17
siesta:      2.65651   0.00000   6.08280  1       18
siesta:      5.49980   0.00000   6.08280  1       19

siesta: System type = bulk      

initatomlists: Number of atoms, orbitals, and projectors:     19    22   171

siesta: ******************** Simulation parameters ****************************
siesta:
siesta: The following are some of the parameters of the simulation.
siesta: A complete list of the parameters used, including default values,
siesta: can be found in file out.fdf
siesta:
redata: Spin configuration                          = none
redata: Number of spin components                   = 1
redata: Time-Reversal Symmetry                      = T
redata: Spin spiral                                 = F
redata: Long output                                 =   F
redata: Number of Atomic Species                    =        2
redata: Charge density info will appear in .RHO file
redata: Write Mulliken Pop.                         = NO
redata: Matel table size (NRTAB)                    =     1024
redata: Mesh Cutoff                                 =   300.0000 Ry
redata: Net charge of the system                    =     0.0000 |e|
redata: Min. number of SCF Iter                     =        0
redata: Max. number of SCF Iter                     =     1000
redata: SCF convergence failure will abort job
redata: SCF mix quantity                            = Hamiltonian
redata: Mix DM or H after convergence               =   F
redata: Recompute H after scf cycle                 =   F
redata: Mix DM in first SCF step                    =   T
redata: Write Pulay info on disk                    =   F
redata: New DM Occupancy tolerance                  = 0.000000000001
redata: No kicks to SCF
redata: DM Mixing Weight for Kicks                  =     0.5000
redata: Require Harris convergence for SCF          =   F
redata: Harris energy tolerance for SCF             =     0.000100 eV
redata: Require DM convergence for SCF              =   T
redata: DM tolerance for SCF                        =     0.001000
redata: Require EDM convergence for SCF             =   F
redata: EDM tolerance for SCF                       =     0.005000 eV
redata: Require H convergence for SCF               =   T
redata: Hamiltonian tolerance for SCF               =     0.001000 eV
redata: Require (free) Energy convergence for SCF   =   T
redata: (free) Energy tolerance for SCF             =     0.001000 eV
redata: Using Saved Data (generic)                  =   F
redata: Use continuation files for DM               =   F
redata: Neglect nonoverlap interactions             =   F
redata: Method of Calculation                       = Diagonalization
redata: Electronic Temperature                      =   299.9869 K
redata: Fix the spin of the system                  =   F
redata: Dynamics option                             = Single-point calculation
mix.SCF: Pulay mixing                            = Pulay
mix.SCF:    Variant                              = stable
mix.SCF:    History steps                        = 4
mix.SCF:    Linear mixing weight                 =     0.250000
mix.SCF:    Mixing weight                        =     0.250000
mix.SCF:    SVD condition                        = 0.1000E-07
redata: ***********************************************************************

%block SCF.Mixers
  Pulay
%endblock SCF.Mixers

%block SCF.Mixer.Pulay
  # Mixing method
  method pulay
  variant stable

  # Mixing options
  weight 0.2500
  weight.linear 0.2500
  history 4
%endblock SCF.Mixer.Pulay

DM_history_depth set to one: no extrapolation allowed by default for geometry relaxation
Size of DM history Fstack: 1
Total number of electrons:    22.000000
Total ionic charge:    22.000000

* ProcessorY, Blocksize:    4   1


* Orbital distribution balance (max,min):     2     1

k-point displ. along   1 input, could be:     0.00    0.50
k-point displ. along   2 input, could be:     0.00    0.50
k-point displ. along   3 input, could be:     0.00    0.50
 Kpoints in:           48 . Kpoints trimmed:           44

siesta: k-grid: Number of k-points =    44
siesta: k-grid: Cutoff (effective) =     8.632 Ang
siesta: k-grid: Supercell and displacements
siesta: k-grid:    4   0   0      0.000
siesta: k-grid:    0   4   0      0.000
siesta: k-grid:    0   0   4      0.000

diag: Algorithm                                     = Expert
diag: Parallel over k                               =   T
diag: Use parallel 2D distribution                  =   T
diag: Parallel block-size                           = 1
diag: Parallel distribution                         =     4 x     4
diag: Used triangular part                          = Lower
diag: Absolute tolerance                            =  0.100E-15
diag: Orthogonalization factor                      =  0.100E-05
diag: Memory factor                                 =  1.0000

superc: Internal auxiliary supercell:     9 x     9 x     5  =     405
superc: Number of atoms, orbitals, and projectors:   7695   8910  69255


ts: **************************************************************
ts: Save H and S matrices                           =    F
ts: Save DM and EDM matrices                        =    F
ts: Only save the overlap matrix S                  =    F
ts: **************************************************************

************************ Begin: TS CHECKS AND WARNINGS ************************
************************ End: TS CHECKS AND WARNINGS **************************


                     ====================================
                        Single-point calculation
                     ====================================

outcoor: Atomic coordinates (Ang):                          
    0.00000000    0.00000000    0.00000000   2       1  C-gga
   -0.70288177    1.21742694    1.07296164   1       2  Li-gga
   -1.45518323    2.52045129    5.36479534   1       3  Li-gga
    1.45518323    2.52045129    1.07296164   1       4  Li-gga
    0.70288177    1.21742694    5.36479534   1       5  Li-gga
    1.40576354    0.00000000    1.07296164   1       6  Li-gga
    2.91036646    0.00000000    5.36479534   1       7  Li-gga
   -1.45518323    2.52045129    1.07296164   1       8  Li-gga
   -0.70288177    1.21742694    5.36479534   1       9  Li-gga
    0.70288177    1.21742694    1.07296164   1      10  Li-gga
    1.45518323    2.52045129    5.36479534   1      11  Li-gga
    2.91036646    0.00000000    1.07296164   1      12  Li-gga
    1.40576354    0.00000000    5.36479534   1      13  Li-gga
   -0.70288177    1.21742694    3.21887849   1      14  Li-gga
   -1.45518323    2.52045129    3.21887849   1      15  Li-gga
    1.45518323    2.52045129    3.21887849   1      16  Li-gga
    0.70288177    1.21742694    3.21887849   1      17  Li-gga
    1.40576354    0.00000000    3.21887849   1      18  Li-gga
    2.91036646    0.00000000    3.21887849   1      19  Li-gga

superc: Internal auxiliary supercell:     9 x     9 x     5  =     405
superc: Number of atoms, orbitals, and projectors:   7695   8910  69255

outcell: Unit cell vectors (Ang):
        4.316130    0.000000    0.000000
       -2.158065    3.737878    0.000000
        0.000000    0.000000    6.437757

outcell: Cell vector modules (Ang)   :    4.316130    4.316130    6.437757
outcell: Cell angles (23,13,12) (deg):     90.0000     90.0000    120.0000
outcell: Cell volume (Ang**3)        :    103.8614
<dSpData1D:S at geom step 0
  <sparsity:sparsity for geom step 0
    nrows_g=22 nrows=2 sparsity=8.4525 nnzs=4091, refcount: 7>
  <dData1D:(new from dSpData1D) n=4091, refcount: 1>
refcount: 1>
new_DM -- step:     1
Initializing Density Matrix...
DM filled with atomic data:
<dSpData2D:DM initialized from atoms
  <sparsity:sparsity for geom step 0
    nrows_g=22 nrows=2 sparsity=8.4525 nnzs=4091, refcount: 8>
  <dData2D:DM n=4091 m=1, refcount: 1>
refcount: 1>
No. of atoms with KB's overlaping orbs in proc 0. Max # of overlaps:     367     377
New grid distribution:   1
           1       1:   20    1:    5    1:    9
           2       1:   20    1:    5   10:   18
           3       1:   20    1:    5   19:   27
           4       1:   20    1:    5   28:   36
           5       1:   20    6:   10    1:    9
           6       1:   20    6:   10   10:   18
           7       1:   20    6:   10   19:   27
           8       1:   20    6:   10   28:   36
           9       1:   20   11:   15    1:    9
          10       1:   20   11:   15   10:   18
          11       1:   20   11:   15   19:   27
          12       1:   20   11:   15   28:   36
          13       1:   20   16:   20    1:    9
          14       1:   20   16:   20   10:   18
          15       1:   20   16:   20   19:   27
          16       1:   20   16:   20   28:   36

InitMesh: MESH =    40 x    40 x    72 =      115200
InitMesh: (bp) =    20 x    20 x    36 =       14400
InitMesh: Mesh cutoff (required, used) =   300.000   316.498 Ry
ExtMesh (bp) on 0 =   156 x   141 x   153 =     3365388
New grid distribution:   2
           1       1:   10   11:   20   19:   27
           2      11:   20    1:   10    1:    9
           3      11:   20    1:   10   19:   27
           4      11:   20   11:   20    1:    9
           5       1:   10   11:   20   28:   36
           6      11:   20    1:   10   10:   18
           7      11:   20   11:   20   10:   18
           8      11:   20    1:   10   28:   36
           9       1:   10    1:   10   19:   27
          10       1:   10    1:   10    1:    9
          11      11:   20   11:   20   19:   27
          12       1:   10   11:   20    1:    9
          13       1:   10    1:   10   28:   36
          14       1:   10    1:   10   10:   18
          15       1:   10   11:   20   10:   18
          16      11:   20   11:   20   28:   36
New grid distribution:   3
           1       1:   10   11:   20   19:   27
           2      11:   20    1:   10    1:    9
           3      11:   20    1:   10   19:   27
           4      11:   20   11:   20    1:    9
           5       1:   10   11:   20   28:   36
           6      11:   20    1:   10   10:   18
           7      11:   20   11:   20   10:   18
           8      11:   20    1:   10   28:   36
           9       1:   10    1:   10   19:   27
          10       1:   10    1:   10    1:    9
          11      11:   20   11:   20   19:   27
          12       1:   10   11:   20    1:    9
          13       1:   10    1:   10   28:   36
          14       1:   10    1:   10   10:   18
          15       1:   10   11:   20   10:   18
          16      11:   20   11:   20   28:   36
Setting up quadratic distribution...
ExtMesh (bp) on 0 =   146 x   146 x   153 =     3261348
PhiOnMesh: Number of (b)points on node 0 =                  900
PhiOnMesh: nlist on node 0 =               177989

stepf: Fermi-Dirac step function

siesta: Program's energy decomposition (eV):
siesta: Ebs     =      -299.773911
siesta: Eions   =       439.895300
siesta: Ena     =        92.425862
siesta: Ekin    =       381.789111
siesta: Enl     =        51.655092
siesta: Eso     =         0.000000
siesta: Edftu   =         0.000000
siesta: DEna    =       -62.420235
siesta: DUscf   =        47.015235
siesta: DUext   =         0.000000
siesta: Exc     =      -259.182695
siesta: eta*DQ  =         0.000000
siesta: Emadel  =         0.000000
siesta: Emeta   =         0.000000
siesta: Emolmec =       -14.234929
siesta: Ekinion =         0.000000
siesta: Eharris =       -85.512485
siesta: Etot    =      -202.847859
siesta: FreeEng =      -202.851184

        iscf     Eharris(eV)        E_KS(eV)     FreeEng(eV)     dDmax    Ef(eV) dHmax(eV)
   scf:    1      -85.512485     -202.847859     -202.851184 10.635137-12.575333 23.927183
timer: Routine,Calls,Time,% = IterSCF        1       1.132  16.53
   scf:    2     -220.501214     -212.136877     -212.137568  1.987093-11.956068 14.247822
   scf:    3     -201.988132     -215.148628     -215.153181  6.782882 -8.485348  9.930875
   scf:    4      128.297502      -73.651180      -73.651399 36.790736  5.254310 58.362550
   scf:    5     -287.720864     -197.137960     -197.148237 31.399214 -4.340773 22.923448
   scf:    6     -217.510117     -218.838025     -218.840627 11.032713-11.653615  4.449737
   scf:    7     -220.192346     -219.657823     -219.661197  1.056369-10.651680  1.265100
   scf:    8     -219.641867     -219.650094     -219.653468  0.074785-10.738153  1.430788
   scf:    9     -219.737591     -219.696502     -219.699877  0.115108-10.602911  1.042166
   scf:   10     -219.754322     -219.739741     -219.743412  0.220932-10.233311  0.017284
   scf:   11     -219.739756     -219.739751     -219.743447  0.003488-10.232411  0.006377
   scf:   12     -219.739738     -219.739746     -219.743483  0.007704-10.223105  0.003795
   scf:   13     -219.739740     -219.739743     -219.743484  0.001697-10.223692  0.001310
   scf:   14     -219.739744     -219.739744     -219.743484  0.000386-10.223148  0.000442

SCF Convergence by FreeE+DM+H criterion
|FreeE_i-FreeE_(i-1)| (eV) <     0.00100000
max |DM_out - DM_in|         :     0.0003855175
max |H_out - H_in|      (eV) :     0.0004417316
SCF cycle converged after 14 iterations

Using DM_out to compute the final energy and forces
No. of atoms with KB's overlaping orbs in proc 0. Max # of overlaps:     367     377

MM-Stress (kbar):       71.14       71.14      458.24        0.00       -0.00       -0.00

siesta: E_KS(eV) =             -219.7397

siesta: E_KS - E_eggbox =      -219.7397

siesta: Atomic forces (eV/Ang):
     1    0.000000    0.000000    0.000000
     2   -0.049020    0.085039   -1.346408
     3    0.049020   -0.085039    1.346408
     4   -0.049027   -0.084918   -1.346592
     5    0.049027    0.084918    1.346592
     6    0.098156    0.000067   -1.346408
     7   -0.098156   -0.000067    1.346408
     8    0.049020   -0.085039   -1.346408
     9   -0.049020    0.085039    1.346408
    10    0.049027    0.084918   -1.346592
    11   -0.049027   -0.084918    1.346592
    12   -0.098156   -0.000067   -1.346408
    13    0.098156    0.000067    1.346408
    14   -0.355273    0.615335   -0.000000
    15    0.355273   -0.615335   -0.000000
    16   -0.355278   -0.615359   -0.000000
    17    0.355278    0.615359   -0.000000
    18    0.710532   -0.000008   -0.000000
    19   -0.710532    0.000008   -0.000000
----------------------------------------
   Tot    0.000000    0.000000    0.000000
----------------------------------------
   Max    1.346592
   Res    0.660947    sqrt( Sum f_i^2 / 3N )
----------------------------------------
   Max    1.346592    constrained

Stress tensor Voigt[x,y,z,yz,xz,xy] (kbar):    -2916.08    -2916.11     -533.49        0.00       -0.00       -0.03
(Free)E + p*V (eV/cell)      -82.1927
Target enthalpy (eV/cell)     -219.7435

siesta: Eigenvalues (eV):
  ik is       eps
   1  1  -23.2972  -22.1827  -21.4126  -21.2483  -20.7791  -20.5521  -20.1571  -20.0412  -19.4508  -11.1881
         -11.1521  -10.8257   -4.0458    7.8667   10.5155   12.9655   13.1356   13.7318   14.4914   14.7310
   15.4987   15.6944
   2  1  -23.3555  -22.4905  -20.7478  -20.3080  -19.3463  -19.0860  -17.9548  -16.4096  -14.2850  -12.4208
         -11.4725   -9.8340   -7.0365    0.0809    4.9590    9.5925   11.7022   12.9467   15.3414   17.9844
   18.9213   20.8855
   3  1  -23.3555  -22.4905  -20.7478  -20.3080  -19.3463  -19.0860  -17.9548  -16.4096  -14.2850  -12.4208
         -11.4723   -9.8340   -7.0363    0.0807    4.9590    9.5926   11.7021   12.9467   15.3414   17.9844
   18.9213   20.8854
   4  1  -23.2972  -22.1827  -21.4126  -21.2483  -20.7791  -20.5521  -20.1571  -20.0413  -19.4507  -11.1881
         -11.1524  -10.8254   -4.0457    7.8667   10.5155   12.9655   13.1356   13.7317   14.4915   14.7309
   15.4987   15.6944
   5  1  -23.3555  -22.4905  -20.7478  -20.3080  -19.3463  -19.0860  -17.9548  -16.4096  -14.2850  -12.4208
         -11.4725   -9.8340   -7.0365    0.0809    4.9590    9.5925   11.7022   12.9467   15.3414   17.9844
   18.9213   20.8855
   6  1  -23.4081  -22.6278  -20.8561  -15.7076  -15.7076  -15.1696  -13.5059  -12.4748  -12.4748   -8.0031
          -8.0028    9.4976    9.4976   10.3450   10.3451   11.0510   11.0510   13.2354   13.2354   17.0865
   19.6069   20.4212
   7  1  -23.3203  -22.0622  -21.9877  -20.8403  -20.7560  -20.2347  -19.7377  -16.6329  -15.8507  -14.0092
         -12.9880  -10.0268   -9.9949   -1.2764    2.7888    9.5807   11.5658   11.8636   13.7850   14.0795
   14.3253   14.9850
   8  1  -23.2972  -22.1827  -21.4126  -21.2483  -20.7791  -20.5521  -20.1571  -20.0413  -19.4507  -11.1881
         -11.1524  -10.8254   -4.0457    7.8667   10.5155   12.9655   13.1356   13.7317   14.4915   14.7309
   15.4987   15.6944
   9  1  -23.2972  -22.1827  -21.4126  -21.2483  -20.7791  -20.5521  -20.1571  -20.0413  -19.4507  -11.1881
         -11.1524  -10.8254   -4.0457    7.8667   10.5155   12.9655   13.1356   13.7317   14.4915   14.7309
   15.4987   15.6944
  10  1  -23.3203  -22.0622  -21.9877  -20.8403  -20.7560  -20.2347  -19.7377  -16.6329  -15.8507  -14.0092
         -12.9880  -10.0268   -9.9949   -1.2765    2.7888    9.5807   11.5658   11.8636   13.7850   14.0795
   14.3253   14.9850
  11  1  -23.2972  -22.1827  -21.4126  -21.2483  -20.7791  -20.5521  -20.1571  -20.0413  -19.4507  -11.1881
         -11.1524  -10.8254   -4.0457    7.8667   10.5155   12.9655   13.1356   13.7317   14.4915   14.7309
   15.4987   15.6944
  12  1  -23.3203  -22.0622  -21.9876  -20.8403  -20.7560  -20.2347  -19.7377  -16.6329  -15.8508  -14.0092
         -12.9880  -10.0267   -9.9946   -1.2768    2.7888    9.5807   11.5658   11.8636   13.7849   14.0794
   14.3254   14.9850
  13  1  -23.2532  -22.1131  -21.3181  -21.1643  -20.4819  -19.9179  -19.2371  -18.3402  -17.4155  -11.5030
         -10.9257  -10.6609   -2.8358    8.9602   10.9144   11.9835   12.6347   13.2767   14.7441   15.4083
   15.7723   16.1574
  14  1  -23.3260  -22.5014  -20.5942  -20.2365  -18.7804  -17.6898  -16.4568  -15.9466  -14.8415  -13.5796
         -11.0169   -8.3867   -5.8553    1.7677    6.1446   10.2241   10.8821   15.3932   15.9194   17.6982
   19.0452   20.4455
  15  1  -23.3259  -22.5014  -20.5942  -20.2365  -18.7804  -17.6897  -16.4568  -15.9466  -14.8415  -13.5795
         -11.0168   -8.3869   -5.8552    1.7677    6.1445   10.2241   10.8821   15.3932   15.9194   17.6982
   19.0452   20.4454
  16  1  -23.2531  -22.1131  -21.3181  -21.1643  -20.4819  -19.9178  -19.2371  -18.3402  -17.4155  -11.5029
         -10.9259  -10.6607   -2.8358    8.9602   10.9144   11.9835   12.6347   13.2767   14.7441   15.4083
   15.7723   16.1574
  17  1  -23.3260  -22.5014  -20.5942  -20.2365  -18.7804  -17.6898  -16.4568  -15.9466  -14.8415  -13.5796
         -11.0169   -8.3867   -5.8553    1.7677    6.1446   10.2241   10.8821   15.3932   15.9194   17.6982
   19.0452   20.4455
  18  1  -23.3683  -22.7034  -19.5265  -15.7383  -15.7383  -14.9009  -13.1280  -12.0114  -12.0114   -9.5639
          -9.5638   -0.6812   -0.6812    6.2255    6.2257    8.1728    8.1729    8.2550    8.2551   16.7440
   18.7296   21.0735
  19  1  -23.3260  -22.5014  -20.5942  -20.2365  -18.7804  -17.6898  -16.4568  -15.9466  -14.8415  -13.5796
         -11.0169   -8.3867   -5.8553    1.7677    6.1446   10.2241   10.8821   15.3932   15.9194   17.6982
   19.0452   20.4455
  20  1  -23.2718  -21.9836  -21.9084  -20.6366  -19.7403  -18.8977  -18.7096  -16.7959  -16.5619  -14.8825
         -10.2087   -9.5441   -8.9972   -1.8360    4.4634   11.6506   11.9497   12.4266   13.6626   14.5559
   14.7148   15.2266
  21  1  -23.3259  -22.5014  -20.5942  -20.2365  -18.7804  -17.6897  -16.4568  -15.9466  -14.8415  -13.5795
         -11.0168   -8.3869   -5.8552    1.7677    6.1445   10.2241   10.8821   15.3932   15.9194   17.6982
   19.0452   20.4454
  22  1  -23.3260  -22.5014  -20.5942  -20.2365  -18.7804  -17.6898  -16.4568  -15.9466  -14.8415  -13.5796
         -11.0169   -8.3867   -5.8553    1.7677    6.1446   10.2241   10.8821   15.3932   15.9194   17.6982
   19.0452   20.4455
  23  1  -23.2532  -22.1131  -21.3181  -21.1643  -20.4819  -19.9179  -19.2371  -18.3402  -17.4155  -11.5030
         -10.9257  -10.6609   -2.8358    8.9602   10.9144   11.9835   12.6347   13.2767   14.7441   15.4083
   15.7723   16.1574
  24  1  -23.2531  -22.1131  -21.3181  -21.1643  -20.4819  -19.9178  -19.2371  -18.3402  -17.4155  -11.5029
         -10.9259  -10.6607   -2.8358    8.9602   10.9144   11.9835   12.6347   13.2767   14.7441   15.4083
   15.7723   16.1574
  25  1  -23.2531  -22.1131  -21.3181  -21.1643  -20.4819  -19.9178  -19.2371  -18.3402  -17.4155  -11.5029
         -10.9259  -10.6607   -2.8358    8.9602   10.9144   11.9835   12.6347   13.2767   14.7441   15.4083
   15.7723   16.1574
  26  1  -23.2718  -21.9836  -21.9084  -20.6366  -19.7403  -18.8977  -18.7096  -16.7959  -16.5619  -14.8825
         -10.2087   -9.5441   -8.9972   -1.8360    4.4634   11.6506   11.9497   12.4266   13.6626   14.5559
   14.7148   15.2266
  27  1  -23.2531  -22.1131  -21.3181  -21.1643  -20.4819  -19.9178  -19.2371  -18.3402  -17.4155  -11.5029
         -10.9259  -10.6607   -2.8358    8.9602   10.9144   11.9835   12.6347   13.2767   14.7441   15.4083
   15.7723   16.1574
  28  1  -23.2718  -21.9836  -21.9084  -20.6366  -19.7403  -18.8977  -18.7097  -16.7959  -16.5619  -14.8825
         -10.2084   -9.5443   -8.9972   -1.8360    4.4632   11.6506   11.9497   12.4267   13.6625   14.5560
   14.7147   15.2266
  29  1  -23.2135  -22.0770  -21.2481  -21.0816  -20.4249  -19.8081  -15.4195  -13.0433  -12.4367  -12.1072
         -10.9303   -7.3638    3.6374   10.3622   10.9084   12.5917   13.1859   13.4666   13.4675   14.9147
   15.9432   15.9688
  30  1  -23.2922  -22.5287  -20.6596  -20.1515  -16.7780  -16.5084  -16.3502  -16.1243  -13.5201  -12.6295
          -9.0635   -8.0356   -5.2499    7.7799    8.4433    9.6414   11.4713   15.4790   17.4075   18.4189
   19.1331   19.7590
  31  1  -23.2922  -22.5287  -20.6596  -20.1515  -16.7779  -16.5084  -16.3502  -16.1243  -13.5201  -12.6293
          -9.0635   -8.0359   -5.2499    7.7799    8.4433    9.6414   11.4713   15.4790   17.4075   18.4188
   19.1331   19.7590
  32  1  -23.2135  -22.0770  -21.2481  -21.0816  -20.4250  -19.8081  -15.4195  -13.0431  -12.4369  -12.1072
         -10.9301   -7.3638    3.6374   10.3622   10.9084   12.5917   13.1859   13.4666   13.4675   14.9147
   15.9432   15.9688
  33  1  -23.2922  -22.5287  -20.6596  -20.1515  -16.7780  -16.5084  -16.3502  -16.1243  -13.5201  -12.6295
          -9.0635   -8.0356   -5.2499    7.7799    8.4433    9.6414   11.4713   15.4790   17.4075   18.4189
   19.1331   19.7590
  34  1  -23.3190  -22.7854  -17.6196  -15.7676  -15.7675  -14.4967  -11.2825  -11.2825  -10.2568  -10.1164
         -10.1163   -8.8466   -8.8466    3.3032    3.3036    5.9491    5.9491    6.1425    6.1425   16.3823
   18.1867   21.4039
  35  1  -23.2922  -22.5287  -20.6596  -20.1515  -16.7780  -16.5084  -16.3502  -16.1243  -13.5201  -12.6295
          -9.0635   -8.0356   -5.2499    7.7799    8.4433    9.6414   11.4713   15.4790   17.4075   18.4189
   19.1331   19.7590
  36  1  -23.2257  -21.9234  -21.8765  -20.5992  -17.9177  -17.7805  -16.7490  -16.6481  -14.8751  -13.1792
         -12.0253   -8.0311   -7.9781   -4.9607   11.7476   11.8116   12.3141   13.6900   13.9432   14.4865
   15.1905   15.5027
  37  1  -23.2922  -22.5287  -20.6596  -20.1515  -16.7779  -16.5084  -16.3502  -16.1243  -13.5201  -12.6293
          -9.0635   -8.0359   -5.2499    7.7799    8.4433    9.6414   11.4713   15.4790   17.4075   18.4188
   19.1331   19.7590
  38  1  -23.2922  -22.5287  -20.6596  -20.1515  -16.7780  -16.5084  -16.3502  -16.1243  -13.5201  -12.6295
          -9.0635   -8.0356   -5.2499    7.7799    8.4433    9.6414   11.4713   15.4790   17.4075   18.4189
   19.1331   19.7590
  39  1  -23.2135  -22.0770  -21.2481  -21.0816  -20.4249  -19.8081  -15.4195  -13.0433  -12.4367  -12.1072
         -10.9303   -7.3638    3.6374   10.3622   10.9084   12.5917   13.1859   13.4666   13.4675   14.9147
   15.9432   15.9688
  40  1  -23.2135  -22.0770  -21.2481  -21.0816  -20.4250  -19.8081  -15.4195  -13.0431  -12.4369  -12.1072
         -10.9301   -7.3638    3.6374   10.3622   10.9084   12.5917   13.1859   13.4666   13.4675   14.9147
   15.9432   15.9688
  41  1  -23.2135  -22.0770  -21.2481  -21.0816  -20.4250  -19.8081  -15.4195  -13.0431  -12.4369  -12.1072
         -10.9301   -7.3638    3.6374   10.3622   10.9084   12.5917   13.1859   13.4666   13.4675   14.9147
   15.9432   15.9688
  42  1  -23.2257  -21.9234  -21.8765  -20.5992  -17.9177  -17.7805  -16.7490  -16.6481  -14.8751  -13.1792
         -12.0253   -8.0311   -7.9781   -4.9607   11.7476   11.8116   12.3141   13.6900   13.9432   14.4865
   15.1905   15.5027
  43  1  -23.2135  -22.0770  -21.2481  -21.0816  -20.4250  -19.8081  -15.4195  -13.0431  -12.4369  -12.1072
         -10.9301   -7.3638    3.6374   10.3622   10.9084   12.5917   13.1859   13.4666   13.4675   14.9147
   15.9432   15.9688
  44  1  -23.2257  -21.9235  -21.8765  -20.5992  -17.9177  -17.7805  -16.7490  -16.6481  -14.8751  -13.1793
         -12.0250   -8.0314   -7.9781   -4.9607   11.7476   11.8116   12.3141   13.6899   13.9433   14.4865
   15.1904   15.5027
siesta: Fermi energy =     -10.223148 eV

siesta: Program's energy decomposition (eV):
siesta: Ebs     =      -395.863214
siesta: Eions   =       439.895300
siesta: Ena     =        92.425862
siesta: Ekin    =       332.793981
siesta: Enl     =        70.834903
siesta: Eso     =         0.000000
siesta: Edftu   =         0.000000
siesta: DEna    =       -27.983602
siesta: DUscf   =        13.628106
siesta: DUext   =         0.000000
siesta: Exc     =      -247.308765
siesta: eta*DQ  =         0.000000
siesta: Emadel  =         0.000000
siesta: Emeta   =         0.000000
siesta: Emolmec =       -14.234929
siesta: Ekinion =         0.000000
siesta: Eharris =      -219.739744
siesta: Etot    =      -219.739744
siesta: FreeEng =      -219.743484

siesta: Final energy (eV):
siesta:  Band Struct. =    -395.863214
siesta:       Kinetic =     332.793981
siesta:       Hartree =     125.502963
siesta:       Edftu   =       0.000000
siesta:       Eso     =       0.000000
siesta:    Ext. field =       0.000000
siesta:   Exch.-corr. =    -247.308765
siesta:  Ion-electron =    -720.846631
siesta:       Ion-ion =     304.353637
siesta:       Ekinion =       0.000000
siesta:         Total =    -219.739744
siesta:         Fermi =     -10.223148

siesta: Atomic forces (eV/Ang):
siesta:      1    0.000000    0.000000    0.000000
siesta:      2   -0.049020    0.085039   -1.346408
siesta:      3    0.049020   -0.085039    1.346408
siesta:      4   -0.049027   -0.084918   -1.346592
siesta:      5    0.049027    0.084918    1.346592
siesta:      6    0.098156    0.000067   -1.346408
siesta:      7   -0.098156   -0.000067    1.346408
siesta:      8    0.049020   -0.085039   -1.346408
siesta:      9   -0.049020    0.085039    1.346408
siesta:     10    0.049027    0.084918   -1.346592
siesta:     11   -0.049027   -0.084918    1.346592
siesta:     12   -0.098156   -0.000067   -1.346408
siesta:     13    0.098156    0.000067    1.346408
siesta:     14   -0.355273    0.615335   -0.000000
siesta:     15    0.355273   -0.615335   -0.000000
siesta:     16   -0.355278   -0.615359   -0.000000
siesta:     17    0.355278    0.615359   -0.000000
siesta:     18    0.710532   -0.000008   -0.000000
siesta:     19   -0.710532    0.000008   -0.000000
siesta: ----------------------------------------
siesta:    Tot    0.000000    0.000000    0.000000

siesta: Stress tensor (static) (eV/Ang**3):
siesta:    -1.820055   -0.000018   -0.000000
siesta:    -0.000018   -1.820075    0.000000
siesta:    -0.000000    0.000000   -0.332976

siesta: Cell volume =        103.861417 Ang**3

siesta: Pressure (static):
siesta:                Solid            Molecule  Units
siesta:           0.01442406          0.01335516  Ry/Bohr**3
siesta:           1.32436856          1.22622534  eV/Ang**3
siesta:        2121.89530477       1964.65082344  kBar
(Free)E+ p_basis*V_orbitals  =        -195.747773
(Free)Eharris+ p_basis*V_orbitals  =        -195.747773

cite: Please see "LiC18_scf.bib" for an exhaustive BiBTeX file.
cite: Please clearly indicate Siesta version in published work: 4.1.5
cite: This calculation has made use of the following articles
cite: which are encouraged to be cited in a published work.
        Primary SIESTA paper
          DOI: www.doi.org/10.1088/0953-8984/14/11/302

>> End of run:   9-NOV-2022  15:10:32
Job completed
