Siesta Version  : 4.1.5
Architecture    : x86_64-unknown-linux-gnu--unknown
Compiler version: GNU Fortran (GCC) 11.3.0
Compiler flags  : mpif90 -g -O2 -fallow-argument-mismatch
PP flags        : -DMPI -DFC_HAVE_FLUSH -DFC_HAVE_ABORT
Libraries       :  -I/global/software/sl-7.x86_64/modules/intel/2020.4.304/mkl/include  /globall/software/sl-7.x86_64/modules/intel/2020.4.304/mkl/lib/intel64/libmkl_scalapack_lp64.a -Wl,--start-group /global/software/sl-7.x86_64/modules/intel/2020.4.304/mkl/lib/intel64/libmkl_intel_lp64.a /global/software/sl-7.x86_64/modules/intel/2020.4.304/mkl/lib/intel64/libmkl_sequential.a /global/software/sl-7.x86_64/modules/intel/2020.4.304/mkl/lib/intel64/libmkl_core.a /global/software/sl-7.x86_64/modules/intel/2020.4.304/mkl/lib/intel64/libmkl_blacs_openmpi_lp64.a -Wl,--end-group -lpthread -lm -ldl
PARALLEL version

* Running on 16 nodes in parallel
>> Start of run:   9-NOV-2022  15:10:55

                           ***********************       
                           *  WELCOME TO SIESTA  *       
                           ***********************       

reinit: Reading from standard input
reinit: Dumped input in INPUT_TMP.30791
************************** Dump of input data file ****************************
SystemName LiC18_scf
SystemLabel LiC18_scf
NumberOfAtoms   19
NumberOfSpecies 2
%block ChemicalSpeciesLabel
1  3   Li-gga
2  6   C-gga
%endblock ChemicalSpeciesLabel
PAO.BasisSize  SZ
PAO.EnergyShift  10 meV
%block PS.Lmax
C-gga   2
Li-gga  2
%endblock PS.Lmax
LatticeConstant 1.000000 Ang
%block LatticeVectors
	4.3161300000	0.0000000000	0.0000000000
	-2.1580650000	3.7378782260	0.0000000000
	0.0000000000	0.0000000000	5.9937737400
%endblock LatticeVectors
AtomicCoordinatesFormat Ang
%block AtomicCoordinatesAndAtomicSpecies
	0.00000000	0.00000000	0.00000000	2
	-0.70288177	1.21742694	0.99896429	1
	-1.45518323	2.52045129	4.99480945	1
	1.45518323	2.52045129	0.99896429	1
	0.70288177	1.21742694	4.99480945	1
	1.40576354	0.00000000	0.99896429	1
	2.91036646	0.00000000	4.99480945	1
	-1.45518323	2.52045129	0.99896429	1
	-0.70288177	1.21742694	4.99480945	1
	0.70288177	1.21742694	0.99896429	1
	1.45518323	2.52045129	4.99480945	1
	2.91036646	0.00000000	0.99896429	1
	1.40576354	0.00000000	4.99480945	1
	-0.70288177	1.21742694	2.99688687	1
	-1.45518323	2.52045129	2.99688687	1
	1.45518323	2.52045129	2.99688687	1
	0.70288177	1.21742694	2.99688687	1
	1.40576354	0.00000000	2.99688687	1
	2.91036646	0.00000000	2.99688687	1
%endblock AtomicCoordinatesAndAtomicSpecies
Kgrid_NoTRS  T
%block kgrid_MonkhorstPack
4       0       0       0.0
0       4       0       0.0
0       0       4       0.0
%endblock kgrid_MonkhorstPack
AtomCoorFormatOut Ang
BlockSize 1
#ProcessorY 12
Diag.ParallelOverK   T
Diag.DivideAndConquer F
MeshCutoff   300 Ry
SCF.FreeE.Tolerance 1E-3 eV
SCF.EDM.Tolerance   5E-3 eV
DM.Tolerance  1E-3
DM.Require.Energy.Convergence T
DM.NumberPulay 4
XC.Functional GGA
XC.Authors    PBE
UseSaveData        F
MD.TypeOfRun       CG
MD.VariableCell    F
MD.NumCGsteps      00
MD.MaxCGDispl      0.200000 Bohr
MD.MaxStressTol    1.000000 GPa
MD.MaxForceTol     0.010000 eV/Ang
WriteMDHistory T
WriteCoorStep T
WriteForces T
WriteCoorStep    T
WriteEigenValues T
WriteDM    F
MM.UnitsDistance Ang  # what this program prints out DO NOT CHANGE
MM.UnitsEnergy    eV  # what this program prints out DO NOT CHANGE
MM.Grimme.S6     0.75 # Grimme-paper for PBE (correct for your functional)
MM.Grimme.D     20.   # Grimme-paper (correct for your functional)
%block MM.Potentials
  1   1 Grimme     16.69      1.650 # Li, 10.1002/jcc.20495
  1   2 Grimme     17.40      2.277 # Li / C
  2   2 Grimme     18.14      2.904 # C, 10.1002/jcc.20495
%endblock MM.Potentials
#%block ProjectedDensityOfStates
# -200.0  120.0  0.4  12800  eV
#%endblock ProjectedDensityOfStates
************************** End of input data file *****************************

reinit: -----------------------------------------------------------------------
reinit: System Name: LiC18_scf
reinit: -----------------------------------------------------------------------
reinit: System Label: LiC18_scf
reinit: -----------------------------------------------------------------------
Reading two-body potentials
Grimme - two-body potential between 1 and 1
Grimme - two-body potential between 1 and 2
Grimme - two-body potential between 2 and 2

initatom: Reading input for the pseudopotentials and atomic orbitals ----------
Species number:   1 Atomic number:    3 Label: Li-gga
Species number:   2 Atomic number:    6 Label: C-gga

Ground state valence configuration:   2s01
Reading pseudopotential information in formatted form from Li-gga.psf

Valence configuration for pseudopotential generation:
2s( 1.00) rc: 2.28
2p( 0.00) rc: 2.28
3d( 0.00) rc: 2.59
4f( 0.00) rc: 2.59
Ground state valence configuration:   2s02  2p02
Reading pseudopotential information in formatted form from C-gga.psf

Valence configuration for pseudopotential generation:
2s( 2.00) rc: 1.56
2p( 2.00) rc: 1.56
3d( 0.00) rc: 1.56
4f( 0.00) rc: 1.56
relmxkb: Read Max KB Ang. Momentum=    2 for species C-gga
relmxkb: Read Max KB Ang. Momentum=    2 for species Li-gga

<basis_specs>
===============================================================================
Li-gga               Z=   3    Mass=  6.9400        Charge= 0.17977+309
Lmxo=0 Lmxkb= 2    BasisType=split      Semic=F
L=0  Nsemic=0  Cnfigmx=2
          i=1  nzeta=1  polorb=0  (2s)
            splnorm:   0.15000    
               vcte:    0.0000    
               rinn:    0.0000    
               qcoe:    0.0000    
               qyuk:    0.0000    
               qwid:   0.10000E-01
                rcs:    0.0000    
            lambdas:    1.0000    
-------------------------------------------------------------------------------
L=0  Nkbl=1  erefs: 0.17977+309
L=1  Nkbl=1  erefs: 0.17977+309
L=2  Nkbl=1  erefs: 0.17977+309
===============================================================================
</basis_specs>

atom: Called for Li-gga                (Z =   3)

read_vps: Pseudopotential generation method:
read_vps: ATM 3.2.2 Troullier-Martins                       
Valence charge for ps generation:    1.00000

read_vps: Pseudopotential includes a core correction:
read_vps: Pseudo-core for xc-correction

xc_check: Exchange-correlation functional:
xc_check: GGA Perdew, Burke & Ernzerhof 1996
V l=0 = -2*Zval/r beyond r=  2.2278
V l=1 = -2*Zval/r beyond r=  2.2278
V l=2 = -2*Zval/r beyond r=  2.5245
All V_l potentials equal beyond r=  2.4622
This should be close to max(r_c) in ps generation
All pots = -2*Zval/r beyond r=  2.5245

VLOCAL1: 99.0% of the norm of Vloc inside      7.160 Ry
VLOCAL1: 99.9% of the norm of Vloc inside     16.318 Ry
atom: Maximum radius for 4*pi*r*r*local-pseudopot. charge    2.86079
atom: Maximum radius for r*vlocal+2*Zval:    2.43160
GHOST: No ghost state for L =  0
GHOST: No ghost state for L =  1
GHOST: No ghost state for L =  2

KBgen: Kleinman-Bylander projectors: 
   l= 0   rc=  2.654023   el= -0.211234   Ekb=  1.742119   kbcos=  0.228463
   l= 1   rc=  2.721230   el= -0.080095   Ekb= -1.122375   kbcos= -0.147941
   l= 2   rc=  2.825246   el=  0.002001   Ekb= -0.207076   kbcos= -0.031965

KBgen: Total number of Kleinman-Bylander projectors:    9
atom: -------------------------------------------------------------------------

atom: SANKEY-TYPE ORBITALS:

SPLIT: Orbitals with angular momentum L= 0

SPLIT: Basis orbitals for state 2s

SPLIT: PAO cut-off radius determined from an
SPLIT: energy shift=  0.000735 Ry

   izeta = 1
                 lambda =    1.000000
                     rc =   11.897381
                 energy =   -0.210580
                kinetic =    0.143382
    potential(screened) =   -0.353962
       potential(ionic) =   -0.533453
atom: Total number of Sankey-type orbitals:  1

atm_pop: Valence configuration (for local Pseudopot. screening):
 2s( 1.00)                                                            
Vna: chval, zval:    1.00000   1.00000

Vna:  Cut-off radius for the neutral-atom potential:  11.897381
comcore: Pseudo-core radius Rcore=  3.450946

atom: _________________________________________________________________________

<basis_specs>
===============================================================================
C-gga                Z=   6    Mass=  12.010        Charge= 0.17977+309
Lmxo=1 Lmxkb= 2    BasisType=split      Semic=F
L=0  Nsemic=0  Cnfigmx=2
          i=1  nzeta=1  polorb=0  (2s)
            splnorm:   0.15000    
               vcte:    0.0000    
               rinn:    0.0000    
               qcoe:    0.0000    
               qyuk:    0.0000    
               qwid:   0.10000E-01
                rcs:    0.0000    
            lambdas:    1.0000    
L=1  Nsemic=0  Cnfigmx=2
          i=1  nzeta=1  polorb=0  (2p)
            splnorm:   0.15000    
               vcte:    0.0000    
               rinn:    0.0000    
               qcoe:    0.0000    
               qyuk:    0.0000    
               qwid:   0.10000E-01
                rcs:    0.0000    
            lambdas:    1.0000    
-------------------------------------------------------------------------------
L=0  Nkbl=1  erefs: 0.17977+309
L=1  Nkbl=1  erefs: 0.17977+309
L=2  Nkbl=1  erefs: 0.17977+309
===============================================================================
</basis_specs>

atom: Called for C-gga                 (Z =   6)

read_vps: Pseudopotential generation method:
read_vps: ATM 3.2.2 Troullier-Martins                       
Valence charge for ps generation:    4.00000

xc_check: Exchange-correlation functional:
xc_check: GGA Perdew, Burke & Ernzerhof 1996
V l=0 = -2*Zval/r beyond r=  1.5227
V l=1 = -2*Zval/r beyond r=  1.5227
V l=2 = -2*Zval/r beyond r=  1.5227
All V_l potentials equal beyond r=  1.4851
This should be close to max(r_c) in ps generation
All pots = -2*Zval/r beyond r=  1.5227

VLOCAL1: 99.0% of the norm of Vloc inside     19.682 Ry
VLOCAL1: 99.9% of the norm of Vloc inside     44.856 Ry
atom: Maximum radius for 4*pi*r*r*local-pseudopot. charge    1.79142
atom: Maximum radius for r*vlocal+2*Zval:    1.54183
GHOST: No ghost state for L =  0
GHOST: No ghost state for L =  1
GHOST: No ghost state for L =  2

KBgen: Kleinman-Bylander projectors: 
   l= 0   rc=  1.661951   el= -1.010689   Ekb=  5.289847   kbcos=  0.316429
   l= 1   rc=  1.661951   el= -0.388490   Ekb= -4.102504   kbcos= -0.351025
   l= 2   rc=  1.747182   el=  0.001971   Ekb= -1.006005   kbcos= -0.008530

KBgen: Total number of Kleinman-Bylander projectors:    9
atom: -------------------------------------------------------------------------

atom: SANKEY-TYPE ORBITALS:

SPLIT: Orbitals with angular momentum L= 0

SPLIT: Basis orbitals for state 2s

SPLIT: PAO cut-off radius determined from an
SPLIT: energy shift=  0.000735 Ry

   izeta = 1
                 lambda =    1.000000
                     rc =    5.948690
                 energy =   -1.010099
                kinetic =    0.827121
    potential(screened) =   -1.837220
       potential(ionic) =   -5.392783

SPLIT: Orbitals with angular momentum L= 1

SPLIT: Basis orbitals for state 2p

SPLIT: PAO cut-off radius determined from an
SPLIT: energy shift=  0.000735 Ry

   izeta = 1
                 lambda =    1.000000
                     rc =    7.638387
                 energy =   -0.387843
                kinetic =    2.314739
    potential(screened) =   -2.702582
       potential(ionic) =   -6.092371
atom: Total number of Sankey-type orbitals:  4

atm_pop: Valence configuration (for local Pseudopot. screening):
 2s( 2.00)                                                            
 2p( 2.00)                                                            
Vna: chval, zval:    4.00000   4.00000

Vna:  Cut-off radius for the neutral-atom potential:   7.638387

atom: _________________________________________________________________________

prinput: Basis input ----------------------------------------------------------

PAO.BasisType split     

%block ChemicalSpeciesLabel
    1    3 Li-gga                  # Species index, atomic number, species label
    2    6 C-gga                   # Species index, atomic number, species label
%endblock ChemicalSpeciesLabel

%block PAO.Basis                 # Define Basis set
Li-gga                1                    # Species label, number of l-shells
 n=2   0   1                         # n, l, Nzeta 
  11.897   
   1.000   
C-gga                 2                    # Species label, number of l-shells
 n=2   0   1                         # n, l, Nzeta 
   5.949   
   1.000   
 n=2   1   1                         # n, l, Nzeta 
   7.638   
   1.000   
%endblock PAO.Basis

prinput: ----------------------------------------------------------------------

coor:   Atomic-coordinates input format  =     Cartesian coordinates
coor:                                          (in Angstroms)

siesta: Atomic coordinates (Bohr) and species
siesta:      0.00000   0.00000   0.00000  2        1
siesta:     -1.32825   2.30060   1.88777  1        2
siesta:     -2.74990   4.76296   9.43883  1        3
siesta:      2.74990   4.76296   1.88777  1        4
siesta:      1.32825   2.30060   9.43883  1        5
siesta:      2.65651   0.00000   1.88777  1        6
siesta:      5.49980   0.00000   9.43883  1        7
siesta:     -2.74990   4.76296   1.88777  1        8
siesta:     -1.32825   2.30060   9.43883  1        9
siesta:      1.32825   2.30060   1.88777  1       10
siesta:      2.74990   4.76296   9.43883  1       11
siesta:      5.49980   0.00000   1.88777  1       12
siesta:      2.65651   0.00000   9.43883  1       13
siesta:     -1.32825   2.30060   5.66330  1       14
siesta:     -2.74990   4.76296   5.66330  1       15
siesta:      2.74990   4.76296   5.66330  1       16
siesta:      1.32825   2.30060   5.66330  1       17
siesta:      2.65651   0.00000   5.66330  1       18
siesta:      5.49980   0.00000   5.66330  1       19

siesta: System type = bulk      

initatomlists: Number of atoms, orbitals, and projectors:     19    22   171

siesta: ******************** Simulation parameters ****************************
siesta:
siesta: The following are some of the parameters of the simulation.
siesta: A complete list of the parameters used, including default values,
siesta: can be found in file out.fdf
siesta:
redata: Spin configuration                          = none
redata: Number of spin components                   = 1
redata: Time-Reversal Symmetry                      = T
redata: Spin spiral                                 = F
redata: Long output                                 =   F
redata: Number of Atomic Species                    =        2
redata: Charge density info will appear in .RHO file
redata: Write Mulliken Pop.                         = NO
redata: Matel table size (NRTAB)                    =     1024
redata: Mesh Cutoff                                 =   300.0000 Ry
redata: Net charge of the system                    =     0.0000 |e|
redata: Min. number of SCF Iter                     =        0
redata: Max. number of SCF Iter                     =     1000
redata: SCF convergence failure will abort job
redata: SCF mix quantity                            = Hamiltonian
redata: Mix DM or H after convergence               =   F
redata: Recompute H after scf cycle                 =   F
redata: Mix DM in first SCF step                    =   T
redata: Write Pulay info on disk                    =   F
redata: New DM Occupancy tolerance                  = 0.000000000001
redata: No kicks to SCF
redata: DM Mixing Weight for Kicks                  =     0.5000
redata: Require Harris convergence for SCF          =   F
redata: Harris energy tolerance for SCF             =     0.000100 eV
redata: Require DM convergence for SCF              =   T
redata: DM tolerance for SCF                        =     0.001000
redata: Require EDM convergence for SCF             =   F
redata: EDM tolerance for SCF                       =     0.005000 eV
redata: Require H convergence for SCF               =   T
redata: Hamiltonian tolerance for SCF               =     0.001000 eV
redata: Require (free) Energy convergence for SCF   =   T
redata: (free) Energy tolerance for SCF             =     0.001000 eV
redata: Using Saved Data (generic)                  =   F
redata: Use continuation files for DM               =   F
redata: Neglect nonoverlap interactions             =   F
redata: Method of Calculation                       = Diagonalization
redata: Electronic Temperature                      =   299.9869 K
redata: Fix the spin of the system                  =   F
redata: Dynamics option                             = Single-point calculation
mix.SCF: Pulay mixing                            = Pulay
mix.SCF:    Variant                              = stable
mix.SCF:    History steps                        = 4
mix.SCF:    Linear mixing weight                 =     0.250000
mix.SCF:    Mixing weight                        =     0.250000
mix.SCF:    SVD condition                        = 0.1000E-07
redata: ***********************************************************************

%block SCF.Mixers
  Pulay
%endblock SCF.Mixers

%block SCF.Mixer.Pulay
  # Mixing method
  method pulay
  variant stable

  # Mixing options
  weight 0.2500
  weight.linear 0.2500
  history 4
%endblock SCF.Mixer.Pulay

DM_history_depth set to one: no extrapolation allowed by default for geometry relaxation
Size of DM history Fstack: 1
Total number of electrons:    22.000000
Total ionic charge:    22.000000

* ProcessorY, Blocksize:    4   1


* Orbital distribution balance (max,min):     2     1

k-point displ. along   1 input, could be:     0.00    0.50
k-point displ. along   2 input, could be:     0.00    0.50
k-point displ. along   3 input, could be:     0.00    0.50
 Kpoints in:           48 . Kpoints trimmed:           44

siesta: k-grid: Number of k-points =    44
siesta: k-grid: Cutoff (effective) =     8.632 Ang
siesta: k-grid: Supercell and displacements
siesta: k-grid:    4   0   0      0.000
siesta: k-grid:    0   4   0      0.000
siesta: k-grid:    0   0   4      0.000

diag: Algorithm                                     = Expert
diag: Parallel over k                               =   T
diag: Use parallel 2D distribution                  =   T
diag: Parallel block-size                           = 1
diag: Parallel distribution                         =     4 x     4
diag: Used triangular part                          = Lower
diag: Absolute tolerance                            =  0.100E-15
diag: Orthogonalization factor                      =  0.100E-05
diag: Memory factor                                 =  1.0000

superc: Internal auxiliary supercell:     9 x     9 x     7  =     567
superc: Number of atoms, orbitals, and projectors:  10773  12474  96957


ts: **************************************************************
ts: Save H and S matrices                           =    F
ts: Save DM and EDM matrices                        =    F
ts: Only save the overlap matrix S                  =    F
ts: **************************************************************

************************ Begin: TS CHECKS AND WARNINGS ************************
************************ End: TS CHECKS AND WARNINGS **************************


                     ====================================
                        Single-point calculation
                     ====================================

outcoor: Atomic coordinates (Ang):                          
    0.00000000    0.00000000    0.00000000   2       1  C-gga
   -0.70288177    1.21742694    0.99896429   1       2  Li-gga
   -1.45518323    2.52045129    4.99480945   1       3  Li-gga
    1.45518323    2.52045129    0.99896429   1       4  Li-gga
    0.70288177    1.21742694    4.99480945   1       5  Li-gga
    1.40576354    0.00000000    0.99896429   1       6  Li-gga
    2.91036646    0.00000000    4.99480945   1       7  Li-gga
   -1.45518323    2.52045129    0.99896429   1       8  Li-gga
   -0.70288177    1.21742694    4.99480945   1       9  Li-gga
    0.70288177    1.21742694    0.99896429   1      10  Li-gga
    1.45518323    2.52045129    4.99480945   1      11  Li-gga
    2.91036646    0.00000000    0.99896429   1      12  Li-gga
    1.40576354    0.00000000    4.99480945   1      13  Li-gga
   -0.70288177    1.21742694    2.99688687   1      14  Li-gga
   -1.45518323    2.52045129    2.99688687   1      15  Li-gga
    1.45518323    2.52045129    2.99688687   1      16  Li-gga
    0.70288177    1.21742694    2.99688687   1      17  Li-gga
    1.40576354    0.00000000    2.99688687   1      18  Li-gga
    2.91036646    0.00000000    2.99688687   1      19  Li-gga

superc: Internal auxiliary supercell:     9 x     9 x     7  =     567
superc: Number of atoms, orbitals, and projectors:  10773  12474  96957

outcell: Unit cell vectors (Ang):
        4.316130    0.000000    0.000000
       -2.158065    3.737878    0.000000
        0.000000    0.000000    5.993774

outcell: Cell vector modules (Ang)   :    4.316130    4.316130    5.993774
outcell: Cell angles (23,13,12) (deg):     90.0000     90.0000    120.0000
outcell: Cell volume (Ang**3)        :     96.6986
<dSpData1D:S at geom step 0
  <sparsity:sparsity for geom step 0
    nrows_g=22 nrows=2 sparsity=9.0640 nnzs=4387, refcount: 7>
  <dData1D:(new from dSpData1D) n=4387, refcount: 1>
refcount: 1>
new_DM -- step:     1
Initializing Density Matrix...
DM filled with atomic data:
<dSpData2D:DM initialized from atoms
  <sparsity:sparsity for geom step 0
    nrows_g=22 nrows=2 sparsity=9.0640 nnzs=4387, refcount: 8>
  <dData2D:DM n=4387 m=1, refcount: 1>
refcount: 1>
No. of atoms with KB's overlaping orbs in proc 0. Max # of overlaps:     399     409
New grid distribution:   1
           1       1:   20    1:    5    1:    8
           2       1:   20    1:    5    9:   16
           3       1:   20    1:    5   17:   24
           4       1:   20    1:    5   25:   32
           5       1:   20    6:   10    1:    8
           6       1:   20    6:   10    9:   16
           7       1:   20    6:   10   17:   24
           8       1:   20    6:   10   25:   32
           9       1:   20   11:   15    1:    8
          10       1:   20   11:   15    9:   16
          11       1:   20   11:   15   17:   24
          12       1:   20   11:   15   25:   32
          13       1:   20   16:   20    1:    8
          14       1:   20   16:   20    9:   16
          15       1:   20   16:   20   17:   24
          16       1:   20   16:   20   25:   32

InitMesh: MESH =    40 x    40 x    64 =      102400
InitMesh: (bp) =    20 x    20 x    32 =       12800
InitMesh: Mesh cutoff (required, used) =   300.000   315.109 Ry
ExtMesh (bp) on 0 =   156 x   141 x   144 =     3167424
New grid distribution:   2
           1       1:   10   11:   20   17:   24
           2      11:   20    1:   10    1:    8
           3      11:   20    1:   10   17:   24
           4      11:   20   11:   20    1:    8
           5       1:   10   11:   20   25:   32
           6      11:   20    1:   10    9:   16
           7      11:   20   11:   20    9:   16
           8      11:   20    1:   10   25:   32
           9       1:   10    1:   10   17:   24
          10       1:   10    1:   10    1:    8
          11      11:   20   11:   20   17:   24
          12       1:   10   11:   20    1:    8
          13       1:   10    1:   10   25:   32
          14       1:   10    1:   10    9:   16
          15       1:   10   11:   20    9:   16
          16      11:   20   11:   20   25:   32
New grid distribution:   3
           1       1:   10   11:   20   17:   24
           2      11:   20    1:   10    1:    8
           3      11:   20    1:   10   17:   24
           4      11:   20   11:   20    1:    8
           5       1:   10   11:   20   25:   32
           6      11:   20    1:   10    9:   16
           7      11:   20   11:   20    9:   16
           8      11:   20    1:   10   25:   32
           9       1:   10    1:   10   17:   24
          10       1:   10    1:   10    1:    8
          11      11:   20   11:   20   17:   24
          12       1:   10   11:   20    1:    8
          13       1:   10    1:   10   25:   32
          14       1:   10    1:   10    9:   16
          15       1:   10   11:   20    9:   16
          16      11:   20   11:   20   25:   32
Setting up quadratic distribution...
ExtMesh (bp) on 0 =   146 x   146 x   144 =     3069504
PhiOnMesh: Number of (b)points on node 0 =                  800
PhiOnMesh: nlist on node 0 =               170505

stepf: Fermi-Dirac step function

siesta: Program's energy decomposition (eV):
siesta: Ebs     =      -333.530394
siesta: Eions   =       439.895300
siesta: Ena     =        88.019437
siesta: Ekin    =       393.177621
siesta: Enl     =        54.844642
siesta: Eso     =         0.000000
siesta: Edftu   =         0.000000
siesta: DEna    =       -63.896403
siesta: DUscf   =        47.247375
siesta: DUext   =         0.000000
siesta: Exc     =      -263.386291
siesta: eta*DQ  =         0.000000
siesta: Emadel  =         0.000000
siesta: Emeta   =         0.000000
siesta: Emolmec =       -16.704696
siesta: Ekinion =         0.000000
siesta: Eharris =       -86.659571
siesta: Etot    =      -200.593615
siesta: FreeEng =      -200.597079

        iscf     Eharris(eV)        E_KS(eV)     FreeEng(eV)     dDmax    Ef(eV) dHmax(eV)
   scf:    1      -86.659571     -200.593615     -200.597079 12.409556-13.909409 23.389136
timer: Routine,Calls,Time,% = IterSCF        1       1.175  15.09
   scf:    2     -214.701673     -207.928596     -207.933823  1.721518-12.899479 14.725762
   scf:    3     -202.958495     -212.251827     -212.257516  7.814853 -8.883807  8.816931
   scf:    4     -199.952488     -211.265035     -211.270499  7.147993-12.075158 10.596783
   scf:    5     -216.554273     -215.698021     -215.704915  4.057312-10.622184  1.472521
   scf:    6     -215.864029     -215.800605     -215.804286  0.489788-10.977119  0.344990
   scf:    7     -215.807864     -215.805169     -215.808901  0.074781-11.104591  0.069285
   scf:    8     -215.805299     -215.805289     -215.809057  0.022241-11.148755  0.013772
   scf:    9     -215.805279     -215.805285     -215.809053  0.001528-11.151636  0.017099
   scf:   10     -215.805319     -215.805305     -215.809064  0.004098-11.146357  0.000593
   scf:   11     -215.805304     -215.805304     -215.809064  0.000152-11.146593  0.000022

SCF Convergence by FreeE+DM+H criterion
|FreeE_i-FreeE_(i-1)| (eV) <     0.00100000
max |DM_out - DM_in|         :     0.0001519116
max |H_out - H_in|      (eV) :     0.0000221744
SCF cycle converged after 11 iterations

Using DM_out to compute the final energy and forces
No. of atoms with KB's overlaping orbs in proc 0. Max # of overlaps:     399     409

MM-Stress (kbar):      110.05      110.05      655.72        0.00       -0.00       -0.00

siesta: E_KS(eV) =             -215.8053

siesta: E_KS - E_eggbox =      -215.8053

siesta: Atomic forces (eV/Ang):
     1   -0.000000    0.000000    0.000000
     2   -0.130215    0.225711   -1.305762
     3    0.130215   -0.225711    1.305762
     4   -0.130237   -0.225577   -1.305998
     5    0.130237    0.225577    1.305998
     6    0.260579    0.000086   -1.305761
     7   -0.260579   -0.000086    1.305761
     8    0.130215   -0.225711   -1.305762
     9   -0.130215    0.225711    1.305762
    10    0.130237    0.225577   -1.305998
    11   -0.130237   -0.225577    1.305998
    12   -0.260579   -0.000086   -1.305761
    13    0.260579    0.000086    1.305761
    14   -0.461438    0.799228   -0.000000
    15    0.461438   -0.799228   -0.000000
    16   -0.461452   -0.799259   -0.000000
    17    0.461452    0.799259   -0.000000
    18    0.922871   -0.000003   -0.000000
    19   -0.922871    0.000003   -0.000000
----------------------------------------
   Tot   -0.000000    0.000000    0.000000
----------------------------------------
   Max    1.305998
   Res    0.680396    sqrt( Sum f_i^2 / 3N )
----------------------------------------
   Max    1.305998    constrained

Stress tensor Voigt[x,y,z,yz,xz,xy] (kbar):    -3222.29    -3222.33    -1279.53       -0.00       -0.00       -0.04
(Free)E + p*V (eV/cell)      -60.4149
Target enthalpy (eV/cell)     -215.8091

siesta: Eigenvalues (eV):
  ik is       eps
   1  1  -24.2899  -23.5722  -22.8242  -22.6545  -22.4666  -22.0569  -21.5997  -21.4221  -20.7844  -12.4157
         -12.0980  -11.5033   -4.9538    5.1142    9.1316   11.3289   11.6220   12.0132   13.1684   13.4100
   14.0791   14.7779
   2  1  -24.3518  -23.7998  -22.3487  -21.6357  -21.1458  -20.0922  -19.7866  -17.5351  -14.8509  -12.7652
         -12.7558   -7.7099   -7.4998    0.4780    6.3089    9.1969   10.0608   11.0761   13.2904   16.8987
   18.0153   18.8092
   3  1  -24.3518  -23.7998  -22.3487  -21.6358  -21.1458  -20.0922  -19.7866  -17.5351  -14.8510  -12.7652
         -12.7557   -7.7099   -7.4996    0.4779    6.3089    9.1969   10.0608   11.0761   13.2904   16.8987
   18.0153   18.8091
   4  1  -24.2899  -23.5722  -22.8242  -22.6545  -22.4666  -22.0570  -21.5997  -21.4221  -20.7844  -12.4160
         -12.0977  -11.5033   -4.9537    5.1142    9.1316   11.3289   11.6221   12.0132   13.1685   13.4099
   14.0791   14.7779
   5  1  -24.3518  -23.7998  -22.3487  -21.6357  -21.1458  -20.0922  -19.7866  -17.5351  -14.8509  -12.7652
         -12.7558   -7.7099   -7.4998    0.4780    6.3089    9.1969   10.0608   11.0761   13.2904   16.8987
   18.0153   18.8092
   6  1  -24.3776  -23.8171  -22.3647  -17.1493  -17.1493  -16.8542  -15.1223  -15.1223  -14.2015   -9.4689
          -9.4686   11.0520   11.0520   11.0853   11.0853   11.1382   11.1382   12.2887   12.2888   15.0973
   18.2342   19.1426
   7  1  -24.3863  -23.4495  -23.4182  -22.5296  -22.4548  -21.9441  -21.6234  -17.6420  -16.5405  -13.6836
         -13.5504  -11.1655  -10.6305   -1.7137    4.9207    9.6323   10.0232   10.5874   12.2417   13.1669
   13.3662   13.4966
   8  1  -24.2899  -23.5722  -22.8242  -22.6545  -22.4666  -22.0570  -21.5997  -21.4221  -20.7844  -12.4160
         -12.0977  -11.5033   -4.9537    5.1142    9.1316   11.3289   11.6221   12.0132   13.1685   13.4099
   14.0791   14.7779
   9  1  -24.2899  -23.5722  -22.8242  -22.6545  -22.4666  -22.0570  -21.5997  -21.4221  -20.7844  -12.4160
         -12.0977  -11.5033   -4.9537    5.1142    9.1316   11.3289   11.6221   12.0132   13.1685   13.4099
   14.0791   14.7779
  10  1  -24.3863  -23.4495  -23.4182  -22.5296  -22.4548  -21.9441  -21.6234  -17.6420  -16.5405  -13.6836
         -13.5504  -11.1655  -10.6305   -1.7137    4.9207    9.6323   10.0232   10.5874   12.2417   13.1669
   13.3662   13.4966
  11  1  -24.2899  -23.5722  -22.8242  -22.6545  -22.4666  -22.0570  -21.5997  -21.4221  -20.7844  -12.4160
         -12.0977  -11.5033   -4.9537    5.1142    9.1316   11.3289   11.6221   12.0132   13.1685   13.4099
   14.0791   14.7779
  12  1  -24.3863  -23.4495  -23.4182  -22.5295  -22.4548  -21.9441  -21.6235  -17.6420  -16.5406  -13.6836
         -13.5504  -11.1651  -10.6305   -1.7140    4.9207    9.6322   10.0232   10.5875   12.2416   13.1668
   13.3662   13.4966
  13  1  -24.2239  -23.3815  -22.6517  -22.5408  -21.8693  -21.2786  -20.9948  -18.9681  -17.3912  -12.0969
         -11.6231  -11.5029   -2.9587    6.7093    9.7437   11.0703   11.3769   11.6534   13.4602   13.7218
   14.7977   15.0152
  14  1  -24.2901  -23.6986  -22.0104  -21.6896  -20.4636  -20.0474  -17.6097  -17.1383  -14.9908  -13.8407
         -12.0580   -9.0605   -4.6780    2.7340    5.7853    9.0786   10.1261   13.3402   14.2583   16.1191
   18.2360   19.4769
  15  1  -24.2901  -23.6986  -22.0104  -21.6897  -20.4637  -20.0474  -17.6097  -17.1383  -14.9908  -13.8406
         -12.0579   -9.0608   -4.6780    2.7341    5.7853    9.0785   10.1262   13.3402   14.2583   16.1191
   18.2360   19.4769
  16  1  -24.2239  -23.3815  -22.6517  -22.5408  -21.8693  -21.2785  -20.9948  -18.9682  -17.3912  -12.0968
         -11.6230  -11.5031   -2.9587    6.7093    9.7437   11.0703   11.3769   11.6534   13.4602   13.7217
   14.7977   15.0152
  17  1  -24.2901  -23.6986  -22.0104  -21.6896  -20.4636  -20.0474  -17.6097  -17.1383  -14.9908  -13.8407
         -12.0580   -9.0605   -4.6780    2.7340    5.7853    9.0786   10.1261   13.3402   14.2583   16.1191
   18.2360   19.4769
  18  1  -24.3112  -23.8235  -21.0780  -17.0904  -17.0904  -16.4191  -14.3504  -14.3504  -14.0751  -10.7341
         -10.7340    1.0440    1.0440    6.2038    6.2038    6.7933    6.7934    7.7260    7.7262   14.7623
   16.8979   20.3986
  19  1  -24.2901  -23.6986  -22.0104  -21.6896  -20.4636  -20.0474  -17.6097  -17.1383  -14.9908  -13.8407
         -12.0580   -9.0605   -4.6780    2.7340    5.7853    9.0786   10.1261   13.3402   14.2583   16.1191
   18.2360   19.4769
  20  1  -24.2818  -23.2809  -23.1735  -21.9782  -21.7014  -21.1441  -20.6767  -17.9927  -17.6751  -15.9221
         -11.1877   -9.7600   -9.7525   -1.0733    4.8085    9.7133   10.0371   11.8604   12.2522   12.9313
   13.9671   14.2807
  21  1  -24.2901  -23.6986  -22.0104  -21.6897  -20.4637  -20.0474  -17.6097  -17.1383  -14.9908  -13.8406
         -12.0579   -9.0608   -4.6780    2.7341    5.7853    9.0785   10.1262   13.3402   14.2583   16.1191
   18.2360   19.4769
  22  1  -24.2901  -23.6986  -22.0104  -21.6896  -20.4636  -20.0474  -17.6097  -17.1383  -14.9908  -13.8407
         -12.0580   -9.0605   -4.6780    2.7340    5.7853    9.0786   10.1261   13.3402   14.2583   16.1191
   18.2360   19.4769
  23  1  -24.2239  -23.3815  -22.6517  -22.5408  -21.8693  -21.2786  -20.9948  -18.9681  -17.3912  -12.0969
         -11.6231  -11.5029   -2.9587    6.7093    9.7437   11.0703   11.3769   11.6534   13.4602   13.7218
   14.7977   15.0152
  24  1  -24.2239  -23.3815  -22.6517  -22.5408  -21.8693  -21.2785  -20.9948  -18.9682  -17.3912  -12.0968
         -11.6230  -11.5031   -2.9587    6.7093    9.7437   11.0703   11.3769   11.6534   13.4602   13.7217
   14.7977   15.0152
  25  1  -24.2239  -23.3815  -22.6517  -22.5408  -21.8693  -21.2785  -20.9948  -18.9682  -17.3912  -12.0968
         -11.6230  -11.5031   -2.9587    6.7093    9.7437   11.0703   11.3769   11.6534   13.4602   13.7217
   14.7977   15.0152
  26  1  -24.2818  -23.2809  -23.1735  -21.9782  -21.7014  -21.1441  -20.6767  -17.9927  -17.6751  -15.9221
         -11.1877   -9.7600   -9.7525   -1.0733    4.8085    9.7133   10.0371   11.8604   12.2522   12.9313
   13.9671   14.2807
  27  1  -24.2239  -23.3815  -22.6517  -22.5408  -21.8693  -21.2785  -20.9948  -18.9682  -17.3912  -12.0968
         -11.6230  -11.5031   -2.9587    6.7093    9.7437   11.0703   11.3769   11.6534   13.4602   13.7217
   14.7977   15.0152
  28  1  -24.2818  -23.2809  -23.1735  -21.9782  -21.7014  -21.1441  -20.6767  -17.9927  -17.6751  -15.9221
         -11.1875   -9.7603   -9.7525   -1.0733    4.8084    9.7133   10.0371   11.8603   12.2522   12.9313
   13.9670   14.2807
  29  1  -24.1612  -23.2835  -22.5796  -22.4472  -21.6877  -21.1551  -15.5383  -13.9389  -13.5486  -11.7161
         -10.3810    2.5621    8.0819    9.1521    9.8280   11.4525   11.8986   13.2135   13.4944   14.4385
   14.7163   15.2888
  30  1  -24.2162  -23.6856  -22.1117  -21.4846  -18.2572  -17.7177  -17.7101  -17.6880  -14.2177  -13.7374
          -9.1590   -8.7770   -5.8238    5.1209    8.5668    8.9909   10.1994   13.4617   15.3605   17.8705
   18.3318   19.1257
  31  1  -24.2162  -23.6856  -22.1117  -21.4846  -18.2571  -17.7177  -17.7101  -17.6880  -14.2177  -13.7372
          -9.1593   -8.7769   -5.8237    5.1209    8.5668    8.9909   10.1995   13.4617   15.3605   17.8705
   18.3318   19.1256
  32  1  -24.1612  -23.2835  -22.5796  -22.4472  -21.6878  -21.1550  -15.5383  -13.9387  -13.5488  -11.7159
         -10.3810    2.5621    8.0818    9.1521    9.8280   11.4525   11.8986   13.2135   13.4945   14.4385
   14.7163   15.2887
  33  1  -24.2162  -23.6856  -22.1117  -21.4846  -18.2572  -17.7177  -17.7101  -17.6880  -14.2177  -13.7374
          -9.1590   -8.7770   -5.8238    5.1209    8.5668    8.9909   10.1994   13.4617   15.3605   17.8705
   18.3318   19.1257
  34  1  -24.2104  -23.9191  -18.8773  -16.9590  -16.9589  -15.1048  -12.4646  -12.4645  -11.3093  -11.3093
         -10.7948  -10.0597  -10.0597    3.1228    3.1232    4.8236    4.8237    4.8269    4.8269   14.4073
   16.1976   20.9899
  35  1  -24.2162  -23.6856  -22.1117  -21.4846  -18.2572  -17.7177  -17.7101  -17.6880  -14.2177  -13.7374
          -9.1590   -8.7770   -5.8238    5.1209    8.5668    8.9909   10.1994   13.4617   15.3605   17.8705
   18.3318   19.1257
  36  1  -24.1788  -23.1759  -23.0824  -21.8260  -19.8562  -19.4271  -18.0532  -17.7751  -15.2612  -13.0518
         -12.0835   -9.1663   -8.6872   -2.6577    6.3035    9.8019   10.0846   11.7131   12.3153   12.7290
   14.5723   14.8303
  37  1  -24.2162  -23.6856  -22.1117  -21.4846  -18.2571  -17.7177  -17.7101  -17.6880  -14.2177  -13.7372
          -9.1593   -8.7769   -5.8237    5.1209    8.5668    8.9909   10.1995   13.4617   15.3605   17.8705
   18.3318   19.1256
  38  1  -24.2162  -23.6856  -22.1117  -21.4846  -18.2572  -17.7177  -17.7101  -17.6880  -14.2177  -13.7374
          -9.1590   -8.7770   -5.8238    5.1209    8.5668    8.9909   10.1994   13.4617   15.3605   17.8705
   18.3318   19.1257
  39  1  -24.1612  -23.2835  -22.5796  -22.4472  -21.6877  -21.1551  -15.5383  -13.9389  -13.5486  -11.7161
         -10.3810    2.5621    8.0819    9.1521    9.8280   11.4525   11.8986   13.2135   13.4944   14.4385
   14.7163   15.2888
  40  1  -24.1612  -23.2835  -22.5796  -22.4472  -21.6878  -21.1550  -15.5383  -13.9387  -13.5488  -11.7159
         -10.3810    2.5621    8.0818    9.1521    9.8280   11.4525   11.8986   13.2135   13.4945   14.4385
   14.7163   15.2887
  41  1  -24.1612  -23.2835  -22.5796  -22.4472  -21.6878  -21.1550  -15.5383  -13.9387  -13.5488  -11.7159
         -10.3810    2.5621    8.0818    9.1521    9.8280   11.4525   11.8986   13.2135   13.4945   14.4385
   14.7163   15.2887
  42  1  -24.1788  -23.1759  -23.0824  -21.8260  -19.8562  -19.4271  -18.0532  -17.7751  -15.2612  -13.0518
         -12.0835   -9.1663   -8.6872   -2.6577    6.3035    9.8019   10.0846   11.7131   12.3153   12.7290
   14.5723   14.8303
  43  1  -24.1612  -23.2835  -22.5796  -22.4472  -21.6878  -21.1550  -15.5383  -13.9387  -13.5488  -11.7159
         -10.3810    2.5621    8.0818    9.1521    9.8280   11.4525   11.8986   13.2135   13.4945   14.4385
   14.7163   15.2887
  44  1  -24.1788  -23.1759  -23.0824  -21.8260  -19.8562  -19.4271  -18.0532  -17.7750  -15.2612  -13.0515
         -12.0835   -9.1666   -8.6872   -2.6577    6.3035    9.8019   10.0846   11.7130   12.3154   12.7290
   14.5723   14.8303
siesta: Fermi energy =     -11.146593 eV

siesta: Program's energy decomposition (eV):
siesta: Ebs     =      -421.289762
siesta: Eions   =       439.895300
siesta: Ena     =        88.019437
siesta: Ekin    =       350.048748
siesta: Enl     =        70.806408
siesta: Eso     =         0.000000
siesta: Edftu   =         0.000000
siesta: DEna    =       -31.392496
siesta: DUscf   =        15.801487
siesta: DUext   =         0.000000
siesta: Exc     =      -252.488892
siesta: eta*DQ  =         0.000000
siesta: Emadel  =         0.000000
siesta: Emeta   =         0.000000
siesta: Emolmec =       -16.704696
siesta: Ekinion =         0.000000
siesta: Eharris =      -215.805304
siesta: Etot    =      -215.805304
siesta: FreeEng =      -215.809064

siesta: Final energy (eV):
siesta:  Band Struct. =    -421.289762
siesta:       Kinetic =     350.048748
siesta:       Hartree =     127.583852
siesta:       Edftu   =       0.000000
siesta:       Eso     =       0.000000
siesta:    Ext. field =       0.000000
siesta:   Exch.-corr. =    -252.488892
siesta:  Ion-electron =    -761.498837
siesta:       Ion-ion =     337.254521
siesta:       Ekinion =       0.000000
siesta:         Total =    -215.805304
siesta:         Fermi =     -11.146593

siesta: Atomic forces (eV/Ang):
siesta:      1   -0.000000    0.000000    0.000000
siesta:      2   -0.130215    0.225711   -1.305762
siesta:      3    0.130215   -0.225711    1.305762
siesta:      4   -0.130237   -0.225577   -1.305998
siesta:      5    0.130237    0.225577    1.305998
siesta:      6    0.260579    0.000086   -1.305761
siesta:      7   -0.260579   -0.000086    1.305761
siesta:      8    0.130215   -0.225711   -1.305762
siesta:      9   -0.130215    0.225711    1.305762
siesta:     10    0.130237    0.225577   -1.305998
siesta:     11   -0.130237   -0.225577    1.305998
siesta:     12   -0.260579   -0.000086   -1.305761
siesta:     13    0.260579    0.000086    1.305761
siesta:     14   -0.461438    0.799228   -0.000000
siesta:     15    0.461438   -0.799228   -0.000000
siesta:     16   -0.461452   -0.799259   -0.000000
siesta:     17    0.461452    0.799259   -0.000000
siesta:     18    0.922871   -0.000003   -0.000000
siesta:     19   -0.922871    0.000003   -0.000000
siesta: ----------------------------------------
siesta:    Tot   -0.000000    0.000000    0.000000

siesta: Stress tensor (static) (eV/Ang**3):
siesta:    -2.011174   -0.000022   -0.000000
siesta:    -0.000022   -2.011199   -0.000000
siesta:    -0.000000   -0.000000   -0.798613

siesta: Cell volume =         96.698561 Ang**3

siesta: Pressure (static):
siesta:                Solid            Molecule  Units
siesta:           0.01750223          0.01657153  Ry/Bohr**3
siesta:           1.60699540          1.52154149  eV/Ang**3
siesta:        2574.71831353       2437.80457705  kBar
(Free)E+ p_basis*V_orbitals  =        -191.813352
(Free)Eharris+ p_basis*V_orbitals  =        -191.813352

cite: Please see "LiC18_scf.bib" for an exhaustive BiBTeX file.
cite: Please clearly indicate Siesta version in published work: 4.1.5
cite: This calculation has made use of the following articles
cite: which are encouraged to be cited in a published work.
        Primary SIESTA paper
          DOI: www.doi.org/10.1088/0953-8984/14/11/302

>> End of run:   9-NOV-2022  15:11:13
Job completed
