Siesta Version  : 4.1.5
Architecture    : x86_64-unknown-linux-gnu--unknown
Compiler version: GNU Fortran (GCC) 11.3.0
Compiler flags  : mpif90 -g -O2 -fallow-argument-mismatch
PP flags        : -DMPI -DFC_HAVE_FLUSH -DFC_HAVE_ABORT
Libraries       :  -I/global/software/sl-7.x86_64/modules/intel/2020.4.304/mkl/include  /globall/software/sl-7.x86_64/modules/intel/2020.4.304/mkl/lib/intel64/libmkl_scalapack_lp64.a -Wl,--start-group /global/software/sl-7.x86_64/modules/intel/2020.4.304/mkl/lib/intel64/libmkl_intel_lp64.a /global/software/sl-7.x86_64/modules/intel/2020.4.304/mkl/lib/intel64/libmkl_sequential.a /global/software/sl-7.x86_64/modules/intel/2020.4.304/mkl/lib/intel64/libmkl_core.a /global/software/sl-7.x86_64/modules/intel/2020.4.304/mkl/lib/intel64/libmkl_blacs_openmpi_lp64.a -Wl,--end-group -lpthread -lm -ldl
PARALLEL version

* Running on 16 nodes in parallel
>> Start of run:   9-NOV-2022  15:15:16

                           ***********************       
                           *  WELCOME TO SIESTA  *       
                           ***********************       

reinit: Reading from standard input
reinit: Dumped input in INPUT_TMP.91621
************************** Dump of input data file ****************************
SystemName LiC18_scf
SystemLabel LiC18_scf
NumberOfAtoms   19
NumberOfSpecies 2
%block ChemicalSpeciesLabel
1  3   Li-gga
2  6   C-gga
%endblock ChemicalSpeciesLabel
PAO.BasisSize  SZ
PAO.EnergyShift  10 meV
%block PS.Lmax
C-gga   2
Li-gga  2
%endblock PS.Lmax
LatticeConstant 1.000000 Ang
%block LatticeVectors
	4.3161300000	0.0000000000	0.0000000000
	-2.1580650000	3.7378782260	0.0000000000
	0.0000000000	0.0000000000	14.2074636800
%endblock LatticeVectors
AtomicCoordinatesFormat Ang
%block AtomicCoordinatesAndAtomicSpecies
	0.00000000	0.00000000	0.00000000	2
	-0.70288177	1.21742694	2.36791535	1
	-1.45518323	2.52045129	11.83954833	1
	1.45518323	2.52045129	2.36791535	1
	0.70288177	1.21742694	11.83954833	1
	1.40576354	0.00000000	2.36791535	1
	2.91036646	0.00000000	11.83954833	1
	-1.45518323	2.52045129	2.36791535	1
	-0.70288177	1.21742694	11.83954833	1
	0.70288177	1.21742694	2.36791535	1
	1.45518323	2.52045129	11.83954833	1
	2.91036646	0.00000000	2.36791535	1
	1.40576354	0.00000000	11.83954833	1
	-0.70288177	1.21742694	7.10373184	1
	-1.45518323	2.52045129	7.10373184	1
	1.45518323	2.52045129	7.10373184	1
	0.70288177	1.21742694	7.10373184	1
	1.40576354	0.00000000	7.10373184	1
	2.91036646	0.00000000	7.10373184	1
%endblock AtomicCoordinatesAndAtomicSpecies
Kgrid_NoTRS  T
%block kgrid_MonkhorstPack
4       0       0       0.0
0       4       0       0.0
0       0       4       0.0
%endblock kgrid_MonkhorstPack
AtomCoorFormatOut Ang
BlockSize 1
#ProcessorY 12
Diag.ParallelOverK   T
Diag.DivideAndConquer F
MeshCutoff   300 Ry
SCF.FreeE.Tolerance 1E-3 eV
SCF.EDM.Tolerance   5E-3 eV
DM.Tolerance  1E-3
DM.Require.Energy.Convergence T
DM.NumberPulay 4
XC.Functional GGA
XC.Authors    PBE
UseSaveData        F
MD.TypeOfRun       CG
MD.VariableCell    F
MD.NumCGsteps      00
MD.MaxCGDispl      0.200000 Bohr
MD.MaxStressTol    1.000000 GPa
MD.MaxForceTol     0.010000 eV/Ang
WriteMDHistory T
WriteCoorStep T
WriteForces T
WriteCoorStep    T
WriteEigenValues T
WriteDM    F
MM.UnitsDistance Ang  # what this program prints out DO NOT CHANGE
MM.UnitsEnergy    eV  # what this program prints out DO NOT CHANGE
MM.Grimme.S6     0.75 # Grimme-paper for PBE (correct for your functional)
MM.Grimme.D     20.   # Grimme-paper (correct for your functional)
%block MM.Potentials
  1   1 Grimme     16.69      1.650 # Li, 10.1002/jcc.20495
  1   2 Grimme     17.40      2.277 # Li / C
  2   2 Grimme     18.14      2.904 # C, 10.1002/jcc.20495
%endblock MM.Potentials
#%block ProjectedDensityOfStates
# -200.0  120.0  0.4  12800  eV
#%endblock ProjectedDensityOfStates
************************** End of input data file *****************************

reinit: -----------------------------------------------------------------------
reinit: System Name: LiC18_scf
reinit: -----------------------------------------------------------------------
reinit: System Label: LiC18_scf
reinit: -----------------------------------------------------------------------
Reading two-body potentials
Grimme - two-body potential between 1 and 1
Grimme - two-body potential between 1 and 2
Grimme - two-body potential between 2 and 2

initatom: Reading input for the pseudopotentials and atomic orbitals ----------
Species number:   1 Atomic number:    3 Label: Li-gga
Species number:   2 Atomic number:    6 Label: C-gga

Ground state valence configuration:   2s01
Reading pseudopotential information in formatted form from Li-gga.psf

Valence configuration for pseudopotential generation:
2s( 1.00) rc: 2.28
2p( 0.00) rc: 2.28
3d( 0.00) rc: 2.59
4f( 0.00) rc: 2.59
Ground state valence configuration:   2s02  2p02
Reading pseudopotential information in formatted form from C-gga.psf

Valence configuration for pseudopotential generation:
2s( 2.00) rc: 1.56
2p( 2.00) rc: 1.56
3d( 0.00) rc: 1.56
4f( 0.00) rc: 1.56
relmxkb: Read Max KB Ang. Momentum=    2 for species C-gga
relmxkb: Read Max KB Ang. Momentum=    2 for species Li-gga

<basis_specs>
===============================================================================
Li-gga               Z=   3    Mass=  6.9400        Charge= 0.17977+309
Lmxo=0 Lmxkb= 2    BasisType=split      Semic=F
L=0  Nsemic=0  Cnfigmx=2
          i=1  nzeta=1  polorb=0  (2s)
            splnorm:   0.15000    
               vcte:    0.0000    
               rinn:    0.0000    
               qcoe:    0.0000    
               qyuk:    0.0000    
               qwid:   0.10000E-01
                rcs:    0.0000    
            lambdas:    1.0000    
-------------------------------------------------------------------------------
L=0  Nkbl=1  erefs: 0.17977+309
L=1  Nkbl=1  erefs: 0.17977+309
L=2  Nkbl=1  erefs: 0.17977+309
===============================================================================
</basis_specs>

atom: Called for Li-gga                (Z =   3)

read_vps: Pseudopotential generation method:
read_vps: ATM 3.2.2 Troullier-Martins                       
Valence charge for ps generation:    1.00000

read_vps: Pseudopotential includes a core correction:
read_vps: Pseudo-core for xc-correction

xc_check: Exchange-correlation functional:
xc_check: GGA Perdew, Burke & Ernzerhof 1996
V l=0 = -2*Zval/r beyond r=  2.2278
V l=1 = -2*Zval/r beyond r=  2.2278
V l=2 = -2*Zval/r beyond r=  2.5245
All V_l potentials equal beyond r=  2.4622
This should be close to max(r_c) in ps generation
All pots = -2*Zval/r beyond r=  2.5245

VLOCAL1: 99.0% of the norm of Vloc inside      7.160 Ry
VLOCAL1: 99.9% of the norm of Vloc inside     16.318 Ry
atom: Maximum radius for 4*pi*r*r*local-pseudopot. charge    2.86079
atom: Maximum radius for r*vlocal+2*Zval:    2.43160
GHOST: No ghost state for L =  0
GHOST: No ghost state for L =  1
GHOST: No ghost state for L =  2

KBgen: Kleinman-Bylander projectors: 
   l= 0   rc=  2.654023   el= -0.211234   Ekb=  1.742119   kbcos=  0.228463
   l= 1   rc=  2.721230   el= -0.080095   Ekb= -1.122375   kbcos= -0.147941
   l= 2   rc=  2.825246   el=  0.002001   Ekb= -0.207076   kbcos= -0.031965

KBgen: Total number of Kleinman-Bylander projectors:    9
atom: -------------------------------------------------------------------------

atom: SANKEY-TYPE ORBITALS:

SPLIT: Orbitals with angular momentum L= 0

SPLIT: Basis orbitals for state 2s

SPLIT: PAO cut-off radius determined from an
SPLIT: energy shift=  0.000735 Ry

   izeta = 1
                 lambda =    1.000000
                     rc =   11.897381
                 energy =   -0.210580
                kinetic =    0.143382
    potential(screened) =   -0.353962
       potential(ionic) =   -0.533453
atom: Total number of Sankey-type orbitals:  1

atm_pop: Valence configuration (for local Pseudopot. screening):
 2s( 1.00)                                                            
Vna: chval, zval:    1.00000   1.00000

Vna:  Cut-off radius for the neutral-atom potential:  11.897381
comcore: Pseudo-core radius Rcore=  3.450946

atom: _________________________________________________________________________

<basis_specs>
===============================================================================
C-gga                Z=   6    Mass=  12.010        Charge= 0.17977+309
Lmxo=1 Lmxkb= 2    BasisType=split      Semic=F
L=0  Nsemic=0  Cnfigmx=2
          i=1  nzeta=1  polorb=0  (2s)
            splnorm:   0.15000    
               vcte:    0.0000    
               rinn:    0.0000    
               qcoe:    0.0000    
               qyuk:    0.0000    
               qwid:   0.10000E-01
                rcs:    0.0000    
            lambdas:    1.0000    
L=1  Nsemic=0  Cnfigmx=2
          i=1  nzeta=1  polorb=0  (2p)
            splnorm:   0.15000    
               vcte:    0.0000    
               rinn:    0.0000    
               qcoe:    0.0000    
               qyuk:    0.0000    
               qwid:   0.10000E-01
                rcs:    0.0000    
            lambdas:    1.0000    
-------------------------------------------------------------------------------
L=0  Nkbl=1  erefs: 0.17977+309
L=1  Nkbl=1  erefs: 0.17977+309
L=2  Nkbl=1  erefs: 0.17977+309
===============================================================================
</basis_specs>

atom: Called for C-gga                 (Z =   6)

read_vps: Pseudopotential generation method:
read_vps: ATM 3.2.2 Troullier-Martins                       
Valence charge for ps generation:    4.00000

xc_check: Exchange-correlation functional:
xc_check: GGA Perdew, Burke & Ernzerhof 1996
V l=0 = -2*Zval/r beyond r=  1.5227
V l=1 = -2*Zval/r beyond r=  1.5227
V l=2 = -2*Zval/r beyond r=  1.5227
All V_l potentials equal beyond r=  1.4851
This should be close to max(r_c) in ps generation
All pots = -2*Zval/r beyond r=  1.5227

VLOCAL1: 99.0% of the norm of Vloc inside     19.682 Ry
VLOCAL1: 99.9% of the norm of Vloc inside     44.856 Ry
atom: Maximum radius for 4*pi*r*r*local-pseudopot. charge    1.79142
atom: Maximum radius for r*vlocal+2*Zval:    1.54183
GHOST: No ghost state for L =  0
GHOST: No ghost state for L =  1
GHOST: No ghost state for L =  2

KBgen: Kleinman-Bylander projectors: 
   l= 0   rc=  1.661951   el= -1.010689   Ekb=  5.289847   kbcos=  0.316429
   l= 1   rc=  1.661951   el= -0.388490   Ekb= -4.102504   kbcos= -0.351025
   l= 2   rc=  1.747182   el=  0.001971   Ekb= -1.006005   kbcos= -0.008530

KBgen: Total number of Kleinman-Bylander projectors:    9
atom: -------------------------------------------------------------------------

atom: SANKEY-TYPE ORBITALS:

SPLIT: Orbitals with angular momentum L= 0

SPLIT: Basis orbitals for state 2s

SPLIT: PAO cut-off radius determined from an
SPLIT: energy shift=  0.000735 Ry

   izeta = 1
                 lambda =    1.000000
                     rc =    5.948690
                 energy =   -1.010099
                kinetic =    0.827121
    potential(screened) =   -1.837220
       potential(ionic) =   -5.392783

SPLIT: Orbitals with angular momentum L= 1

SPLIT: Basis orbitals for state 2p

SPLIT: PAO cut-off radius determined from an
SPLIT: energy shift=  0.000735 Ry

   izeta = 1
                 lambda =    1.000000
                     rc =    7.638387
                 energy =   -0.387843
                kinetic =    2.314739
    potential(screened) =   -2.702582
       potential(ionic) =   -6.092371
atom: Total number of Sankey-type orbitals:  4

atm_pop: Valence configuration (for local Pseudopot. screening):
 2s( 2.00)                                                            
 2p( 2.00)                                                            
Vna: chval, zval:    4.00000   4.00000

Vna:  Cut-off radius for the neutral-atom potential:   7.638387

atom: _________________________________________________________________________

prinput: Basis input ----------------------------------------------------------

PAO.BasisType split     

%block ChemicalSpeciesLabel
    1    3 Li-gga                  # Species index, atomic number, species label
    2    6 C-gga                   # Species index, atomic number, species label
%endblock ChemicalSpeciesLabel

%block PAO.Basis                 # Define Basis set
Li-gga                1                    # Species label, number of l-shells
 n=2   0   1                         # n, l, Nzeta 
  11.897   
   1.000   
C-gga                 2                    # Species label, number of l-shells
 n=2   0   1                         # n, l, Nzeta 
   5.949   
   1.000   
 n=2   1   1                         # n, l, Nzeta 
   7.638   
   1.000   
%endblock PAO.Basis

prinput: ----------------------------------------------------------------------

coor:   Atomic-coordinates input format  =     Cartesian coordinates
coor:                                          (in Angstroms)

siesta: Atomic coordinates (Bohr) and species
siesta:      0.00000   0.00000   0.00000  2        1
siesta:     -1.32825   2.30060   4.47471  1        2
siesta:     -2.74990   4.76296  22.37351  1        3
siesta:      2.74990   4.76296   4.47471  1        4
siesta:      1.32825   2.30060  22.37351  1        5
siesta:      2.65651   0.00000   4.47471  1        6
siesta:      5.49980   0.00000  22.37351  1        7
siesta:     -2.74990   4.76296   4.47471  1        8
siesta:     -1.32825   2.30060  22.37351  1        9
siesta:      1.32825   2.30060   4.47471  1       10
siesta:      2.74990   4.76296  22.37351  1       11
siesta:      5.49980   0.00000   4.47471  1       12
siesta:      2.65651   0.00000  22.37351  1       13
siesta:     -1.32825   2.30060  13.42411  1       14
siesta:     -2.74990   4.76296  13.42411  1       15
siesta:      2.74990   4.76296  13.42411  1       16
siesta:      1.32825   2.30060  13.42411  1       17
siesta:      2.65651   0.00000  13.42411  1       18
siesta:      5.49980   0.00000  13.42411  1       19

siesta: System type = bulk      

initatomlists: Number of atoms, orbitals, and projectors:     19    22   171

siesta: ******************** Simulation parameters ****************************
siesta:
siesta: The following are some of the parameters of the simulation.
siesta: A complete list of the parameters used, including default values,
siesta: can be found in file out.fdf
siesta:
redata: Spin configuration                          = none
redata: Number of spin components                   = 1
redata: Time-Reversal Symmetry                      = T
redata: Spin spiral                                 = F
redata: Long output                                 =   F
redata: Number of Atomic Species                    =        2
redata: Charge density info will appear in .RHO file
redata: Write Mulliken Pop.                         = NO
redata: Matel table size (NRTAB)                    =     1024
redata: Mesh Cutoff                                 =   300.0000 Ry
redata: Net charge of the system                    =     0.0000 |e|
redata: Min. number of SCF Iter                     =        0
redata: Max. number of SCF Iter                     =     1000
redata: SCF convergence failure will abort job
redata: SCF mix quantity                            = Hamiltonian
redata: Mix DM or H after convergence               =   F
redata: Recompute H after scf cycle                 =   F
redata: Mix DM in first SCF step                    =   T
redata: Write Pulay info on disk                    =   F
redata: New DM Occupancy tolerance                  = 0.000000000001
redata: No kicks to SCF
redata: DM Mixing Weight for Kicks                  =     0.5000
redata: Require Harris convergence for SCF          =   F
redata: Harris energy tolerance for SCF             =     0.000100 eV
redata: Require DM convergence for SCF              =   T
redata: DM tolerance for SCF                        =     0.001000
redata: Require EDM convergence for SCF             =   F
redata: EDM tolerance for SCF                       =     0.005000 eV
redata: Require H convergence for SCF               =   T
redata: Hamiltonian tolerance for SCF               =     0.001000 eV
redata: Require (free) Energy convergence for SCF   =   T
redata: (free) Energy tolerance for SCF             =     0.001000 eV
redata: Using Saved Data (generic)                  =   F
redata: Use continuation files for DM               =   F
redata: Neglect nonoverlap interactions             =   F
redata: Method of Calculation                       = Diagonalization
redata: Electronic Temperature                      =   299.9869 K
redata: Fix the spin of the system                  =   F
redata: Dynamics option                             = Single-point calculation
mix.SCF: Pulay mixing                            = Pulay
mix.SCF:    Variant                              = stable
mix.SCF:    History steps                        = 4
mix.SCF:    Linear mixing weight                 =     0.250000
mix.SCF:    Mixing weight                        =     0.250000
mix.SCF:    SVD condition                        = 0.1000E-07
redata: ***********************************************************************

%block SCF.Mixers
  Pulay
%endblock SCF.Mixers

%block SCF.Mixer.Pulay
  # Mixing method
  method pulay
  variant stable

  # Mixing options
  weight 0.2500
  weight.linear 0.2500
  history 4
%endblock SCF.Mixer.Pulay

DM_history_depth set to one: no extrapolation allowed by default for geometry relaxation
Size of DM history Fstack: 1
Total number of electrons:    22.000000
Total ionic charge:    22.000000

* ProcessorY, Blocksize:    4   1


* Orbital distribution balance (max,min):     2     1

k-point displ. along   1 input, could be:     0.00    0.50
k-point displ. along   2 input, could be:     0.00    0.50
k-point displ. along   3 input, could be:     0.00    0.50
 Kpoints in:           48 . Kpoints trimmed:           44

siesta: k-grid: Number of k-points =    44
siesta: k-grid: Cutoff (effective) =     8.632 Ang
siesta: k-grid: Supercell and displacements
siesta: k-grid:    4   0   0      0.000
siesta: k-grid:    0   4   0      0.000
siesta: k-grid:    0   0   4      0.000

diag: Algorithm                                     = Expert
diag: Parallel over k                               =   T
diag: Use parallel 2D distribution                  =   T
diag: Parallel block-size                           = 1
diag: Parallel distribution                         =     4 x     4
diag: Used triangular part                          = Lower
diag: Absolute tolerance                            =  0.100E-15
diag: Orthogonalization factor                      =  0.100E-05
diag: Memory factor                                 =  1.0000

superc: Internal auxiliary supercell:     9 x     9 x     3  =     243
superc: Number of atoms, orbitals, and projectors:   4617   5346  41553


ts: **************************************************************
ts: Save H and S matrices                           =    F
ts: Save DM and EDM matrices                        =    F
ts: Only save the overlap matrix S                  =    F
ts: **************************************************************

************************ Begin: TS CHECKS AND WARNINGS ************************
************************ End: TS CHECKS AND WARNINGS **************************


                     ====================================
                        Single-point calculation
                     ====================================

outcoor: Atomic coordinates (Ang):                          
    0.00000000    0.00000000    0.00000000   2       1  C-gga
   -0.70288177    1.21742694    2.36791535   1       2  Li-gga
   -1.45518323    2.52045129   11.83954833   1       3  Li-gga
    1.45518323    2.52045129    2.36791535   1       4  Li-gga
    0.70288177    1.21742694   11.83954833   1       5  Li-gga
    1.40576354    0.00000000    2.36791535   1       6  Li-gga
    2.91036646    0.00000000   11.83954833   1       7  Li-gga
   -1.45518323    2.52045129    2.36791535   1       8  Li-gga
   -0.70288177    1.21742694   11.83954833   1       9  Li-gga
    0.70288177    1.21742694    2.36791535   1      10  Li-gga
    1.45518323    2.52045129   11.83954833   1      11  Li-gga
    2.91036646    0.00000000    2.36791535   1      12  Li-gga
    1.40576354    0.00000000   11.83954833   1      13  Li-gga
   -0.70288177    1.21742694    7.10373184   1      14  Li-gga
   -1.45518323    2.52045129    7.10373184   1      15  Li-gga
    1.45518323    2.52045129    7.10373184   1      16  Li-gga
    0.70288177    1.21742694    7.10373184   1      17  Li-gga
    1.40576354    0.00000000    7.10373184   1      18  Li-gga
    2.91036646    0.00000000    7.10373184   1      19  Li-gga

superc: Internal auxiliary supercell:     9 x     9 x     3  =     243
superc: Number of atoms, orbitals, and projectors:   4617   5346  41553

outcell: Unit cell vectors (Ang):
        4.316130    0.000000    0.000000
       -2.158065    3.737878    0.000000
        0.000000    0.000000   14.207464

outcell: Cell vector modules (Ang)   :    4.316130    4.316130   14.207464
outcell: Cell angles (23,13,12) (deg):     90.0000     90.0000    120.0000
outcell: Cell volume (Ang**3)        :    229.2114
<dSpData1D:S at geom step 0
  <sparsity:sparsity for geom step 0
    nrows_g=22 nrows=2 sparsity=3.4525 nnzs=1671, refcount: 7>
  <dData1D:(new from dSpData1D) n=1671, refcount: 1>
refcount: 1>
new_DM -- step:     1
Initializing Density Matrix...
DM filled with atomic data:
<dSpData2D:DM initialized from atoms
  <sparsity:sparsity for geom step 0
    nrows_g=22 nrows=2 sparsity=3.4525 nnzs=1671, refcount: 8>
  <dData2D:DM n=1671 m=1, refcount: 1>
refcount: 1>
No. of atoms with KB's overlaping orbs in proc 0. Max # of overlaps:     178     169
New grid distribution:   1
           1       1:   20    1:    5    1:   19
           2       1:   20    1:    5   20:   38
           3       1:   20    1:    5   39:   57
           4       1:   20    1:    5   58:   75
           5       1:   20    6:   10    1:   19
           6       1:   20    6:   10   20:   38
           7       1:   20    6:   10   39:   57
           8       1:   20    6:   10   58:   75
           9       1:   20   11:   15    1:   19
          10       1:   20   11:   15   20:   38
          11       1:   20   11:   15   39:   57
          12       1:   20   11:   15   58:   75
          13       1:   20   16:   20    1:   19
          14       1:   20   16:   20   20:   38
          15       1:   20   16:   20   39:   57
          16       1:   20   16:   20   58:   75

InitMesh: MESH =    40 x    40 x   150 =      240000
InitMesh: (bp) =    20 x    20 x    75 =       30000
InitMesh: Mesh cutoff (required, used) =   300.000   308.071 Ry
ExtMesh (bp) on 0 =   156 x   141 x   155 =     3409380
New grid distribution:   2
           1      11:   20    1:   10    1:   16
           2      11:   20    1:   10   17:   37
           3       1:   10    1:   10   38:   58
           4       1:   10    1:   10   59:   75
           5       1:   10    1:   10    1:   16
           6       1:   10    1:   10   17:   37
           7      11:   20    1:   10   38:   58
           8      11:   20    1:   10   59:   75
           9      11:   20   11:   20    1:   16
          10      11:   20   11:   20   17:   37
          11       1:   10   11:   20   38:   58
          12       1:   10   11:   20   59:   75
          13       1:   10   11:   20    1:   16
          14       1:   10   11:   20   17:   37
          15      11:   20   11:   20   38:   58
          16      11:   20   11:   20   59:   75
New grid distribution:   3
           1      11:   20    1:   10    1:   19
           2       1:   10    1:   10    1:   19
           3       1:   10    1:   10   39:   57
           4       1:   10    1:   10   58:   75
           5       1:   10   11:   20   39:   57
           6       1:   10    1:   10   20:   38
           7      11:   20    1:   10   39:   57
           8      11:   20    1:   10   58:   75
           9      11:   20    1:   10   20:   38
          10      11:   20   11:   20   20:   38
          11      11:   20   11:   20   39:   57
          12       1:   10   11:   20   58:   75
          13       1:   10   11:   20    1:   19
          14       1:   10   11:   20   20:   38
          15      11:   20   11:   20    1:   19
          16      11:   20   11:   20   58:   75
Setting up quadratic distribution...
ExtMesh (bp) on 0 =   146 x   146 x   152 =     3240032
PhiOnMesh: Number of (b)points on node 0 =                 1600
PhiOnMesh: nlist on node 0 =               154179

stepf: Fermi-Dirac step function

siesta: Program's energy decomposition (eV):
siesta: Ebs     =       129.719611
siesta: Eions   =       439.895300
siesta: Ena     =       152.475061
siesta: Ekin    =       294.606864
siesta: Enl     =        47.641962
siesta: Eso     =         0.000000
siesta: Edftu   =         0.000000
siesta: DEna    =       -40.718537
siesta: DUscf   =        94.858200
siesta: DUext   =         0.000000
siesta: Exc     =      -226.294549
siesta: eta*DQ  =         0.000000
siesta: Emadel  =         0.000000
siesta: Emeta   =         0.000000
siesta: Emolmec =        -7.520761
siesta: Ekinion =         0.000000
siesta: Eharris =        93.601623
siesta: Etot    =      -124.847062
siesta: FreeEng =      -124.850627

        iscf     Eharris(eV)        E_KS(eV)     FreeEng(eV)     dDmax    Ef(eV) dHmax(eV)
   scf:    1       93.601623     -124.847062     -124.850627  1.887152 -4.512159 50.961174
timer: Routine,Calls,Time,% = IterSCF        1       0.507  14.97
   scf:    2       27.690881     -152.960918     -152.965417 18.978547  1.439408 39.395059
   scf:    3     -210.966788     -195.172352     -195.193380  8.165493 -1.558499  7.059272
   scf:    4     -167.302385     -183.537064     -183.546406  6.200793 -0.245551 19.457855
   scf:    5     -191.965971     -196.305177     -196.317336  8.747081 -2.386780  5.135113
   scf:    6     -193.993026     -196.737880     -196.750128  2.693059 -2.162779  4.388268
   scf:    7     -195.931140     -197.127696     -197.144686  1.760237 -2.406815  2.576724
   scf:    8     -197.012170     -197.264905     -197.281586  0.799544 -2.490320  0.549788
   scf:    9     -197.424324     -197.377440     -197.405529  0.468126 -2.407189  0.180287
   scf:   10     -197.375042     -197.379184     -197.406287  0.073946 -2.418189  0.181551
   scf:   11     -197.379544     -197.380028     -197.407715  0.034392 -2.413783  0.011160
   scf:   12     -197.379828     -197.379937     -197.407690  0.008230 -2.419398  0.033810
   scf:   13     -197.379962     -197.380051     -197.407684  0.019304 -2.416871  0.043991
   scf:   14     -197.380129     -197.380117     -197.407749  0.009602 -2.418416  0.003050
   scf:   15     -197.380113     -197.380115     -197.407749  0.000557 -2.418527  0.000689

SCF Convergence by FreeE+DM+H criterion
|FreeE_i-FreeE_(i-1)| (eV) <     0.00100000
max |DM_out - DM_in|         :     0.0005574565
max |H_out - H_in|      (eV) :     0.0006890265
SCF cycle converged after 15 iterations

Using DM_out to compute the final energy and forces
No. of atoms with KB's overlaping orbs in proc 0. Max # of overlaps:     178     169

MM-Stress (kbar):      -11.44      -11.44       19.79        0.00       -0.00       -0.00

siesta: E_KS(eV) =             -197.3801

siesta: E_KS - E_eggbox =      -197.3801

siesta: Atomic forces (eV/Ang):
     1   -0.000000    0.000000    0.000000
     2   -0.276259    0.478469   -0.536545
     3    0.276259   -0.478469    0.536545
     4   -0.276274   -0.478521   -0.536509
     5    0.276274    0.478521    0.536509
     6    0.552496   -0.000013   -0.536545
     7   -0.552496    0.000013    0.536545
     8    0.276259   -0.478469   -0.536545
     9   -0.276259    0.478469    0.536545
    10    0.276274    0.478521   -0.536509
    11   -0.276274   -0.478521    0.536509
    12   -0.552496    0.000013   -0.536545
    13    0.552496   -0.000013    0.536545
    14   -0.383306    0.663858   -0.000000
    15    0.383306   -0.663858   -0.000000
    16   -0.383315   -0.663921   -0.000000
    17    0.383315    0.663921   -0.000000
    18    0.766571   -0.000023   -0.000000
    19   -0.766571    0.000023    0.000000
----------------------------------------
   Tot   -0.000000   -0.000000    0.000000
----------------------------------------
   Max    0.766571
   Res    0.432123    sqrt( Sum f_i^2 / 3N )
----------------------------------------
   Max    0.766571    constrained

Stress tensor Voigt[x,y,z,yz,xz,xy] (kbar):    -1629.26    -1629.26      213.27       -0.00       -0.00       -0.00
(Free)E + p*V (eV/cell)      -52.1894
Target enthalpy (eV/cell)     -197.4077

siesta: Eigenvalues (eV):
  ik is       eps
   1  1  -12.8507  -12.6442  -12.1578  -11.1562  -11.0637  -11.0073  -10.5909  -10.4149  -10.3491   -7.8581
          -2.4733   -2.4034   -2.0601   17.3097   17.6149   19.1221   19.3371   19.3451   19.5121   19.7903
   20.2707   20.2870
   2  1  -13.4787  -13.2948  -12.8451  -10.1098   -9.8210   -9.2481   -8.0799   -4.2739   -3.5211   -3.4056
          -2.5450   -2.1383    0.2747    0.7349    1.7517    2.1084   19.6713   21.2869   21.3000   22.2987
   22.7978   22.8963
   3  1  -13.4787  -13.2948  -12.8451  -10.1098   -9.8210   -9.2481   -8.0799   -4.2739   -3.5211   -3.4056
          -2.5450   -2.1382    0.2747    0.7348    1.7517    2.1085   19.6713   21.2868   21.2999   22.2987
   22.7978   22.8963
   4  1  -12.8507  -12.6442  -12.1578  -11.1562  -11.0637  -11.0073  -10.5909  -10.4149  -10.3491   -7.8581
          -2.4733   -2.4033   -2.0602   17.3097   17.6149   19.1222   19.3371   19.3451   19.5121   19.7903
   20.2707   20.2870
   5  1  -13.4787  -13.2948  -12.8451  -10.1098   -9.8210   -9.2481   -8.0799   -4.2739   -3.5211   -3.4056
          -2.5450   -2.1383    0.2747    0.7349    1.7517    2.1084   19.6713   21.2869   21.3000   22.2987
   22.7978   22.8963
   6  1  -13.8779  -13.6397  -13.2063   -9.0074   -3.6823   -2.5366   -2.5366    5.3901    5.3901    5.7640
           5.7640    6.9683    6.9683    7.9812    7.9812    8.1338    8.1338   11.0869   11.0870   23.8563
   24.3794   24.3881
   7  1  -12.7965  -12.3620  -12.2877  -11.8384  -11.8359  -11.5840   -8.5116   -5.4302   -4.7992   -4.0850
          -4.0530   -3.0406   -2.6409   -1.5645   -0.0593    0.0492   18.0542   18.3531   18.4906   18.7739
   19.0174   19.2809
   8  1  -12.8507  -12.6442  -12.1578  -11.1562  -11.0637  -11.0073  -10.5909  -10.4149  -10.3491   -7.8581
          -2.4733   -2.4033   -2.0602   17.3097   17.6149   19.1222   19.3371   19.3451   19.5121   19.7903
   20.2707   20.2870
   9  1  -12.8507  -12.6442  -12.1578  -11.1562  -11.0637  -11.0073  -10.5909  -10.4149  -10.3491   -7.8581
          -2.4733   -2.4033   -2.0602   17.3097   17.6149   19.1222   19.3371   19.3451   19.5121   19.7903
   20.2707   20.2870
  10  1  -12.7965  -12.3620  -12.2877  -11.8384  -11.8359  -11.5840   -8.5116   -5.4302   -4.7992   -4.0850
          -4.0530   -3.0406   -2.6409   -1.5645   -0.0593    0.0492   18.0542   18.3531   18.4906   18.7739
   19.0174   19.2809
  11  1  -12.8507  -12.6442  -12.1578  -11.1562  -11.0637  -11.0073  -10.5909  -10.4149  -10.3491   -7.8581
          -2.4733   -2.4033   -2.0602   17.3097   17.6149   19.1222   19.3371   19.3451   19.5121   19.7903
   20.2707   20.2870
  12  1  -12.7965  -12.3620  -12.2877  -11.8384  -11.8359  -11.5840   -8.5116   -5.4302   -4.7992   -4.0850
          -4.0530   -3.0406   -2.6408   -1.5645   -0.0594    0.0492   18.0541   18.3531   18.4906   18.7739
   19.0174   19.2809
  13  1  -12.8460  -12.6512  -12.1329  -11.1475  -11.0626  -11.0456  -10.5669  -10.4105  -10.3540   -7.9215
          -2.4409   -2.4045   -2.0752   17.3698   17.7112   18.7915   18.9383   19.6057   19.6290   19.9216
   20.2419   20.3802
  14  1  -13.4620  -13.3375  -12.7824  -10.1180   -9.8641   -9.2099   -8.1410   -4.2470   -3.5049   -3.4660
          -2.4358   -2.1588    0.2794    0.6888    1.7289    2.1415   19.7168   20.8320   21.7229   22.3019
   22.7872   22.9080
  15  1  -13.4620  -13.3375  -12.7824  -10.1180   -9.8641   -9.2099   -8.1410   -4.2470   -3.5049   -3.4660
          -2.4358   -2.1587    0.2794    0.6887    1.7290    2.1415   19.7168   20.8320   21.7228   22.3019
   22.7872   22.9080
  16  1  -12.8460  -12.6512  -12.1329  -11.1475  -11.0626  -11.0456  -10.5669  -10.4105  -10.3540   -7.9215
          -2.4408   -2.4045   -2.0753   17.3698   17.7112   18.7915   18.9383   19.6057   19.6290   19.9216
   20.2419   20.3802
  17  1  -13.4620  -13.3375  -12.7824  -10.1180   -9.8641   -9.2099   -8.1410   -4.2470   -3.5049   -3.4660
          -2.4358   -2.1588    0.2794    0.6888    1.7289    2.1415   19.7168   20.8320   21.7229   22.3019
   22.7872   22.9080
  18  1  -13.8573  -13.7027  -13.1188   -9.0904   -3.6082   -2.5358   -2.5357    5.2151    5.2151    5.8686
           5.8686    7.2184    7.2184    7.4492    7.4492    8.8725    8.8726   10.7217   10.7218   23.8563
   24.3778   24.3897
  19  1  -13.4620  -13.3375  -12.7824  -10.1180   -9.8641   -9.2099   -8.1410   -4.2470   -3.5049   -3.4660
          -2.4358   -2.1588    0.2794    0.6888    1.7289    2.1415   19.7168   20.8320   21.7229   22.3019
   22.7872   22.9080
  20  1  -12.7909  -12.3616  -12.2906  -11.8275  -11.8201  -11.6030   -8.5713   -5.3700   -4.9446   -4.0569
          -3.9748   -2.9240   -2.6841   -1.7177   -0.0928    0.1502   18.0123   18.3132   18.5780   18.8565
   18.9715   19.2377
  21  1  -13.4620  -13.3375  -12.7824  -10.1180   -9.8641   -9.2099   -8.1410   -4.2470   -3.5049   -3.4660
          -2.4358   -2.1587    0.2794    0.6887    1.7290    2.1415   19.7168   20.8320   21.7228   22.3019
   22.7872   22.9080
  22  1  -13.4620  -13.3375  -12.7824  -10.1180   -9.8641   -9.2099   -8.1410   -4.2470   -3.5049   -3.4660
          -2.4358   -2.1588    0.2794    0.6888    1.7289    2.1415   19.7168   20.8320   21.7229   22.3019
   22.7872   22.9080
  23  1  -12.8460  -12.6512  -12.1329  -11.1475  -11.0626  -11.0456  -10.5669  -10.4105  -10.3540   -7.9215
          -2.4409   -2.4045   -2.0752   17.3698   17.7112   18.7915   18.9383   19.6057   19.6290   19.9216
   20.2419   20.3802
  24  1  -12.8460  -12.6512  -12.1329  -11.1475  -11.0626  -11.0456  -10.5669  -10.4105  -10.3540   -7.9215
          -2.4408   -2.4045   -2.0753   17.3698   17.7112   18.7915   18.9383   19.6057   19.6290   19.9216
   20.2419   20.3802
  25  1  -12.8460  -12.6512  -12.1329  -11.1475  -11.0626  -11.0456  -10.5669  -10.4105  -10.3540   -7.9215
          -2.4408   -2.4045   -2.0753   17.3698   17.7112   18.7915   18.9383   19.6057   19.6290   19.9216
   20.2419   20.3802
  26  1  -12.7909  -12.3616  -12.2906  -11.8275  -11.8201  -11.6030   -8.5713   -5.3700   -4.9446   -4.0569
          -3.9748   -2.9240   -2.6841   -1.7177   -0.0928    0.1502   18.0123   18.3132   18.5780   18.8565
   18.9715   19.2377
  27  1  -12.8460  -12.6512  -12.1329  -11.1475  -11.0626  -11.0456  -10.5669  -10.4105  -10.3540   -7.9215
          -2.4408   -2.4045   -2.0753   17.3698   17.7112   18.7915   18.9383   19.6057   19.6290   19.9216
   20.2419   20.3802
  28  1  -12.7908  -12.3616  -12.2906  -11.8275  -11.8201  -11.6030   -8.5713   -5.3700   -4.9446   -4.0569
          -3.9747   -2.9239   -2.6840   -1.7176   -0.0929    0.1502   18.0123   18.3132   18.5779   18.8565
   18.9714   19.2377
  29  1  -12.8412  -12.6581  -12.1067  -11.1216  -11.1009  -11.0614  -10.5441  -10.4049  -10.3601   -7.9854
          -2.4689   -2.3455   -2.0904   17.4421   17.8478   18.5820   18.6425   19.6434   19.7407   19.9948
   20.2331   20.4628
  30  1  -13.4251  -13.3954  -12.7223  -10.1309   -9.9015   -9.1737   -8.2031   -4.2154   -3.5954   -3.4103
          -2.3386   -2.1802    0.2842    0.6411    1.7085    2.1727   19.7748   20.6128   21.8963   22.3059
   22.7780   22.9187
  31  1  -13.4251  -13.3954  -12.7223  -10.1309   -9.9015   -9.1737   -8.2031   -4.2154   -3.5954   -3.4103
          -2.3386   -2.1801    0.2843    0.6410    1.7085    2.1727   19.7747   20.6128   21.8963   22.3059
   22.7780   22.9187
  32  1  -12.8412  -12.6581  -12.1067  -11.1216  -11.1009  -11.0614  -10.5441  -10.4048  -10.3601   -7.9854
          -2.4688   -2.3455   -2.0905   17.4421   17.8478   18.5820   18.6425   19.6434   19.7408   19.9948
   20.2331   20.4628
  33  1  -13.4251  -13.3954  -12.7223  -10.1309   -9.9015   -9.1737   -8.2031   -4.2154   -3.5954   -3.4103
          -2.3386   -2.1802    0.2842    0.6411    1.7085    2.1727   19.7748   20.6128   21.8963   22.3059
   22.7780   22.9187
  34  1  -13.7967  -13.7953  -13.0389   -9.1758   -3.5335   -2.5350   -2.5349    5.0861    5.0861    6.0327
           6.0327    6.7868    6.7868    7.9949    7.9949    9.2213    9.2213   10.2457   10.2458   23.8563
   24.3766   24.3910
  35  1  -13.4251  -13.3954  -12.7223  -10.1309   -9.9015   -9.1737   -8.2031   -4.2154   -3.5954   -3.4103
          -2.3386   -2.1802    0.2842    0.6411    1.7085    2.1727   19.7748   20.6128   21.8963   22.3059
   22.7780   22.9187
  36  1  -12.7852  -12.3612  -12.2935  -11.8140  -11.8036  -11.6248   -8.6318   -5.2377   -5.1426   -4.0589
          -3.8835   -2.7871   -2.7277   -1.8828   -0.1268    0.2413   17.9785   18.2810   18.6818   18.9010
   18.9535   19.1725
  37  1  -13.4251  -13.3954  -12.7223  -10.1309   -9.9015   -9.1737   -8.2031   -4.2154   -3.5954   -3.4103
          -2.3386   -2.1801    0.2843    0.6410    1.7085    2.1727   19.7747   20.6128   21.8963   22.3059
   22.7780   22.9187
  38  1  -13.4251  -13.3954  -12.7223  -10.1309   -9.9015   -9.1737   -8.2031   -4.2154   -3.5954   -3.4103
          -2.3386   -2.1802    0.2842    0.6411    1.7085    2.1727   19.7748   20.6128   21.8963   22.3059
   22.7780   22.9187
  39  1  -12.8412  -12.6581  -12.1067  -11.1216  -11.1009  -11.0614  -10.5441  -10.4049  -10.3601   -7.9854
          -2.4689   -2.3455   -2.0904   17.4421   17.8478   18.5820   18.6425   19.6434   19.7407   19.9948
   20.2331   20.4628
  40  1  -12.8412  -12.6581  -12.1067  -11.1216  -11.1009  -11.0614  -10.5441  -10.4048  -10.3601   -7.9854
          -2.4688   -2.3455   -2.0905   17.4421   17.8478   18.5820   18.6425   19.6434   19.7408   19.9948
   20.2331   20.4628
  41  1  -12.8412  -12.6581  -12.1067  -11.1216  -11.1009  -11.0614  -10.5441  -10.4048  -10.3601   -7.9854
          -2.4688   -2.3455   -2.0905   17.4421   17.8478   18.5820   18.6425   19.6434   19.7408   19.9948
   20.2331   20.4628
  42  1  -12.7852  -12.3612  -12.2935  -11.8140  -11.8036  -11.6248   -8.6318   -5.2377   -5.1426   -4.0589
          -3.8835   -2.7871   -2.7277   -1.8828   -0.1268    0.2413   17.9785   18.2810   18.6818   18.9010
   18.9535   19.1725
  43  1  -12.8412  -12.6581  -12.1067  -11.1216  -11.1009  -11.0614  -10.5441  -10.4048  -10.3601   -7.9854
          -2.4688   -2.3455   -2.0905   17.4421   17.8478   18.5820   18.6425   19.6434   19.7408   19.9948
   20.2331   20.4628
  44  1  -12.7851  -12.3612  -12.2935  -11.8140  -11.8036  -11.6248   -8.6318   -5.2377   -5.1426   -4.0589
          -3.8835   -2.7871   -2.7276   -1.8828   -0.1269    0.2413   17.9785   18.2810   18.6818   18.9010
   18.9535   19.1725
siesta: Fermi energy =      -2.418527 eV

siesta: Program's energy decomposition (eV):
siesta: Ebs     =      -198.535091
siesta: Eions   =       439.895300
siesta: Ena     =       152.475061
siesta: Ekin    =       226.492137
siesta: Enl     =        75.050884
siesta: Eso     =         0.000000
siesta: Edftu   =         0.000000
siesta: DEna    =        -2.261089
siesta: DUscf   =         3.018736
siesta: DUext   =         0.000000
siesta: Exc     =      -204.739783
siesta: eta*DQ  =         0.000000
siesta: Emadel  =         0.000000
siesta: Emeta   =         0.000000
siesta: Emolmec =        -7.520761
siesta: Ekinion =         0.000000
siesta: Eharris =      -197.380113
siesta: Etot    =      -197.380115
siesta: FreeEng =      -197.407749

siesta: Final energy (eV):
siesta:  Band Struct. =    -198.535091
siesta:       Kinetic =     226.492137
siesta:       Hartree =     140.251008
siesta:       Edftu   =       0.000000
siesta:       Eso     =       0.000000
siesta:    Ext. field =       0.000000
siesta:   Exch.-corr. =    -204.739783
siesta:  Ion-electron =    -500.146661
siesta:       Ion-ion =     148.283944
siesta:       Ekinion =       0.000000
siesta:         Total =    -197.380115
siesta:         Fermi =      -2.418527

siesta: Atomic forces (eV/Ang):
siesta:      1   -0.000000    0.000000    0.000000
siesta:      2   -0.276259    0.478469   -0.536545
siesta:      3    0.276259   -0.478469    0.536545
siesta:      4   -0.276274   -0.478521   -0.536509
siesta:      5    0.276274    0.478521    0.536509
siesta:      6    0.552496   -0.000013   -0.536545
siesta:      7   -0.552496    0.000013    0.536545
siesta:      8    0.276259   -0.478469   -0.536545
siesta:      9   -0.276259    0.478469    0.536545
siesta:     10    0.276274    0.478521   -0.536509
siesta:     11   -0.276274   -0.478521    0.536509
siesta:     12   -0.552496    0.000013   -0.536545
siesta:     13    0.552496   -0.000013    0.536545
siesta:     14   -0.383306    0.663858   -0.000000
siesta:     15    0.383306   -0.663858   -0.000000
siesta:     16   -0.383315   -0.663921   -0.000000
siesta:     17    0.383315    0.663921   -0.000000
siesta:     18    0.766571   -0.000023   -0.000000
siesta:     19   -0.766571    0.000023    0.000000
siesta: ----------------------------------------
siesta:    Tot   -0.000000   -0.000000    0.000000

siesta: Stress tensor (static) (eV/Ang**3):
siesta:    -1.016890   -0.000001   -0.000000
siesta:    -0.000001   -1.016891   -0.000000
siesta:    -0.000000   -0.000000    0.133112

siesta: Cell volume =        229.211403 Ang**3

siesta: Pressure (static):
siesta:                Solid            Molecule  Units
siesta:           0.00690024          0.00655110  Ry/Bohr**3
siesta:           0.63355619          0.60149999  eV/Ang**3
siesta:        1015.07990261        963.71964697  kBar
(Free)E+ p_basis*V_orbitals  =        -173.412038
(Free)Eharris+ p_basis*V_orbitals  =        -173.412035

cite: Please see "LiC18_scf.bib" for an exhaustive BiBTeX file.
cite: Please clearly indicate Siesta version in published work: 4.1.5
cite: This calculation has made use of the following articles
cite: which are encouraged to be cited in a published work.
        Primary SIESTA paper
          DOI: www.doi.org/10.1088/0953-8984/14/11/302

>> End of run:   9-NOV-2022  15:15:25
Job completed
