Siesta Version  : 4.1.5
Architecture    : x86_64-unknown-linux-gnu--unknown
Compiler version: GNU Fortran (GCC) 11.3.0
Compiler flags  : mpif90 -g -O2 -fallow-argument-mismatch
PP flags        : -DMPI -DFC_HAVE_FLUSH -DFC_HAVE_ABORT
Libraries       :  -I/global/software/sl-7.x86_64/modules/intel/2020.4.304/mkl/include  /globall/software/sl-7.x86_64/modules/intel/2020.4.304/mkl/lib/intel64/libmkl_scalapack_lp64.a -Wl,--start-group /global/software/sl-7.x86_64/modules/intel/2020.4.304/mkl/lib/intel64/libmkl_intel_lp64.a /global/software/sl-7.x86_64/modules/intel/2020.4.304/mkl/lib/intel64/libmkl_sequential.a /global/software/sl-7.x86_64/modules/intel/2020.4.304/mkl/lib/intel64/libmkl_core.a /global/software/sl-7.x86_64/modules/intel/2020.4.304/mkl/lib/intel64/libmkl_blacs_openmpi_lp64.a -Wl,--end-group -lpthread -lm -ldl
PARALLEL version

* Running on 16 nodes in parallel
>> Start of run:   9-NOV-2022  15:05:39

                           ***********************       
                           *  WELCOME TO SIESTA  *       
                           ***********************       

reinit: Reading from standard input
reinit: Dumped input in INPUT_TMP.14661
************************** Dump of input data file ****************************
SystemName LiC18_scf
SystemLabel LiC18_scf
NumberOfAtoms   19
NumberOfSpecies 2
%block ChemicalSpeciesLabel
1  3   Li-gga
2  6   C-gga
%endblock ChemicalSpeciesLabel
PAO.BasisSize  SZ
PAO.EnergyShift  10 meV
%block PS.Lmax
C-gga   2
Li-gga  2
%endblock PS.Lmax
LatticeConstant 1.000000 Ang
%block LatticeVectors
	4.3161300000	0.0000000000	0.0000000000
	-2.1580650000	3.7378782260	0.0000000000
	0.0000000000	0.0000000000	10.4336061400
%endblock LatticeVectors
AtomicCoordinatesFormat Ang
%block AtomicCoordinatesAndAtomicSpecies
	0.00000000	0.00000000	0.00000000	2
	-0.70288177	1.21742694	1.73893783	1
	-1.45518323	2.52045129	8.69466831	1
	1.45518323	2.52045129	1.73893783	1
	0.70288177	1.21742694	8.69466831	1
	1.40576354	0.00000000	1.73893783	1
	2.91036646	0.00000000	8.69466831	1
	-1.45518323	2.52045129	1.73893783	1
	-0.70288177	1.21742694	8.69466831	1
	0.70288177	1.21742694	1.73893783	1
	1.45518323	2.52045129	8.69466831	1
	2.91036646	0.00000000	1.73893783	1
	1.40576354	0.00000000	8.69466831	1
	-0.70288177	1.21742694	5.21680307	1
	-1.45518323	2.52045129	5.21680307	1
	1.45518323	2.52045129	5.21680307	1
	0.70288177	1.21742694	5.21680307	1
	1.40576354	0.00000000	5.21680307	1
	2.91036646	0.00000000	5.21680307	1
%endblock AtomicCoordinatesAndAtomicSpecies
Kgrid_NoTRS  T
%block kgrid_MonkhorstPack
4       0       0       0.0
0       4       0       0.0
0       0       4       0.0
%endblock kgrid_MonkhorstPack
AtomCoorFormatOut Ang
BlockSize 1
#ProcessorY 12
Diag.ParallelOverK   T
Diag.DivideAndConquer F
MeshCutoff   300 Ry
SCF.FreeE.Tolerance 1E-3 eV
SCF.EDM.Tolerance   5E-3 eV
DM.Tolerance  1E-3
DM.Require.Energy.Convergence T
DM.NumberPulay 4
XC.Functional GGA
XC.Authors    PBE
UseSaveData        F
MD.TypeOfRun       CG
MD.VariableCell    F
MD.NumCGsteps      00
MD.MaxCGDispl      0.200000 Bohr
MD.MaxStressTol    1.000000 GPa
MD.MaxForceTol     0.010000 eV/Ang
WriteMDHistory T
WriteCoorStep T
WriteForces T
WriteCoorStep    T
WriteEigenValues T
WriteDM    F
MM.UnitsDistance Ang  # what this program prints out DO NOT CHANGE
MM.UnitsEnergy    eV  # what this program prints out DO NOT CHANGE
MM.Grimme.S6     0.75 # Grimme-paper for PBE (correct for your functional)
MM.Grimme.D     20.   # Grimme-paper (correct for your functional)
%block MM.Potentials
  1   1 Grimme     16.69      1.650 # Li, 10.1002/jcc.20495
  1   2 Grimme     17.40      2.277 # Li / C
  2   2 Grimme     18.14      2.904 # C, 10.1002/jcc.20495
%endblock MM.Potentials
#%block ProjectedDensityOfStates
# -200.0  120.0  0.4  12800  eV
#%endblock ProjectedDensityOfStates
************************** End of input data file *****************************

reinit: -----------------------------------------------------------------------
reinit: System Name: LiC18_scf
reinit: -----------------------------------------------------------------------
reinit: System Label: LiC18_scf
reinit: -----------------------------------------------------------------------
Reading two-body potentials
Grimme - two-body potential between 1 and 1
Grimme - two-body potential between 1 and 2
Grimme - two-body potential between 2 and 2

initatom: Reading input for the pseudopotentials and atomic orbitals ----------
Species number:   1 Atomic number:    3 Label: Li-gga
Species number:   2 Atomic number:    6 Label: C-gga

Ground state valence configuration:   2s01
Reading pseudopotential information in formatted form from Li-gga.psf

Valence configuration for pseudopotential generation:
2s( 1.00) rc: 2.28
2p( 0.00) rc: 2.28
3d( 0.00) rc: 2.59
4f( 0.00) rc: 2.59
Ground state valence configuration:   2s02  2p02
Reading pseudopotential information in formatted form from C-gga.psf

Valence configuration for pseudopotential generation:
2s( 2.00) rc: 1.56
2p( 2.00) rc: 1.56
3d( 0.00) rc: 1.56
4f( 0.00) rc: 1.56
relmxkb: Read Max KB Ang. Momentum=    2 for species C-gga
relmxkb: Read Max KB Ang. Momentum=    2 for species Li-gga

<basis_specs>
===============================================================================
Li-gga               Z=   3    Mass=  6.9400        Charge= 0.17977+309
Lmxo=0 Lmxkb= 2    BasisType=split      Semic=F
L=0  Nsemic=0  Cnfigmx=2
          i=1  nzeta=1  polorb=0  (2s)
            splnorm:   0.15000    
               vcte:    0.0000    
               rinn:    0.0000    
               qcoe:    0.0000    
               qyuk:    0.0000    
               qwid:   0.10000E-01
                rcs:    0.0000    
            lambdas:    1.0000    
-------------------------------------------------------------------------------
L=0  Nkbl=1  erefs: 0.17977+309
L=1  Nkbl=1  erefs: 0.17977+309
L=2  Nkbl=1  erefs: 0.17977+309
===============================================================================
</basis_specs>

atom: Called for Li-gga                (Z =   3)

read_vps: Pseudopotential generation method:
read_vps: ATM 3.2.2 Troullier-Martins                       
Valence charge for ps generation:    1.00000

read_vps: Pseudopotential includes a core correction:
read_vps: Pseudo-core for xc-correction

xc_check: Exchange-correlation functional:
xc_check: GGA Perdew, Burke & Ernzerhof 1996
V l=0 = -2*Zval/r beyond r=  2.2278
V l=1 = -2*Zval/r beyond r=  2.2278
V l=2 = -2*Zval/r beyond r=  2.5245
All V_l potentials equal beyond r=  2.4622
This should be close to max(r_c) in ps generation
All pots = -2*Zval/r beyond r=  2.5245

VLOCAL1: 99.0% of the norm of Vloc inside      7.160 Ry
VLOCAL1: 99.9% of the norm of Vloc inside     16.318 Ry
atom: Maximum radius for 4*pi*r*r*local-pseudopot. charge    2.86079
atom: Maximum radius for r*vlocal+2*Zval:    2.43160
GHOST: No ghost state for L =  0
GHOST: No ghost state for L =  1
GHOST: No ghost state for L =  2

KBgen: Kleinman-Bylander projectors: 
   l= 0   rc=  2.654023   el= -0.211234   Ekb=  1.742119   kbcos=  0.228463
   l= 1   rc=  2.721230   el= -0.080095   Ekb= -1.122375   kbcos= -0.147941
   l= 2   rc=  2.825246   el=  0.002001   Ekb= -0.207076   kbcos= -0.031965

KBgen: Total number of Kleinman-Bylander projectors:    9
atom: -------------------------------------------------------------------------

atom: SANKEY-TYPE ORBITALS:

SPLIT: Orbitals with angular momentum L= 0

SPLIT: Basis orbitals for state 2s

SPLIT: PAO cut-off radius determined from an
SPLIT: energy shift=  0.000735 Ry

   izeta = 1
                 lambda =    1.000000
                     rc =   11.897381
                 energy =   -0.210580
                kinetic =    0.143382
    potential(screened) =   -0.353962
       potential(ionic) =   -0.533453
atom: Total number of Sankey-type orbitals:  1

atm_pop: Valence configuration (for local Pseudopot. screening):
 2s( 1.00)                                                            
Vna: chval, zval:    1.00000   1.00000

Vna:  Cut-off radius for the neutral-atom potential:  11.897381
comcore: Pseudo-core radius Rcore=  3.450946

atom: _________________________________________________________________________

<basis_specs>
===============================================================================
C-gga                Z=   6    Mass=  12.010        Charge= 0.17977+309
Lmxo=1 Lmxkb= 2    BasisType=split      Semic=F
L=0  Nsemic=0  Cnfigmx=2
          i=1  nzeta=1  polorb=0  (2s)
            splnorm:   0.15000    
               vcte:    0.0000    
               rinn:    0.0000    
               qcoe:    0.0000    
               qyuk:    0.0000    
               qwid:   0.10000E-01
                rcs:    0.0000    
            lambdas:    1.0000    
L=1  Nsemic=0  Cnfigmx=2
          i=1  nzeta=1  polorb=0  (2p)
            splnorm:   0.15000    
               vcte:    0.0000    
               rinn:    0.0000    
               qcoe:    0.0000    
               qyuk:    0.0000    
               qwid:   0.10000E-01
                rcs:    0.0000    
            lambdas:    1.0000    
-------------------------------------------------------------------------------
L=0  Nkbl=1  erefs: 0.17977+309
L=1  Nkbl=1  erefs: 0.17977+309
L=2  Nkbl=1  erefs: 0.17977+309
===============================================================================
</basis_specs>

atom: Called for C-gga                 (Z =   6)

read_vps: Pseudopotential generation method:
read_vps: ATM 3.2.2 Troullier-Martins                       
Valence charge for ps generation:    4.00000

xc_check: Exchange-correlation functional:
xc_check: GGA Perdew, Burke & Ernzerhof 1996
V l=0 = -2*Zval/r beyond r=  1.5227
V l=1 = -2*Zval/r beyond r=  1.5227
V l=2 = -2*Zval/r beyond r=  1.5227
All V_l potentials equal beyond r=  1.4851
This should be close to max(r_c) in ps generation
All pots = -2*Zval/r beyond r=  1.5227

VLOCAL1: 99.0% of the norm of Vloc inside     19.682 Ry
VLOCAL1: 99.9% of the norm of Vloc inside     44.856 Ry
atom: Maximum radius for 4*pi*r*r*local-pseudopot. charge    1.79142
atom: Maximum radius for r*vlocal+2*Zval:    1.54183
GHOST: No ghost state for L =  0
GHOST: No ghost state for L =  1
GHOST: No ghost state for L =  2

KBgen: Kleinman-Bylander projectors: 
   l= 0   rc=  1.661951   el= -1.010689   Ekb=  5.289847   kbcos=  0.316429
   l= 1   rc=  1.661951   el= -0.388490   Ekb= -4.102504   kbcos= -0.351025
   l= 2   rc=  1.747182   el=  0.001971   Ekb= -1.006005   kbcos= -0.008530

KBgen: Total number of Kleinman-Bylander projectors:    9
atom: -------------------------------------------------------------------------

atom: SANKEY-TYPE ORBITALS:

SPLIT: Orbitals with angular momentum L= 0

SPLIT: Basis orbitals for state 2s

SPLIT: PAO cut-off radius determined from an
SPLIT: energy shift=  0.000735 Ry

   izeta = 1
                 lambda =    1.000000
                     rc =    5.948690
                 energy =   -1.010099
                kinetic =    0.827121
    potential(screened) =   -1.837220
       potential(ionic) =   -5.392783

SPLIT: Orbitals with angular momentum L= 1

SPLIT: Basis orbitals for state 2p

SPLIT: PAO cut-off radius determined from an
SPLIT: energy shift=  0.000735 Ry

   izeta = 1
                 lambda =    1.000000
                     rc =    7.638387
                 energy =   -0.387843
                kinetic =    2.314739
    potential(screened) =   -2.702582
       potential(ionic) =   -6.092371
atom: Total number of Sankey-type orbitals:  4

atm_pop: Valence configuration (for local Pseudopot. screening):
 2s( 2.00)                                                            
 2p( 2.00)                                                            
Vna: chval, zval:    4.00000   4.00000

Vna:  Cut-off radius for the neutral-atom potential:   7.638387

atom: _________________________________________________________________________

prinput: Basis input ----------------------------------------------------------

PAO.BasisType split     

%block ChemicalSpeciesLabel
    1    3 Li-gga                  # Species index, atomic number, species label
    2    6 C-gga                   # Species index, atomic number, species label
%endblock ChemicalSpeciesLabel

%block PAO.Basis                 # Define Basis set
Li-gga                1                    # Species label, number of l-shells
 n=2   0   1                         # n, l, Nzeta 
  11.897   
   1.000   
C-gga                 2                    # Species label, number of l-shells
 n=2   0   1                         # n, l, Nzeta 
   5.949   
   1.000   
 n=2   1   1                         # n, l, Nzeta 
   7.638   
   1.000   
%endblock PAO.Basis

prinput: ----------------------------------------------------------------------

coor:   Atomic-coordinates input format  =     Cartesian coordinates
coor:                                          (in Angstroms)

siesta: Atomic coordinates (Bohr) and species
siesta:      0.00000   0.00000   0.00000  2        1
siesta:     -1.32825   2.30060   3.28612  1        2
siesta:     -2.74990   4.76296  16.43055  1        3
siesta:      2.74990   4.76296   3.28612  1        4
siesta:      1.32825   2.30060  16.43055  1        5
siesta:      2.65651   0.00000   3.28612  1        6
siesta:      5.49980   0.00000  16.43055  1        7
siesta:     -2.74990   4.76296   3.28612  1        8
siesta:     -1.32825   2.30060  16.43055  1        9
siesta:      1.32825   2.30060   3.28612  1       10
siesta:      2.74990   4.76296  16.43055  1       11
siesta:      5.49980   0.00000   3.28612  1       12
siesta:      2.65651   0.00000  16.43055  1       13
siesta:     -1.32825   2.30060   9.85833  1       14
siesta:     -2.74990   4.76296   9.85833  1       15
siesta:      2.74990   4.76296   9.85833  1       16
siesta:      1.32825   2.30060   9.85833  1       17
siesta:      2.65651   0.00000   9.85833  1       18
siesta:      5.49980   0.00000   9.85833  1       19

siesta: System type = bulk      

initatomlists: Number of atoms, orbitals, and projectors:     19    22   171

siesta: ******************** Simulation parameters ****************************
siesta:
siesta: The following are some of the parameters of the simulation.
siesta: A complete list of the parameters used, including default values,
siesta: can be found in file out.fdf
siesta:
redata: Spin configuration                          = none
redata: Number of spin components                   = 1
redata: Time-Reversal Symmetry                      = T
redata: Spin spiral                                 = F
redata: Long output                                 =   F
redata: Number of Atomic Species                    =        2
redata: Charge density info will appear in .RHO file
redata: Write Mulliken Pop.                         = NO
redata: Matel table size (NRTAB)                    =     1024
redata: Mesh Cutoff                                 =   300.0000 Ry
redata: Net charge of the system                    =     0.0000 |e|
redata: Min. number of SCF Iter                     =        0
redata: Max. number of SCF Iter                     =     1000
redata: SCF convergence failure will abort job
redata: SCF mix quantity                            = Hamiltonian
redata: Mix DM or H after convergence               =   F
redata: Recompute H after scf cycle                 =   F
redata: Mix DM in first SCF step                    =   T
redata: Write Pulay info on disk                    =   F
redata: New DM Occupancy tolerance                  = 0.000000000001
redata: No kicks to SCF
redata: DM Mixing Weight for Kicks                  =     0.5000
redata: Require Harris convergence for SCF          =   F
redata: Harris energy tolerance for SCF             =     0.000100 eV
redata: Require DM convergence for SCF              =   T
redata: DM tolerance for SCF                        =     0.001000
redata: Require EDM convergence for SCF             =   F
redata: EDM tolerance for SCF                       =     0.005000 eV
redata: Require H convergence for SCF               =   T
redata: Hamiltonian tolerance for SCF               =     0.001000 eV
redata: Require (free) Energy convergence for SCF   =   T
redata: (free) Energy tolerance for SCF             =     0.001000 eV
redata: Using Saved Data (generic)                  =   F
redata: Use continuation files for DM               =   F
redata: Neglect nonoverlap interactions             =   F
redata: Method of Calculation                       = Diagonalization
redata: Electronic Temperature                      =   299.9869 K
redata: Fix the spin of the system                  =   F
redata: Dynamics option                             = Single-point calculation
mix.SCF: Pulay mixing                            = Pulay
mix.SCF:    Variant                              = stable
mix.SCF:    History steps                        = 4
mix.SCF:    Linear mixing weight                 =     0.250000
mix.SCF:    Mixing weight                        =     0.250000
mix.SCF:    SVD condition                        = 0.1000E-07
redata: ***********************************************************************

%block SCF.Mixers
  Pulay
%endblock SCF.Mixers

%block SCF.Mixer.Pulay
  # Mixing method
  method pulay
  variant stable

  # Mixing options
  weight 0.2500
  weight.linear 0.2500
  history 4
%endblock SCF.Mixer.Pulay

DM_history_depth set to one: no extrapolation allowed by default for geometry relaxation
Size of DM history Fstack: 1
Total number of electrons:    22.000000
Total ionic charge:    22.000000

* ProcessorY, Blocksize:    4   1


* Orbital distribution balance (max,min):     2     1

k-point displ. along   1 input, could be:     0.00    0.50
k-point displ. along   2 input, could be:     0.00    0.50
k-point displ. along   3 input, could be:     0.00    0.50
 Kpoints in:           48 . Kpoints trimmed:           44

siesta: k-grid: Number of k-points =    44
siesta: k-grid: Cutoff (effective) =     8.632 Ang
siesta: k-grid: Supercell and displacements
siesta: k-grid:    4   0   0      0.000
siesta: k-grid:    0   4   0      0.000
siesta: k-grid:    0   0   4      0.000

diag: Algorithm                                     = Expert
diag: Parallel over k                               =   T
diag: Use parallel 2D distribution                  =   T
diag: Parallel block-size                           = 1
diag: Parallel distribution                         =     4 x     4
diag: Used triangular part                          = Lower
diag: Absolute tolerance                            =  0.100E-15
diag: Orthogonalization factor                      =  0.100E-05
diag: Memory factor                                 =  1.0000

superc: Internal auxiliary supercell:     9 x     9 x     5  =     405
superc: Number of atoms, orbitals, and projectors:   7695   8910  69255


ts: **************************************************************
ts: Save H and S matrices                           =    F
ts: Save DM and EDM matrices                        =    F
ts: Only save the overlap matrix S                  =    F
ts: **************************************************************

************************ Begin: TS CHECKS AND WARNINGS ************************
************************ End: TS CHECKS AND WARNINGS **************************


                     ====================================
                        Single-point calculation
                     ====================================

outcoor: Atomic coordinates (Ang):                          
    0.00000000    0.00000000    0.00000000   2       1  C-gga
   -0.70288177    1.21742694    1.73893783   1       2  Li-gga
   -1.45518323    2.52045129    8.69466831   1       3  Li-gga
    1.45518323    2.52045129    1.73893783   1       4  Li-gga
    0.70288177    1.21742694    8.69466831   1       5  Li-gga
    1.40576354    0.00000000    1.73893783   1       6  Li-gga
    2.91036646    0.00000000    8.69466831   1       7  Li-gga
   -1.45518323    2.52045129    1.73893783   1       8  Li-gga
   -0.70288177    1.21742694    8.69466831   1       9  Li-gga
    0.70288177    1.21742694    1.73893783   1      10  Li-gga
    1.45518323    2.52045129    8.69466831   1      11  Li-gga
    2.91036646    0.00000000    1.73893783   1      12  Li-gga
    1.40576354    0.00000000    8.69466831   1      13  Li-gga
   -0.70288177    1.21742694    5.21680307   1      14  Li-gga
   -1.45518323    2.52045129    5.21680307   1      15  Li-gga
    1.45518323    2.52045129    5.21680307   1      16  Li-gga
    0.70288177    1.21742694    5.21680307   1      17  Li-gga
    1.40576354    0.00000000    5.21680307   1      18  Li-gga
    2.91036646    0.00000000    5.21680307   1      19  Li-gga

superc: Internal auxiliary supercell:     9 x     9 x     5  =     405
superc: Number of atoms, orbitals, and projectors:   7695   8910  69255

outcell: Unit cell vectors (Ang):
        4.316130    0.000000    0.000000
       -2.158065    3.737878    0.000000
        0.000000    0.000000   10.433606

outcell: Cell vector modules (Ang)   :    4.316130    4.316130   10.433606
outcell: Cell angles (23,13,12) (deg):     90.0000     90.0000    120.0000
outcell: Cell volume (Ang**3)        :    168.3271
<dSpData1D:S at geom step 0
  <sparsity:sparsity for geom step 0
    nrows_g=22 nrows=2 sparsity=4.9938 nnzs=2417, refcount: 7>
  <dData1D:(new from dSpData1D) n=2417, refcount: 1>
refcount: 1>
new_DM -- step:     1
Initializing Density Matrix...
DM filled with atomic data:
<dSpData2D:DM initialized from atoms
  <sparsity:sparsity for geom step 0
    nrows_g=22 nrows=2 sparsity=4.9938 nnzs=2417, refcount: 8>
  <dData2D:DM n=2417 m=1, refcount: 1>
refcount: 1>
No. of atoms with KB's overlaping orbs in proc 0. Max # of overlaps:     234     237
New grid distribution:   1
           1       1:   20    1:    5    1:   15
           2       1:   20    1:    5   16:   30
           3       1:   20    1:    5   31:   45
           4       1:   20    1:    5   46:   60
           5       1:   20    6:   10    1:   15
           6       1:   20    6:   10   16:   30
           7       1:   20    6:   10   31:   45
           8       1:   20    6:   10   46:   60
           9       1:   20   11:   15    1:   15
          10       1:   20   11:   15   16:   30
          11       1:   20   11:   15   31:   45
          12       1:   20   11:   15   46:   60
          13       1:   20   16:   20    1:   15
          14       1:   20   16:   20   16:   30
          15       1:   20   16:   20   31:   45
          16       1:   20   16:   20   46:   60

InitMesh: MESH =    40 x    40 x   120 =      192000
InitMesh: (bp) =    20 x    20 x    60 =       24000
InitMesh: Mesh cutoff (required, used) =   300.000   316.498 Ry
ExtMesh (bp) on 0 =   156 x   141 x   163 =     3585348
New grid distribution:   2
           1      11:   20    1:   10    1:   14
           2      11:   20    1:   10   15:   30
           3       1:   10    1:   10   31:   46
           4       1:   10    1:   10   47:   60
           5       1:   10    1:   10    1:   14
           6       1:   10    1:   10   15:   30
           7      11:   20    1:   10   31:   46
           8      11:   20    1:   10   47:   60
           9      11:   20   11:   20    1:   14
          10      11:   20   11:   20   15:   30
          11       1:   10   11:   20   31:   46
          12       1:   10   11:   20   47:   60
          13       1:   10   11:   20    1:   14
          14       1:   10   11:   20   15:   30
          15      11:   20   11:   20   31:   46
          16      11:   20   11:   20   47:   60
New grid distribution:   3
           1       1:   10    1:   10    1:   15
           2       1:   10    1:   10   16:   30
           3       1:   10    1:   10   31:   45
           4       1:   10    1:   10   46:   60
           5      11:   20    1:   10    1:   15
           6      11:   20    1:   10   16:   30
           7      11:   20    1:   10   31:   45
           8      11:   20    1:   10   46:   60
           9       1:   10   11:   20    1:   15
          10       1:   10   11:   20   16:   30
          11       1:   10   11:   20   31:   45
          12       1:   10   11:   20   46:   60
          13      11:   20   11:   20    1:   15
          14      11:   20   11:   20   16:   30
          15      11:   20   11:   20   31:   45
          16      11:   20   11:   20   46:   60
Setting up quadratic distribution...
ExtMesh (bp) on 0 =   146 x   146 x   162 =     3453192
PhiOnMesh: Number of (b)points on node 0 =                 1400
PhiOnMesh: nlist on node 0 =               176851

stepf: Fermi-Dirac step function

siesta: Program's energy decomposition (eV):
siesta: Ebs     =       -19.826974
siesta: Eions   =       439.895300
siesta: Ena     =       134.160664
siesta: Ekin    =       323.243264
siesta: Enl     =        51.708627
siesta: Eso     =         0.000000
siesta: Edftu   =         0.000000
siesta: DEna    =       -58.812234
siesta: DUscf   =        71.275828
siesta: DUext   =         0.000000
siesta: Exc     =      -237.580755
siesta: eta*DQ  =         0.000000
siesta: Emadel  =         0.000000
siesta: Emeta   =         0.000000
siesta: Emolmec =        -8.458936
siesta: Ekinion =         0.000000
siesta: Eharris =        11.062216
siesta: Etot    =      -164.358843
siesta: FreeEng =      -164.361260

        iscf     Eharris(eV)        E_KS(eV)     FreeEng(eV)     dDmax    Ef(eV) dHmax(eV)
   scf:    1       11.062216     -164.358843     -164.361260  2.743216 -7.253080 38.043712
timer: Routine,Calls,Time,% = IterSCF        1       0.712  14.53
   scf:    2     -183.657545     -205.101000     -205.108251 13.252465 -3.912195  8.416755
   scf:    3     -199.395442     -207.058440     -207.066220  6.505222 -4.881007  7.545385
   scf:    4     -137.206250     -187.912128     -187.918036  8.414347 -1.191373 24.064783
   scf:    5     -218.030741     -207.713093     -207.722709  5.518244 -3.259191  6.579726
   scf:    6     -209.581370     -209.360494     -209.383247  2.565324 -4.064949  0.147311
   scf:    7     -209.325991     -209.348984     -209.372398  0.146892 -4.142642  0.542888
   scf:    8     -209.287932     -209.345524     -209.366641  0.517722 -4.026080  0.690635
   scf:    9     -209.354929     -209.361506     -209.385076  0.282757 -4.105754  0.121632
   scf:   10     -209.362070     -209.362319     -209.385543  0.045615 -4.084613  0.057000
   scf:   11     -209.362219     -209.362325     -209.385678  0.023245 -4.089756  0.001423
   scf:   12     -209.362296     -209.362311     -209.385678  0.000903 -4.089784  0.000554

SCF Convergence by FreeE+DM+H criterion
|FreeE_i-FreeE_(i-1)| (eV) <     0.00100000
max |DM_out - DM_in|         :     0.0009034651
max |H_out - H_in|      (eV) :     0.0005537006
SCF cycle converged after 12 iterations

Using DM_out to compute the final energy and forces
No. of atoms with KB's overlaping orbs in proc 0. Max # of overlaps:     234     237

MM-Stress (kbar):      -14.88      -14.88       23.65        0.00        0.00        0.00

siesta: E_KS(eV) =             -209.3623

siesta: E_KS - E_eggbox =      -209.3623

siesta: Atomic forces (eV/Ang):
     1   -0.000000   -0.000000    0.000000
     2   -0.246367    0.426797   -0.695996
     3    0.246367   -0.426797    0.695996
     4   -0.246368   -0.426721   -0.695847
     5    0.246368    0.426721    0.695847
     6    0.492801    0.000039   -0.695996
     7   -0.492801   -0.000039    0.695996
     8    0.246367   -0.426797   -0.695996
     9   -0.246367    0.426797    0.695996
    10    0.246368    0.426721   -0.695847
    11   -0.246368   -0.426721    0.695847
    12   -0.492801   -0.000039   -0.695996
    13    0.492801    0.000039    0.695996
    14   -0.371389    0.643343    0.000000
    15    0.371389   -0.643343   -0.000000
    16   -0.371397   -0.643278   -0.000000
    17    0.371397    0.643278    0.000000
    18    0.742845    0.000039    0.000000
    19   -0.742845   -0.000039   -0.000000
----------------------------------------
   Tot   -0.000000   -0.000000    0.000000
----------------------------------------
   Max    0.742845
   Res    0.459535    sqrt( Sum f_i^2 / 3N )
----------------------------------------
   Max    0.742845    constrained

Stress tensor Voigt[x,y,z,yz,xz,xy] (kbar):    -2006.44    -2006.44      406.95        0.00       -0.00       -0.00
(Free)E + p*V (eV/cell)      -83.1054
Target enthalpy (eV/cell)     -209.3857

siesta: Eigenvalues (eV):
  ik is       eps
   1  1  -15.8977  -15.2762  -13.8162  -13.7434  -13.4820  -12.7204  -12.2162  -11.8704  -11.8183   -6.2356
          -4.8208   -3.8720   -3.5104   15.5054   15.8772   18.2498   18.6711   19.0871   19.1474   19.2727
   20.0729   20.7954
   2  1  -16.4593  -15.8085  -14.1700  -12.6201  -11.8044  -11.1618   -7.8588   -7.8332   -6.5017   -6.3480
          -4.3437   -4.0861   -2.7915    2.7840    3.0638    3.8850   18.3381   19.9908   20.9659   21.2357
   22.8587   23.0937
   3  1  -16.4593  -15.8085  -14.1700  -12.6201  -11.8045  -11.1618   -7.8588   -7.8332   -6.5017   -6.3480
          -4.3437   -4.0860   -2.7914    2.7838    3.0638    3.8851   18.3380   19.9908   20.9659   21.2357
   22.8587   23.0937
   4  1  -15.8977  -15.2762  -13.8162  -13.7434  -13.4820  -12.7204  -12.2162  -11.8703  -11.8182   -6.2356
          -4.8208   -3.8721   -3.5102   15.5054   15.8771   18.2498   18.6712   19.0871   19.1474   19.2726
   20.0729   20.7954
   5  1  -16.4593  -15.8085  -14.1700  -12.6201  -11.8044  -11.1618   -7.8588   -7.8332   -6.5017   -6.3480
          -4.3437   -4.0861   -2.7915    2.7840    3.0638    3.8850   18.3381   19.9908   20.9659   21.2357
   22.8587   23.0937
   6  1  -16.8233  -16.1116  -14.5433   -9.0152   -7.0703   -6.2205   -6.2205   -0.0559   -0.0559    0.5080
           0.5080    6.9981    6.9982    8.5548    8.5548    8.8520    8.8521   20.3717   20.3719   22.5221
   24.3975   24.6884
   7  1  -15.8290  -15.1137  -14.9062  -13.2409  -13.1491  -13.1115   -8.6919   -8.5989   -7.6141   -6.8511
          -5.8820   -5.7165   -3.7424    0.0748    0.2191    1.7323   16.8188   17.1015   18.5832   18.8061
   19.2624   19.6313
   8  1  -15.8977  -15.2762  -13.8162  -13.7434  -13.4820  -12.7204  -12.2162  -11.8703  -11.8182   -6.2356
          -4.8208   -3.8721   -3.5102   15.5054   15.8771   18.2498   18.6712   19.0871   19.1474   19.2726
   20.0729   20.7954
   9  1  -15.8977  -15.2762  -13.8162  -13.7434  -13.4820  -12.7204  -12.2162  -11.8703  -11.8182   -6.2356
          -4.8208   -3.8721   -3.5102   15.5054   15.8771   18.2498   18.6712   19.0871   19.1474   19.2726
   20.0729   20.7954
  10  1  -15.8290  -15.1137  -14.9062  -13.2409  -13.1491  -13.1115   -8.6919   -8.5989   -7.6141   -6.8511
          -5.8820   -5.7165   -3.7424    0.0748    0.2191    1.7323   16.8188   17.1015   18.5832   18.8061
   19.2624   19.6313
  11  1  -15.8977  -15.2762  -13.8162  -13.7434  -13.4820  -12.7204  -12.2162  -11.8703  -11.8182   -6.2356
          -4.8208   -3.8721   -3.5102   15.5054   15.8771   18.2498   18.6712   19.0871   19.1474   19.2726
   20.0729   20.7954
  12  1  -15.8290  -15.1137  -14.9062  -13.2408  -13.1492  -13.1115   -8.6919   -8.5989   -7.6141   -6.8511
          -5.8820   -5.7165   -3.7423    0.0748    0.2191    1.7322   16.8188   17.1015   18.5832   18.8062
   19.2624   19.6313
  13  1  -15.8690  -15.3623  -13.8492  -13.7494  -13.2269  -12.6830  -12.1932  -11.7866  -11.2614   -7.0966
          -4.0655   -4.0621   -3.7871   15.4778   15.8759   18.2350   18.4131   18.5878   19.4460   19.7329
   20.1762   20.7670
  14  1  -16.4046  -15.9883  -13.5193  -12.6367  -11.9977  -10.7337   -8.4473   -7.8101   -7.0359   -5.8417
          -4.1082   -2.9560   -2.6789    1.5346    2.1724    5.6121   18.3422   20.0636   20.9712   21.0931
   22.8725   23.0812
  15  1  -16.4045  -15.9883  -13.5193  -12.6367  -11.9978  -10.7337   -8.4473   -7.8101   -7.0359   -5.8417
          -4.1081   -2.9560   -2.6789    1.5347    2.1723    5.6121   18.3422   20.0636   20.9712   21.0930
   22.8725   23.0812
  16  1  -15.8690  -15.3623  -13.8492  -13.7494  -13.2269  -12.6831  -12.1931  -11.7867  -11.2614   -7.0966
          -4.0656   -4.0620   -3.7870   15.4778   15.8759   18.2350   18.4131   18.5878   19.4460   19.7329
   20.1762   20.7670
  17  1  -16.4046  -15.9883  -13.5193  -12.6367  -11.9977  -10.7337   -8.4473   -7.8101   -7.0359   -5.8417
          -4.1082   -2.9560   -2.6789    1.5346    2.1724    5.6121   18.3422   20.0636   20.9712   21.0931
   22.8725   23.0812
  18  1  -16.7684  -16.3228  -13.7757   -9.6041   -6.5509   -6.2301   -6.2301   -0.0495   -0.0495    0.1503
           0.1504    3.8564    3.8564    8.5001    8.5002   17.2312   17.2313   21.1834   21.1835   22.5065
   24.4012   24.6679
  19  1  -16.4046  -15.9883  -13.5193  -12.6367  -11.9977  -10.7337   -8.4473   -7.8101   -7.0359   -5.8417
          -4.1082   -2.9560   -2.6789    1.5346    2.1724    5.6121   18.3422   20.0636   20.9712   21.0931
   22.8725   23.0812
  20  1  -15.8134  -15.1080  -14.9951  -13.5269  -12.7985  -12.4260   -9.0342   -8.6601   -8.1101   -6.8165
          -5.2647   -4.4856   -4.1242   -1.5809    0.9652    2.0970   16.7960   17.0712   18.6195   18.8559
   19.2154   19.5714
  21  1  -16.4045  -15.9883  -13.5193  -12.6367  -11.9978  -10.7337   -8.4473   -7.8101   -7.0359   -5.8417
          -4.1081   -2.9560   -2.6789    1.5347    2.1723    5.6121   18.3422   20.0636   20.9712   21.0930
   22.8725   23.0812
  22  1  -16.4046  -15.9883  -13.5193  -12.6367  -11.9977  -10.7337   -8.4473   -7.8101   -7.0359   -5.8417
          -4.1082   -2.9560   -2.6789    1.5346    2.1724    5.6121   18.3422   20.0636   20.9712   21.0931
   22.8725   23.0812
  23  1  -15.8690  -15.3623  -13.8492  -13.7494  -13.2269  -12.6830  -12.1932  -11.7866  -11.2614   -7.0966
          -4.0655   -4.0621   -3.7871   15.4778   15.8759   18.2350   18.4131   18.5878   19.4460   19.7329
   20.1762   20.7670
  24  1  -15.8690  -15.3623  -13.8492  -13.7494  -13.2269  -12.6831  -12.1931  -11.7867  -11.2614   -7.0966
          -4.0656   -4.0620   -3.7870   15.4778   15.8759   18.2350   18.4131   18.5878   19.4460   19.7329
   20.1762   20.7670
  25  1  -15.8690  -15.3623  -13.8492  -13.7494  -13.2269  -12.6831  -12.1931  -11.7867  -11.2614   -7.0966
          -4.0656   -4.0620   -3.7870   15.4778   15.8759   18.2350   18.4131   18.5878   19.4460   19.7329
   20.1762   20.7670
  26  1  -15.8134  -15.1080  -14.9951  -13.5269  -12.7985  -12.4260   -9.0342   -8.6601   -8.1101   -6.8165
          -5.2647   -4.4856   -4.1242   -1.5809    0.9652    2.0970   16.7960   17.0712   18.6195   18.8559
   19.2154   19.5714
  27  1  -15.8690  -15.3623  -13.8492  -13.7494  -13.2269  -12.6831  -12.1931  -11.7867  -11.2614   -7.0966
          -4.0656   -4.0620   -3.7870   15.4778   15.8759   18.2350   18.4131   18.5878   19.4460   19.7329
   20.1762   20.7670
  28  1  -15.8134  -15.1080  -14.9951  -13.5269  -12.7985  -12.4260   -9.0342   -8.6601   -8.1100   -6.8165
          -5.2647   -4.4856   -4.1241   -1.5809    0.9651    2.0970   16.7960   17.0712   18.6195   18.8559
   19.2154   19.5714
  29  1  -15.8329  -15.4459  -13.8574  -13.7553  -13.2121  -12.2970  -12.2236  -11.3945  -10.8925   -7.8171
          -4.2878   -4.2460   -3.3920   15.4542   15.8783   18.2362   18.2407   18.2964   19.6526   19.9266
   20.3194   20.7293
  30  1  -16.2593  -16.2227  -12.6795  -12.4682  -12.3157  -10.3446   -9.0591   -7.7680   -7.3555   -5.3864
          -4.3012   -2.9959    0.0745    0.2839    0.7610    6.5673   18.3475   20.1453   20.9218   20.9896
   22.8882   23.0666
  31  1  -16.2593  -16.2227  -12.6795  -12.4682  -12.3157  -10.3446   -9.0591   -7.7680   -7.3555   -5.3864
          -4.3011   -2.9959    0.0744    0.2839    0.7610    6.5674   18.3475   20.1453   20.9217   20.9896
   22.8882   23.0666
  32  1  -15.8329  -15.4459  -13.8574  -13.7553  -13.2121  -12.2969  -12.2236  -11.3945  -10.8925   -7.8171
          -4.2880   -4.2459   -3.3920   15.4542   15.8783   18.2361   18.2407   18.2964   19.6527   19.9266
   20.3194   20.7293
  33  1  -16.2593  -16.2227  -12.6795  -12.4682  -12.3157  -10.3446   -9.0591   -7.7680   -7.3555   -5.3864
          -4.3012   -2.9959    0.0745    0.2839    0.7610    6.5673   18.3475   20.1453   20.9218   20.9896
   22.8882   23.0666
  34  1  -16.6303  -16.5659  -12.6657  -10.4441   -6.2396   -6.2395   -6.0035   -0.4476   -0.4476    0.5410
           0.5410    2.1457    2.1457    9.7616    9.7618   22.2338   22.2338   22.4909   23.2039   23.2040
   24.4059   24.6465
  35  1  -16.2593  -16.2227  -12.6795  -12.4682  -12.3157  -10.3446   -9.0591   -7.7680   -7.3555   -5.3864
          -4.3012   -2.9959    0.0745    0.2839    0.7610    6.5673   18.3475   20.1453   20.9218   20.9896
   22.8882   23.0666
  36  1  -15.7964  -15.1024  -15.0701  -13.6478  -12.2239  -11.9143   -9.5596   -8.5520   -8.4680   -6.7407
          -4.8503   -4.5984   -2.6723   -2.2958   -0.4258    3.0227   16.7735   17.0417   18.6615   18.9137
   19.1625   19.5024
  37  1  -16.2593  -16.2227  -12.6795  -12.4682  -12.3157  -10.3446   -9.0591   -7.7680   -7.3555   -5.3864
          -4.3011   -2.9959    0.0744    0.2839    0.7610    6.5674   18.3475   20.1453   20.9217   20.9896
   22.8882   23.0666
  38  1  -16.2593  -16.2227  -12.6795  -12.4682  -12.3157  -10.3446   -9.0591   -7.7680   -7.3555   -5.3864
          -4.3012   -2.9959    0.0745    0.2839    0.7610    6.5673   18.3475   20.1453   20.9218   20.9896
   22.8882   23.0666
  39  1  -15.8329  -15.4459  -13.8574  -13.7553  -13.2121  -12.2970  -12.2236  -11.3945  -10.8925   -7.8171
          -4.2878   -4.2460   -3.3920   15.4542   15.8783   18.2362   18.2407   18.2964   19.6526   19.9266
   20.3194   20.7293
  40  1  -15.8329  -15.4459  -13.8574  -13.7553  -13.2121  -12.2969  -12.2236  -11.3945  -10.8925   -7.8171
          -4.2880   -4.2459   -3.3920   15.4542   15.8783   18.2361   18.2407   18.2964   19.6527   19.9266
   20.3194   20.7293
  41  1  -15.8329  -15.4459  -13.8574  -13.7553  -13.2121  -12.2969  -12.2236  -11.3945  -10.8925   -7.8171
          -4.2880   -4.2459   -3.3920   15.4542   15.8783   18.2361   18.2407   18.2964   19.6527   19.9266
   20.3194   20.7293
  42  1  -15.7964  -15.1024  -15.0701  -13.6478  -12.2239  -11.9143   -9.5596   -8.5520   -8.4680   -6.7407
          -4.8503   -4.5984   -2.6723   -2.2958   -0.4258    3.0227   16.7735   17.0417   18.6615   18.9137
   19.1625   19.5024
  43  1  -15.8329  -15.4459  -13.8574  -13.7553  -13.2121  -12.2969  -12.2236  -11.3945  -10.8925   -7.8171
          -4.2880   -4.2459   -3.3920   15.4542   15.8783   18.2361   18.2407   18.2964   19.6527   19.9266
   20.3194   20.7293
  44  1  -15.7964  -15.1024  -15.0701  -13.6479  -12.2239  -11.9143   -9.5596   -8.5520   -8.4680   -6.7407
          -4.8503   -4.5983   -2.6723   -2.2958   -0.4259    3.0227   16.7735   17.0417   18.6614   18.9138
   19.1624   19.5024
siesta: Fermi energy =      -4.089784 eV

siesta: Program's energy decomposition (eV):
siesta: Ebs     =      -242.096695
siesta: Eions   =       439.895300
siesta: Ena     =       134.160664
siesta: Ekin    =       255.135280
siesta: Enl     =        75.666674
siesta: Eso     =         0.000000
siesta: Edftu   =         0.000000
siesta: DEna    =       -13.307960
siesta: DUscf   =         5.663368
siesta: DUext   =         0.000000
siesta: Exc     =      -218.326100
siesta: eta*DQ  =         0.000000
siesta: Emadel  =         0.000000
siesta: Emeta   =         0.000000
siesta: Emolmec =        -8.458936
siesta: Ekinion =         0.000000
siesta: Eharris =      -209.362296
siesta: Etot    =      -209.362311
siesta: FreeEng =      -209.385678

siesta: Final energy (eV):
siesta:  Band Struct. =    -242.096695
siesta:       Kinetic =     255.135280
siesta:       Hartree =     130.127114
siesta:       Edftu   =       0.000000
siesta:       Eso     =       0.000000
siesta:    Ext. field =       0.000000
siesta:   Exch.-corr. =    -218.326100
siesta:  Ion-electron =    -534.683697
siesta:       Ion-ion =     166.844028
siesta:       Ekinion =       0.000000
siesta:         Total =    -209.362311
siesta:         Fermi =      -4.089784

siesta: Atomic forces (eV/Ang):
siesta:      1   -0.000000   -0.000000    0.000000
siesta:      2   -0.246367    0.426797   -0.695996
siesta:      3    0.246367   -0.426797    0.695996
siesta:      4   -0.246368   -0.426721   -0.695847
siesta:      5    0.246368    0.426721    0.695847
siesta:      6    0.492801    0.000039   -0.695996
siesta:      7   -0.492801   -0.000039    0.695996
siesta:      8    0.246367   -0.426797   -0.695996
siesta:      9   -0.246367    0.426797    0.695996
siesta:     10    0.246368    0.426721   -0.695847
siesta:     11   -0.246368   -0.426721    0.695847
siesta:     12   -0.492801   -0.000039   -0.695996
siesta:     13    0.492801    0.000039    0.695996
siesta:     14   -0.371389    0.643343    0.000000
siesta:     15    0.371389   -0.643343   -0.000000
siesta:     16   -0.371397   -0.643278   -0.000000
siesta:     17    0.371397    0.643278    0.000000
siesta:     18    0.742845    0.000039    0.000000
siesta:     19   -0.742845   -0.000039   -0.000000
siesta: ----------------------------------------
siesta:    Tot   -0.000000   -0.000000    0.000000

siesta: Stress tensor (static) (eV/Ang**3):
siesta:    -1.252309   -0.000001   -0.000000
siesta:    -0.000001   -1.252310   -0.000000
siesta:    -0.000000    0.000000    0.253997

siesta: Cell volume =        168.327124 Ang**3

siesta: Pressure (static):
siesta:                Solid            Molecule  Units
siesta:           0.00817071          0.00771255  Ry/Bohr**3
siesta:           0.75020725          0.70813976  eV/Ang**3
siesta:        1201.97752633       1134.57724338  kBar
(Free)E+ p_basis*V_orbitals  =        -185.389967
(Free)Eharris+ p_basis*V_orbitals  =        -185.389952

cite: Please see "LiC18_scf.bib" for an exhaustive BiBTeX file.
cite: Please clearly indicate Siesta version in published work: 4.1.5
cite: This calculation has made use of the following articles
cite: which are encouraged to be cited in a published work.
        Primary SIESTA paper
          DOI: www.doi.org/10.1088/0953-8984/14/11/302

>> End of run:   9-NOV-2022  15:05:51
Job completed
