Siesta Version  : 4.1.5
Architecture    : x86_64-unknown-linux-gnu--unknown
Compiler version: GNU Fortran (GCC) 11.3.0
Compiler flags  : mpif90 -g -O2 -fallow-argument-mismatch
PP flags        : -DMPI -DFC_HAVE_FLUSH -DFC_HAVE_ABORT
Libraries       :  -I/global/software/sl-7.x86_64/modules/intel/2020.4.304/mkl/include  /globall/software/sl-7.x86_64/modules/intel/2020.4.304/mkl/lib/intel64/libmkl_scalapack_lp64.a -Wl,--start-group /global/software/sl-7.x86_64/modules/intel/2020.4.304/mkl/lib/intel64/libmkl_intel_lp64.a /global/software/sl-7.x86_64/modules/intel/2020.4.304/mkl/lib/intel64/libmkl_sequential.a /global/software/sl-7.x86_64/modules/intel/2020.4.304/mkl/lib/intel64/libmkl_core.a /global/software/sl-7.x86_64/modules/intel/2020.4.304/mkl/lib/intel64/libmkl_blacs_openmpi_lp64.a -Wl,--end-group -lpthread -lm -ldl
PARALLEL version

* Running on 16 nodes in parallel
>> Start of run:   9-NOV-2022  15:09:12

                           ***********************       
                           *  WELCOME TO SIESTA  *       
                           ***********************       

reinit: Reading from standard input
reinit: Dumped input in INPUT_TMP.27555
************************** Dump of input data file ****************************
SystemName LiC18_scf
SystemLabel LiC18_scf
NumberOfAtoms   19
NumberOfSpecies 2
%block ChemicalSpeciesLabel
1  3   Li-gga
2  6   C-gga
%endblock ChemicalSpeciesLabel
PAO.BasisSize  SZ
PAO.EnergyShift  10 meV
%block PS.Lmax
C-gga   2
Li-gga  2
%endblock PS.Lmax
LatticeConstant 1.000000 Ang
%block LatticeVectors
	4.3161300000	0.0000000000	0.0000000000
	-2.1580650000	3.7378782260	0.0000000000
	0.0000000000	0.0000000000	7.1037318400
%endblock LatticeVectors
AtomicCoordinatesFormat Ang
%block AtomicCoordinatesAndAtomicSpecies
	0.00000000	0.00000000	0.00000000	2
	-0.70288177	1.21742694	1.18395767	1
	-1.45518323	2.52045129	5.91977417	1
	1.45518323	2.52045129	1.18395767	1
	0.70288177	1.21742694	5.91977417	1
	1.40576354	0.00000000	1.18395767	1
	2.91036646	0.00000000	5.91977417	1
	-1.45518323	2.52045129	1.18395767	1
	-0.70288177	1.21742694	5.91977417	1
	0.70288177	1.21742694	1.18395767	1
	1.45518323	2.52045129	5.91977417	1
	2.91036646	0.00000000	1.18395767	1
	1.40576354	0.00000000	5.91977417	1
	-0.70288177	1.21742694	3.55186592	1
	-1.45518323	2.52045129	3.55186592	1
	1.45518323	2.52045129	3.55186592	1
	0.70288177	1.21742694	3.55186592	1
	1.40576354	0.00000000	3.55186592	1
	2.91036646	0.00000000	3.55186592	1
%endblock AtomicCoordinatesAndAtomicSpecies
Kgrid_NoTRS  T
%block kgrid_MonkhorstPack
4       0       0       0.0
0       4       0       0.0
0       0       4       0.0
%endblock kgrid_MonkhorstPack
AtomCoorFormatOut Ang
BlockSize 1
#ProcessorY 12
Diag.ParallelOverK   T
Diag.DivideAndConquer F
MeshCutoff   300 Ry
SCF.FreeE.Tolerance 1E-3 eV
SCF.EDM.Tolerance   5E-3 eV
DM.Tolerance  1E-3
DM.Require.Energy.Convergence T
DM.NumberPulay 4
XC.Functional GGA
XC.Authors    PBE
UseSaveData        F
MD.TypeOfRun       CG
MD.VariableCell    F
MD.NumCGsteps      00
MD.MaxCGDispl      0.200000 Bohr
MD.MaxStressTol    1.000000 GPa
MD.MaxForceTol     0.010000 eV/Ang
WriteMDHistory T
WriteCoorStep T
WriteForces T
WriteCoorStep    T
WriteEigenValues T
WriteDM    F
MM.UnitsDistance Ang  # what this program prints out DO NOT CHANGE
MM.UnitsEnergy    eV  # what this program prints out DO NOT CHANGE
MM.Grimme.S6     0.75 # Grimme-paper for PBE (correct for your functional)
MM.Grimme.D     20.   # Grimme-paper (correct for your functional)
%block MM.Potentials
  1   1 Grimme     16.69      1.650 # Li, 10.1002/jcc.20495
  1   2 Grimme     17.40      2.277 # Li / C
  2   2 Grimme     18.14      2.904 # C, 10.1002/jcc.20495
%endblock MM.Potentials
#%block ProjectedDensityOfStates
# -200.0  120.0  0.4  12800  eV
#%endblock ProjectedDensityOfStates
************************** End of input data file *****************************

reinit: -----------------------------------------------------------------------
reinit: System Name: LiC18_scf
reinit: -----------------------------------------------------------------------
reinit: System Label: LiC18_scf
reinit: -----------------------------------------------------------------------
Reading two-body potentials
Grimme - two-body potential between 1 and 1
Grimme - two-body potential between 1 and 2
Grimme - two-body potential between 2 and 2

initatom: Reading input for the pseudopotentials and atomic orbitals ----------
Species number:   1 Atomic number:    3 Label: Li-gga
Species number:   2 Atomic number:    6 Label: C-gga

Ground state valence configuration:   2s01
Reading pseudopotential information in formatted form from Li-gga.psf

Valence configuration for pseudopotential generation:
2s( 1.00) rc: 2.28
2p( 0.00) rc: 2.28
3d( 0.00) rc: 2.59
4f( 0.00) rc: 2.59
Ground state valence configuration:   2s02  2p02
Reading pseudopotential information in formatted form from C-gga.psf

Valence configuration for pseudopotential generation:
2s( 2.00) rc: 1.56
2p( 2.00) rc: 1.56
3d( 0.00) rc: 1.56
4f( 0.00) rc: 1.56
relmxkb: Read Max KB Ang. Momentum=    2 for species C-gga
relmxkb: Read Max KB Ang. Momentum=    2 for species Li-gga

<basis_specs>
===============================================================================
Li-gga               Z=   3    Mass=  6.9400        Charge= 0.17977+309
Lmxo=0 Lmxkb= 2    BasisType=split      Semic=F
L=0  Nsemic=0  Cnfigmx=2
          i=1  nzeta=1  polorb=0  (2s)
            splnorm:   0.15000    
               vcte:    0.0000    
               rinn:    0.0000    
               qcoe:    0.0000    
               qyuk:    0.0000    
               qwid:   0.10000E-01
                rcs:    0.0000    
            lambdas:    1.0000    
-------------------------------------------------------------------------------
L=0  Nkbl=1  erefs: 0.17977+309
L=1  Nkbl=1  erefs: 0.17977+309
L=2  Nkbl=1  erefs: 0.17977+309
===============================================================================
</basis_specs>

atom: Called for Li-gga                (Z =   3)

read_vps: Pseudopotential generation method:
read_vps: ATM 3.2.2 Troullier-Martins                       
Valence charge for ps generation:    1.00000

read_vps: Pseudopotential includes a core correction:
read_vps: Pseudo-core for xc-correction

xc_check: Exchange-correlation functional:
xc_check: GGA Perdew, Burke & Ernzerhof 1996
V l=0 = -2*Zval/r beyond r=  2.2278
V l=1 = -2*Zval/r beyond r=  2.2278
V l=2 = -2*Zval/r beyond r=  2.5245
All V_l potentials equal beyond r=  2.4622
This should be close to max(r_c) in ps generation
All pots = -2*Zval/r beyond r=  2.5245

VLOCAL1: 99.0% of the norm of Vloc inside      7.160 Ry
VLOCAL1: 99.9% of the norm of Vloc inside     16.318 Ry
atom: Maximum radius for 4*pi*r*r*local-pseudopot. charge    2.86079
atom: Maximum radius for r*vlocal+2*Zval:    2.43160
GHOST: No ghost state for L =  0
GHOST: No ghost state for L =  1
GHOST: No ghost state for L =  2

KBgen: Kleinman-Bylander projectors: 
   l= 0   rc=  2.654023   el= -0.211234   Ekb=  1.742119   kbcos=  0.228463
   l= 1   rc=  2.721230   el= -0.080095   Ekb= -1.122375   kbcos= -0.147941
   l= 2   rc=  2.825246   el=  0.002001   Ekb= -0.207076   kbcos= -0.031965

KBgen: Total number of Kleinman-Bylander projectors:    9
atom: -------------------------------------------------------------------------

atom: SANKEY-TYPE ORBITALS:

SPLIT: Orbitals with angular momentum L= 0

SPLIT: Basis orbitals for state 2s

SPLIT: PAO cut-off radius determined from an
SPLIT: energy shift=  0.000735 Ry

   izeta = 1
                 lambda =    1.000000
                     rc =   11.897381
                 energy =   -0.210580
                kinetic =    0.143382
    potential(screened) =   -0.353962
       potential(ionic) =   -0.533453
atom: Total number of Sankey-type orbitals:  1

atm_pop: Valence configuration (for local Pseudopot. screening):
 2s( 1.00)                                                            
Vna: chval, zval:    1.00000   1.00000

Vna:  Cut-off radius for the neutral-atom potential:  11.897381
comcore: Pseudo-core radius Rcore=  3.450946

atom: _________________________________________________________________________

<basis_specs>
===============================================================================
C-gga                Z=   6    Mass=  12.010        Charge= 0.17977+309
Lmxo=1 Lmxkb= 2    BasisType=split      Semic=F
L=0  Nsemic=0  Cnfigmx=2
          i=1  nzeta=1  polorb=0  (2s)
            splnorm:   0.15000    
               vcte:    0.0000    
               rinn:    0.0000    
               qcoe:    0.0000    
               qyuk:    0.0000    
               qwid:   0.10000E-01
                rcs:    0.0000    
            lambdas:    1.0000    
L=1  Nsemic=0  Cnfigmx=2
          i=1  nzeta=1  polorb=0  (2p)
            splnorm:   0.15000    
               vcte:    0.0000    
               rinn:    0.0000    
               qcoe:    0.0000    
               qyuk:    0.0000    
               qwid:   0.10000E-01
                rcs:    0.0000    
            lambdas:    1.0000    
-------------------------------------------------------------------------------
L=0  Nkbl=1  erefs: 0.17977+309
L=1  Nkbl=1  erefs: 0.17977+309
L=2  Nkbl=1  erefs: 0.17977+309
===============================================================================
</basis_specs>

atom: Called for C-gga                 (Z =   6)

read_vps: Pseudopotential generation method:
read_vps: ATM 3.2.2 Troullier-Martins                       
Valence charge for ps generation:    4.00000

xc_check: Exchange-correlation functional:
xc_check: GGA Perdew, Burke & Ernzerhof 1996
V l=0 = -2*Zval/r beyond r=  1.5227
V l=1 = -2*Zval/r beyond r=  1.5227
V l=2 = -2*Zval/r beyond r=  1.5227
All V_l potentials equal beyond r=  1.4851
This should be close to max(r_c) in ps generation
All pots = -2*Zval/r beyond r=  1.5227

VLOCAL1: 99.0% of the norm of Vloc inside     19.682 Ry
VLOCAL1: 99.9% of the norm of Vloc inside     44.856 Ry
atom: Maximum radius for 4*pi*r*r*local-pseudopot. charge    1.79142
atom: Maximum radius for r*vlocal+2*Zval:    1.54183
GHOST: No ghost state for L =  0
GHOST: No ghost state for L =  1
GHOST: No ghost state for L =  2

KBgen: Kleinman-Bylander projectors: 
   l= 0   rc=  1.661951   el= -1.010689   Ekb=  5.289847   kbcos=  0.316429
   l= 1   rc=  1.661951   el= -0.388490   Ekb= -4.102504   kbcos= -0.351025
   l= 2   rc=  1.747182   el=  0.001971   Ekb= -1.006005   kbcos= -0.008530

KBgen: Total number of Kleinman-Bylander projectors:    9
atom: -------------------------------------------------------------------------

atom: SANKEY-TYPE ORBITALS:

SPLIT: Orbitals with angular momentum L= 0

SPLIT: Basis orbitals for state 2s

SPLIT: PAO cut-off radius determined from an
SPLIT: energy shift=  0.000735 Ry

   izeta = 1
                 lambda =    1.000000
                     rc =    5.948690
                 energy =   -1.010099
                kinetic =    0.827121
    potential(screened) =   -1.837220
       potential(ionic) =   -5.392783

SPLIT: Orbitals with angular momentum L= 1

SPLIT: Basis orbitals for state 2p

SPLIT: PAO cut-off radius determined from an
SPLIT: energy shift=  0.000735 Ry

   izeta = 1
                 lambda =    1.000000
                     rc =    7.638387
                 energy =   -0.387843
                kinetic =    2.314739
    potential(screened) =   -2.702582
       potential(ionic) =   -6.092371
atom: Total number of Sankey-type orbitals:  4

atm_pop: Valence configuration (for local Pseudopot. screening):
 2s( 2.00)                                                            
 2p( 2.00)                                                            
Vna: chval, zval:    4.00000   4.00000

Vna:  Cut-off radius for the neutral-atom potential:   7.638387

atom: _________________________________________________________________________

prinput: Basis input ----------------------------------------------------------

PAO.BasisType split     

%block ChemicalSpeciesLabel
    1    3 Li-gga                  # Species index, atomic number, species label
    2    6 C-gga                   # Species index, atomic number, species label
%endblock ChemicalSpeciesLabel

%block PAO.Basis                 # Define Basis set
Li-gga                1                    # Species label, number of l-shells
 n=2   0   1                         # n, l, Nzeta 
  11.897   
   1.000   
C-gga                 2                    # Species label, number of l-shells
 n=2   0   1                         # n, l, Nzeta 
   5.949   
   1.000   
 n=2   1   1                         # n, l, Nzeta 
   7.638   
   1.000   
%endblock PAO.Basis

prinput: ----------------------------------------------------------------------

coor:   Atomic-coordinates input format  =     Cartesian coordinates
coor:                                          (in Angstroms)

siesta: Atomic coordinates (Bohr) and species
siesta:      0.00000   0.00000   0.00000  2        1
siesta:     -1.32825   2.30060   2.23736  1        2
siesta:     -2.74990   4.76296  11.18676  1        3
siesta:      2.74990   4.76296   2.23736  1        4
siesta:      1.32825   2.30060  11.18676  1        5
siesta:      2.65651   0.00000   2.23736  1        6
siesta:      5.49980   0.00000  11.18676  1        7
siesta:     -2.74990   4.76296   2.23736  1        8
siesta:     -1.32825   2.30060  11.18676  1        9
siesta:      1.32825   2.30060   2.23736  1       10
siesta:      2.74990   4.76296  11.18676  1       11
siesta:      5.49980   0.00000   2.23736  1       12
siesta:      2.65651   0.00000  11.18676  1       13
siesta:     -1.32825   2.30060   6.71206  1       14
siesta:     -2.74990   4.76296   6.71206  1       15
siesta:      2.74990   4.76296   6.71206  1       16
siesta:      1.32825   2.30060   6.71206  1       17
siesta:      2.65651   0.00000   6.71206  1       18
siesta:      5.49980   0.00000   6.71206  1       19

siesta: System type = bulk      

initatomlists: Number of atoms, orbitals, and projectors:     19    22   171

siesta: ******************** Simulation parameters ****************************
siesta:
siesta: The following are some of the parameters of the simulation.
siesta: A complete list of the parameters used, including default values,
siesta: can be found in file out.fdf
siesta:
redata: Spin configuration                          = none
redata: Number of spin components                   = 1
redata: Time-Reversal Symmetry                      = T
redata: Spin spiral                                 = F
redata: Long output                                 =   F
redata: Number of Atomic Species                    =        2
redata: Charge density info will appear in .RHO file
redata: Write Mulliken Pop.                         = NO
redata: Matel table size (NRTAB)                    =     1024
redata: Mesh Cutoff                                 =   300.0000 Ry
redata: Net charge of the system                    =     0.0000 |e|
redata: Min. number of SCF Iter                     =        0
redata: Max. number of SCF Iter                     =     1000
redata: SCF convergence failure will abort job
redata: SCF mix quantity                            = Hamiltonian
redata: Mix DM or H after convergence               =   F
redata: Recompute H after scf cycle                 =   F
redata: Mix DM in first SCF step                    =   T
redata: Write Pulay info on disk                    =   F
redata: New DM Occupancy tolerance                  = 0.000000000001
redata: No kicks to SCF
redata: DM Mixing Weight for Kicks                  =     0.5000
redata: Require Harris convergence for SCF          =   F
redata: Harris energy tolerance for SCF             =     0.000100 eV
redata: Require DM convergence for SCF              =   T
redata: DM tolerance for SCF                        =     0.001000
redata: Require EDM convergence for SCF             =   F
redata: EDM tolerance for SCF                       =     0.005000 eV
redata: Require H convergence for SCF               =   T
redata: Hamiltonian tolerance for SCF               =     0.001000 eV
redata: Require (free) Energy convergence for SCF   =   T
redata: (free) Energy tolerance for SCF             =     0.001000 eV
redata: Using Saved Data (generic)                  =   F
redata: Use continuation files for DM               =   F
redata: Neglect nonoverlap interactions             =   F
redata: Method of Calculation                       = Diagonalization
redata: Electronic Temperature                      =   299.9869 K
redata: Fix the spin of the system                  =   F
redata: Dynamics option                             = Single-point calculation
mix.SCF: Pulay mixing                            = Pulay
mix.SCF:    Variant                              = stable
mix.SCF:    History steps                        = 4
mix.SCF:    Linear mixing weight                 =     0.250000
mix.SCF:    Mixing weight                        =     0.250000
mix.SCF:    SVD condition                        = 0.1000E-07
redata: ***********************************************************************

%block SCF.Mixers
  Pulay
%endblock SCF.Mixers

%block SCF.Mixer.Pulay
  # Mixing method
  method pulay
  variant stable

  # Mixing options
  weight 0.2500
  weight.linear 0.2500
  history 4
%endblock SCF.Mixer.Pulay

DM_history_depth set to one: no extrapolation allowed by default for geometry relaxation
Size of DM history Fstack: 1
Total number of electrons:    22.000000
Total ionic charge:    22.000000

* ProcessorY, Blocksize:    4   1


* Orbital distribution balance (max,min):     2     1

k-point displ. along   1 input, could be:     0.00    0.50
k-point displ. along   2 input, could be:     0.00    0.50
k-point displ. along   3 input, could be:     0.00    0.50
 Kpoints in:           48 . Kpoints trimmed:           44

siesta: k-grid: Number of k-points =    44
siesta: k-grid: Cutoff (effective) =     8.632 Ang
siesta: k-grid: Supercell and displacements
siesta: k-grid:    4   0   0      0.000
siesta: k-grid:    0   4   0      0.000
siesta: k-grid:    0   0   4      0.000

diag: Algorithm                                     = Expert
diag: Parallel over k                               =   T
diag: Use parallel 2D distribution                  =   T
diag: Parallel block-size                           = 1
diag: Parallel distribution                         =     4 x     4
diag: Used triangular part                          = Lower
diag: Absolute tolerance                            =  0.100E-15
diag: Orthogonalization factor                      =  0.100E-05
diag: Memory factor                                 =  1.0000

superc: Internal auxiliary supercell:     9 x     9 x     5  =     405
superc: Number of atoms, orbitals, and projectors:   7695   8910  69255


ts: **************************************************************
ts: Save H and S matrices                           =    F
ts: Save DM and EDM matrices                        =    F
ts: Only save the overlap matrix S                  =    F
ts: **************************************************************

************************ Begin: TS CHECKS AND WARNINGS ************************
************************ End: TS CHECKS AND WARNINGS **************************


                     ====================================
                        Single-point calculation
                     ====================================

outcoor: Atomic coordinates (Ang):                          
    0.00000000    0.00000000    0.00000000   2       1  C-gga
   -0.70288177    1.21742694    1.18395767   1       2  Li-gga
   -1.45518323    2.52045129    5.91977417   1       3  Li-gga
    1.45518323    2.52045129    1.18395767   1       4  Li-gga
    0.70288177    1.21742694    5.91977417   1       5  Li-gga
    1.40576354    0.00000000    1.18395767   1       6  Li-gga
    2.91036646    0.00000000    5.91977417   1       7  Li-gga
   -1.45518323    2.52045129    1.18395767   1       8  Li-gga
   -0.70288177    1.21742694    5.91977417   1       9  Li-gga
    0.70288177    1.21742694    1.18395767   1      10  Li-gga
    1.45518323    2.52045129    5.91977417   1      11  Li-gga
    2.91036646    0.00000000    1.18395767   1      12  Li-gga
    1.40576354    0.00000000    5.91977417   1      13  Li-gga
   -0.70288177    1.21742694    3.55186592   1      14  Li-gga
   -1.45518323    2.52045129    3.55186592   1      15  Li-gga
    1.45518323    2.52045129    3.55186592   1      16  Li-gga
    0.70288177    1.21742694    3.55186592   1      17  Li-gga
    1.40576354    0.00000000    3.55186592   1      18  Li-gga
    2.91036646    0.00000000    3.55186592   1      19  Li-gga

superc: Internal auxiliary supercell:     9 x     9 x     5  =     405
superc: Number of atoms, orbitals, and projectors:   7695   8910  69255

outcell: Unit cell vectors (Ang):
        4.316130    0.000000    0.000000
       -2.158065    3.737878    0.000000
        0.000000    0.000000    7.103732

outcell: Cell vector modules (Ang)   :    4.316130    4.316130    7.103732
outcell: Cell angles (23,13,12) (deg):     90.0000     90.0000    120.0000
outcell: Cell volume (Ang**3)        :    114.6057
<dSpData1D:S at geom step 0
  <sparsity:sparsity for geom step 0
    nrows_g=22 nrows=2 sparsity=7.3037 nnzs=3535, refcount: 7>
  <dData1D:(new from dSpData1D) n=3535, refcount: 1>
refcount: 1>
new_DM -- step:     1
Initializing Density Matrix...
DM filled with atomic data:
<dSpData2D:DM initialized from atoms
  <sparsity:sparsity for geom step 0
    nrows_g=22 nrows=2 sparsity=7.3037 nnzs=3535, refcount: 8>
  <dData2D:DM n=3535 m=1, refcount: 1>
refcount: 1>
No. of atoms with KB's overlaping orbs in proc 0. Max # of overlaps:     318     329
New grid distribution:   1
           1       1:   20    1:    5    1:   10
           2       1:   20    1:    5   11:   20
           3       1:   20    1:    5   21:   30
           4       1:   20    1:    5   31:   40
           5       1:   20    6:   10    1:   10
           6       1:   20    6:   10   11:   20
           7       1:   20    6:   10   21:   30
           8       1:   20    6:   10   31:   40
           9       1:   20   11:   15    1:   10
          10       1:   20   11:   15   11:   20
          11       1:   20   11:   15   21:   30
          12       1:   20   11:   15   31:   40
          13       1:   20   16:   20    1:   10
          14       1:   20   16:   20   11:   20
          15       1:   20   16:   20   21:   30
          16       1:   20   16:   20   31:   40

InitMesh: MESH =    40 x    40 x    80 =      128000
InitMesh: (bp) =    20 x    20 x    40 =       16000
InitMesh: Mesh cutoff (required, used) =   300.000   316.498 Ry
ExtMesh (bp) on 0 =   156 x   141 x   154 =     3387384
New grid distribution:   2
           1       1:   10    1:   10    1:   10
           2       1:   10    1:   10   11:   20
           3       1:   10    1:   10   21:   30
           4       1:   10    1:   10   31:   40
           5      11:   20    1:   10    1:   10
           6      11:   20    1:   10   11:   20
           7      11:   20    1:   10   21:   30
           8      11:   20    1:   10   31:   40
           9       1:   10   11:   20    1:   10
          10       1:   10   11:   20   11:   20
          11       1:   10   11:   20   21:   30
          12       1:   10   11:   20   31:   40
          13      11:   20   11:   20    1:   10
          14      11:   20   11:   20   11:   20
          15      11:   20   11:   20   21:   30
          16      11:   20   11:   20   31:   40
New grid distribution:   3
           1       1:   10    1:   10    1:   10
           2       1:   10    1:   10   11:   20
           3       1:   10    1:   10   21:   30
           4       1:   10    1:   10   31:   40
           5      11:   20    1:   10    1:   10
           6      11:   20    1:   10   11:   20
           7      11:   20    1:   10   21:   30
           8      11:   20    1:   10   31:   40
           9       1:   10   11:   20    1:   10
          10       1:   10   11:   20   11:   20
          11       1:   10   11:   20   21:   30
          12       1:   10   11:   20   31:   40
          13      11:   20   11:   20    1:   10
          14      11:   20   11:   20   11:   20
          15      11:   20   11:   20   21:   30
          16      11:   20   11:   20   31:   40
Setting up quadratic distribution...
ExtMesh (bp) on 0 =   146 x   146 x   154 =     3282664
PhiOnMesh: Number of (b)points on node 0 =                 1000
PhiOnMesh: nlist on node 0 =               180647

stepf: Fermi-Dirac step function

siesta: Program's energy decomposition (eV):
siesta: Ebs     =      -252.740594
siesta: Eions   =       439.895300
siesta: Ena     =        99.804725
siesta: Ekin    =       364.726887
siesta: Enl     =        51.383011
siesta: Eso     =         0.000000
siesta: Edftu   =         0.000000
siesta: DEna    =       -60.339690
siesta: DUscf   =        46.949029
siesta: DUext   =         0.000000
siesta: Exc     =      -253.541304
siesta: eta*DQ  =         0.000000
siesta: Emadel  =         0.000000
siesta: Emeta   =         0.000000
siesta: Emolmec =       -11.851066
siesta: Ekinion =         0.000000
siesta: Eharris =       -80.062064
siesta: Etot    =      -202.763709
siesta: FreeEng =      -202.769705

        iscf     Eharris(eV)        E_KS(eV)     FreeEng(eV)     dDmax    Ef(eV) dHmax(eV)
   scf:    1      -80.062064     -202.763709     -202.769705  8.620175-11.295391 24.990052
timer: Routine,Calls,Time,% = IterSCF        1       1.011  16.01
   scf:    2     -222.578072     -213.252404     -213.255489  1.982473-11.373250 14.436554
   scf:    3     -185.837984     -212.683035     -212.689659  8.657550 -6.487431 14.487716
   scf:    4     -103.591139     -164.974858     -164.978300 10.753270  1.559116 38.431031
   scf:    5     -171.495315     -168.250517     -168.255866  0.612914  1.098673 37.164842
   scf:    6     -213.160568     -219.319454     -219.321680 16.038789-10.762373  7.165512
   scf:    7     -219.277624     -219.298577     -219.300816  0.026417-10.782976  7.195847
   scf:    8     -216.156554     -220.559363     -220.565122  3.891848 -8.914811  4.983314
   scf:    9     -221.355530     -221.723115     -221.732918  2.327812 -9.927230  1.418976
   scf:   10     -221.839051     -221.789210     -221.798377  0.167796 -9.675011  0.619709
   scf:   11     -221.806901     -221.798976     -221.808613  0.064175 -9.581143  0.339941
   scf:   12     -221.804299     -221.802544     -221.813275  0.078644 -9.525154  0.101066
   scf:   13     -221.802612     -221.802684     -221.813757  0.032713 -9.513465  0.026718
   scf:   14     -221.794510     -221.799716     -221.811697  0.115360 -9.485848  0.198842
   scf:   15     -221.802809     -221.802718     -221.813605  0.130842 -9.519908  0.061685
   scf:   16     -221.802438     -221.802637     -221.813798  0.024959 -9.511457  0.007771
   scf:   17     -221.802336     -221.802500     -221.813786  0.012180 -9.507385  0.017525
   scf:   18     -221.802683     -221.802598     -221.813802  0.008246 -9.509780  0.000471
   scf:   19     -221.802596     -221.802597     -221.813802  0.000124 -9.509739  0.000730

SCF Convergence by FreeE+DM+H criterion
|FreeE_i-FreeE_(i-1)| (eV) <     0.00100000
max |DM_out - DM_in|         :     0.0001238935
max |H_out - H_in|      (eV) :     0.0007296797
SCF cycle converged after 19 iterations

Using DM_out to compute the final energy and forces
No. of atoms with KB's overlaping orbs in proc 0. Max # of overlaps:     318     329

MM-Stress (kbar):       34.67       34.67      270.81        0.00        0.00       -0.00

siesta: E_KS(eV) =             -221.8026

siesta: E_KS - E_eggbox =      -221.8026

siesta: Atomic forces (eV/Ang):
     1   -0.000000    0.000000    0.000000
     2   -0.077784    0.134938   -0.901449
     3    0.077784   -0.134938    0.901449
     4   -0.077820   -0.134788   -0.901654
     5    0.077820    0.134787    0.901654
     6    0.155752    0.000107   -0.901449
     7   -0.155752   -0.000107    0.901449
     8    0.077784   -0.134938   -0.901449
     9   -0.077784    0.134938    0.901449
    10    0.077820    0.134787   -0.901654
    11   -0.077820   -0.134788    0.901654
    12   -0.155752   -0.000107   -0.901449
    13    0.155752    0.000107    0.901449
    14   -0.263601    0.456558   -0.000000
    15    0.263601   -0.456558   -0.000000
    16   -0.263596   -0.456561   -0.000000
    17    0.263596    0.456561   -0.000000
    18    0.527192   -0.000006   -0.000000
    19   -0.527192    0.000006   -0.000000
----------------------------------------
   Tot    0.000000    0.000000    0.000000
----------------------------------------
   Max    0.901654
   Res    0.453279    sqrt( Sum f_i^2 / 3N )
----------------------------------------
   Max    0.901654    constrained

Stress tensor Voigt[x,y,z,yz,xz,xy] (kbar):    -2595.03    -2595.07     -106.58        0.00       -0.00       -0.04
(Free)E + p*V (eV/cell)      -95.5226
Target enthalpy (eV/cell)     -221.8138

siesta: Eigenvalues (eV):
  ik is       eps
   1  1  -22.2206  -20.2572  -19.3814  -19.2249  -18.6347  -18.4148  -18.3502  -17.9663  -17.8326  -10.6075
          -9.8082   -9.5377   -3.8342   11.0142   12.2921   14.6768   15.2039   15.6594   15.7349   15.9434
   16.8603   17.6707
   2  1  -22.3065  -20.6914  -18.7933  -18.4967  -17.7853  -17.4445  -15.0609  -14.9660  -13.1776  -11.8952
         -10.5188  -10.0814   -6.5205    0.0719    3.3732    9.1956   13.6330   14.8518   17.6455   19.4566
   20.0502   21.3940
   3  1  -22.3065  -20.6914  -18.7933  -18.4967  -17.7853  -17.4445  -15.0609  -14.9660  -13.1777  -11.8952
         -10.5188  -10.0813   -6.5203    0.0716    3.3732    9.1957   13.6330   14.8518   17.6455   19.4566
   20.0502   21.3939
   4  1  -22.2206  -20.2572  -19.3814  -19.2249  -18.6347  -18.4149  -18.3502  -17.9663  -17.8326  -10.6075
          -9.8085   -9.5375   -3.8342   11.0142   12.2921   14.6769   15.2039   15.6594   15.7349   15.9433
   16.8604   17.6707
   5  1  -22.3065  -20.6914  -18.7933  -18.4967  -17.7853  -17.4445  -15.0609  -14.9660  -13.1776  -11.8952
         -10.5188  -10.0814   -6.5205    0.0719    3.3732    9.1956   13.6330   14.8518   17.6455   19.4566
   20.0502   21.3940
   6  1  -22.3854  -20.9321  -19.0357  -14.1350  -14.1350  -13.4514  -12.8150   -9.1876   -9.1876   -6.3130
          -6.3129    5.6250    5.6250    7.3490    7.3491    7.4642    7.4642   14.9061   14.9062   18.9172
   21.0099   21.7883
   7  1  -22.2074  -20.1168  -19.9841  -18.6099  -18.5938  -18.4491  -16.8820  -15.4229  -14.3835  -13.0850
         -12.2938   -9.3017   -8.8158   -0.5706    0.9799    7.6812   13.7220   14.0950   15.3522   15.6018
   16.1106   16.9843
   8  1  -22.2206  -20.2572  -19.3814  -19.2249  -18.6347  -18.4149  -18.3502  -17.9663  -17.8326  -10.6075
          -9.8085   -9.5375   -3.8342   11.0142   12.2921   14.6769   15.2039   15.6594   15.7349   15.9433
   16.8604   17.6707
   9  1  -22.2206  -20.2572  -19.3814  -19.2249  -18.6347  -18.4149  -18.3502  -17.9663  -17.8326  -10.6075
          -9.8085   -9.5375   -3.8342   11.0142   12.2921   14.6769   15.2039   15.6594   15.7349   15.9433
   16.8604   17.6707
  10  1  -22.2074  -20.1168  -19.9841  -18.6099  -18.5938  -18.4491  -16.8820  -15.4229  -14.3835  -13.0850
         -12.2938   -9.3017   -8.8158   -0.5706    0.9799    7.6812   13.7220   14.0950   15.3522   15.6018
   16.1106   16.9843
  11  1  -22.2206  -20.2572  -19.3814  -19.2249  -18.6347  -18.4149  -18.3502  -17.9663  -17.8326  -10.6075
          -9.8085   -9.5375   -3.8342   11.0142   12.2921   14.6769   15.2039   15.6594   15.7349   15.9433
   16.8604   17.6707
  12  1  -22.2074  -20.1168  -19.9841  -18.6099  -18.5938  -18.4491  -16.8820  -15.4229  -14.3835  -13.0850
         -12.2938   -9.3017   -8.8155   -0.5709    0.9799    7.6813   13.7220   14.0950   15.3521   15.6018
   16.1105   16.9843
  13  1  -22.1934  -20.3114  -19.4101  -19.1942  -18.8721  -18.2150  -17.3716  -16.3951  -15.9851  -10.8865
          -9.9339   -9.4984   -3.3582   11.4578   12.4905   13.5192   14.0826   15.2038   15.8310   16.6443
   17.0038   17.6680
  14  1  -22.2897  -20.7918  -18.6747  -18.4269  -17.0788  -15.4621  -15.0584  -14.1869  -13.9392  -12.4468
          -9.8682   -7.6680   -6.2313    0.6205    6.6120   11.5070   11.9273   17.5048   17.7686   19.4748
   20.0200   21.2587
  15  1  -22.2897  -20.7918  -18.6747  -18.4269  -17.0788  -15.4621  -15.0584  -14.1869  -13.9392  -12.4468
          -9.8681   -7.6681   -6.2312    0.6206    6.6119   11.5070   11.9273   17.5047   17.7686   19.4748
   20.0200   21.2586
  16  1  -22.1934  -20.3114  -19.4101  -19.1942  -18.8722  -18.2149  -17.3716  -16.3951  -15.9851  -10.8865
          -9.9341   -9.4982   -3.3581   11.4578   12.4905   13.5192   14.0825   15.2038   15.8311   16.6442
   17.0038   17.6681
  17  1  -22.2897  -20.7918  -18.6747  -18.4269  -17.0788  -15.4621  -15.0584  -14.1869  -13.9392  -12.4468
          -9.8682   -7.6680   -6.2313    0.6205    6.6120   11.5070   11.9273   17.5048   17.7686   19.4748
   20.0200   21.2587
  18  1  -22.3688  -21.0592  -17.8745  -14.1803  -14.1803  -13.6988  -12.0299   -8.8219   -8.8219   -7.6294
          -7.6293   -1.5720   -1.5719    5.0006    5.0007   10.7619   10.7619   11.9757   11.9758   19.0293
   20.8636   21.8195
  19  1  -22.2897  -20.7918  -18.6747  -18.4269  -17.0788  -15.4621  -15.0584  -14.1869  -13.9392  -12.4468
          -9.8682   -7.6680   -6.2313    0.6205    6.6120   11.5070   11.9273   17.5048   17.7686   19.4748
   20.0200   21.2587
  20  1  -22.1852  -20.1174  -20.0934  -19.0749  -17.4732  -16.4376  -16.0628  -15.3812  -14.7228  -13.5544
          -9.4627   -9.2172   -8.2200   -2.5905    3.7955   11.8247   13.7063   14.0806   15.4319   15.7331
   15.9110   16.8143
  21  1  -22.2897  -20.7918  -18.6747  -18.4269  -17.0788  -15.4621  -15.0584  -14.1869  -13.9392  -12.4468
          -9.8681   -7.6681   -6.2312    0.6206    6.6119   11.5070   11.9273   17.5047   17.7686   19.4748
   20.0200   21.2586
  22  1  -22.2897  -20.7918  -18.6747  -18.4269  -17.0788  -15.4621  -15.0584  -14.1869  -13.9392  -12.4468
          -9.8682   -7.6680   -6.2313    0.6205    6.6120   11.5070   11.9273   17.5048   17.7686   19.4748
   20.0200   21.2587
  23  1  -22.1934  -20.3114  -19.4101  -19.1942  -18.8721  -18.2150  -17.3716  -16.3951  -15.9851  -10.8865
          -9.9339   -9.4984   -3.3582   11.4578   12.4905   13.5192   14.0826   15.2038   15.8310   16.6443
   17.0038   17.6680
  24  1  -22.1934  -20.3114  -19.4101  -19.1942  -18.8722  -18.2149  -17.3716  -16.3951  -15.9851  -10.8865
          -9.9341   -9.4982   -3.3581   11.4578   12.4905   13.5192   14.0825   15.2038   15.8311   16.6442
   17.0038   17.6681
  25  1  -22.1934  -20.3114  -19.4101  -19.1942  -18.8722  -18.2149  -17.3716  -16.3951  -15.9851  -10.8865
          -9.9341   -9.4982   -3.3581   11.4578   12.4905   13.5192   14.0825   15.2038   15.8311   16.6442
   17.0038   17.6681
  26  1  -22.1852  -20.1174  -20.0934  -19.0749  -17.4732  -16.4376  -16.0628  -15.3812  -14.7228  -13.5544
          -9.4627   -9.2172   -8.2200   -2.5905    3.7955   11.8247   13.7063   14.0806   15.4319   15.7331
   15.9110   16.8143
  27  1  -22.1934  -20.3114  -19.4101  -19.1942  -18.8722  -18.2149  -17.3716  -16.3951  -15.9851  -10.8865
          -9.9341   -9.4982   -3.3581   11.4578   12.4905   13.5192   14.0825   15.2038   15.8311   16.6442
   17.0038   17.6681
  28  1  -22.1852  -20.1174  -20.0934  -19.0750  -17.4732  -16.4376  -16.0628  -15.3812  -14.7228  -13.5544
          -9.4628   -9.2170   -8.2199   -2.5905    3.7953   11.8248   13.7063   14.0806   15.4318   15.7332
   15.9109   16.8143
  29  1  -22.1662  -20.3536  -19.4004  -19.1619  -18.9570  -18.2435  -15.1381  -12.4675  -12.0578  -11.6291
         -11.1530   -9.9702   -1.9069   11.9023   12.4717   13.3645   13.7605   14.9791   15.1696   16.0708
   16.9540   17.5941
  30  1  -22.2716  -20.8685  -18.5922  -18.5418  -15.0449  -14.9792  -14.6344  -14.1479  -12.1229  -11.2761
          -9.9982   -6.4574   -4.2451   -0.6972   10.9449   13.0961   17.7792   19.4124   19.4656   19.9330
   20.8145   22.7083
  31  1  -22.2716  -20.8685  -18.5922  -18.5418  -15.0449  -14.9791  -14.6344  -14.1479  -12.1229  -11.2759
          -9.9982   -6.4577   -4.2450   -0.6972   10.9449   13.0962   17.7792   19.4124   19.4656   19.9330
   20.8145   22.7083
  32  1  -22.1662  -20.3536  -19.4004  -19.1619  -18.9570  -18.2435  -15.1381  -12.4675  -12.0578  -11.6291
         -11.1532   -9.9700   -1.9069   11.9023   12.4717   13.3646   13.7604   14.9791   15.1696   16.0708
   16.9540   17.5941
  33  1  -22.2716  -20.8685  -18.5922  -18.5418  -15.0449  -14.9792  -14.6344  -14.1479  -12.1229  -11.2761
          -9.9982   -6.4574   -4.2451   -0.6972   10.9449   13.0961   17.7792   19.4124   19.4656   19.9330
   20.8145   22.7083
  34  1  -22.3494  -21.1546  -16.1313  -14.2297  -14.2297  -13.9599   -9.7342   -8.7439   -8.7438   -7.5236
          -7.5236   -6.4942   -6.4942    4.5923    4.5926    9.9773    9.9773   10.4959   10.4960   19.1482
   20.7050   21.8530
  35  1  -22.2716  -20.8685  -18.5922  -18.5418  -15.0449  -14.9792  -14.6344  -14.1479  -12.1229  -11.2761
          -9.9982   -6.4574   -4.2451   -0.6972   10.9449   13.0961   17.7792   19.4124   19.4656   19.9330
   20.8145   22.7083
  36  1  -22.1643  -20.1580  -20.1166  -19.1821  -15.7697  -15.4995  -15.3193  -14.7711  -13.6783  -12.7441
         -10.8652   -6.9379   -6.5607   -5.8719   13.7148   13.9856   15.3999   15.4377   15.7650   15.9003
   16.0587   34.7429
  37  1  -22.2716  -20.8685  -18.5922  -18.5418  -15.0449  -14.9791  -14.6344  -14.1479  -12.1229  -11.2759
          -9.9982   -6.4577   -4.2450   -0.6972   10.9449   13.0962   17.7792   19.4124   19.4656   19.9330
   20.8145   22.7083
  38  1  -22.2716  -20.8685  -18.5922  -18.5418  -15.0449  -14.9792  -14.6344  -14.1479  -12.1229  -11.2761
          -9.9982   -6.4574   -4.2451   -0.6972   10.9449   13.0961   17.7792   19.4124   19.4656   19.9330
   20.8145   22.7083
  39  1  -22.1662  -20.3536  -19.4004  -19.1619  -18.9570  -18.2435  -15.1381  -12.4675  -12.0578  -11.6291
         -11.1530   -9.9702   -1.9069   11.9023   12.4717   13.3645   13.7605   14.9791   15.1696   16.0708
   16.9540   17.5941
  40  1  -22.1662  -20.3536  -19.4004  -19.1619  -18.9570  -18.2435  -15.1381  -12.4675  -12.0578  -11.6291
         -11.1532   -9.9700   -1.9069   11.9023   12.4717   13.3646   13.7604   14.9791   15.1696   16.0708
   16.9540   17.5941
  41  1  -22.1662  -20.3536  -19.4004  -19.1619  -18.9570  -18.2435  -15.1381  -12.4675  -12.0578  -11.6291
         -11.1532   -9.9700   -1.9069   11.9023   12.4717   13.3646   13.7604   14.9791   15.1696   16.0708
   16.9540   17.5941
  42  1  -22.1643  -20.1580  -20.1166  -19.1821  -15.7697  -15.4995  -15.3193  -14.7711  -13.6783  -12.7441
         -10.8652   -6.9379   -6.5607   -5.8719   13.7148   13.9856   15.3999   15.4377   15.7650   15.9003
   16.0587   34.7429
  43  1  -22.1662  -20.3536  -19.4004  -19.1619  -18.9570  -18.2435  -15.1381  -12.4675  -12.0578  -11.6291
         -11.1532   -9.9700   -1.9069   11.9023   12.4717   13.3646   13.7604   14.9791   15.1696   16.0708
   16.9540   17.5941
  44  1  -22.1643  -20.1580  -20.1166  -19.1822  -15.7697  -15.4995  -15.3193  -14.7711  -13.6783  -12.7441
         -10.8650   -6.9379   -6.5610   -5.8719   13.7148   13.9856   15.4000   15.4377   15.7649   15.9003
   16.0587   34.7428
siesta: Fermi energy =      -9.509739 eV

siesta: Program's energy decomposition (eV):
siesta: Ebs     =      -362.583603
siesta: Eions   =       439.895300
siesta: Ena     =        99.804725
siesta: Ekin    =       312.467655
siesta: Enl     =        71.047927
siesta: Eso     =         0.000000
siesta: Edftu   =         0.000000
siesta: DEna    =       -23.707684
siesta: DUscf   =        10.816780
siesta: DUext   =         0.000000
siesta: Exc     =      -240.485635
siesta: eta*DQ  =         0.000000
siesta: Emadel  =         0.000000
siesta: Emeta   =         0.000000
siesta: Emolmec =       -11.851066
siesta: Ekinion =         0.000000
siesta: Eharris =      -221.802596
siesta: Etot    =      -221.802597
siesta: FreeEng =      -221.813802

siesta: Final energy (eV):
siesta:  Band Struct. =    -362.583603
siesta:       Kinetic =     312.467655
siesta:       Hartree =     122.151554
siesta:       Edftu   =       0.000000
siesta:       Eso     =       0.000000
siesta:    Ext. field =       0.000000
siesta:   Exch.-corr. =    -240.485635
siesta:  Ion-electron =    -668.840557
siesta:       Ion-ion =     264.755452
siesta:       Ekinion =       0.000000
siesta:         Total =    -221.802597
siesta:         Fermi =      -9.509739

siesta: Atomic forces (eV/Ang):
siesta:      1   -0.000000    0.000000    0.000000
siesta:      2   -0.077784    0.134938   -0.901449
siesta:      3    0.077784   -0.134938    0.901449
siesta:      4   -0.077820   -0.134788   -0.901654
siesta:      5    0.077820    0.134787    0.901654
siesta:      6    0.155752    0.000107   -0.901449
siesta:      7   -0.155752   -0.000107    0.901449
siesta:      8    0.077784   -0.134938   -0.901449
siesta:      9   -0.077784    0.134938    0.901449
siesta:     10    0.077820    0.134787   -0.901654
siesta:     11   -0.077820   -0.134788    0.901654
siesta:     12   -0.155752   -0.000107   -0.901449
siesta:     13    0.155752    0.000107    0.901449
siesta:     14   -0.263601    0.456558   -0.000000
siesta:     15    0.263601   -0.456558   -0.000000
siesta:     16   -0.263596   -0.456561   -0.000000
siesta:     17    0.263596    0.456561   -0.000000
siesta:     18    0.527192   -0.000006   -0.000000
siesta:     19   -0.527192    0.000006   -0.000000
siesta: ----------------------------------------
siesta:    Tot    0.000000    0.000000    0.000000

siesta: Stress tensor (static) (eV/Ang**3):
siesta:    -1.619670   -0.000023   -0.000000
siesta:    -0.000023   -1.619696    0.000000
siesta:    -0.000000    0.000000   -0.066521

siesta: Cell volume =        114.605702 Ang**3

siesta: Pressure (static):
siesta:                Solid            Molecule  Units
siesta:           0.01200178          0.01131022  Ry/Bohr**3
siesta:           1.10196249          1.03846608  eV/Ang**3
siesta:        1765.55763192       1663.82407687  kBar
(Free)E+ p_basis*V_orbitals  =        -197.818090
(Free)Eharris+ p_basis*V_orbitals  =        -197.818089

cite: Please see "LiC18_scf.bib" for an exhaustive BiBTeX file.
cite: Please clearly indicate Siesta version in published work: 4.1.5
cite: This calculation has made use of the following articles
cite: which are encouraged to be cited in a published work.
        Primary SIESTA paper
          DOI: www.doi.org/10.1088/0953-8984/14/11/302

>> End of run:   9-NOV-2022  15:09:32
Job completed
