Siesta Version  : 4.1.5
Architecture    : x86_64-unknown-linux-gnu--unknown
Compiler version: GNU Fortran (GCC) 11.3.0
Compiler flags  : mpif90 -g -O2 -fallow-argument-mismatch
PP flags        : -DMPI -DFC_HAVE_FLUSH -DFC_HAVE_ABORT
Libraries       :  -I/global/software/sl-7.x86_64/modules/intel/2020.4.304/mkl/include  /globall/software/sl-7.x86_64/modules/intel/2020.4.304/mkl/lib/intel64/libmkl_scalapack_lp64.a -Wl,--start-group /global/software/sl-7.x86_64/modules/intel/2020.4.304/mkl/lib/intel64/libmkl_intel_lp64.a /global/software/sl-7.x86_64/modules/intel/2020.4.304/mkl/lib/intel64/libmkl_sequential.a /global/software/sl-7.x86_64/modules/intel/2020.4.304/mkl/lib/intel64/libmkl_core.a /global/software/sl-7.x86_64/modules/intel/2020.4.304/mkl/lib/intel64/libmkl_blacs_openmpi_lp64.a -Wl,--end-group -lpthread -lm -ldl
PARALLEL version

* Running on 16 nodes in parallel
>> Start of run:   9-NOV-2022  15:07:29

                           ***********************       
                           *  WELCOME TO SIESTA  *       
                           ***********************       

reinit: Reading from standard input
reinit: Dumped input in INPUT_TMP.24844
************************** Dump of input data file ****************************
SystemName LiC18_scf
SystemLabel LiC18_scf
NumberOfAtoms   19
NumberOfSpecies 2
%block ChemicalSpeciesLabel
1  3   Li-gga
2  6   C-gga
%endblock ChemicalSpeciesLabel
PAO.BasisSize  SZ
PAO.EnergyShift  10 meV
%block PS.Lmax
C-gga   2
Li-gga  2
%endblock PS.Lmax
LatticeConstant 1.000000 Ang
%block LatticeVectors
	4.3161300000	0.0000000000	0.0000000000
	-2.1580650000	3.7378782260	0.0000000000
	0.0000000000	0.0000000000	8.4356815600
%endblock LatticeVectors
AtomicCoordinatesFormat Ang
%block AtomicCoordinatesAndAtomicSpecies
	0.00000000	0.00000000	0.00000000	2
	-0.70288177	1.21742694	1.40594974	1
	-1.45518323	2.52045129	7.02973182	1
	1.45518323	2.52045129	1.40594974	1
	0.70288177	1.21742694	7.02973182	1
	1.40576354	0.00000000	1.40594974	1
	2.91036646	0.00000000	7.02973182	1
	-1.45518323	2.52045129	1.40594974	1
	-0.70288177	1.21742694	7.02973182	1
	0.70288177	1.21742694	1.40594974	1
	1.45518323	2.52045129	7.02973182	1
	2.91036646	0.00000000	1.40594974	1
	1.40576354	0.00000000	7.02973182	1
	-0.70288177	1.21742694	4.21784078	1
	-1.45518323	2.52045129	4.21784078	1
	1.45518323	2.52045129	4.21784078	1
	0.70288177	1.21742694	4.21784078	1
	1.40576354	0.00000000	4.21784078	1
	2.91036646	0.00000000	4.21784078	1
%endblock AtomicCoordinatesAndAtomicSpecies
Kgrid_NoTRS  T
%block kgrid_MonkhorstPack
4       0       0       0.0
0       4       0       0.0
0       0       4       0.0
%endblock kgrid_MonkhorstPack
AtomCoorFormatOut Ang
BlockSize 1
#ProcessorY 12
Diag.ParallelOverK   T
Diag.DivideAndConquer F
MeshCutoff   300 Ry
SCF.FreeE.Tolerance 1E-3 eV
SCF.EDM.Tolerance   5E-3 eV
DM.Tolerance  1E-3
DM.Require.Energy.Convergence T
DM.NumberPulay 4
XC.Functional GGA
XC.Authors    PBE
UseSaveData        F
MD.TypeOfRun       CG
MD.VariableCell    F
MD.NumCGsteps      00
MD.MaxCGDispl      0.200000 Bohr
MD.MaxStressTol    1.000000 GPa
MD.MaxForceTol     0.010000 eV/Ang
WriteMDHistory T
WriteCoorStep T
WriteForces T
WriteCoorStep    T
WriteEigenValues T
WriteDM    F
MM.UnitsDistance Ang  # what this program prints out DO NOT CHANGE
MM.UnitsEnergy    eV  # what this program prints out DO NOT CHANGE
MM.Grimme.S6     0.75 # Grimme-paper for PBE (correct for your functional)
MM.Grimme.D     20.   # Grimme-paper (correct for your functional)
%block MM.Potentials
  1   1 Grimme     16.69      1.650 # Li, 10.1002/jcc.20495
  1   2 Grimme     17.40      2.277 # Li / C
  2   2 Grimme     18.14      2.904 # C, 10.1002/jcc.20495
%endblock MM.Potentials
#%block ProjectedDensityOfStates
# -200.0  120.0  0.4  12800  eV
#%endblock ProjectedDensityOfStates
************************** End of input data file *****************************

reinit: -----------------------------------------------------------------------
reinit: System Name: LiC18_scf
reinit: -----------------------------------------------------------------------
reinit: System Label: LiC18_scf
reinit: -----------------------------------------------------------------------
Reading two-body potentials
Grimme - two-body potential between 1 and 1
Grimme - two-body potential between 1 and 2
Grimme - two-body potential between 2 and 2

initatom: Reading input for the pseudopotentials and atomic orbitals ----------
Species number:   1 Atomic number:    3 Label: Li-gga
Species number:   2 Atomic number:    6 Label: C-gga

Ground state valence configuration:   2s01
Reading pseudopotential information in formatted form from Li-gga.psf

Valence configuration for pseudopotential generation:
2s( 1.00) rc: 2.28
2p( 0.00) rc: 2.28
3d( 0.00) rc: 2.59
4f( 0.00) rc: 2.59
Ground state valence configuration:   2s02  2p02
Reading pseudopotential information in formatted form from C-gga.psf

Valence configuration for pseudopotential generation:
2s( 2.00) rc: 1.56
2p( 2.00) rc: 1.56
3d( 0.00) rc: 1.56
4f( 0.00) rc: 1.56
relmxkb: Read Max KB Ang. Momentum=    2 for species C-gga
relmxkb: Read Max KB Ang. Momentum=    2 for species Li-gga

<basis_specs>
===============================================================================
Li-gga               Z=   3    Mass=  6.9400        Charge= 0.17977+309
Lmxo=0 Lmxkb= 2    BasisType=split      Semic=F
L=0  Nsemic=0  Cnfigmx=2
          i=1  nzeta=1  polorb=0  (2s)
            splnorm:   0.15000    
               vcte:    0.0000    
               rinn:    0.0000    
               qcoe:    0.0000    
               qyuk:    0.0000    
               qwid:   0.10000E-01
                rcs:    0.0000    
            lambdas:    1.0000    
-------------------------------------------------------------------------------
L=0  Nkbl=1  erefs: 0.17977+309
L=1  Nkbl=1  erefs: 0.17977+309
L=2  Nkbl=1  erefs: 0.17977+309
===============================================================================
</basis_specs>

atom: Called for Li-gga                (Z =   3)

read_vps: Pseudopotential generation method:
read_vps: ATM 3.2.2 Troullier-Martins                       
Valence charge for ps generation:    1.00000

read_vps: Pseudopotential includes a core correction:
read_vps: Pseudo-core for xc-correction

xc_check: Exchange-correlation functional:
xc_check: GGA Perdew, Burke & Ernzerhof 1996
V l=0 = -2*Zval/r beyond r=  2.2278
V l=1 = -2*Zval/r beyond r=  2.2278
V l=2 = -2*Zval/r beyond r=  2.5245
All V_l potentials equal beyond r=  2.4622
This should be close to max(r_c) in ps generation
All pots = -2*Zval/r beyond r=  2.5245

VLOCAL1: 99.0% of the norm of Vloc inside      7.160 Ry
VLOCAL1: 99.9% of the norm of Vloc inside     16.318 Ry
atom: Maximum radius for 4*pi*r*r*local-pseudopot. charge    2.86079
atom: Maximum radius for r*vlocal+2*Zval:    2.43160
GHOST: No ghost state for L =  0
GHOST: No ghost state for L =  1
GHOST: No ghost state for L =  2

KBgen: Kleinman-Bylander projectors: 
   l= 0   rc=  2.654023   el= -0.211234   Ekb=  1.742119   kbcos=  0.228463
   l= 1   rc=  2.721230   el= -0.080095   Ekb= -1.122375   kbcos= -0.147941
   l= 2   rc=  2.825246   el=  0.002001   Ekb= -0.207076   kbcos= -0.031965

KBgen: Total number of Kleinman-Bylander projectors:    9
atom: -------------------------------------------------------------------------

atom: SANKEY-TYPE ORBITALS:

SPLIT: Orbitals with angular momentum L= 0

SPLIT: Basis orbitals for state 2s

SPLIT: PAO cut-off radius determined from an
SPLIT: energy shift=  0.000735 Ry

   izeta = 1
                 lambda =    1.000000
                     rc =   11.897381
                 energy =   -0.210580
                kinetic =    0.143382
    potential(screened) =   -0.353962
       potential(ionic) =   -0.533453
atom: Total number of Sankey-type orbitals:  1

atm_pop: Valence configuration (for local Pseudopot. screening):
 2s( 1.00)                                                            
Vna: chval, zval:    1.00000   1.00000

Vna:  Cut-off radius for the neutral-atom potential:  11.897381
comcore: Pseudo-core radius Rcore=  3.450946

atom: _________________________________________________________________________

<basis_specs>
===============================================================================
C-gga                Z=   6    Mass=  12.010        Charge= 0.17977+309
Lmxo=1 Lmxkb= 2    BasisType=split      Semic=F
L=0  Nsemic=0  Cnfigmx=2
          i=1  nzeta=1  polorb=0  (2s)
            splnorm:   0.15000    
               vcte:    0.0000    
               rinn:    0.0000    
               qcoe:    0.0000    
               qyuk:    0.0000    
               qwid:   0.10000E-01
                rcs:    0.0000    
            lambdas:    1.0000    
L=1  Nsemic=0  Cnfigmx=2
          i=1  nzeta=1  polorb=0  (2p)
            splnorm:   0.15000    
               vcte:    0.0000    
               rinn:    0.0000    
               qcoe:    0.0000    
               qyuk:    0.0000    
               qwid:   0.10000E-01
                rcs:    0.0000    
            lambdas:    1.0000    
-------------------------------------------------------------------------------
L=0  Nkbl=1  erefs: 0.17977+309
L=1  Nkbl=1  erefs: 0.17977+309
L=2  Nkbl=1  erefs: 0.17977+309
===============================================================================
</basis_specs>

atom: Called for C-gga                 (Z =   6)

read_vps: Pseudopotential generation method:
read_vps: ATM 3.2.2 Troullier-Martins                       
Valence charge for ps generation:    4.00000

xc_check: Exchange-correlation functional:
xc_check: GGA Perdew, Burke & Ernzerhof 1996
V l=0 = -2*Zval/r beyond r=  1.5227
V l=1 = -2*Zval/r beyond r=  1.5227
V l=2 = -2*Zval/r beyond r=  1.5227
All V_l potentials equal beyond r=  1.4851
This should be close to max(r_c) in ps generation
All pots = -2*Zval/r beyond r=  1.5227

VLOCAL1: 99.0% of the norm of Vloc inside     19.682 Ry
VLOCAL1: 99.9% of the norm of Vloc inside     44.856 Ry
atom: Maximum radius for 4*pi*r*r*local-pseudopot. charge    1.79142
atom: Maximum radius for r*vlocal+2*Zval:    1.54183
GHOST: No ghost state for L =  0
GHOST: No ghost state for L =  1
GHOST: No ghost state for L =  2

KBgen: Kleinman-Bylander projectors: 
   l= 0   rc=  1.661951   el= -1.010689   Ekb=  5.289847   kbcos=  0.316429
   l= 1   rc=  1.661951   el= -0.388490   Ekb= -4.102504   kbcos= -0.351025
   l= 2   rc=  1.747182   el=  0.001971   Ekb= -1.006005   kbcos= -0.008530

KBgen: Total number of Kleinman-Bylander projectors:    9
atom: -------------------------------------------------------------------------

atom: SANKEY-TYPE ORBITALS:

SPLIT: Orbitals with angular momentum L= 0

SPLIT: Basis orbitals for state 2s

SPLIT: PAO cut-off radius determined from an
SPLIT: energy shift=  0.000735 Ry

   izeta = 1
                 lambda =    1.000000
                     rc =    5.948690
                 energy =   -1.010099
                kinetic =    0.827121
    potential(screened) =   -1.837220
       potential(ionic) =   -5.392783

SPLIT: Orbitals with angular momentum L= 1

SPLIT: Basis orbitals for state 2p

SPLIT: PAO cut-off radius determined from an
SPLIT: energy shift=  0.000735 Ry

   izeta = 1
                 lambda =    1.000000
                     rc =    7.638387
                 energy =   -0.387843
                kinetic =    2.314739
    potential(screened) =   -2.702582
       potential(ionic) =   -6.092371
atom: Total number of Sankey-type orbitals:  4

atm_pop: Valence configuration (for local Pseudopot. screening):
 2s( 2.00)                                                            
 2p( 2.00)                                                            
Vna: chval, zval:    4.00000   4.00000

Vna:  Cut-off radius for the neutral-atom potential:   7.638387

atom: _________________________________________________________________________

prinput: Basis input ----------------------------------------------------------

PAO.BasisType split     

%block ChemicalSpeciesLabel
    1    3 Li-gga                  # Species index, atomic number, species label
    2    6 C-gga                   # Species index, atomic number, species label
%endblock ChemicalSpeciesLabel

%block PAO.Basis                 # Define Basis set
Li-gga                1                    # Species label, number of l-shells
 n=2   0   1                         # n, l, Nzeta 
  11.897   
   1.000   
C-gga                 2                    # Species label, number of l-shells
 n=2   0   1                         # n, l, Nzeta 
   5.949   
   1.000   
 n=2   1   1                         # n, l, Nzeta 
   7.638   
   1.000   
%endblock PAO.Basis

prinput: ----------------------------------------------------------------------

coor:   Atomic-coordinates input format  =     Cartesian coordinates
coor:                                          (in Angstroms)

siesta: Atomic coordinates (Bohr) and species
siesta:      0.00000   0.00000   0.00000  2        1
siesta:     -1.32825   2.30060   2.65686  1        2
siesta:     -2.74990   4.76296  13.28427  1        3
siesta:      2.74990   4.76296   2.65686  1        4
siesta:      1.32825   2.30060  13.28427  1        5
siesta:      2.65651   0.00000   2.65686  1        6
siesta:      5.49980   0.00000  13.28427  1        7
siesta:     -2.74990   4.76296   2.65686  1        8
siesta:     -1.32825   2.30060  13.28427  1        9
siesta:      1.32825   2.30060   2.65686  1       10
siesta:      2.74990   4.76296  13.28427  1       11
siesta:      5.49980   0.00000   2.65686  1       12
siesta:      2.65651   0.00000  13.28427  1       13
siesta:     -1.32825   2.30060   7.97057  1       14
siesta:     -2.74990   4.76296   7.97057  1       15
siesta:      2.74990   4.76296   7.97057  1       16
siesta:      1.32825   2.30060   7.97057  1       17
siesta:      2.65651   0.00000   7.97057  1       18
siesta:      5.49980   0.00000   7.97057  1       19

siesta: System type = bulk      

initatomlists: Number of atoms, orbitals, and projectors:     19    22   171

siesta: ******************** Simulation parameters ****************************
siesta:
siesta: The following are some of the parameters of the simulation.
siesta: A complete list of the parameters used, including default values,
siesta: can be found in file out.fdf
siesta:
redata: Spin configuration                          = none
redata: Number of spin components                   = 1
redata: Time-Reversal Symmetry                      = T
redata: Spin spiral                                 = F
redata: Long output                                 =   F
redata: Number of Atomic Species                    =        2
redata: Charge density info will appear in .RHO file
redata: Write Mulliken Pop.                         = NO
redata: Matel table size (NRTAB)                    =     1024
redata: Mesh Cutoff                                 =   300.0000 Ry
redata: Net charge of the system                    =     0.0000 |e|
redata: Min. number of SCF Iter                     =        0
redata: Max. number of SCF Iter                     =     1000
redata: SCF convergence failure will abort job
redata: SCF mix quantity                            = Hamiltonian
redata: Mix DM or H after convergence               =   F
redata: Recompute H after scf cycle                 =   F
redata: Mix DM in first SCF step                    =   T
redata: Write Pulay info on disk                    =   F
redata: New DM Occupancy tolerance                  = 0.000000000001
redata: No kicks to SCF
redata: DM Mixing Weight for Kicks                  =     0.5000
redata: Require Harris convergence for SCF          =   F
redata: Harris energy tolerance for SCF             =     0.000100 eV
redata: Require DM convergence for SCF              =   T
redata: DM tolerance for SCF                        =     0.001000
redata: Require EDM convergence for SCF             =   F
redata: EDM tolerance for SCF                       =     0.005000 eV
redata: Require H convergence for SCF               =   T
redata: Hamiltonian tolerance for SCF               =     0.001000 eV
redata: Require (free) Energy convergence for SCF   =   T
redata: (free) Energy tolerance for SCF             =     0.001000 eV
redata: Using Saved Data (generic)                  =   F
redata: Use continuation files for DM               =   F
redata: Neglect nonoverlap interactions             =   F
redata: Method of Calculation                       = Diagonalization
redata: Electronic Temperature                      =   299.9869 K
redata: Fix the spin of the system                  =   F
redata: Dynamics option                             = Single-point calculation
mix.SCF: Pulay mixing                            = Pulay
mix.SCF:    Variant                              = stable
mix.SCF:    History steps                        = 4
mix.SCF:    Linear mixing weight                 =     0.250000
mix.SCF:    Mixing weight                        =     0.250000
mix.SCF:    SVD condition                        = 0.1000E-07
redata: ***********************************************************************

%block SCF.Mixers
  Pulay
%endblock SCF.Mixers

%block SCF.Mixer.Pulay
  # Mixing method
  method pulay
  variant stable

  # Mixing options
  weight 0.2500
  weight.linear 0.2500
  history 4
%endblock SCF.Mixer.Pulay

DM_history_depth set to one: no extrapolation allowed by default for geometry relaxation
Size of DM history Fstack: 1
Total number of electrons:    22.000000
Total ionic charge:    22.000000

* ProcessorY, Blocksize:    4   1


* Orbital distribution balance (max,min):     2     1

k-point displ. along   1 input, could be:     0.00    0.50
k-point displ. along   2 input, could be:     0.00    0.50
k-point displ. along   3 input, could be:     0.00    0.50
 Kpoints in:           48 . Kpoints trimmed:           44

siesta: k-grid: Number of k-points =    44
siesta: k-grid: Cutoff (effective) =     8.632 Ang
siesta: k-grid: Supercell and displacements
siesta: k-grid:    4   0   0      0.000
siesta: k-grid:    0   4   0      0.000
siesta: k-grid:    0   0   4      0.000

diag: Algorithm                                     = Expert
diag: Parallel over k                               =   T
diag: Use parallel 2D distribution                  =   T
diag: Parallel block-size                           = 1
diag: Parallel distribution                         =     4 x     4
diag: Used triangular part                          = Lower
diag: Absolute tolerance                            =  0.100E-15
diag: Orthogonalization factor                      =  0.100E-05
diag: Memory factor                                 =  1.0000

superc: Internal auxiliary supercell:     9 x     9 x     5  =     405
superc: Number of atoms, orbitals, and projectors:   7695   8910  69255


ts: **************************************************************
ts: Save H and S matrices                           =    F
ts: Save DM and EDM matrices                        =    F
ts: Only save the overlap matrix S                  =    F
ts: **************************************************************

************************ Begin: TS CHECKS AND WARNINGS ************************
************************ End: TS CHECKS AND WARNINGS **************************


                     ====================================
                        Single-point calculation
                     ====================================

outcoor: Atomic coordinates (Ang):                          
    0.00000000    0.00000000    0.00000000   2       1  C-gga
   -0.70288177    1.21742694    1.40594974   1       2  Li-gga
   -1.45518323    2.52045129    7.02973182   1       3  Li-gga
    1.45518323    2.52045129    1.40594974   1       4  Li-gga
    0.70288177    1.21742694    7.02973182   1       5  Li-gga
    1.40576354    0.00000000    1.40594974   1       6  Li-gga
    2.91036646    0.00000000    7.02973182   1       7  Li-gga
   -1.45518323    2.52045129    1.40594974   1       8  Li-gga
   -0.70288177    1.21742694    7.02973182   1       9  Li-gga
    0.70288177    1.21742694    1.40594974   1      10  Li-gga
    1.45518323    2.52045129    7.02973182   1      11  Li-gga
    2.91036646    0.00000000    1.40594974   1      12  Li-gga
    1.40576354    0.00000000    7.02973182   1      13  Li-gga
   -0.70288177    1.21742694    4.21784078   1      14  Li-gga
   -1.45518323    2.52045129    4.21784078   1      15  Li-gga
    1.45518323    2.52045129    4.21784078   1      16  Li-gga
    0.70288177    1.21742694    4.21784078   1      17  Li-gga
    1.40576354    0.00000000    4.21784078   1      18  Li-gga
    2.91036646    0.00000000    4.21784078   1      19  Li-gga

superc: Internal auxiliary supercell:     9 x     9 x     5  =     405
superc: Number of atoms, orbitals, and projectors:   7695   8910  69255

outcell: Unit cell vectors (Ang):
        4.316130    0.000000    0.000000
       -2.158065    3.737878    0.000000
        0.000000    0.000000    8.435682

outcell: Cell vector modules (Ang)   :    4.316130    4.316130    8.435682
outcell: Cell angles (23,13,12) (deg):     90.0000     90.0000    120.0000
outcell: Cell volume (Ang**3)        :    136.0943
<dSpData1D:S at geom step 0
  <sparsity:sparsity for geom step 0
    nrows_g=22 nrows=2 sparsity=6.1260 nnzs=2965, refcount: 7>
  <dData1D:(new from dSpData1D) n=2965, refcount: 1>
refcount: 1>
new_DM -- step:     1
Initializing Density Matrix...
DM filled with atomic data:
<dSpData2D:DM initialized from atoms
  <sparsity:sparsity for geom step 0
    nrows_g=22 nrows=2 sparsity=6.1260 nnzs=2965, refcount: 8>
  <dData2D:DM n=2965 m=1, refcount: 1>
refcount: 1>
No. of atoms with KB's overlaping orbs in proc 0. Max # of overlaps:     289     291
New grid distribution:   1
           1       1:   20    1:    5    1:   12
           2       1:   20    1:    5   13:   23
           3       1:   20    1:    5   24:   34
           4       1:   20    1:    5   35:   45
           5       1:   20    6:   10    1:   12
           6       1:   20    6:   10   13:   23
           7       1:   20    6:   10   24:   34
           8       1:   20    6:   10   35:   45
           9       1:   20   11:   15    1:   12
          10       1:   20   11:   15   13:   23
          11       1:   20   11:   15   24:   34
          12       1:   20   11:   15   35:   45
          13       1:   20   16:   20    1:   12
          14       1:   20   16:   20   13:   23
          15       1:   20   16:   20   24:   34
          16       1:   20   16:   20   35:   45

InitMesh: MESH =    40 x    40 x    90 =      144000
InitMesh: (bp) =    20 x    20 x    45 =       18000
InitMesh: Mesh cutoff (required, used) =   300.000   314.591 Ry
ExtMesh (bp) on 0 =   156 x   141 x   148 =     3255408
New grid distribution:   2
           1       1:   10    1:   10    1:   11
           2       1:   10    1:   10   12:   22
           3       1:   10    1:   10   23:   34
           4       1:   10    1:   10   35:   45
           5      11:   20    1:   10    1:   11
           6      11:   20    1:   10   12:   22
           7      11:   20    1:   10   23:   34
           8      11:   20    1:   10   35:   45
           9       1:   10   11:   20    1:   11
          10       1:   10   11:   20   12:   22
          11       1:   10   11:   20   23:   34
          12       1:   10   11:   20   35:   45
          13      11:   20   11:   20    1:   11
          14      11:   20   11:   20   12:   22
          15      11:   20   11:   20   23:   34
          16      11:   20   11:   20   35:   45
New grid distribution:   3
           1       1:   10    1:   10    1:   12
           2      11:   20    1:   10   13:   23
           3       1:   10    1:   10   13:   23
           4       1:   10    1:   10   35:   45
           5      11:   20    1:   10    1:   12
           6       1:   10   11:   20   35:   45
           7       1:   10    1:   10   24:   34
           8      11:   20    1:   10   35:   45
           9       1:   10   11:   20    1:   12
          10      11:   20    1:   10   24:   34
          11      11:   20   11:   20   24:   34
          12      11:   20   11:   20   35:   45
          13      11:   20   11:   20    1:   12
          14       1:   10   11:   20   13:   23
          15       1:   10   11:   20   24:   34
          16      11:   20   11:   20   13:   23
Setting up quadratic distribution...
ExtMesh (bp) on 0 =   146 x   146 x   147 =     3133452
PhiOnMesh: Number of (b)points on node 0 =                 1100
PhiOnMesh: nlist on node 0 =               169121

stepf: Fermi-Dirac step function

siesta: Program's energy decomposition (eV):
siesta: Ebs     =      -159.234731
siesta: Eions   =       439.895300
siesta: Ena     =       115.106107
siesta: Ekin    =       342.578816
siesta: Enl     =        50.736544
siesta: Eso     =         0.000000
siesta: Edftu   =         0.000000
siesta: DEna    =       -58.391692
siesta: DUscf   =        52.138921
siesta: DUext   =         0.000000
siesta: Exc     =      -245.145408
siesta: eta*DQ  =         0.000000
siesta: Emadel  =         0.000000
siesta: Emeta   =         0.000000
siesta: Emolmec =        -9.528139
siesta: Ekinion =         0.000000
siesta: Eharris =       -53.432132
siesta: Etot    =      -192.400153
siesta: FreeEng =      -192.405641

        iscf     Eharris(eV)        E_KS(eV)     FreeEng(eV)     dDmax    Ef(eV) dHmax(eV)
   scf:    1      -53.432132     -192.400153     -192.405641  5.722370 -9.575883 28.862162
timer: Routine,Calls,Time,% = IterSCF        1       0.815  15.22
   scf:    2     -224.750206     -210.451687     -210.456423  2.708582 -8.888717 13.308973
   scf:    3     -176.696288     -207.522869     -207.528953  8.592101 -4.764785 15.218009
   scf:    4       68.502510      -91.219647      -91.228154 16.874005  6.893694 60.306023
   scf:    5       76.528285      -11.024038      -11.030923 22.282188  6.049677 71.315746
   scf:    6     -317.226368     -209.720118     -209.731666 37.819915 -4.912743 13.530344
   scf:    7     -219.309148     -215.058982     -215.067818  1.971657 -5.487012  8.253040
   scf:    8     -219.148837     -217.931671     -217.938056  2.846816 -7.109953  1.073612
   scf:    9     -216.812588     -217.664385     -217.673784  2.166579 -7.222154  2.737379
   scf:   10     -217.673864     -217.984531     -217.991077  1.527104 -6.899165  1.217673
   scf:   11     -218.003274     -218.038856     -218.046238  0.679209 -7.046593  0.359064
   scf:   12     -218.046415     -218.043130     -218.050973  0.129586 -7.050783  0.242914
   scf:   13     -218.048499     -218.047023     -218.053853  0.074014 -7.027948  0.041751
   scf:   14     -218.044642     -218.045999     -218.053596  0.053008 -7.035985  0.089698
   scf:   15     -218.047169     -218.046724     -218.053960  0.034640 -7.026886  0.000470
   scf:   16     -218.046730     -218.046727     -218.053960  0.000249 -7.026830  0.000355

SCF Convergence by FreeE+DM+H criterion
|FreeE_i-FreeE_(i-1)| (eV) <     0.00100000
max |DM_out - DM_in|         :     0.0002485026
max |H_out - H_in|      (eV) :     0.0003545380
SCF cycle converged after 16 iterations

Using DM_out to compute the final energy and forces
No. of atoms with KB's overlaping orbs in proc 0. Max # of overlaps:     289     291

MM-Stress (kbar):       -0.25       -0.25      103.19        0.00       -0.00       -0.00

siesta: E_KS(eV) =             -218.0467

siesta: E_KS - E_eggbox =      -218.0467

siesta: Atomic forces (eV/Ang):
     1   -0.000000   -0.000000    0.000000
     2   -0.134157    0.232421   -0.796352
     3    0.134157   -0.232421    0.796352
     4   -0.134168   -0.232385   -0.796433
     5    0.134168    0.232385    0.796433
     6    0.268362    0.000027   -0.796352
     7   -0.268362   -0.000027    0.796352
     8    0.134157   -0.232421   -0.796352
     9   -0.134157    0.232421    0.796352
    10    0.134168    0.232385   -0.796433
    11   -0.134168   -0.232385    0.796433
    12   -0.268362   -0.000027   -0.796352
    13    0.268362    0.000027    0.796352
    14   -0.249582    0.432250    0.000000
    15    0.249582   -0.432250    0.000000
    16   -0.249591   -0.432304    0.000000
    17    0.249591    0.432304    0.000000
    18    0.499131   -0.000019    0.000000
    19   -0.499131    0.000019    0.000000
----------------------------------------
   Tot   -0.000000    0.000000    0.000000
----------------------------------------
   Max    0.796433
   Res    0.418219    sqrt( Sum f_i^2 / 3N )
----------------------------------------
   Max    0.796433    constrained

Stress tensor Voigt[x,y,z,yz,xz,xy] (kbar):    -2315.08    -2315.10      468.13        0.00        0.00       -0.02
(Free)E + p*V (eV/cell)     -100.2091
Target enthalpy (eV/cell)     -218.0540

siesta: Eigenvalues (eV):
  ik is       eps
   1  1  -19.4292  -17.7081  -16.4871  -16.4109  -15.7189  -15.4380  -14.9675  -14.6570  -14.4523   -8.1078
          -7.0837   -6.9134   -4.3394   13.6735   14.1760   16.8933   16.9909   17.0025   17.3343   17.7090
   18.4530   20.0821
   2  1  -19.6639  -18.2791  -16.2841  -15.6156  -14.6756  -14.1081  -11.9150  -10.7939  -10.0272   -9.5619
          -7.4849   -7.4188   -5.0341    2.5400    3.0646    7.1338   16.3202   17.6566   19.8532   20.8248
   21.6211   21.7395
   3  1  -19.6639  -18.2791  -16.2841  -15.6157  -14.6756  -14.1081  -11.9150  -10.7938  -10.0272   -9.5619
          -7.4849   -7.4187   -5.0339    2.5397    3.0646    7.1338   16.3202   17.6566   19.8532   20.8248
   21.6211   21.7395
   4  1  -19.4292  -17.7081  -16.4871  -16.4109  -15.7189  -15.4381  -14.9675  -14.6569  -14.4522   -8.1078
          -7.0836   -6.9136   -4.3393   13.6735   14.1760   16.8933   16.9909   17.0026   17.3343   17.7090
   18.4530   20.0821
   5  1  -19.6639  -18.2791  -16.2841  -15.6156  -14.6756  -14.1081  -11.9150  -10.7939  -10.0272   -9.5619
          -7.4849   -7.4188   -5.0341    2.5400    3.0646    7.1338   16.3202   17.6566   19.8532   20.8248
   21.6211   21.7395
   6  1  -19.8568  -18.5986  -16.6540  -10.9380  -10.7081  -10.7081  -10.5849   -5.2605   -5.2604   -3.7306
          -3.7306    5.1301    5.1301    6.8778    6.8778    7.2082    7.2083   20.2273   20.2276   21.2304
   23.0021   23.5886
   7  1  -19.4035  -17.5732  -17.3039  -15.7612  -15.5953  -15.3791  -12.3694  -12.2962  -11.1144   -9.9372
          -9.3030   -7.8780   -6.2503    0.0353    1.7242    3.7511   15.5968   15.9583   17.1520   17.3821
   18.1942   18.7173
   8  1  -19.4292  -17.7081  -16.4871  -16.4109  -15.7189  -15.4381  -14.9675  -14.6569  -14.4522   -8.1078
          -7.0836   -6.9136   -4.3393   13.6735   14.1760   16.8933   16.9909   17.0026   17.3343   17.7090
   18.4530   20.0821
   9  1  -19.4292  -17.7081  -16.4871  -16.4109  -15.7189  -15.4381  -14.9675  -14.6569  -14.4522   -8.1078
          -7.0836   -6.9136   -4.3393   13.6735   14.1760   16.8933   16.9909   17.0026   17.3343   17.7090
   18.4530   20.0821
  10  1  -19.4035  -17.5732  -17.3039  -15.7612  -15.5953  -15.3791  -12.3694  -12.2962  -11.1144   -9.9372
          -9.3030   -7.8780   -6.2503    0.0353    1.7242    3.7511   15.5968   15.9583   17.1520   17.3821
   18.1942   18.7173
  11  1  -19.4292  -17.7081  -16.4871  -16.4109  -15.7189  -15.4381  -14.9675  -14.6569  -14.4522   -8.1078
          -7.0836   -6.9136   -4.3393   13.6735   14.1760   16.8933   16.9909   17.0026   17.3343   17.7090
   18.4530   20.0821
  12  1  -19.4035  -17.5732  -17.3039  -15.7613  -15.5953  -15.3791  -12.3694  -12.2962  -11.1144   -9.9372
          -9.3030   -7.8780   -6.2501    0.0353    1.7239    3.7511   15.5968   15.9583   17.1520   17.3821
   18.1942   18.7174
  13  1  -19.4216  -17.7876  -16.5957  -16.4195  -16.0459  -15.2489  -14.6494  -13.7224  -13.0488   -8.8328
          -7.2791   -6.9000   -4.2962   13.9021   14.4538   16.4464   16.7279   17.0294   17.2396   17.7846
   18.6589   19.9165
  14  1  -19.6469  -18.4042  -15.8461  -15.3995  -14.6958  -13.0702  -11.8692  -11.0169  -10.4592   -9.1755
          -7.2626   -5.3174   -5.1886    0.7291    4.9877    9.6180   14.7918   19.2975   19.8836   21.3909
   21.6188   21.7510
  15  1  -19.6469  -18.4042  -15.8461  -15.3995  -14.6958  -13.0702  -11.8692  -11.0169  -10.4592   -9.1755
          -7.2625   -5.3175   -5.1885    0.7291    4.9875    9.6180   14.7918   19.2975   19.8836   21.3909
   21.6188   21.7510
  16  1  -19.4216  -17.7876  -16.5957  -16.4195  -16.0459  -15.2488  -14.6494  -13.7225  -13.0487   -8.8328
          -7.2793   -6.8999   -4.2962   13.9021   14.4538   16.4464   16.7278   17.0294   17.2397   17.7845
   18.6589   19.9165
  17  1  -19.6469  -18.4042  -15.8461  -15.3995  -14.6958  -13.0702  -11.8692  -11.0169  -10.4592   -9.1755
          -7.2626   -5.3174   -5.1886    0.7291    4.9877    9.6180   14.7918   19.2975   19.8836   21.3909
   21.6188   21.7510
  18  1  -19.8367  -18.7423  -15.5943  -11.6843  -10.6496  -10.6496   -9.6589   -4.5835   -4.5835   -3.9412
          -3.9411    1.2806    1.2806    6.3760    6.3762   16.3770   16.3771   21.3216   21.3817   21.3819
   23.0220   23.4917
  19  1  -19.6469  -18.4042  -15.8461  -15.3995  -14.6958  -13.0702  -11.8692  -11.0169  -10.4592   -9.1755
          -7.2626   -5.3174   -5.1886    0.7291    4.9877    9.6180   14.7918   19.2975   19.8836   21.3909
   21.6188   21.7510
  20  1  -19.3969  -17.5655  -17.4675  -16.3500  -14.7434  -13.9110  -12.3496  -12.0326  -11.5113  -10.5185
          -7.0796   -7.0113   -6.8273   -2.5377    2.0966    7.4988   15.6269   15.9700   17.2543   17.5033
   18.0810   18.5946
  21  1  -19.6469  -18.4042  -15.8461  -15.3995  -14.6958  -13.0702  -11.8692  -11.0169  -10.4592   -9.1755
          -7.2625   -5.3175   -5.1885    0.7291    4.9875    9.6180   14.7918   19.2975   19.8836   21.3909
   21.6188   21.7510
  22  1  -19.6469  -18.4042  -15.8461  -15.3995  -14.6958  -13.0702  -11.8692  -11.0169  -10.4592   -9.1755
          -7.2626   -5.3174   -5.1886    0.7291    4.9877    9.6180   14.7918   19.2975   19.8836   21.3909
   21.6188   21.7510
  23  1  -19.4216  -17.7876  -16.5957  -16.4195  -16.0459  -15.2489  -14.6494  -13.7224  -13.0488   -8.8328
          -7.2791   -6.9000   -4.2962   13.9021   14.4538   16.4464   16.7279   17.0294   17.2396   17.7846
   18.6589   19.9165
  24  1  -19.4216  -17.7876  -16.5957  -16.4195  -16.0459  -15.2488  -14.6494  -13.7225  -13.0487   -8.8328
          -7.2793   -6.8999   -4.2962   13.9021   14.4538   16.4464   16.7278   17.0294   17.2397   17.7845
   18.6589   19.9165
  25  1  -19.4216  -17.7876  -16.5957  -16.4195  -16.0459  -15.2488  -14.6494  -13.7225  -13.0487   -8.8328
          -7.2793   -6.8999   -4.2962   13.9021   14.4538   16.4464   16.7278   17.0294   17.2397   17.7845
   18.6589   19.9165
  26  1  -19.3969  -17.5655  -17.4675  -16.3500  -14.7434  -13.9110  -12.3496  -12.0326  -11.5113  -10.5185
          -7.0796   -7.0113   -6.8273   -2.5377    2.0966    7.4988   15.6269   15.9700   17.2543   17.5033
   18.0810   18.5946
  27  1  -19.4216  -17.7876  -16.5957  -16.4195  -16.0459  -15.2488  -14.6494  -13.7225  -13.0487   -8.8328
          -7.2793   -6.8999   -4.2962   13.9021   14.4538   16.4464   16.7278   17.0294   17.2397   17.7845
   18.6589   19.9165
  28  1  -19.3969  -17.5655  -17.4675  -16.3500  -14.7434  -13.9111  -12.3496  -12.0325  -11.5114  -10.5185
          -7.0796   -7.0113   -6.8271   -2.5377    2.0963    7.4988   15.6269   15.9700   17.2543   17.5033
   18.0809   18.5947
  29  1  -19.4135  -17.8552  -16.6145  -16.4282  -16.2592  -15.4302  -13.5273  -12.0422  -11.6422   -9.8081
          -7.9613   -7.3759   -3.9375   14.1839   14.7674   16.2354   16.5299   16.9780   17.0699   17.5395
   18.9161   19.6727
  30  1  -19.6282  -18.5034  -15.6083  -15.5826  -13.2240  -11.9284  -11.8088  -11.4819  -10.7530   -8.0306
          -7.9583   -4.7821   -3.1607   -1.5475   11.4949   13.5054   16.6764   19.8277   20.1648   21.5716
   21.7932   21.8497
  31  1  -19.6282  -18.5034  -15.6083  -15.5826  -13.2240  -11.9284  -11.8088  -11.4819  -10.7530   -8.0305
          -7.9581   -4.7821   -3.1609   -1.5474   11.4950   13.5054   16.6764   19.8276   20.1648   21.5715
   21.7932   21.8497
  32  1  -19.4135  -17.8552  -16.6145  -16.4282  -16.2593  -15.4302  -13.5273  -12.0422  -11.6422   -9.8081
          -7.9615   -7.3758   -3.9375   14.1839   14.7674   16.2355   16.5299   16.9780   17.0699   17.5395
   18.9160   19.6727
  33  1  -19.6282  -18.5034  -15.6083  -15.5826  -13.2240  -11.9284  -11.8088  -11.4819  -10.7530   -8.0306
          -7.9583   -4.7821   -3.1607   -1.5475   11.4949   13.5054   16.6764   19.8277   20.1648   21.5716
   21.7932   21.8497
  34  1  -19.8137  -18.8540  -13.3308  -12.9875  -10.5885  -10.5884   -8.4598   -4.1318   -4.1318   -2.9989
          -2.9989   -1.8180   -1.8179    7.5782    7.5785   21.4085   23.1132   23.1132   23.1792   23.2619
   23.6043   23.6043
  35  1  -19.6282  -18.5034  -15.6083  -15.5826  -13.2240  -11.9284  -11.8088  -11.4819  -10.7530   -8.0306
          -7.9583   -4.7821   -3.1607   -1.5475   11.4949   13.5054   16.6764   19.8277   20.1648   21.5716
   21.7932   21.8497
  36  1  -19.3901  -17.5789  -17.5572  -16.5658  -13.4350  -12.4963  -12.3194  -12.1902  -11.7487  -10.2417
          -7.9351   -6.0745   -4.6455   -3.4800    3.7871   10.5992   15.6569   15.9938   17.4145   17.7067
   17.9107   18.3496
  37  1  -19.6282  -18.5034  -15.6083  -15.5826  -13.2240  -11.9284  -11.8088  -11.4819  -10.7530   -8.0305
          -7.9581   -4.7821   -3.1609   -1.5474   11.4950   13.5054   16.6764   19.8276   20.1648   21.5715
   21.7932   21.8497
  38  1  -19.6282  -18.5034  -15.6083  -15.5826  -13.2240  -11.9284  -11.8088  -11.4819  -10.7530   -8.0306
          -7.9583   -4.7821   -3.1607   -1.5475   11.4949   13.5054   16.6764   19.8277   20.1648   21.5716
   21.7932   21.8497
  39  1  -19.4135  -17.8552  -16.6145  -16.4282  -16.2592  -15.4302  -13.5273  -12.0422  -11.6422   -9.8081
          -7.9613   -7.3759   -3.9375   14.1839   14.7674   16.2354   16.5299   16.9780   17.0699   17.5395
   18.9161   19.6727
  40  1  -19.4135  -17.8552  -16.6145  -16.4282  -16.2593  -15.4302  -13.5273  -12.0422  -11.6422   -9.8081
          -7.9615   -7.3758   -3.9375   14.1839   14.7674   16.2355   16.5299   16.9780   17.0699   17.5395
   18.9160   19.6727
  41  1  -19.4135  -17.8552  -16.6145  -16.4282  -16.2593  -15.4302  -13.5273  -12.0422  -11.6422   -9.8081
          -7.9615   -7.3758   -3.9375   14.1839   14.7674   16.2355   16.5299   16.9780   17.0699   17.5395
   18.9160   19.6727
  42  1  -19.3901  -17.5789  -17.5572  -16.5658  -13.4350  -12.4963  -12.3194  -12.1902  -11.7487  -10.2417
          -7.9351   -6.0745   -4.6455   -3.4800    3.7871   10.5992   15.6569   15.9938   17.4145   17.7067
   17.9107   18.3496
  43  1  -19.4135  -17.8552  -16.6145  -16.4282  -16.2593  -15.4302  -13.5273  -12.0422  -11.6422   -9.8081
          -7.9615   -7.3758   -3.9375   14.1839   14.7674   16.2355   16.5299   16.9780   17.0699   17.5395
   18.9160   19.6727
  44  1  -19.3901  -17.5789  -17.5572  -16.5659  -13.4350  -12.4963  -12.3194  -12.1902  -11.7487  -10.2417
          -7.9349   -6.0745   -4.6455   -3.4802    3.7871   10.5992   15.6569   15.9938   17.4144   17.7068
   17.9107   18.3496
siesta: Fermi energy =      -7.026830 eV

siesta: Program's energy decomposition (eV):
siesta: Ebs     =      -302.454654
siesta: Eions   =       439.895300
siesta: Ena     =       115.106107
siesta: Ekin    =       283.247536
siesta: Enl     =        73.185888
siesta: Eso     =         0.000000
siesta: Edftu   =         0.000000
siesta: DEna    =       -18.304086
siesta: DUscf   =         7.988433
siesta: DUext   =         0.000000
siesta: Exc     =      -229.847166
siesta: eta*DQ  =         0.000000
siesta: Emadel  =         0.000000
siesta: Emeta   =         0.000000
siesta: Emolmec =        -9.528139
siesta: Ekinion =         0.000000
siesta: Eharris =      -218.046730
siesta: Etot    =      -218.046727
siesta: FreeEng =      -218.053960

siesta: Final energy (eV):
siesta:  Band Struct. =    -302.454654
siesta:       Kinetic =     283.247536
siesta:       Hartree =     123.910186
siesta:       Edftu   =       0.000000
siesta:       Eso     =       0.000000
siesta:    Ext. field =       0.000000
siesta:   Exch.-corr. =    -229.847166
siesta:  Ion-electron =    -596.145378
siesta:       Ion-ion =     210.316234
siesta:       Ekinion =       0.000000
siesta:         Total =    -218.046727
siesta:         Fermi =      -7.026830

siesta: Atomic forces (eV/Ang):
siesta:      1   -0.000000   -0.000000    0.000000
siesta:      2   -0.134157    0.232421   -0.796352
siesta:      3    0.134157   -0.232421    0.796352
siesta:      4   -0.134168   -0.232385   -0.796433
siesta:      5    0.134168    0.232385    0.796433
siesta:      6    0.268362    0.000027   -0.796352
siesta:      7   -0.268362   -0.000027    0.796352
siesta:      8    0.134157   -0.232421   -0.796352
siesta:      9   -0.134157    0.232421    0.796352
siesta:     10    0.134168    0.232385   -0.796433
siesta:     11   -0.134168   -0.232385    0.796433
siesta:     12   -0.268362   -0.000027   -0.796352
siesta:     13    0.268362    0.000027    0.796352
siesta:     14   -0.249582    0.432250    0.000000
siesta:     15    0.249582   -0.432250    0.000000
siesta:     16   -0.249591   -0.432304    0.000000
siesta:     17    0.249591    0.432304    0.000000
siesta:     18    0.499131   -0.000019    0.000000
siesta:     19   -0.499131    0.000019    0.000000
siesta: ----------------------------------------
siesta:    Tot   -0.000000    0.000000    0.000000

siesta: Stress tensor (static) (eV/Ang**3):
siesta:    -1.444943   -0.000013    0.000000
siesta:    -0.000013   -1.444958    0.000000
siesta:     0.000000    0.000000    0.292181

siesta: Cell volume =        136.094271 Ang**3

siesta: Pressure (static):
siesta:                Solid            Molecule  Units
siesta:           0.00943083          0.00883872  Ry/Bohr**3
siesta:           0.86590646          0.81154137  eV/Ang**3
siesta:        1387.35009457       1300.24666984  kBar
(Free)E+ p_basis*V_orbitals  =        -194.058248
(Free)Eharris+ p_basis*V_orbitals  =        -194.058251

cite: Please see "LiC18_scf.bib" for an exhaustive BiBTeX file.
cite: Please clearly indicate Siesta version in published work: 4.1.5
cite: This calculation has made use of the following articles
cite: which are encouraged to be cited in a published work.
        Primary SIESTA paper
          DOI: www.doi.org/10.1088/0953-8984/14/11/302

>> End of run:   9-NOV-2022  15:07:44
Job completed
