Siesta Version  : 4.1.5
Architecture    : x86_64-unknown-linux-gnu--unknown
Compiler version: GNU Fortran (GCC) 11.3.0
Compiler flags  : mpif90 -g -O2 -fallow-argument-mismatch
PP flags        : -DMPI -DFC_HAVE_FLUSH -DFC_HAVE_ABORT
Libraries       :  -I/global/software/sl-7.x86_64/modules/intel/2020.4.304/mkl/include  /globall/software/sl-7.x86_64/modules/intel/2020.4.304/mkl/lib/intel64/libmkl_scalapack_lp64.a -Wl,--start-group /global/software/sl-7.x86_64/modules/intel/2020.4.304/mkl/lib/intel64/libmkl_intel_lp64.a /global/software/sl-7.x86_64/modules/intel/2020.4.304/mkl/lib/intel64/libmkl_sequential.a /global/software/sl-7.x86_64/modules/intel/2020.4.304/mkl/lib/intel64/libmkl_core.a /global/software/sl-7.x86_64/modules/intel/2020.4.304/mkl/lib/intel64/libmkl_blacs_openmpi_lp64.a -Wl,--end-group -lpthread -lm -ldl
PARALLEL version

* Running on 16 nodes in parallel
>> Start of run:   9-NOV-2022  15:17:09

                           ***********************       
                           *  WELCOME TO SIESTA  *       
                           ***********************       

reinit: Reading from standard input
reinit: Dumped input in INPUT_TMP.04818
************************** Dump of input data file ****************************
SystemName LiC18_scf
SystemLabel LiC18_scf
NumberOfAtoms   19
NumberOfSpecies 2
%block ChemicalSpeciesLabel
1  3   Li-gga
2  6   C-gga
%endblock ChemicalSpeciesLabel
PAO.BasisSize  SZ
PAO.EnergyShift  10 meV
%block PS.Lmax
C-gga   2
Li-gga  2
%endblock PS.Lmax
LatticeConstant 1.000000 Ang
%block LatticeVectors
	4.3161300000	0.0000000000	0.0000000000
	-2.1580650000	3.7378782260	0.0000000000
	0.0000000000	0.0000000000	16.2053882600
%endblock LatticeVectors
AtomicCoordinatesFormat Ang
%block AtomicCoordinatesAndAtomicSpecies
	0.00000000	0.00000000	0.00000000	2
	-0.70288177	1.21742694	2.70090345	1
	-1.45518323	2.52045129	13.50448481	1
	1.45518323	2.52045129	2.70090345	1
	0.70288177	1.21742694	13.50448481	1
	1.40576354	0.00000000	2.70090345	1
	2.91036646	0.00000000	13.50448481	1
	-1.45518323	2.52045129	2.70090345	1
	-0.70288177	1.21742694	13.50448481	1
	0.70288177	1.21742694	2.70090345	1
	1.45518323	2.52045129	13.50448481	1
	2.91036646	0.00000000	2.70090345	1
	1.40576354	0.00000000	13.50448481	1
	-0.70288177	1.21742694	8.10269413	1
	-1.45518323	2.52045129	8.10269413	1
	1.45518323	2.52045129	8.10269413	1
	0.70288177	1.21742694	8.10269413	1
	1.40576354	0.00000000	8.10269413	1
	2.91036646	0.00000000	8.10269413	1
%endblock AtomicCoordinatesAndAtomicSpecies
Kgrid_NoTRS  T
%block kgrid_MonkhorstPack
4       0       0       0.0
0       4       0       0.0
0       0       4       0.0
%endblock kgrid_MonkhorstPack
AtomCoorFormatOut Ang
BlockSize 1
#ProcessorY 12
Diag.ParallelOverK   T
Diag.DivideAndConquer F
MeshCutoff   300 Ry
SCF.FreeE.Tolerance 1E-3 eV
SCF.EDM.Tolerance   5E-3 eV
DM.Tolerance  1E-3
DM.Require.Energy.Convergence T
DM.NumberPulay 4
XC.Functional GGA
XC.Authors    PBE
UseSaveData        F
MD.TypeOfRun       CG
MD.VariableCell    F
MD.NumCGsteps      00
MD.MaxCGDispl      0.200000 Bohr
MD.MaxStressTol    1.000000 GPa
MD.MaxForceTol     0.010000 eV/Ang
WriteMDHistory T
WriteCoorStep T
WriteForces T
WriteCoorStep    T
WriteEigenValues T
WriteDM    F
MM.UnitsDistance Ang  # what this program prints out DO NOT CHANGE
MM.UnitsEnergy    eV  # what this program prints out DO NOT CHANGE
MM.Grimme.S6     0.75 # Grimme-paper for PBE (correct for your functional)
MM.Grimme.D     20.   # Grimme-paper (correct for your functional)
%block MM.Potentials
  1   1 Grimme     16.69      1.650 # Li, 10.1002/jcc.20495
  1   2 Grimme     17.40      2.277 # Li / C
  2   2 Grimme     18.14      2.904 # C, 10.1002/jcc.20495
%endblock MM.Potentials
#%block ProjectedDensityOfStates
# -200.0  120.0  0.4  12800  eV
#%endblock ProjectedDensityOfStates
************************** End of input data file *****************************

reinit: -----------------------------------------------------------------------
reinit: System Name: LiC18_scf
reinit: -----------------------------------------------------------------------
reinit: System Label: LiC18_scf
reinit: -----------------------------------------------------------------------
Reading two-body potentials
Grimme - two-body potential between 1 and 1
Grimme - two-body potential between 1 and 2
Grimme - two-body potential between 2 and 2

initatom: Reading input for the pseudopotentials and atomic orbitals ----------
Species number:   1 Atomic number:    3 Label: Li-gga
Species number:   2 Atomic number:    6 Label: C-gga

Ground state valence configuration:   2s01
Reading pseudopotential information in formatted form from Li-gga.psf

Valence configuration for pseudopotential generation:
2s( 1.00) rc: 2.28
2p( 0.00) rc: 2.28
3d( 0.00) rc: 2.59
4f( 0.00) rc: 2.59
Ground state valence configuration:   2s02  2p02
Reading pseudopotential information in formatted form from C-gga.psf

Valence configuration for pseudopotential generation:
2s( 2.00) rc: 1.56
2p( 2.00) rc: 1.56
3d( 0.00) rc: 1.56
4f( 0.00) rc: 1.56
relmxkb: Read Max KB Ang. Momentum=    2 for species C-gga
relmxkb: Read Max KB Ang. Momentum=    2 for species Li-gga

<basis_specs>
===============================================================================
Li-gga               Z=   3    Mass=  6.9400        Charge= 0.17977+309
Lmxo=0 Lmxkb= 2    BasisType=split      Semic=F
L=0  Nsemic=0  Cnfigmx=2
          i=1  nzeta=1  polorb=0  (2s)
            splnorm:   0.15000    
               vcte:    0.0000    
               rinn:    0.0000    
               qcoe:    0.0000    
               qyuk:    0.0000    
               qwid:   0.10000E-01
                rcs:    0.0000    
            lambdas:    1.0000    
-------------------------------------------------------------------------------
L=0  Nkbl=1  erefs: 0.17977+309
L=1  Nkbl=1  erefs: 0.17977+309
L=2  Nkbl=1  erefs: 0.17977+309
===============================================================================
</basis_specs>

atom: Called for Li-gga                (Z =   3)

read_vps: Pseudopotential generation method:
read_vps: ATM 3.2.2 Troullier-Martins                       
Valence charge for ps generation:    1.00000

read_vps: Pseudopotential includes a core correction:
read_vps: Pseudo-core for xc-correction

xc_check: Exchange-correlation functional:
xc_check: GGA Perdew, Burke & Ernzerhof 1996
V l=0 = -2*Zval/r beyond r=  2.2278
V l=1 = -2*Zval/r beyond r=  2.2278
V l=2 = -2*Zval/r beyond r=  2.5245
All V_l potentials equal beyond r=  2.4622
This should be close to max(r_c) in ps generation
All pots = -2*Zval/r beyond r=  2.5245

VLOCAL1: 99.0% of the norm of Vloc inside      7.160 Ry
VLOCAL1: 99.9% of the norm of Vloc inside     16.318 Ry
atom: Maximum radius for 4*pi*r*r*local-pseudopot. charge    2.86079
atom: Maximum radius for r*vlocal+2*Zval:    2.43160
GHOST: No ghost state for L =  0
GHOST: No ghost state for L =  1
GHOST: No ghost state for L =  2

KBgen: Kleinman-Bylander projectors: 
   l= 0   rc=  2.654023   el= -0.211234   Ekb=  1.742119   kbcos=  0.228463
   l= 1   rc=  2.721230   el= -0.080095   Ekb= -1.122375   kbcos= -0.147941
   l= 2   rc=  2.825246   el=  0.002001   Ekb= -0.207076   kbcos= -0.031965

KBgen: Total number of Kleinman-Bylander projectors:    9
atom: -------------------------------------------------------------------------

atom: SANKEY-TYPE ORBITALS:

SPLIT: Orbitals with angular momentum L= 0

SPLIT: Basis orbitals for state 2s

SPLIT: PAO cut-off radius determined from an
SPLIT: energy shift=  0.000735 Ry

   izeta = 1
                 lambda =    1.000000
                     rc =   11.897381
                 energy =   -0.210580
                kinetic =    0.143382
    potential(screened) =   -0.353962
       potential(ionic) =   -0.533453
atom: Total number of Sankey-type orbitals:  1

atm_pop: Valence configuration (for local Pseudopot. screening):
 2s( 1.00)                                                            
Vna: chval, zval:    1.00000   1.00000

Vna:  Cut-off radius for the neutral-atom potential:  11.897381
comcore: Pseudo-core radius Rcore=  3.450946

atom: _________________________________________________________________________

<basis_specs>
===============================================================================
C-gga                Z=   6    Mass=  12.010        Charge= 0.17977+309
Lmxo=1 Lmxkb= 2    BasisType=split      Semic=F
L=0  Nsemic=0  Cnfigmx=2
          i=1  nzeta=1  polorb=0  (2s)
            splnorm:   0.15000    
               vcte:    0.0000    
               rinn:    0.0000    
               qcoe:    0.0000    
               qyuk:    0.0000    
               qwid:   0.10000E-01
                rcs:    0.0000    
            lambdas:    1.0000    
L=1  Nsemic=0  Cnfigmx=2
          i=1  nzeta=1  polorb=0  (2p)
            splnorm:   0.15000    
               vcte:    0.0000    
               rinn:    0.0000    
               qcoe:    0.0000    
               qyuk:    0.0000    
               qwid:   0.10000E-01
                rcs:    0.0000    
            lambdas:    1.0000    
-------------------------------------------------------------------------------
L=0  Nkbl=1  erefs: 0.17977+309
L=1  Nkbl=1  erefs: 0.17977+309
L=2  Nkbl=1  erefs: 0.17977+309
===============================================================================
</basis_specs>

atom: Called for C-gga                 (Z =   6)

read_vps: Pseudopotential generation method:
read_vps: ATM 3.2.2 Troullier-Martins                       
Valence charge for ps generation:    4.00000

xc_check: Exchange-correlation functional:
xc_check: GGA Perdew, Burke & Ernzerhof 1996
V l=0 = -2*Zval/r beyond r=  1.5227
V l=1 = -2*Zval/r beyond r=  1.5227
V l=2 = -2*Zval/r beyond r=  1.5227
All V_l potentials equal beyond r=  1.4851
This should be close to max(r_c) in ps generation
All pots = -2*Zval/r beyond r=  1.5227

VLOCAL1: 99.0% of the norm of Vloc inside     19.682 Ry
VLOCAL1: 99.9% of the norm of Vloc inside     44.856 Ry
atom: Maximum radius for 4*pi*r*r*local-pseudopot. charge    1.79142
atom: Maximum radius for r*vlocal+2*Zval:    1.54183
GHOST: No ghost state for L =  0
GHOST: No ghost state for L =  1
GHOST: No ghost state for L =  2

KBgen: Kleinman-Bylander projectors: 
   l= 0   rc=  1.661951   el= -1.010689   Ekb=  5.289847   kbcos=  0.316429
   l= 1   rc=  1.661951   el= -0.388490   Ekb= -4.102504   kbcos= -0.351025
   l= 2   rc=  1.747182   el=  0.001971   Ekb= -1.006005   kbcos= -0.008530

KBgen: Total number of Kleinman-Bylander projectors:    9
atom: -------------------------------------------------------------------------

atom: SANKEY-TYPE ORBITALS:

SPLIT: Orbitals with angular momentum L= 0

SPLIT: Basis orbitals for state 2s

SPLIT: PAO cut-off radius determined from an
SPLIT: energy shift=  0.000735 Ry

   izeta = 1
                 lambda =    1.000000
                     rc =    5.948690
                 energy =   -1.010099
                kinetic =    0.827121
    potential(screened) =   -1.837220
       potential(ionic) =   -5.392783

SPLIT: Orbitals with angular momentum L= 1

SPLIT: Basis orbitals for state 2p

SPLIT: PAO cut-off radius determined from an
SPLIT: energy shift=  0.000735 Ry

   izeta = 1
                 lambda =    1.000000
                     rc =    7.638387
                 energy =   -0.387843
                kinetic =    2.314739
    potential(screened) =   -2.702582
       potential(ionic) =   -6.092371
atom: Total number of Sankey-type orbitals:  4

atm_pop: Valence configuration (for local Pseudopot. screening):
 2s( 2.00)                                                            
 2p( 2.00)                                                            
Vna: chval, zval:    4.00000   4.00000

Vna:  Cut-off radius for the neutral-atom potential:   7.638387

atom: _________________________________________________________________________

prinput: Basis input ----------------------------------------------------------

PAO.BasisType split     

%block ChemicalSpeciesLabel
    1    3 Li-gga                  # Species index, atomic number, species label
    2    6 C-gga                   # Species index, atomic number, species label
%endblock ChemicalSpeciesLabel

%block PAO.Basis                 # Define Basis set
Li-gga                1                    # Species label, number of l-shells
 n=2   0   1                         # n, l, Nzeta 
  11.897   
   1.000   
C-gga                 2                    # Species label, number of l-shells
 n=2   0   1                         # n, l, Nzeta 
   5.949   
   1.000   
 n=2   1   1                         # n, l, Nzeta 
   7.638   
   1.000   
%endblock PAO.Basis

prinput: ----------------------------------------------------------------------

coor:   Atomic-coordinates input format  =     Cartesian coordinates
coor:                                          (in Angstroms)

siesta: Atomic coordinates (Bohr) and species
siesta:      0.00000   0.00000   0.00000  2        1
siesta:     -1.32825   2.30060   5.10397  1        2
siesta:     -2.74990   4.76296  25.51979  1        3
siesta:      2.74990   4.76296   5.10397  1        4
siesta:      1.32825   2.30060  25.51979  1        5
siesta:      2.65651   0.00000   5.10397  1        6
siesta:      5.49980   0.00000  25.51979  1        7
siesta:     -2.74990   4.76296   5.10397  1        8
siesta:     -1.32825   2.30060  25.51979  1        9
siesta:      1.32825   2.30060   5.10397  1       10
siesta:      2.74990   4.76296  25.51979  1       11
siesta:      5.49980   0.00000   5.10397  1       12
siesta:      2.65651   0.00000  25.51979  1       13
siesta:     -1.32825   2.30060  15.31188  1       14
siesta:     -2.74990   4.76296  15.31188  1       15
siesta:      2.74990   4.76296  15.31188  1       16
siesta:      1.32825   2.30060  15.31188  1       17
siesta:      2.65651   0.00000  15.31188  1       18
siesta:      5.49980   0.00000  15.31188  1       19

siesta: System type = bulk      

initatomlists: Number of atoms, orbitals, and projectors:     19    22   171

siesta: ******************** Simulation parameters ****************************
siesta:
siesta: The following are some of the parameters of the simulation.
siesta: A complete list of the parameters used, including default values,
siesta: can be found in file out.fdf
siesta:
redata: Spin configuration                          = none
redata: Number of spin components                   = 1
redata: Time-Reversal Symmetry                      = T
redata: Spin spiral                                 = F
redata: Long output                                 =   F
redata: Number of Atomic Species                    =        2
redata: Charge density info will appear in .RHO file
redata: Write Mulliken Pop.                         = NO
redata: Matel table size (NRTAB)                    =     1024
redata: Mesh Cutoff                                 =   300.0000 Ry
redata: Net charge of the system                    =     0.0000 |e|
redata: Min. number of SCF Iter                     =        0
redata: Max. number of SCF Iter                     =     1000
redata: SCF convergence failure will abort job
redata: SCF mix quantity                            = Hamiltonian
redata: Mix DM or H after convergence               =   F
redata: Recompute H after scf cycle                 =   F
redata: Mix DM in first SCF step                    =   T
redata: Write Pulay info on disk                    =   F
redata: New DM Occupancy tolerance                  = 0.000000000001
redata: No kicks to SCF
redata: DM Mixing Weight for Kicks                  =     0.5000
redata: Require Harris convergence for SCF          =   F
redata: Harris energy tolerance for SCF             =     0.000100 eV
redata: Require DM convergence for SCF              =   T
redata: DM tolerance for SCF                        =     0.001000
redata: Require EDM convergence for SCF             =   F
redata: EDM tolerance for SCF                       =     0.005000 eV
redata: Require H convergence for SCF               =   T
redata: Hamiltonian tolerance for SCF               =     0.001000 eV
redata: Require (free) Energy convergence for SCF   =   T
redata: (free) Energy tolerance for SCF             =     0.001000 eV
redata: Using Saved Data (generic)                  =   F
redata: Use continuation files for DM               =   F
redata: Neglect nonoverlap interactions             =   F
redata: Method of Calculation                       = Diagonalization
redata: Electronic Temperature                      =   299.9869 K
redata: Fix the spin of the system                  =   F
redata: Dynamics option                             = Single-point calculation
mix.SCF: Pulay mixing                            = Pulay
mix.SCF:    Variant                              = stable
mix.SCF:    History steps                        = 4
mix.SCF:    Linear mixing weight                 =     0.250000
mix.SCF:    Mixing weight                        =     0.250000
mix.SCF:    SVD condition                        = 0.1000E-07
redata: ***********************************************************************

%block SCF.Mixers
  Pulay
%endblock SCF.Mixers

%block SCF.Mixer.Pulay
  # Mixing method
  method pulay
  variant stable

  # Mixing options
  weight 0.2500
  weight.linear 0.2500
  history 4
%endblock SCF.Mixer.Pulay

DM_history_depth set to one: no extrapolation allowed by default for geometry relaxation
Size of DM history Fstack: 1
Total number of electrons:    22.000000
Total ionic charge:    22.000000

* ProcessorY, Blocksize:    4   1


* Orbital distribution balance (max,min):     2     1

k-point displ. along   1 input, could be:     0.00    0.50
k-point displ. along   2 input, could be:     0.00    0.50
k-point displ. along   3 input, could be:     0.00    0.50
 Kpoints in:           48 . Kpoints trimmed:           44

siesta: k-grid: Number of k-points =    44
siesta: k-grid: Cutoff (effective) =     8.632 Ang
siesta: k-grid: Supercell and displacements
siesta: k-grid:    4   0   0      0.000
siesta: k-grid:    0   4   0      0.000
siesta: k-grid:    0   0   4      0.000

diag: Algorithm                                     = Expert
diag: Parallel over k                               =   T
diag: Use parallel 2D distribution                  =   T
diag: Parallel block-size                           = 1
diag: Parallel distribution                         =     4 x     4
diag: Used triangular part                          = Lower
diag: Absolute tolerance                            =  0.100E-15
diag: Orthogonalization factor                      =  0.100E-05
diag: Memory factor                                 =  1.0000

superc: Internal auxiliary supercell:     9 x     9 x     3  =     243
superc: Number of atoms, orbitals, and projectors:   4617   5346  41553


ts: **************************************************************
ts: Save H and S matrices                           =    F
ts: Save DM and EDM matrices                        =    F
ts: Only save the overlap matrix S                  =    F
ts: **************************************************************

************************ Begin: TS CHECKS AND WARNINGS ************************
************************ End: TS CHECKS AND WARNINGS **************************


                     ====================================
                        Single-point calculation
                     ====================================

outcoor: Atomic coordinates (Ang):                          
    0.00000000    0.00000000    0.00000000   2       1  C-gga
   -0.70288177    1.21742694    2.70090345   1       2  Li-gga
   -1.45518323    2.52045129   13.50448481   1       3  Li-gga
    1.45518323    2.52045129    2.70090345   1       4  Li-gga
    0.70288177    1.21742694   13.50448481   1       5  Li-gga
    1.40576354    0.00000000    2.70090345   1       6  Li-gga
    2.91036646    0.00000000   13.50448481   1       7  Li-gga
   -1.45518323    2.52045129    2.70090345   1       8  Li-gga
   -0.70288177    1.21742694   13.50448481   1       9  Li-gga
    0.70288177    1.21742694    2.70090345   1      10  Li-gga
    1.45518323    2.52045129   13.50448481   1      11  Li-gga
    2.91036646    0.00000000    2.70090345   1      12  Li-gga
    1.40576354    0.00000000   13.50448481   1      13  Li-gga
   -0.70288177    1.21742694    8.10269413   1      14  Li-gga
   -1.45518323    2.52045129    8.10269413   1      15  Li-gga
    1.45518323    2.52045129    8.10269413   1      16  Li-gga
    0.70288177    1.21742694    8.10269413   1      17  Li-gga
    1.40576354    0.00000000    8.10269413   1      18  Li-gga
    2.91036646    0.00000000    8.10269413   1      19  Li-gga

superc: Internal auxiliary supercell:     9 x     9 x     3  =     243
superc: Number of atoms, orbitals, and projectors:   4617   5346  41553

outcell: Unit cell vectors (Ang):
        4.316130    0.000000    0.000000
       -2.158065    3.737878    0.000000
        0.000000    0.000000   16.205388

outcell: Cell vector modules (Ang)   :    4.316130    4.316130   16.205388
outcell: Cell angles (23,13,12) (deg):     90.0000     90.0000    120.0000
outcell: Cell volume (Ang**3)        :    261.4443
<dSpData1D:S at geom step 0
  <sparsity:sparsity for geom step 0
    nrows_g=22 nrows=2 sparsity=3.0021 nnzs=1453, refcount: 7>
  <dData1D:(new from dSpData1D) n=1453, refcount: 1>
refcount: 1>
new_DM -- step:     1
Initializing Density Matrix...
DM filled with atomic data:
<dSpData2D:DM initialized from atoms
  <sparsity:sparsity for geom step 0
    nrows_g=22 nrows=2 sparsity=3.0021 nnzs=1453, refcount: 8>
  <dData2D:DM n=1453 m=1, refcount: 1>
refcount: 1>
No. of atoms with KB's overlaping orbs in proc 0. Max # of overlaps:     160     161
New grid distribution:   1
           1       1:   20    1:    5    1:   23
           2       1:   20    1:    5   24:   46
           3       1:   20    1:    5   47:   68
           4       1:   20    1:    5   69:   90
           5       1:   20    6:   10    1:   23
           6       1:   20    6:   10   24:   46
           7       1:   20    6:   10   47:   68
           8       1:   20    6:   10   69:   90
           9       1:   20   11:   15    1:   23
          10       1:   20   11:   15   24:   46
          11       1:   20   11:   15   47:   68
          12       1:   20   11:   15   69:   90
          13       1:   20   16:   20    1:   23
          14       1:   20   16:   20   24:   46
          15       1:   20   16:   20   47:   68
          16       1:   20   16:   20   69:   90

InitMesh: MESH =    40 x    40 x   180 =      288000
InitMesh: (bp) =    20 x    20 x    90 =       36000
InitMesh: Mesh cutoff (required, used) =   300.000   316.498 Ry
ExtMesh (bp) on 0 =   156 x   141 x   163 =     3585348
New grid distribution:   2
           1       1:   20    1:   10    1:    9
           2       1:   20    1:   10   21:   32
           3       1:   20    1:   10   46:   58
           4       1:   20    1:   10   71:   81
           5       1:   20    1:   10   10:   20
           6       1:   20    1:   10   33:   45
           7       1:   20    1:   10   59:   70
           8       1:   20    1:   10   82:   90
           9       1:   20   11:   20    1:    9
          10       1:   20   11:   20   21:   32
          11       1:   20   11:   20   46:   58
          12       1:   20   11:   20   71:   81
          13       1:   20   11:   20   10:   20
          14       1:   20   11:   20   33:   45
          15       1:   20   11:   20   59:   70
          16       1:   20   11:   20   82:   90
New grid distribution:   3
           1       1:   20    1:   10   13:   23
           2       1:   20    1:   10   24:   34
           3       1:   20    1:   10   46:   57
           4       1:   20    1:   10   80:   90
           5       1:   20    1:   10    1:   12
           6       1:   20    1:   10   35:   45
           7       1:   20    1:   10   58:   68
           8       1:   20    1:   10   69:   79
           9       1:   20   11:   20   13:   23
          10       1:   20   11:   20   35:   45
          11       1:   20   11:   20   46:   57
          12       1:   20   11:   20   80:   90
          13       1:   20   11:   20    1:   12
          14       1:   20   11:   20   24:   34
          15       1:   20   11:   20   58:   68
          16       1:   20   11:   20   69:   79
Setting up quadratic distribution...
ExtMesh (bp) on 0 =   156 x   146 x   149 =     3393624
PhiOnMesh: Number of (b)points on node 0 =                 1800
PhiOnMesh: nlist on node 0 =               157215

stepf: Fermi-Dirac step function

siesta: Program's energy decomposition (eV):
siesta: Ebs     =       198.491712
siesta: Eions   =       439.895300
siesta: Ena     =       156.201636
siesta: Ekin    =       286.302621
siesta: Enl     =        46.784455
siesta: Eso     =         0.000000
siesta: Edftu   =         0.000000
siesta: DEna    =       -33.440167
siesta: DUscf   =       111.465558
siesta: DUext   =         0.000000
siesta: Exc     =      -222.938109
siesta: eta*DQ  =         0.000000
siesta: Emadel  =         0.000000
siesta: Emeta   =         0.000000
siesta: Emolmec =        -7.218846
siesta: Ekinion =         0.000000
siesta: Eharris =       148.391167
siesta: Etot    =      -102.738153
siesta: FreeEng =      -102.742174

        iscf     Eharris(eV)        E_KS(eV)     FreeEng(eV)     dDmax    Ef(eV) dHmax(eV)
   scf:    1      148.391167     -102.738153     -102.742174  1.737440 -4.247753 58.839223
timer: Routine,Calls,Time,% = IterSCF        1       0.501  15.30
   scf:    2      171.378552     -117.548129     -117.561210 25.105572  3.533482 54.795921
   scf:    3     -204.639949     -166.111137     -166.111137  8.250988 -0.362954 30.612594
   scf:    4      663.126266       51.701661       51.689319 19.224561 -4.546334 89.860061
   scf:    5     -247.855832     -128.284350     -128.296434  5.659971 -4.120399 47.759713
   scf:    6     -210.563882     -177.212685     -177.236267  3.682189 -3.067097 24.318971
   scf:    7     -198.583590     -191.692183     -191.692694  4.147412 -2.140986  8.118199
   scf:    8      -83.421901     -151.178414     -151.200751  7.139280 -3.551159 38.238978
   scf:    9     -162.957760     -190.418219     -190.431663  7.503114 -1.408625 11.292624
   scf:   10     -194.248491     -192.548797     -192.564694  0.980320 -1.698124  7.234419
   scf:   11     -189.221242     -191.010493     -191.025286  0.756032 -1.565722 10.265279
   scf:   12     -192.030558     -193.761764     -193.785154  2.987963 -1.884038  2.045095
   scf:   13     -191.405963     -193.097308     -193.114056  1.453222 -1.663434  4.444793
   scf:   14     -181.350671     -188.543343     -188.556390  2.424792 -0.893395 13.626415
   scf:   15     -189.393705     -189.087865     -189.101307  0.900148 -1.258619 13.088400
   scf:   16     -195.594260     -193.065175     -193.077165  1.489432 -1.873859  5.539877
   scf:   17     -185.567416     -192.109514     -192.110206  3.526984 -2.088462  7.457199
   scf:   18     -194.720764     -193.959418     -193.981997  1.651083 -1.989632  1.907288
   scf:   19     -192.771203     -193.765883     -193.776881  1.152133 -1.913106  3.082004
   scf:   20     -191.342870     -193.448497     -193.470266  1.753965 -2.049275  4.220660
   scf:   21     -193.861618     -194.063771     -194.084516  1.207077 -1.961025  0.672638
   scf:   22     -194.062261     -194.063020     -194.083707  0.003908 -1.960752  0.689240
   scf:   23     -194.061471     -194.062273     -194.083473  0.016852 -1.957283  0.717881
   scf:   24     -194.072638     -194.077625     -194.101027  0.183632 -1.969171  0.061269
   scf:   25     -194.078271     -194.078063     -194.101172  0.021232 -1.968606  0.017362
   scf:   26     -194.077932     -194.078015     -194.101173  0.007796 -1.969297  0.016281
   scf:   27     -194.078102     -194.078063     -194.101182  0.003842 -1.969097  0.000321
   scf:   28     -194.078055     -194.078059     -194.101182  0.000142 -1.969112  0.000807

SCF Convergence by FreeE+DM+H criterion
|FreeE_i-FreeE_(i-1)| (eV) <     0.00100000
max |DM_out - DM_in|         :     0.0001416382
max |H_out - H_in|      (eV) :     0.0008073318
SCF cycle converged after 28 iterations

Using DM_out to compute the final energy and forces
No. of atoms with KB's overlaping orbs in proc 0. Max # of overlaps:     160     161

MM-Stress (kbar):      -11.98      -11.98       10.90        0.00       -0.00        0.00

siesta: E_KS(eV) =             -194.0781

siesta: E_KS - E_eggbox =      -194.0781

siesta: Atomic forces (eV/Ang):
     1    0.000000    0.000000    0.000000
     2   -0.325051    0.562973   -0.365002
     3    0.325051   -0.562973    0.365002
     4   -0.325063   -0.563025   -0.364978
     5    0.325063    0.563025    0.364978
     6    0.650074   -0.000016   -0.365002
     7   -0.650074    0.000016    0.365002
     8    0.325051   -0.562973   -0.365002
     9   -0.325051    0.562973    0.365002
    10    0.325063    0.563025   -0.364978
    11   -0.325063   -0.563025    0.364978
    12   -0.650074    0.000016   -0.365002
    13    0.650074   -0.000016    0.365002
    14   -0.379091    0.656558    0.000000
    15    0.379091   -0.656558   -0.000000
    16   -0.379101   -0.656622   -0.000000
    17    0.379101    0.656622   -0.000000
    18    0.758142   -0.000023   -0.000000
    19   -0.758142    0.000023    0.000000
----------------------------------------
   Tot   -0.000000   -0.000000    0.000000
----------------------------------------
   Max    0.758142
   Res    0.421337    sqrt( Sum f_i^2 / 3N )
----------------------------------------
   Max    0.758142    constrained

Stress tensor Voigt[x,y,z,yz,xz,xy] (kbar):    -1462.12    -1462.12      129.40       -0.00        0.00       -0.00
(Free)E + p*V (eV/cell)      -42.0815
Target enthalpy (eV/cell)     -194.1012

siesta: Eigenvalues (eV):
  ik is       eps
   1  1  -12.3617  -11.9770  -11.8326  -10.8818  -10.8232  -10.5968  -10.2729  -10.1607  -10.0369   -8.3663
          -2.0530   -1.9650   -1.6023   17.7941   18.1305   18.9429   19.0075   19.1365   19.3356   19.6990
   20.2237   20.3681
   2  1  -13.0409  -12.6096  -12.5106   -9.7763   -9.5895   -8.8768   -8.3288   -3.6591   -2.9583   -2.6437
          -2.0831   -1.7304    0.0859    0.3434    1.4818    2.1244   19.5947   21.3890   21.5210   22.2829
   22.8667   22.8688
   3  1  -13.0409  -12.6096  -12.5106   -9.7763   -9.5895   -8.8768   -8.3288   -3.6591   -2.9583   -2.6437
          -2.0831   -1.7303    0.0858    0.3435    1.4818    2.1245   19.5946   21.3890   21.5209   22.2829
   22.8667   22.8688
   4  1  -12.3617  -11.9770  -11.8326  -10.8818  -10.8232  -10.5968  -10.2729  -10.1607  -10.0369   -8.3663
          -2.0529   -1.9650   -1.6024   17.7941   18.1305   18.9429   19.0075   19.1365   19.3356   19.6990
   20.2237   20.3681
   5  1  -13.0409  -12.6096  -12.5106   -9.7763   -9.5895   -8.8768   -8.3288   -3.6591   -2.9583   -2.6437
          -2.0831   -1.7304    0.0859    0.3434    1.4818    2.1244   19.5947   21.3890   21.5210   22.2829
   22.8667   22.8688
   6  1  -13.4144  -12.9865  -12.8734   -9.1399   -2.7395   -1.5947   -1.5946    5.7912    5.7912    6.4619
           6.4619    7.1483    7.1483    7.8466    7.8466    8.1983    8.1983    9.0727    9.0728   23.7262
   24.3513   24.5689
   7  1  -12.0822  -12.0521  -11.8546  -11.5397  -11.5011  -11.1899   -8.7492   -5.0219   -4.3221   -3.7096
          -3.1272   -2.9691   -2.3010   -1.6939   -0.4901   -0.1575   18.0668   18.3577   18.5654   18.8470
   18.9183   19.2028
   8  1  -12.3617  -11.9770  -11.8326  -10.8818  -10.8232  -10.5968  -10.2729  -10.1607  -10.0369   -8.3663
          -2.0529   -1.9650   -1.6024   17.7941   18.1305   18.9429   19.0075   19.1365   19.3356   19.6990
   20.2237   20.3681
   9  1  -12.3617  -11.9770  -11.8326  -10.8818  -10.8232  -10.5968  -10.2729  -10.1607  -10.0369   -8.3663
          -2.0529   -1.9650   -1.6024   17.7941   18.1305   18.9429   19.0075   19.1365   19.3356   19.6990
   20.2237   20.3681
  10  1  -12.0822  -12.0521  -11.8546  -11.5397  -11.5011  -11.1899   -8.7492   -5.0219   -4.3221   -3.7096
          -3.1272   -2.9691   -2.3010   -1.6939   -0.4901   -0.1575   18.0668   18.3577   18.5654   18.8470
   18.9183   19.2028
  11  1  -12.3617  -11.9770  -11.8326  -10.8818  -10.8232  -10.5968  -10.2729  -10.1607  -10.0369   -8.3663
          -2.0529   -1.9650   -1.6024   17.7941   18.1305   18.9429   19.0075   19.1365   19.3356   19.6990
   20.2237   20.3681
  12  1  -12.0822  -12.0521  -11.8546  -11.5397  -11.5011  -11.1900   -8.7492   -5.0219   -4.3221   -3.7096
          -3.1272   -2.9691   -2.3009   -1.6939   -0.4902   -0.1575   18.0668   18.3577   18.5654   18.8470
   18.9183   19.2028
  13  1  -12.3651  -11.9795  -11.8316  -10.8817  -10.8233  -10.5980  -10.2713  -10.1584  -10.0399   -8.3776
          -2.0597   -1.9504   -1.6055   17.8072   18.1628   18.8240   19.0061   19.1132   19.4020   19.7272
   20.2383   20.3580
  14  1  -13.0429  -12.6098  -12.5108   -9.7580   -9.6277   -8.8478   -8.3484   -3.5861   -3.1123   -2.6312
          -1.9828   -1.7342    0.0661    0.3689    1.4090    2.1757   19.6904   20.8952   21.9156   22.2914
   22.8625   22.8771
  15  1  -13.0429  -12.6098  -12.5108   -9.7580   -9.6277   -8.8478   -8.3485   -3.5861   -3.1123   -2.6312
          -1.9828   -1.7341    0.0660    0.3689    1.4090    2.1757   19.6903   20.8952   21.9155   22.2914
   22.8625   22.8771
  16  1  -12.3651  -11.9794  -11.8316  -10.8817  -10.8233  -10.5980  -10.2713  -10.1584  -10.0399   -8.3776
          -2.0596   -1.9504   -1.6056   17.8072   18.1628   18.8240   19.0061   19.1132   19.4020   19.7272
   20.2383   20.3580
  17  1  -13.0429  -12.6098  -12.5108   -9.7580   -9.6277   -8.8478   -8.3484   -3.5861   -3.1123   -2.6312
          -1.9828   -1.7342    0.0661    0.3689    1.4090    2.1757   19.6904   20.8952   21.9156   22.2914
   22.8625   22.8771
  18  1  -13.4152  -12.9864  -12.8731   -9.1534   -2.7228   -1.5946   -1.5944    5.7101    5.7101    6.5291
           6.5291    7.3305    7.3305    7.5540    7.5540    8.4289    8.4289    8.9679    8.9680   23.7452
   24.3060   24.5954
  19  1  -13.0429  -12.6098  -12.5108   -9.7580   -9.6277   -8.8478   -8.3484   -3.5861   -3.1123   -2.6312
          -1.9828   -1.7342    0.0661    0.3689    1.4090    2.1757   19.6904   20.8952   21.9156   22.2914
   22.8625   22.8771
  20  1  -12.0920  -12.0395  -11.8719  -11.5382  -11.5001  -11.1891   -8.7586   -4.9729   -4.4489   -3.6227
          -3.2394   -2.7526   -2.3095   -1.8449   -0.4997   -0.0970   18.0514   18.3413   18.6050   18.8873
   18.8942   19.1789
  21  1  -13.0429  -12.6098  -12.5108   -9.7580   -9.6277   -8.8478   -8.3485   -3.5861   -3.1123   -2.6312
          -1.9828   -1.7341    0.0660    0.3689    1.4090    2.1757   19.6903   20.8952   21.9155   22.2914
   22.8625   22.8771
  22  1  -13.0429  -12.6098  -12.5108   -9.7580   -9.6277   -8.8478   -8.3484   -3.5861   -3.1123   -2.6312
          -1.9828   -1.7342    0.0661    0.3689    1.4090    2.1757   19.6904   20.8952   21.9156   22.2914
   22.8625   22.8771
  23  1  -12.3651  -11.9795  -11.8316  -10.8817  -10.8233  -10.5980  -10.2713  -10.1584  -10.0399   -8.3776
          -2.0597   -1.9504   -1.6055   17.8072   18.1628   18.8240   19.0061   19.1132   19.4020   19.7272
   20.2383   20.3580
  24  1  -12.3651  -11.9794  -11.8316  -10.8817  -10.8233  -10.5980  -10.2713  -10.1584  -10.0399   -8.3776
          -2.0596   -1.9504   -1.6056   17.8072   18.1628   18.8240   19.0061   19.1132   19.4020   19.7272
   20.2383   20.3580
  25  1  -12.3651  -11.9794  -11.8316  -10.8817  -10.8233  -10.5980  -10.2713  -10.1584  -10.0399   -8.3776
          -2.0596   -1.9504   -1.6056   17.8072   18.1628   18.8240   19.0061   19.1132   19.4020   19.7272
   20.2383   20.3580
  26  1  -12.0920  -12.0395  -11.8719  -11.5382  -11.5001  -11.1891   -8.7586   -4.9729   -4.4489   -3.6227
          -3.2394   -2.7526   -2.3095   -1.8449   -0.4997   -0.0970   18.0514   18.3413   18.6050   18.8873
   18.8942   19.1789
  27  1  -12.3651  -11.9794  -11.8316  -10.8817  -10.8233  -10.5980  -10.2713  -10.1584  -10.0399   -8.3776
          -2.0596   -1.9504   -1.6056   17.8072   18.1628   18.8240   19.0061   19.1132   19.4020   19.7272
   20.2383   20.3580
  28  1  -12.0920  -12.0395  -11.8719  -11.5383  -11.5001  -11.1891   -8.7586   -4.9729   -4.4489   -3.6227
          -3.2394   -2.7526   -2.3094   -1.8449   -0.4998   -0.0969   18.0514   18.3413   18.6050   18.8873
   18.8942   19.1790
  29  1  -12.3687  -11.9818  -11.8306  -10.8817  -10.8234  -10.5992  -10.2697  -10.1560  -10.0430   -8.3888
          -2.0662   -1.9360   -1.6087   17.8211   18.2003   18.7581   18.9058   19.1651   19.4325   19.7559
   20.2557   20.3452
  30  1  -13.0449  -12.6100  -12.5111   -9.7141   -9.6903   -8.8183   -8.3695   -3.4024   -3.3615   -2.6188
          -1.8973   -1.7380    0.0456    0.3967    1.3411    2.2198   19.8284   20.5833   22.0763   22.3086
   22.8609   22.8839
  31  1  -13.0449  -12.6100  -12.5111   -9.7141   -9.6903   -8.8183   -8.3695   -3.4024   -3.3615   -2.6188
          -1.8973   -1.7379    0.0455    0.3968    1.3411    2.2198   19.8284   20.5833   22.0762   22.3086
   22.8609   22.8839
  32  1  -12.3687  -11.9818  -11.8306  -10.8817  -10.8234  -10.5992  -10.2697  -10.1560  -10.0430   -8.3888
          -2.0661   -1.9360   -1.6088   17.8211   18.2003   18.7581   18.9058   19.1651   19.4325   19.7559
   20.2557   20.3452
  33  1  -13.0449  -12.6100  -12.5111   -9.7141   -9.6903   -8.8183   -8.3695   -3.4024   -3.3615   -2.6188
          -1.8973   -1.7380    0.0456    0.3967    1.3411    2.2198   19.8284   20.5833   22.0763   22.3086
   22.8609   22.8839
  34  1  -13.4161  -12.9863  -12.8728   -9.1668   -2.7060   -1.5944   -1.5943    5.6410    5.6410    6.6193
           6.6193    7.3355    7.3355    7.5218    7.5218    8.5624    8.5624    8.8420    8.8420   23.7661
   24.2646   24.6159
  35  1  -13.0449  -12.6100  -12.5111   -9.7141   -9.6903   -8.8183   -8.3695   -3.4024   -3.3615   -2.6188
          -1.8973   -1.7380    0.0456    0.3967    1.3411    2.2198   19.8284   20.5833   22.0763   22.3086
   22.8609   22.8839
  36  1  -12.1019  -12.0237  -11.8924  -11.5369  -11.4991  -11.1883   -8.7681   -4.9000   -4.5824   -3.5529
          -3.2922   -2.5411   -2.3180   -2.0447   -0.5094   -0.0419   18.0373   18.3263   18.6506   18.8628
   18.9335   19.1478
  37  1  -13.0449  -12.6100  -12.5111   -9.7141   -9.6903   -8.8183   -8.3695   -3.4024   -3.3615   -2.6188
          -1.8973   -1.7379    0.0455    0.3968    1.3411    2.2198   19.8284   20.5833   22.0762   22.3086
   22.8609   22.8839
  38  1  -13.0449  -12.6100  -12.5111   -9.7141   -9.6903   -8.8183   -8.3695   -3.4024   -3.3615   -2.6188
          -1.8973   -1.7380    0.0456    0.3967    1.3411    2.2198   19.8284   20.5833   22.0763   22.3086
   22.8609   22.8839
  39  1  -12.3687  -11.9818  -11.8306  -10.8817  -10.8234  -10.5992  -10.2697  -10.1560  -10.0430   -8.3888
          -2.0662   -1.9360   -1.6087   17.8211   18.2003   18.7581   18.9058   19.1651   19.4325   19.7559
   20.2557   20.3452
  40  1  -12.3687  -11.9818  -11.8306  -10.8817  -10.8234  -10.5992  -10.2697  -10.1560  -10.0430   -8.3888
          -2.0661   -1.9360   -1.6088   17.8211   18.2003   18.7581   18.9058   19.1651   19.4325   19.7559
   20.2557   20.3452
  41  1  -12.3687  -11.9818  -11.8306  -10.8817  -10.8234  -10.5992  -10.2697  -10.1560  -10.0430   -8.3888
          -2.0661   -1.9360   -1.6088   17.8211   18.2003   18.7581   18.9058   19.1651   19.4325   19.7559
   20.2557   20.3452
  42  1  -12.1019  -12.0237  -11.8924  -11.5369  -11.4991  -11.1883   -8.7681   -4.9000   -4.5824   -3.5529
          -3.2922   -2.5411   -2.3180   -2.0447   -0.5094   -0.0419   18.0373   18.3263   18.6506   18.8628
   18.9335   19.1478
  43  1  -12.3687  -11.9818  -11.8306  -10.8817  -10.8234  -10.5992  -10.2697  -10.1560  -10.0430   -8.3888
          -2.0661   -1.9360   -1.6088   17.8211   18.2003   18.7581   18.9058   19.1651   19.4325   19.7559
   20.2557   20.3452
  44  1  -12.1019  -12.0237  -11.8924  -11.5369  -11.4991  -11.1883   -8.7681   -4.9000   -4.5824   -3.5529
          -3.2921   -2.5411   -2.3179   -2.0447   -0.5095   -0.0419   18.0373   18.3263   18.6506   18.8627
   18.9335   19.1478
siesta: Fermi energy =      -1.969112 eV

siesta: Program's energy decomposition (eV):
siesta: Ebs     =      -190.605345
siesta: Eions   =       439.895300
siesta: Ena     =       156.201636
siesta: Ekin    =       218.912658
siesta: Enl     =        75.070833
siesta: Eso     =         0.000000
siesta: Edftu   =         0.000000
siesta: DEna    =         1.362500
siesta: DUscf   =         2.274203
siesta: DUext   =         0.000000
siesta: Exc     =      -200.785744
siesta: eta*DQ  =         0.000000
siesta: Emadel  =         0.000000
siesta: Emeta   =         0.000000
siesta: Emolmec =        -7.218846
siesta: Ekinion =         0.000000
siesta: Eharris =      -194.078055
siesta: Etot    =      -194.078059
siesta: FreeEng =      -194.101182

siesta: Final energy (eV):
siesta:  Band Struct. =    -190.605345
siesta:       Kinetic =     218.912658
siesta:       Hartree =     152.023594
siesta:       Edftu   =       0.000000
siesta:       Eso     =       0.000000
siesta:    Ext. field =       0.000000
siesta:   Exch.-corr. =    -200.785744
siesta:  Ion-electron =    -513.380752
siesta:       Ion-ion =     156.371031
siesta:       Ekinion =       0.000000
siesta:         Total =    -194.078059
siesta:         Fermi =      -1.969112

siesta: Atomic forces (eV/Ang):
siesta:      1    0.000000    0.000000    0.000000
siesta:      2   -0.325051    0.562973   -0.365002
siesta:      3    0.325051   -0.562973    0.365002
siesta:      4   -0.325063   -0.563025   -0.364978
siesta:      5    0.325063    0.563025    0.364978
siesta:      6    0.650074   -0.000016   -0.365002
siesta:      7   -0.650074    0.000016    0.365002
siesta:      8    0.325051   -0.562973   -0.365002
siesta:      9   -0.325051    0.562973    0.365002
siesta:     10    0.325063    0.563025   -0.364978
siesta:     11   -0.325063   -0.563025    0.364978
siesta:     12   -0.650074    0.000016   -0.365002
siesta:     13    0.650074   -0.000016    0.365002
siesta:     14   -0.379091    0.656558    0.000000
siesta:     15    0.379091   -0.656558   -0.000000
siesta:     16   -0.379101   -0.656622   -0.000000
siesta:     17    0.379101    0.656622   -0.000000
siesta:     18    0.758142   -0.000023   -0.000000
siesta:     19   -0.758142    0.000023    0.000000
siesta: ----------------------------------------
siesta:    Tot   -0.000000   -0.000000    0.000000

siesta: Stress tensor (static) (eV/Ang**3):
siesta:    -0.912573   -0.000001    0.000000
siesta:    -0.000001   -0.912574    0.000000
siesta:     0.000000   -0.000000    0.080763

siesta: Cell volume =        261.444257 Ang**3

siesta: Pressure (static):
siesta:                Solid            Molecule  Units
siesta:           0.00633285          0.00613333  Ry/Bohr**3
siesta:           0.58146121          0.56314185  eV/Ang**3
siesta:         931.61362695        902.26247318  kBar
(Free)E+ p_basis*V_orbitals  =        -170.105471
(Free)Eharris+ p_basis*V_orbitals  =        -170.105467

cite: Please see "LiC18_scf.bib" for an exhaustive BiBTeX file.
cite: Please clearly indicate Siesta version in published work: 4.1.5
cite: This calculation has made use of the following articles
cite: which are encouraged to be cited in a published work.
        Primary SIESTA paper
          DOI: www.doi.org/10.1088/0953-8984/14/11/302

>> End of run:   9-NOV-2022  15:17:22
Job completed
