Siesta Version  : 4.1.5
Architecture    : x86_64-unknown-linux-gnu--unknown
Compiler version: GNU Fortran (GCC) 11.3.0
Compiler flags  : mpif90 -g -O2 -fallow-argument-mismatch
PP flags        : -DMPI -DFC_HAVE_FLUSH -DFC_HAVE_ABORT
Libraries       :  -I/global/software/sl-7.x86_64/modules/intel/2020.4.304/mkl/include  /globall/software/sl-7.x86_64/modules/intel/2020.4.304/mkl/lib/intel64/libmkl_scalapack_lp64.a -Wl,--start-group /global/software/sl-7.x86_64/modules/intel/2020.4.304/mkl/lib/intel64/libmkl_intel_lp64.a /global/software/sl-7.x86_64/modules/intel/2020.4.304/mkl/lib/intel64/libmkl_sequential.a /global/software/sl-7.x86_64/modules/intel/2020.4.304/mkl/lib/intel64/libmkl_core.a /global/software/sl-7.x86_64/modules/intel/2020.4.304/mkl/lib/intel64/libmkl_blacs_openmpi_lp64.a -Wl,--end-group -lpthread -lm -ldl
PARALLEL version

* Running on 16 nodes in parallel
>> Start of run:   9-NOV-2022  15:11:35

                           ***********************       
                           *  WELCOME TO SIESTA  *       
                           ***********************       

reinit: Reading from standard input
reinit: Dumped input in INPUT_TMP.70629
************************** Dump of input data file ****************************
SystemName LiC18_scf
SystemLabel LiC18_scf
NumberOfAtoms   19
NumberOfSpecies 2
%block ChemicalSpeciesLabel
1  3   Li-gga
2  6   C-gga
%endblock ChemicalSpeciesLabel
PAO.BasisSize  SZ
PAO.EnergyShift  10 meV
%block PS.Lmax
C-gga   2
Li-gga  2
%endblock PS.Lmax
LatticeConstant 1.000000 Ang
%block LatticeVectors
	4.3161300000	0.0000000000	0.0000000000
	-2.1580650000	3.7378782260	0.0000000000
	0.0000000000	0.0000000000	6.6597486000
%endblock LatticeVectors
AtomicCoordinatesFormat Ang
%block AtomicCoordinatesAndAtomicSpecies
	0.00000000	0.00000000	0.00000000	2
	-0.70288177	1.21742694	1.10996032	1
	-1.45518323	2.52045129	5.54978828	1
	1.45518323	2.52045129	1.10996032	1
	0.70288177	1.21742694	5.54978828	1
	1.40576354	0.00000000	1.10996032	1
	2.91036646	0.00000000	5.54978828	1
	-1.45518323	2.52045129	1.10996032	1
	-0.70288177	1.21742694	5.54978828	1
	0.70288177	1.21742694	1.10996032	1
	1.45518323	2.52045129	5.54978828	1
	2.91036646	0.00000000	1.10996032	1
	1.40576354	0.00000000	5.54978828	1
	-0.70288177	1.21742694	3.32987430	1
	-1.45518323	2.52045129	3.32987430	1
	1.45518323	2.52045129	3.32987430	1
	0.70288177	1.21742694	3.32987430	1
	1.40576354	0.00000000	3.32987430	1
	2.91036646	0.00000000	3.32987430	1
%endblock AtomicCoordinatesAndAtomicSpecies
Kgrid_NoTRS  T
%block kgrid_MonkhorstPack
4       0       0       0.0
0       4       0       0.0
0       0       4       0.0
%endblock kgrid_MonkhorstPack
AtomCoorFormatOut Ang
BlockSize 1
#ProcessorY 12
Diag.ParallelOverK   T
Diag.DivideAndConquer F
MeshCutoff   300 Ry
SCF.FreeE.Tolerance 1E-3 eV
SCF.EDM.Tolerance   5E-3 eV
DM.Tolerance  1E-3
DM.Require.Energy.Convergence T
DM.NumberPulay 4
XC.Functional GGA
XC.Authors    PBE
UseSaveData        F
MD.TypeOfRun       CG
MD.VariableCell    F
MD.NumCGsteps      00
MD.MaxCGDispl      0.200000 Bohr
MD.MaxStressTol    1.000000 GPa
MD.MaxForceTol     0.010000 eV/Ang
WriteMDHistory T
WriteCoorStep T
WriteForces T
WriteCoorStep    T
WriteEigenValues T
WriteDM    F
MM.UnitsDistance Ang  # what this program prints out DO NOT CHANGE
MM.UnitsEnergy    eV  # what this program prints out DO NOT CHANGE
MM.Grimme.S6     0.75 # Grimme-paper for PBE (correct for your functional)
MM.Grimme.D     20.   # Grimme-paper (correct for your functional)
%block MM.Potentials
  1   1 Grimme     16.69      1.650 # Li, 10.1002/jcc.20495
  1   2 Grimme     17.40      2.277 # Li / C
  2   2 Grimme     18.14      2.904 # C, 10.1002/jcc.20495
%endblock MM.Potentials
#%block ProjectedDensityOfStates
# -200.0  120.0  0.4  12800  eV
#%endblock ProjectedDensityOfStates
************************** End of input data file *****************************

reinit: -----------------------------------------------------------------------
reinit: System Name: LiC18_scf
reinit: -----------------------------------------------------------------------
reinit: System Label: LiC18_scf
reinit: -----------------------------------------------------------------------
Reading two-body potentials
Grimme - two-body potential between 1 and 1
Grimme - two-body potential between 1 and 2
Grimme - two-body potential between 2 and 2

initatom: Reading input for the pseudopotentials and atomic orbitals ----------
Species number:   1 Atomic number:    3 Label: Li-gga
Species number:   2 Atomic number:    6 Label: C-gga

Ground state valence configuration:   2s01
Reading pseudopotential information in formatted form from Li-gga.psf

Valence configuration for pseudopotential generation:
2s( 1.00) rc: 2.28
2p( 0.00) rc: 2.28
3d( 0.00) rc: 2.59
4f( 0.00) rc: 2.59
Ground state valence configuration:   2s02  2p02
Reading pseudopotential information in formatted form from C-gga.psf

Valence configuration for pseudopotential generation:
2s( 2.00) rc: 1.56
2p( 2.00) rc: 1.56
3d( 0.00) rc: 1.56
4f( 0.00) rc: 1.56
relmxkb: Read Max KB Ang. Momentum=    2 for species C-gga
relmxkb: Read Max KB Ang. Momentum=    2 for species Li-gga

<basis_specs>
===============================================================================
Li-gga               Z=   3    Mass=  6.9400        Charge= 0.17977+309
Lmxo=0 Lmxkb= 2    BasisType=split      Semic=F
L=0  Nsemic=0  Cnfigmx=2
          i=1  nzeta=1  polorb=0  (2s)
            splnorm:   0.15000    
               vcte:    0.0000    
               rinn:    0.0000    
               qcoe:    0.0000    
               qyuk:    0.0000    
               qwid:   0.10000E-01
                rcs:    0.0000    
            lambdas:    1.0000    
-------------------------------------------------------------------------------
L=0  Nkbl=1  erefs: 0.17977+309
L=1  Nkbl=1  erefs: 0.17977+309
L=2  Nkbl=1  erefs: 0.17977+309
===============================================================================
</basis_specs>

atom: Called for Li-gga                (Z =   3)

read_vps: Pseudopotential generation method:
read_vps: ATM 3.2.2 Troullier-Martins                       
Valence charge for ps generation:    1.00000

read_vps: Pseudopotential includes a core correction:
read_vps: Pseudo-core for xc-correction

xc_check: Exchange-correlation functional:
xc_check: GGA Perdew, Burke & Ernzerhof 1996
V l=0 = -2*Zval/r beyond r=  2.2278
V l=1 = -2*Zval/r beyond r=  2.2278
V l=2 = -2*Zval/r beyond r=  2.5245
All V_l potentials equal beyond r=  2.4622
This should be close to max(r_c) in ps generation
All pots = -2*Zval/r beyond r=  2.5245

VLOCAL1: 99.0% of the norm of Vloc inside      7.160 Ry
VLOCAL1: 99.9% of the norm of Vloc inside     16.318 Ry
atom: Maximum radius for 4*pi*r*r*local-pseudopot. charge    2.86079
atom: Maximum radius for r*vlocal+2*Zval:    2.43160
GHOST: No ghost state for L =  0
GHOST: No ghost state for L =  1
GHOST: No ghost state for L =  2

KBgen: Kleinman-Bylander projectors: 
   l= 0   rc=  2.654023   el= -0.211234   Ekb=  1.742119   kbcos=  0.228463
   l= 1   rc=  2.721230   el= -0.080095   Ekb= -1.122375   kbcos= -0.147941
   l= 2   rc=  2.825246   el=  0.002001   Ekb= -0.207076   kbcos= -0.031965

KBgen: Total number of Kleinman-Bylander projectors:    9
atom: -------------------------------------------------------------------------

atom: SANKEY-TYPE ORBITALS:

SPLIT: Orbitals with angular momentum L= 0

SPLIT: Basis orbitals for state 2s

SPLIT: PAO cut-off radius determined from an
SPLIT: energy shift=  0.000735 Ry

   izeta = 1
                 lambda =    1.000000
                     rc =   11.897381
                 energy =   -0.210580
                kinetic =    0.143382
    potential(screened) =   -0.353962
       potential(ionic) =   -0.533453
atom: Total number of Sankey-type orbitals:  1

atm_pop: Valence configuration (for local Pseudopot. screening):
 2s( 1.00)                                                            
Vna: chval, zval:    1.00000   1.00000

Vna:  Cut-off radius for the neutral-atom potential:  11.897381
comcore: Pseudo-core radius Rcore=  3.450946

atom: _________________________________________________________________________

<basis_specs>
===============================================================================
C-gga                Z=   6    Mass=  12.010        Charge= 0.17977+309
Lmxo=1 Lmxkb= 2    BasisType=split      Semic=F
L=0  Nsemic=0  Cnfigmx=2
          i=1  nzeta=1  polorb=0  (2s)
            splnorm:   0.15000    
               vcte:    0.0000    
               rinn:    0.0000    
               qcoe:    0.0000    
               qyuk:    0.0000    
               qwid:   0.10000E-01
                rcs:    0.0000    
            lambdas:    1.0000    
L=1  Nsemic=0  Cnfigmx=2
          i=1  nzeta=1  polorb=0  (2p)
            splnorm:   0.15000    
               vcte:    0.0000    
               rinn:    0.0000    
               qcoe:    0.0000    
               qyuk:    0.0000    
               qwid:   0.10000E-01
                rcs:    0.0000    
            lambdas:    1.0000    
-------------------------------------------------------------------------------
L=0  Nkbl=1  erefs: 0.17977+309
L=1  Nkbl=1  erefs: 0.17977+309
L=2  Nkbl=1  erefs: 0.17977+309
===============================================================================
</basis_specs>

atom: Called for C-gga                 (Z =   6)

read_vps: Pseudopotential generation method:
read_vps: ATM 3.2.2 Troullier-Martins                       
Valence charge for ps generation:    4.00000

xc_check: Exchange-correlation functional:
xc_check: GGA Perdew, Burke & Ernzerhof 1996
V l=0 = -2*Zval/r beyond r=  1.5227
V l=1 = -2*Zval/r beyond r=  1.5227
V l=2 = -2*Zval/r beyond r=  1.5227
All V_l potentials equal beyond r=  1.4851
This should be close to max(r_c) in ps generation
All pots = -2*Zval/r beyond r=  1.5227

VLOCAL1: 99.0% of the norm of Vloc inside     19.682 Ry
VLOCAL1: 99.9% of the norm of Vloc inside     44.856 Ry
atom: Maximum radius for 4*pi*r*r*local-pseudopot. charge    1.79142
atom: Maximum radius for r*vlocal+2*Zval:    1.54183
GHOST: No ghost state for L =  0
GHOST: No ghost state for L =  1
GHOST: No ghost state for L =  2

KBgen: Kleinman-Bylander projectors: 
   l= 0   rc=  1.661951   el= -1.010689   Ekb=  5.289847   kbcos=  0.316429
   l= 1   rc=  1.661951   el= -0.388490   Ekb= -4.102504   kbcos= -0.351025
   l= 2   rc=  1.747182   el=  0.001971   Ekb= -1.006005   kbcos= -0.008530

KBgen: Total number of Kleinman-Bylander projectors:    9
atom: -------------------------------------------------------------------------

atom: SANKEY-TYPE ORBITALS:

SPLIT: Orbitals with angular momentum L= 0

SPLIT: Basis orbitals for state 2s

SPLIT: PAO cut-off radius determined from an
SPLIT: energy shift=  0.000735 Ry

   izeta = 1
                 lambda =    1.000000
                     rc =    5.948690
                 energy =   -1.010099
                kinetic =    0.827121
    potential(screened) =   -1.837220
       potential(ionic) =   -5.392783

SPLIT: Orbitals with angular momentum L= 1

SPLIT: Basis orbitals for state 2p

SPLIT: PAO cut-off radius determined from an
SPLIT: energy shift=  0.000735 Ry

   izeta = 1
                 lambda =    1.000000
                     rc =    7.638387
                 energy =   -0.387843
                kinetic =    2.314739
    potential(screened) =   -2.702582
       potential(ionic) =   -6.092371
atom: Total number of Sankey-type orbitals:  4

atm_pop: Valence configuration (for local Pseudopot. screening):
 2s( 2.00)                                                            
 2p( 2.00)                                                            
Vna: chval, zval:    4.00000   4.00000

Vna:  Cut-off radius for the neutral-atom potential:   7.638387

atom: _________________________________________________________________________

prinput: Basis input ----------------------------------------------------------

PAO.BasisType split     

%block ChemicalSpeciesLabel
    1    3 Li-gga                  # Species index, atomic number, species label
    2    6 C-gga                   # Species index, atomic number, species label
%endblock ChemicalSpeciesLabel

%block PAO.Basis                 # Define Basis set
Li-gga                1                    # Species label, number of l-shells
 n=2   0   1                         # n, l, Nzeta 
  11.897   
   1.000   
C-gga                 2                    # Species label, number of l-shells
 n=2   0   1                         # n, l, Nzeta 
   5.949   
   1.000   
 n=2   1   1                         # n, l, Nzeta 
   7.638   
   1.000   
%endblock PAO.Basis

prinput: ----------------------------------------------------------------------

coor:   Atomic-coordinates input format  =     Cartesian coordinates
coor:                                          (in Angstroms)

siesta: Atomic coordinates (Bohr) and species
siesta:      0.00000   0.00000   0.00000  2        1
siesta:     -1.32825   2.30060   2.09752  1        2
siesta:     -2.74990   4.76296  10.48758  1        3
siesta:      2.74990   4.76296   2.09752  1        4
siesta:      1.32825   2.30060  10.48758  1        5
siesta:      2.65651   0.00000   2.09752  1        6
siesta:      5.49980   0.00000  10.48758  1        7
siesta:     -2.74990   4.76296   2.09752  1        8
siesta:     -1.32825   2.30060  10.48758  1        9
siesta:      1.32825   2.30060   2.09752  1       10
siesta:      2.74990   4.76296  10.48758  1       11
siesta:      5.49980   0.00000   2.09752  1       12
siesta:      2.65651   0.00000  10.48758  1       13
siesta:     -1.32825   2.30060   6.29255  1       14
siesta:     -2.74990   4.76296   6.29255  1       15
siesta:      2.74990   4.76296   6.29255  1       16
siesta:      1.32825   2.30060   6.29255  1       17
siesta:      2.65651   0.00000   6.29255  1       18
siesta:      5.49980   0.00000   6.29255  1       19

siesta: System type = bulk      

initatomlists: Number of atoms, orbitals, and projectors:     19    22   171

siesta: ******************** Simulation parameters ****************************
siesta:
siesta: The following are some of the parameters of the simulation.
siesta: A complete list of the parameters used, including default values,
siesta: can be found in file out.fdf
siesta:
redata: Spin configuration                          = none
redata: Number of spin components                   = 1
redata: Time-Reversal Symmetry                      = T
redata: Spin spiral                                 = F
redata: Long output                                 =   F
redata: Number of Atomic Species                    =        2
redata: Charge density info will appear in .RHO file
redata: Write Mulliken Pop.                         = NO
redata: Matel table size (NRTAB)                    =     1024
redata: Mesh Cutoff                                 =   300.0000 Ry
redata: Net charge of the system                    =     0.0000 |e|
redata: Min. number of SCF Iter                     =        0
redata: Max. number of SCF Iter                     =     1000
redata: SCF convergence failure will abort job
redata: SCF mix quantity                            = Hamiltonian
redata: Mix DM or H after convergence               =   F
redata: Recompute H after scf cycle                 =   F
redata: Mix DM in first SCF step                    =   T
redata: Write Pulay info on disk                    =   F
redata: New DM Occupancy tolerance                  = 0.000000000001
redata: No kicks to SCF
redata: DM Mixing Weight for Kicks                  =     0.5000
redata: Require Harris convergence for SCF          =   F
redata: Harris energy tolerance for SCF             =     0.000100 eV
redata: Require DM convergence for SCF              =   T
redata: DM tolerance for SCF                        =     0.001000
redata: Require EDM convergence for SCF             =   F
redata: EDM tolerance for SCF                       =     0.005000 eV
redata: Require H convergence for SCF               =   T
redata: Hamiltonian tolerance for SCF               =     0.001000 eV
redata: Require (free) Energy convergence for SCF   =   T
redata: (free) Energy tolerance for SCF             =     0.001000 eV
redata: Using Saved Data (generic)                  =   F
redata: Use continuation files for DM               =   F
redata: Neglect nonoverlap interactions             =   F
redata: Method of Calculation                       = Diagonalization
redata: Electronic Temperature                      =   299.9869 K
redata: Fix the spin of the system                  =   F
redata: Dynamics option                             = Single-point calculation
mix.SCF: Pulay mixing                            = Pulay
mix.SCF:    Variant                              = stable
mix.SCF:    History steps                        = 4
mix.SCF:    Linear mixing weight                 =     0.250000
mix.SCF:    Mixing weight                        =     0.250000
mix.SCF:    SVD condition                        = 0.1000E-07
redata: ***********************************************************************

%block SCF.Mixers
  Pulay
%endblock SCF.Mixers

%block SCF.Mixer.Pulay
  # Mixing method
  method pulay
  variant stable

  # Mixing options
  weight 0.2500
  weight.linear 0.2500
  history 4
%endblock SCF.Mixer.Pulay

DM_history_depth set to one: no extrapolation allowed by default for geometry relaxation
Size of DM history Fstack: 1
Total number of electrons:    22.000000
Total ionic charge:    22.000000

* ProcessorY, Blocksize:    4   1


* Orbital distribution balance (max,min):     2     1

k-point displ. along   1 input, could be:     0.00    0.50
k-point displ. along   2 input, could be:     0.00    0.50
k-point displ. along   3 input, could be:     0.00    0.50
 Kpoints in:           48 . Kpoints trimmed:           44

siesta: k-grid: Number of k-points =    44
siesta: k-grid: Cutoff (effective) =     8.632 Ang
siesta: k-grid: Supercell and displacements
siesta: k-grid:    4   0   0      0.000
siesta: k-grid:    0   4   0      0.000
siesta: k-grid:    0   0   4      0.000

diag: Algorithm                                     = Expert
diag: Parallel over k                               =   T
diag: Use parallel 2D distribution                  =   T
diag: Parallel block-size                           = 1
diag: Parallel distribution                         =     4 x     4
diag: Used triangular part                          = Lower
diag: Absolute tolerance                            =  0.100E-15
diag: Orthogonalization factor                      =  0.100E-05
diag: Memory factor                                 =  1.0000

superc: Internal auxiliary supercell:     9 x     9 x     5  =     405
superc: Number of atoms, orbitals, and projectors:   7695   8910  69255


ts: **************************************************************
ts: Save H and S matrices                           =    F
ts: Save DM and EDM matrices                        =    F
ts: Only save the overlap matrix S                  =    F
ts: **************************************************************

************************ Begin: TS CHECKS AND WARNINGS ************************
************************ End: TS CHECKS AND WARNINGS **************************


                     ====================================
                        Single-point calculation
                     ====================================

outcoor: Atomic coordinates (Ang):                          
    0.00000000    0.00000000    0.00000000   2       1  C-gga
   -0.70288177    1.21742694    1.10996032   1       2  Li-gga
   -1.45518323    2.52045129    5.54978828   1       3  Li-gga
    1.45518323    2.52045129    1.10996032   1       4  Li-gga
    0.70288177    1.21742694    5.54978828   1       5  Li-gga
    1.40576354    0.00000000    1.10996032   1       6  Li-gga
    2.91036646    0.00000000    5.54978828   1       7  Li-gga
   -1.45518323    2.52045129    1.10996032   1       8  Li-gga
   -0.70288177    1.21742694    5.54978828   1       9  Li-gga
    0.70288177    1.21742694    1.10996032   1      10  Li-gga
    1.45518323    2.52045129    5.54978828   1      11  Li-gga
    2.91036646    0.00000000    1.10996032   1      12  Li-gga
    1.40576354    0.00000000    5.54978828   1      13  Li-gga
   -0.70288177    1.21742694    3.32987430   1      14  Li-gga
   -1.45518323    2.52045129    3.32987430   1      15  Li-gga
    1.45518323    2.52045129    3.32987430   1      16  Li-gga
    0.70288177    1.21742694    3.32987430   1      17  Li-gga
    1.40576354    0.00000000    3.32987430   1      18  Li-gga
    2.91036646    0.00000000    3.32987430   1      19  Li-gga

superc: Internal auxiliary supercell:     9 x     9 x     5  =     405
superc: Number of atoms, orbitals, and projectors:   7695   8910  69255

outcell: Unit cell vectors (Ang):
        4.316130    0.000000    0.000000
       -2.158065    3.737878    0.000000
        0.000000    0.000000    6.659749

outcell: Cell vector modules (Ang)   :    4.316130    4.316130    6.659749
outcell: Cell angles (23,13,12) (deg):     90.0000     90.0000    120.0000
outcell: Cell volume (Ang**3)        :    107.4428
<dSpData1D:S at geom step 0
  <sparsity:sparsity for geom step 0
    nrows_g=22 nrows=2 sparsity=8.0062 nnzs=3875, refcount: 7>
  <dData1D:(new from dSpData1D) n=3875, refcount: 1>
refcount: 1>
new_DM -- step:     1
Initializing Density Matrix...
DM filled with atomic data:
<dSpData2D:DM initialized from atoms
  <sparsity:sparsity for geom step 0
    nrows_g=22 nrows=2 sparsity=8.0062 nnzs=3875, refcount: 8>
  <dData2D:DM n=3875 m=1, refcount: 1>
refcount: 1>
No. of atoms with KB's overlaping orbs in proc 0. Max # of overlaps:     344     353
New grid distribution:   1
           1       1:   20    1:    5    1:    9
           2       1:   20    1:    5   10:   18
           3       1:   20    1:    5   19:   27
           4       1:   20    1:    5   28:   36
           5       1:   20    6:   10    1:    9
           6       1:   20    6:   10   10:   18
           7       1:   20    6:   10   19:   27
           8       1:   20    6:   10   28:   36
           9       1:   20   11:   15    1:    9
          10       1:   20   11:   15   10:   18
          11       1:   20   11:   15   19:   27
          12       1:   20   11:   15   28:   36
          13       1:   20   16:   20    1:    9
          14       1:   20   16:   20   10:   18
          15       1:   20   16:   20   19:   27
          16       1:   20   16:   20   28:   36

InitMesh: MESH =    40 x    40 x    72 =      115200
InitMesh: (bp) =    20 x    20 x    36 =       14400
InitMesh: Mesh cutoff (required, used) =   300.000   316.498 Ry
ExtMesh (bp) on 0 =   156 x   141 x   149 =     3277404
New grid distribution:   2
           1       1:   10   11:   20   19:   27
           2      11:   20    1:   10    1:    9
           3      11:   20    1:   10   19:   27
           4      11:   20   11:   20    1:    9
           5       1:   10   11:   20   28:   36
           6      11:   20    1:   10   10:   18
           7      11:   20   11:   20   10:   18
           8      11:   20    1:   10   28:   36
           9       1:   10    1:   10   19:   27
          10       1:   10    1:   10    1:    9
          11      11:   20   11:   20   19:   27
          12       1:   10   11:   20    1:    9
          13       1:   10    1:   10   28:   36
          14       1:   10    1:   10   10:   18
          15       1:   10   11:   20   10:   18
          16      11:   20   11:   20   28:   36
New grid distribution:   3
           1       1:   10   11:   20   19:   27
           2      11:   20    1:   10    1:    9
           3      11:   20    1:   10   19:   27
           4      11:   20   11:   20    1:    9
           5       1:   10   11:   20   28:   36
           6      11:   20    1:   10   10:   18
           7      11:   20   11:   20   10:   18
           8      11:   20    1:   10   28:   36
           9       1:   10    1:   10   19:   27
          10       1:   10    1:   10    1:    9
          11      11:   20   11:   20   19:   27
          12       1:   10   11:   20    1:    9
          13       1:   10    1:   10   28:   36
          14       1:   10    1:   10   10:   18
          15       1:   10   11:   20   10:   18
          16      11:   20   11:   20   28:   36
Setting up quadratic distribution...
ExtMesh (bp) on 0 =   146 x   146 x   149 =     3176084
PhiOnMesh: Number of (b)points on node 0 =                  900
PhiOnMesh: nlist on node 0 =               171634

stepf: Fermi-Dirac step function

siesta: Program's energy decomposition (eV):
siesta: Ebs     =      -284.316587
siesta: Eions   =       439.895300
siesta: Ena     =        94.809286
siesta: Ekin    =       375.770283
siesta: Enl     =        51.195854
siesta: Eso     =         0.000000
siesta: Edftu   =         0.000000
siesta: DEna    =       -61.528285
siesta: DUscf   =        46.730670
siesta: DUext   =         0.000000
siesta: Exc     =      -257.171813
siesta: eta*DQ  =         0.000000
siesta: Emadel  =         0.000000
siesta: Emeta   =         0.000000
siesta: Emolmec =       -13.296846
siesta: Ekinion =         0.000000
siesta: Eharris =       -84.640235
siesta: Etot    =      -203.386150
siesta: FreeEng =      -203.388725

        iscf     Eharris(eV)        E_KS(eV)     FreeEng(eV)     dDmax    Ef(eV) dHmax(eV)
   scf:    1      -84.640235     -203.386150     -203.388725 10.036991-12.255258 24.175249
timer: Routine,Calls,Time,% = IterSCF        1       1.047  15.78
   scf:    2     -221.274948     -212.791235     -212.794320  1.684116-11.412367 14.395777
   scf:    3     -187.094549     -211.931287     -211.939503  8.677254 -7.735845 13.546712
   scf:    4     -129.314641     -175.283229     -175.290750  9.116690 -0.585802 33.455138
   scf:    5     -173.654482     -174.469971     -174.477967  0.176239 -0.372314 33.865805
   scf:    6     -208.861910     -217.659496     -217.659531 16.767339-10.987555  8.587549
   scf:    7     -214.035104     -215.908088     -215.908405  0.574789-11.024016 11.275458
   scf:    8     -216.121023     -219.709676     -219.716467  4.962772 -9.631192  4.299910
   scf:    9     -211.285461     -218.087344     -218.087378  4.615804-10.958584  7.792025
   scf:   10     -221.192751     -219.811138     -219.813451  0.881234-10.793832  4.239260
   scf:   11     -220.930889     -220.651597     -220.655409  1.447985-10.241358  0.309118
   scf:   12     -220.472375     -220.599997     -220.605793  0.879474-10.142586  0.986589
   scf:   13     -220.601964     -220.646879     -220.650550  0.934425-10.197845  0.487675
   scf:   14     -220.657308     -220.652515     -220.656157  0.054028-10.200770  0.308974
   scf:   15     -220.599971     -220.640061     -220.646683  0.535037-10.202090  0.480839
   scf:   16     -220.640211     -220.653198     -220.656898  0.527999-10.206405  0.269637
   scf:   17     -220.656665     -220.655331     -220.659644  0.072425-10.214343  0.115261
   scf:   18     -220.655070     -220.655207     -220.659424  0.010073-10.213758  0.132575
   scf:   19     -220.655669     -220.655505     -220.660043  0.034926-10.215062  0.075640
   scf:   20     -220.654160     -220.655116     -220.660278  0.077227-10.215559  0.035539
   scf:   21     -220.655691     -220.655499     -220.660307  0.045645-10.215642  0.027816
   scf:   22     -220.654162     -220.654973     -220.660210  0.055881-10.215614  0.049829
   scf:   23     -220.655703     -220.655410     -220.660349  0.039781-10.215806  0.004956
   scf:   24     -220.655357     -220.655384     -220.660350  0.003437-10.215849  0.000238
   scf:   25     -220.655383     -220.655384     -220.660350  0.000053-10.215889  0.000174

SCF Convergence by FreeE+DM+H criterion
|FreeE_i-FreeE_(i-1)| (eV) <     0.00100000
max |DM_out - DM_in|         :     0.0000528476
max |H_out - H_in|      (eV) :     0.0001744390
SCF cycle converged after 25 iterations

Using DM_out to compute the final energy and forces
No. of atoms with KB's overlaping orbs in proc 0. Max # of overlaps:     344     353

MM-Stress (kbar):       56.68       56.68      382.80        0.00       -0.00        0.00

siesta: E_KS(eV) =             -220.6554

siesta: E_KS - E_eggbox =      -220.6554

siesta: Atomic forces (eV/Ang):
     1    0.000000    0.000000    0.000000
     2   -0.068523    0.118719   -1.061218
     3    0.068523   -0.118719    1.061218
     4   -0.068534   -0.118704   -1.061278
     5    0.068534    0.118704    1.061278
     6    0.137075    0.000017   -1.061218
     7   -0.137075   -0.000017    1.061218
     8    0.068523   -0.118719   -1.061218
     9   -0.068523    0.118719    1.061218
    10    0.068534    0.118704   -1.061278
    11   -0.068534   -0.118704    1.061278
    12   -0.137075   -0.000017   -1.061218
    13    0.137075    0.000017    1.061218
    14   -0.350825    0.607610   -0.000000
    15    0.350825   -0.607610   -0.000000
    16   -0.350832   -0.607659   -0.000000
    17    0.350832    0.607659   -0.000000
    18    0.701619   -0.000018   -0.000000
    19   -0.701619    0.000018   -0.000000
----------------------------------------
   Tot    0.000000    0.000000   -0.000000
----------------------------------------
   Max    1.061278
   Res    0.541180    sqrt( Sum f_i^2 / 3N )
----------------------------------------
   Max    1.061278    constrained

Stress tensor Voigt[x,y,z,yz,xz,xy] (kbar):    -2865.91    -2865.94     -306.13       -0.00        0.00       -0.02
(Free)E + p*V (eV/cell)      -85.6917
Target enthalpy (eV/cell)     -220.6604

siesta: Eigenvalues (eV):
  ik is       eps
   1  1  -22.9734  -21.4538  -20.6529  -20.5096  -19.9891  -19.7916  -19.5317  -19.4137  -18.9593  -11.0744
         -10.7312  -10.4116   -3.9121    9.1192   11.2490   13.6514   13.9822   14.5349   14.9704   15.2170
   16.0634   16.2003
   2  1  -23.0320  -21.8109  -20.0248  -19.6489  -18.8191  -18.5425  -16.9175  -15.9626  -13.9299  -12.3173
         -11.0184  -10.2239   -6.8817   -0.0104    4.3668    9.6357   12.5303   13.7241   16.1827   18.4108
   19.2073   21.3176
   3  1  -23.0320  -21.8109  -20.0248  -19.6489  -18.8191  -18.5425  -16.9175  -15.9626  -13.9299  -12.3173
         -11.0182  -10.2239   -6.8816   -0.0106    4.3668    9.6358   12.5303   13.7241   16.1827   18.4108
   19.2073   21.3176
   4  1  -22.9734  -21.4538  -20.6529  -20.5096  -19.9891  -19.7916  -19.5317  -19.4137  -18.9592  -11.0744
         -10.7316  -10.4113   -3.9120    9.1192   11.2490   13.6514   13.9822   14.5348   14.9704   15.2170
   16.0634   16.2003
   5  1  -23.0320  -21.8109  -20.0248  -19.6489  -18.8191  -18.5425  -16.9175  -15.9626  -13.9299  -12.3173
         -11.0184  -10.2239   -6.8817   -0.0104    4.3668    9.6357   12.5303   13.7241   16.1827   18.4108
   19.2073   21.3176
   6  1  -23.0896  -21.9952  -20.1822  -15.1623  -15.1622  -14.5812  -13.3300  -11.2306  -11.2306   -7.3083
          -7.3081    8.2641    8.2641    9.4730    9.4731    9.9178    9.9178   14.0209   14.0210   17.7382
   20.0035   20.7835
   7  1  -22.9766  -21.3345  -21.2238  -20.0260  -19.9420  -19.7185  -18.7343  -16.2684  -15.3544  -13.7664
         -12.8246   -9.7965   -9.6297   -1.1037    2.0148    8.9971   12.4610   12.7758   14.4997   14.5883
   14.7525   15.6918
   8  1  -22.9734  -21.4538  -20.6529  -20.5096  -19.9891  -19.7916  -19.5317  -19.4137  -18.9592  -11.0744
         -10.7316  -10.4113   -3.9120    9.1192   11.2490   13.6514   13.9822   14.5348   14.9704   15.2170
   16.0634   16.2003
   9  1  -22.9734  -21.4538  -20.6529  -20.5096  -19.9891  -19.7916  -19.5317  -19.4137  -18.9592  -11.0744
         -10.7316  -10.4113   -3.9120    9.1192   11.2490   13.6514   13.9822   14.5348   14.9704   15.2170
   16.0634   16.2003
  10  1  -22.9766  -21.3345  -21.2238  -20.0260  -19.9420  -19.7185  -18.7343  -16.2684  -15.3544  -13.7664
         -12.8246   -9.7965   -9.6297   -1.1037    2.0148    8.9971   12.4610   12.7758   14.4997   14.5883
   14.7525   15.6918
  11  1  -22.9734  -21.4538  -20.6529  -20.5096  -19.9891  -19.7916  -19.5317  -19.4137  -18.9592  -11.0744
         -10.7316  -10.4113   -3.9120    9.1192   11.2490   13.6514   13.9822   14.5348   14.9704   15.2170
   16.0634   16.2003
  12  1  -22.9766  -21.3345  -21.2238  -20.0260  -19.9420  -19.7185  -18.7343  -16.2685  -15.3544  -13.7664
         -12.8246   -9.7965   -9.6294   -1.1041    2.0148    8.9971   12.4610   12.7758   14.4997   14.5883
   14.7525   15.6918
  13  1  -22.9356  -21.4397  -20.6100  -20.4477  -19.9482  -19.3557  -18.5619  -17.6885  -17.0576  -11.3544
         -10.6608  -10.2990   -2.9791    9.9203   11.5113   12.4761   13.0916   14.0986   15.1590   15.9382
   16.1690   16.6116
  14  1  -23.0113  -21.8633  -19.8683  -19.6539  -18.1434  -16.7206  -16.0171  -15.2618  -14.8898  -13.2719
         -10.6615   -8.1644   -6.1254    1.2896    6.4005   10.7989   11.1842   16.3033   16.5735   18.3372
   19.3499   20.7786
  15  1  -23.0113  -21.8633  -19.8683  -19.6539  -18.1434  -16.7206  -16.0171  -15.2618  -14.8897  -13.2718
         -10.6613   -8.1646   -6.1254    1.2896    6.4004   10.7989   11.1842   16.3033   16.5735   18.3372
   19.3499   20.7785
  16  1  -22.9356  -21.4397  -20.6100  -20.4477  -19.9482  -19.3557  -18.5619  -17.6885  -17.0576  -11.3544
         -10.6611  -10.2987   -2.9791    9.9203   11.5113   12.4761   13.0915   14.0985   15.1590   15.9382
   16.1690   16.6116
  17  1  -23.0113  -21.8633  -19.8683  -19.6539  -18.1434  -16.7206  -16.0171  -15.2618  -14.8898  -13.2719
         -10.6615   -8.1644   -6.1254    1.2896    6.4005   10.7989   11.1842   16.3033   16.5735   18.3372
   19.3499   20.7786
  18  1  -23.0636  -22.0947  -18.9196  -15.2278  -15.2277  -14.4651  -12.8099  -10.8871  -10.8871   -8.9091
          -8.9090   -1.2352   -1.2351    5.6416    5.6418    9.0540    9.0540    9.3321    9.3322   17.6576
   19.4861   21.3076
  19  1  -23.0113  -21.8633  -19.8683  -19.6539  -18.1434  -16.7206  -16.0171  -15.2618  -14.8898  -13.2719
         -10.6615   -8.1644   -6.1254    1.2896    6.4005   10.7989   11.1842   16.3033   16.5735   18.3372
   19.3499   20.7786
  20  1  -22.9414  -21.2959  -21.2233  -20.1192  -18.8921  -17.8765  -17.8754  -16.3224  -15.9452  -14.4712
          -9.9118   -9.5401   -8.7366   -2.1778    4.3228   12.3612   12.5033   12.8191   14.3716   14.9975
   15.0177   15.7522
  21  1  -23.0113  -21.8633  -19.8683  -19.6539  -18.1434  -16.7206  -16.0171  -15.2618  -14.8897  -13.2718
         -10.6613   -8.1646   -6.1254    1.2896    6.4004   10.7989   11.1842   16.3033   16.5735   18.3372
   19.3499   20.7785
  22  1  -23.0113  -21.8633  -19.8683  -19.6539  -18.1434  -16.7206  -16.0171  -15.2618  -14.8898  -13.2719
         -10.6615   -8.1644   -6.1254    1.2896    6.4005   10.7989   11.1842   16.3033   16.5735   18.3372
   19.3499   20.7786
  23  1  -22.9356  -21.4397  -20.6100  -20.4477  -19.9482  -19.3557  -18.5619  -17.6885  -17.0576  -11.3544
         -10.6608  -10.2990   -2.9791    9.9203   11.5113   12.4761   13.0916   14.0986   15.1590   15.9382
   16.1690   16.6116
  24  1  -22.9356  -21.4397  -20.6100  -20.4477  -19.9482  -19.3557  -18.5619  -17.6885  -17.0576  -11.3544
         -10.6611  -10.2987   -2.9791    9.9203   11.5113   12.4761   13.0915   14.0985   15.1590   15.9382
   16.1690   16.6116
  25  1  -22.9356  -21.4397  -20.6100  -20.4477  -19.9482  -19.3557  -18.5619  -17.6885  -17.0576  -11.3544
         -10.6611  -10.2987   -2.9791    9.9203   11.5113   12.4761   13.0915   14.0985   15.1590   15.9382
   16.1690   16.6116
  26  1  -22.9414  -21.2959  -21.2233  -20.1192  -18.8921  -17.8765  -17.8754  -16.3224  -15.9452  -14.4712
          -9.9118   -9.5401   -8.7366   -2.1778    4.3228   12.3612   12.5033   12.8191   14.3716   14.9975
   15.0177   15.7522
  27  1  -22.9356  -21.4397  -20.6100  -20.4477  -19.9482  -19.3557  -18.5619  -17.6885  -17.0576  -11.3544
         -10.6611  -10.2987   -2.9791    9.9203   11.5113   12.4761   13.0915   14.0985   15.1590   15.9382
   16.1690   16.6116
  28  1  -22.9414  -21.2959  -21.2233  -20.1192  -18.8921  -17.8765  -17.8754  -16.3224  -15.9452  -14.4711
          -9.9114   -9.5403   -8.7366   -2.1778    4.3226   12.3612   12.5033   12.8191   14.3716   14.9975
   15.0177   15.7522
  29  1  -22.9008  -21.4350  -20.5606  -20.3807  -19.9490  -19.2946  -15.4234  -12.7364  -12.4400  -12.0498
         -10.6386   -9.9028    1.0197   10.9010   11.4261   12.6429   13.1325   13.9650   14.2105   15.3248
   16.2383   16.5580
  30  1  -22.9893  -21.9096  -19.9038  -19.6303  -16.1906  -16.0511  -15.5801  -15.4969  -13.1362  -12.2285
          -9.3854   -7.5696   -4.9881    5.0253    9.8310   11.6736   11.9834   16.4862   18.2383   18.6671
   19.4836   19.9745
  31  1  -22.9893  -21.9096  -19.9038  -19.6303  -16.1905  -16.0512  -15.5801  -15.4969  -13.1362  -12.2282
          -9.3853   -7.5699   -4.9880    5.0253    9.8310   11.6736   11.9834   16.4862   18.2383   18.6671
   19.4836   19.9745
  32  1  -22.9008  -21.4350  -20.5606  -20.3807  -19.9490  -19.2946  -15.4234  -12.7363  -12.4400  -12.0501
         -10.6384   -9.9028    1.0197   10.9010   11.4261   12.6429   13.1325   13.9650   14.2105   15.3248
   16.2383   16.5580
  33  1  -22.9893  -21.9096  -19.9038  -19.6303  -16.1906  -16.0511  -15.5801  -15.4969  -13.1362  -12.2285
          -9.3854   -7.5696   -4.9881    5.0253    9.8310   11.6736   11.9834   16.4862   18.2383   18.6671
   19.4836   19.9745
  34  1  -23.0342  -22.1766  -17.1386  -15.3053  -15.3051  -14.3398  -10.5073  -10.5073  -10.0989   -9.3418
          -9.3418   -8.2188   -8.2187    3.5441    3.5445    6.8733    6.8733    7.1869    7.1869   17.5559
   19.1889   21.6297
  35  1  -22.9893  -21.9096  -19.9038  -19.6303  -16.1906  -16.0511  -15.5801  -15.4969  -13.1362  -12.2285
          -9.3854   -7.5696   -4.9881    5.0253    9.8310   11.6736   11.9834   16.4862   18.2383   18.6671
   19.4836   19.9745
  36  1  -22.9090  -21.2623  -21.2276  -20.1418  -17.1186  -16.9905  -16.2308  -16.0381  -14.5352  -13.0747
         -11.6770   -7.6523   -7.5849   -5.4025   12.5564   12.8161   14.3244   14.6192   15.0436   15.2879
   15.3540   18.0948
  37  1  -22.9893  -21.9096  -19.9038  -19.6303  -16.1905  -16.0512  -15.5801  -15.4969  -13.1362  -12.2282
          -9.3853   -7.5699   -4.9880    5.0253    9.8310   11.6736   11.9834   16.4862   18.2383   18.6671
   19.4836   19.9745
  38  1  -22.9893  -21.9096  -19.9038  -19.6303  -16.1906  -16.0511  -15.5801  -15.4969  -13.1362  -12.2285
          -9.3854   -7.5696   -4.9881    5.0253    9.8310   11.6736   11.9834   16.4862   18.2383   18.6671
   19.4836   19.9745
  39  1  -22.9008  -21.4350  -20.5606  -20.3807  -19.9490  -19.2946  -15.4234  -12.7364  -12.4400  -12.0498
         -10.6386   -9.9028    1.0197   10.9010   11.4261   12.6429   13.1325   13.9650   14.2105   15.3248
   16.2383   16.5580
  40  1  -22.9008  -21.4350  -20.5606  -20.3807  -19.9490  -19.2946  -15.4234  -12.7363  -12.4400  -12.0501
         -10.6384   -9.9028    1.0197   10.9010   11.4261   12.6429   13.1325   13.9650   14.2105   15.3248
   16.2383   16.5580
  41  1  -22.9008  -21.4350  -20.5606  -20.3807  -19.9490  -19.2946  -15.4234  -12.7363  -12.4400  -12.0501
         -10.6384   -9.9028    1.0197   10.9010   11.4261   12.6429   13.1325   13.9650   14.2105   15.3248
   16.2383   16.5580
  42  1  -22.9090  -21.2623  -21.2276  -20.1418  -17.1186  -16.9905  -16.2308  -16.0381  -14.5352  -13.0747
         -11.6770   -7.6523   -7.5849   -5.4025   12.5564   12.8161   14.3244   14.6192   15.0436   15.2879
   15.3540   18.0948
  43  1  -22.9008  -21.4350  -20.5606  -20.3807  -19.9490  -19.2946  -15.4234  -12.7363  -12.4400  -12.0501
         -10.6384   -9.9028    1.0197   10.9010   11.4261   12.6429   13.1325   13.9650   14.2105   15.3248
   16.2383   16.5580
  44  1  -22.9090  -21.2623  -21.2276  -20.1418  -17.1186  -16.9905  -16.2309  -16.0381  -14.5352  -13.0747
         -11.6766   -7.6523   -7.5853   -5.4025   12.5563   12.8161   14.3244   14.6192   15.0436   15.2879
   15.3540   18.0948
siesta: Fermi energy =     -10.215889 eV

siesta: Program's energy decomposition (eV):
siesta: Ebs     =      -384.414787
siesta: Eions   =       439.895300
siesta: Ena     =        94.809286
siesta: Ekin    =       325.677404
siesta: Enl     =        70.536347
siesta: Eso     =         0.000000
siesta: Edftu   =         0.000000
siesta: DEna    =       -26.151005
siesta: DUscf   =        12.520979
siesta: DUext   =         0.000000
siesta: Exc     =      -244.856249
siesta: eta*DQ  =         0.000000
siesta: Emadel  =         0.000000
siesta: Emeta   =         0.000000
siesta: Emolmec =       -13.296846
siesta: Ekinion =         0.000000
siesta: Eharris =      -220.655383
siesta: Etot    =      -220.655384
siesta: FreeEng =      -220.660350

siesta: Final energy (eV):
siesta:  Band Struct. =    -384.414787
siesta:       Kinetic =     325.677404
siesta:       Hartree =     123.937423
siesta:       Edftu   =       0.000000
siesta:       Eso     =       0.000000
siesta:    Ext. field =       0.000000
siesta:   Exch.-corr. =    -244.856249
siesta:  Ion-electron =    -702.105111
siesta:       Ion-ion =     289.987996
siesta:       Ekinion =       0.000000
siesta:         Total =    -220.655384
siesta:         Fermi =     -10.215889

siesta: Atomic forces (eV/Ang):
siesta:      1    0.000000    0.000000    0.000000
siesta:      2   -0.068523    0.118719   -1.061218
siesta:      3    0.068523   -0.118719    1.061218
siesta:      4   -0.068534   -0.118704   -1.061278
siesta:      5    0.068534    0.118704    1.061278
siesta:      6    0.137075    0.000017   -1.061218
siesta:      7   -0.137075   -0.000017    1.061218
siesta:      8    0.068523   -0.118719   -1.061218
siesta:      9   -0.068523    0.118719    1.061218
siesta:     10    0.068534    0.118704   -1.061278
siesta:     11   -0.068534   -0.118704    1.061278
siesta:     12   -0.137075   -0.000017   -1.061218
siesta:     13    0.137075    0.000017    1.061218
siesta:     14   -0.350825    0.607610   -0.000000
siesta:     15    0.350825   -0.607610   -0.000000
siesta:     16   -0.350832   -0.607659   -0.000000
siesta:     17    0.350832    0.607659   -0.000000
siesta:     18    0.701619   -0.000018   -0.000000
siesta:     19   -0.701619    0.000018   -0.000000
siesta: ----------------------------------------
siesta:    Tot    0.000000    0.000000   -0.000000

siesta: Stress tensor (static) (eV/Ang**3):
siesta:    -1.788744   -0.000014    0.000000
siesta:    -0.000014   -1.788759    0.000000
siesta:     0.000000   -0.000000   -0.191067

siesta: Cell volume =        107.442845 Ang**3

siesta: Pressure (static):
siesta:                Solid            Molecule  Units
siesta:           0.01368151          0.01287510  Ry/Bohr**3
siesta:           1.25619008          1.18214819  eV/Ang**3
siesta:        2012.66015368       1894.03068339  kBar
(Free)E+ p_basis*V_orbitals  =        -196.664639
(Free)Eharris+ p_basis*V_orbitals  =        -196.664639

cite: Please see "LiC18_scf.bib" for an exhaustive BiBTeX file.
cite: Please clearly indicate Siesta version in published work: 4.1.5
cite: This calculation has made use of the following articles
cite: which are encouraged to be cited in a published work.
        Primary SIESTA paper
          DOI: www.doi.org/10.1088/0953-8984/14/11/302

>> End of run:   9-NOV-2022  15:12:03
Job completed
