Siesta Version  : 4.1.5
Architecture    : x86_64-unknown-linux-gnu--unknown
Compiler version: GNU Fortran (GCC) 11.3.0
Compiler flags  : mpif90 -g -O2 -fallow-argument-mismatch
PP flags        : -DMPI -DFC_HAVE_FLUSH -DFC_HAVE_ABORT
Libraries       :  -I/global/software/sl-7.x86_64/modules/intel/2020.4.304/mkl/include  /globall/software/sl-7.x86_64/modules/intel/2020.4.304/mkl/lib/intel64/libmkl_scalapack_lp64.a -Wl,--start-group /global/software/sl-7.x86_64/modules/intel/2020.4.304/mkl/lib/intel64/libmkl_intel_lp64.a /global/software/sl-7.x86_64/modules/intel/2020.4.304/mkl/lib/intel64/libmkl_sequential.a /global/software/sl-7.x86_64/modules/intel/2020.4.304/mkl/lib/intel64/libmkl_core.a /global/software/sl-7.x86_64/modules/intel/2020.4.304/mkl/lib/intel64/libmkl_blacs_openmpi_lp64.a -Wl,--end-group -lpthread -lm -ldl
PARALLEL version

* Running on 16 nodes in parallel
>> Start of run:   9-NOV-2022  15:06:03

                           ***********************       
                           *  WELCOME TO SIESTA  *       
                           ***********************       

reinit: Reading from standard input
reinit: Dumped input in INPUT_TMP.38917
************************** Dump of input data file ****************************
SystemName LiC18_scf
SystemLabel LiC18_scf
NumberOfAtoms   19
NumberOfSpecies 2
%block ChemicalSpeciesLabel
1  3   Li-gga
2  6   C-gga
%endblock ChemicalSpeciesLabel
PAO.BasisSize  SZ
PAO.EnergyShift  10 meV
%block PS.Lmax
C-gga   2
Li-gga  2
%endblock PS.Lmax
LatticeConstant 1.000000 Ang
%block LatticeVectors
	4.3161300000	0.0000000000	0.0000000000
	-2.1580650000	3.7378782260	0.0000000000
	0.0000000000	0.0000000000	9.7676312800
%endblock LatticeVectors
AtomicCoordinatesFormat Ang
%block AtomicCoordinatesAndAtomicSpecies
	0.00000000	0.00000000	0.00000000	2
	-0.70288177	1.21742694	1.62794180	1
	-1.45518323	2.52045129	8.13968948	1
	1.45518323	2.52045129	1.62794180	1
	0.70288177	1.21742694	8.13968948	1
	1.40576354	0.00000000	1.62794180	1
	2.91036646	0.00000000	8.13968948	1
	-1.45518323	2.52045129	1.62794180	1
	-0.70288177	1.21742694	8.13968948	1
	0.70288177	1.21742694	1.62794180	1
	1.45518323	2.52045129	8.13968948	1
	2.91036646	0.00000000	1.62794180	1
	1.40576354	0.00000000	8.13968948	1
	-0.70288177	1.21742694	4.88381564	1
	-1.45518323	2.52045129	4.88381564	1
	1.45518323	2.52045129	4.88381564	1
	0.70288177	1.21742694	4.88381564	1
	1.40576354	0.00000000	4.88381564	1
	2.91036646	0.00000000	4.88381564	1
%endblock AtomicCoordinatesAndAtomicSpecies
Kgrid_NoTRS  T
%block kgrid_MonkhorstPack
4       0       0       0.0
0       4       0       0.0
0       0       4       0.0
%endblock kgrid_MonkhorstPack
AtomCoorFormatOut Ang
BlockSize 1
#ProcessorY 12
Diag.ParallelOverK   T
Diag.DivideAndConquer F
MeshCutoff   300 Ry
SCF.FreeE.Tolerance 1E-3 eV
SCF.EDM.Tolerance   5E-3 eV
DM.Tolerance  1E-3
DM.Require.Energy.Convergence T
DM.NumberPulay 4
XC.Functional GGA
XC.Authors    PBE
UseSaveData        F
MD.TypeOfRun       CG
MD.VariableCell    F
MD.NumCGsteps      00
MD.MaxCGDispl      0.200000 Bohr
MD.MaxStressTol    1.000000 GPa
MD.MaxForceTol     0.010000 eV/Ang
WriteMDHistory T
WriteCoorStep T
WriteForces T
WriteCoorStep    T
WriteEigenValues T
WriteDM    F
MM.UnitsDistance Ang  # what this program prints out DO NOT CHANGE
MM.UnitsEnergy    eV  # what this program prints out DO NOT CHANGE
MM.Grimme.S6     0.75 # Grimme-paper for PBE (correct for your functional)
MM.Grimme.D     20.   # Grimme-paper (correct for your functional)
%block MM.Potentials
  1   1 Grimme     16.69      1.650 # Li, 10.1002/jcc.20495
  1   2 Grimme     17.40      2.277 # Li / C
  2   2 Grimme     18.14      2.904 # C, 10.1002/jcc.20495
%endblock MM.Potentials
#%block ProjectedDensityOfStates
# -200.0  120.0  0.4  12800  eV
#%endblock ProjectedDensityOfStates
************************** End of input data file *****************************

reinit: -----------------------------------------------------------------------
reinit: System Name: LiC18_scf
reinit: -----------------------------------------------------------------------
reinit: System Label: LiC18_scf
reinit: -----------------------------------------------------------------------
Reading two-body potentials
Grimme - two-body potential between 1 and 1
Grimme - two-body potential between 1 and 2
Grimme - two-body potential between 2 and 2

initatom: Reading input for the pseudopotentials and atomic orbitals ----------
Species number:   1 Atomic number:    3 Label: Li-gga
Species number:   2 Atomic number:    6 Label: C-gga

Ground state valence configuration:   2s01
Reading pseudopotential information in formatted form from Li-gga.psf

Valence configuration for pseudopotential generation:
2s( 1.00) rc: 2.28
2p( 0.00) rc: 2.28
3d( 0.00) rc: 2.59
4f( 0.00) rc: 2.59
Ground state valence configuration:   2s02  2p02
Reading pseudopotential information in formatted form from C-gga.psf

Valence configuration for pseudopotential generation:
2s( 2.00) rc: 1.56
2p( 2.00) rc: 1.56
3d( 0.00) rc: 1.56
4f( 0.00) rc: 1.56
relmxkb: Read Max KB Ang. Momentum=    2 for species C-gga
relmxkb: Read Max KB Ang. Momentum=    2 for species Li-gga

<basis_specs>
===============================================================================
Li-gga               Z=   3    Mass=  6.9400        Charge= 0.17977+309
Lmxo=0 Lmxkb= 2    BasisType=split      Semic=F
L=0  Nsemic=0  Cnfigmx=2
          i=1  nzeta=1  polorb=0  (2s)
            splnorm:   0.15000    
               vcte:    0.0000    
               rinn:    0.0000    
               qcoe:    0.0000    
               qyuk:    0.0000    
               qwid:   0.10000E-01
                rcs:    0.0000    
            lambdas:    1.0000    
-------------------------------------------------------------------------------
L=0  Nkbl=1  erefs: 0.17977+309
L=1  Nkbl=1  erefs: 0.17977+309
L=2  Nkbl=1  erefs: 0.17977+309
===============================================================================
</basis_specs>

atom: Called for Li-gga                (Z =   3)

read_vps: Pseudopotential generation method:
read_vps: ATM 3.2.2 Troullier-Martins                       
Valence charge for ps generation:    1.00000

read_vps: Pseudopotential includes a core correction:
read_vps: Pseudo-core for xc-correction

xc_check: Exchange-correlation functional:
xc_check: GGA Perdew, Burke & Ernzerhof 1996
V l=0 = -2*Zval/r beyond r=  2.2278
V l=1 = -2*Zval/r beyond r=  2.2278
V l=2 = -2*Zval/r beyond r=  2.5245
All V_l potentials equal beyond r=  2.4622
This should be close to max(r_c) in ps generation
All pots = -2*Zval/r beyond r=  2.5245

VLOCAL1: 99.0% of the norm of Vloc inside      7.160 Ry
VLOCAL1: 99.9% of the norm of Vloc inside     16.318 Ry
atom: Maximum radius for 4*pi*r*r*local-pseudopot. charge    2.86079
atom: Maximum radius for r*vlocal+2*Zval:    2.43160
GHOST: No ghost state for L =  0
GHOST: No ghost state for L =  1
GHOST: No ghost state for L =  2

KBgen: Kleinman-Bylander projectors: 
   l= 0   rc=  2.654023   el= -0.211234   Ekb=  1.742119   kbcos=  0.228463
   l= 1   rc=  2.721230   el= -0.080095   Ekb= -1.122375   kbcos= -0.147941
   l= 2   rc=  2.825246   el=  0.002001   Ekb= -0.207076   kbcos= -0.031965

KBgen: Total number of Kleinman-Bylander projectors:    9
atom: -------------------------------------------------------------------------

atom: SANKEY-TYPE ORBITALS:

SPLIT: Orbitals with angular momentum L= 0

SPLIT: Basis orbitals for state 2s

SPLIT: PAO cut-off radius determined from an
SPLIT: energy shift=  0.000735 Ry

   izeta = 1
                 lambda =    1.000000
                     rc =   11.897381
                 energy =   -0.210580
                kinetic =    0.143382
    potential(screened) =   -0.353962
       potential(ionic) =   -0.533453
atom: Total number of Sankey-type orbitals:  1

atm_pop: Valence configuration (for local Pseudopot. screening):
 2s( 1.00)                                                            
Vna: chval, zval:    1.00000   1.00000

Vna:  Cut-off radius for the neutral-atom potential:  11.897381
comcore: Pseudo-core radius Rcore=  3.450946

atom: _________________________________________________________________________

<basis_specs>
===============================================================================
C-gga                Z=   6    Mass=  12.010        Charge= 0.17977+309
Lmxo=1 Lmxkb= 2    BasisType=split      Semic=F
L=0  Nsemic=0  Cnfigmx=2
          i=1  nzeta=1  polorb=0  (2s)
            splnorm:   0.15000    
               vcte:    0.0000    
               rinn:    0.0000    
               qcoe:    0.0000    
               qyuk:    0.0000    
               qwid:   0.10000E-01
                rcs:    0.0000    
            lambdas:    1.0000    
L=1  Nsemic=0  Cnfigmx=2
          i=1  nzeta=1  polorb=0  (2p)
            splnorm:   0.15000    
               vcte:    0.0000    
               rinn:    0.0000    
               qcoe:    0.0000    
               qyuk:    0.0000    
               qwid:   0.10000E-01
                rcs:    0.0000    
            lambdas:    1.0000    
-------------------------------------------------------------------------------
L=0  Nkbl=1  erefs: 0.17977+309
L=1  Nkbl=1  erefs: 0.17977+309
L=2  Nkbl=1  erefs: 0.17977+309
===============================================================================
</basis_specs>

atom: Called for C-gga                 (Z =   6)

read_vps: Pseudopotential generation method:
read_vps: ATM 3.2.2 Troullier-Martins                       
Valence charge for ps generation:    4.00000

xc_check: Exchange-correlation functional:
xc_check: GGA Perdew, Burke & Ernzerhof 1996
V l=0 = -2*Zval/r beyond r=  1.5227
V l=1 = -2*Zval/r beyond r=  1.5227
V l=2 = -2*Zval/r beyond r=  1.5227
All V_l potentials equal beyond r=  1.4851
This should be close to max(r_c) in ps generation
All pots = -2*Zval/r beyond r=  1.5227

VLOCAL1: 99.0% of the norm of Vloc inside     19.682 Ry
VLOCAL1: 99.9% of the norm of Vloc inside     44.856 Ry
atom: Maximum radius for 4*pi*r*r*local-pseudopot. charge    1.79142
atom: Maximum radius for r*vlocal+2*Zval:    1.54183
GHOST: No ghost state for L =  0
GHOST: No ghost state for L =  1
GHOST: No ghost state for L =  2

KBgen: Kleinman-Bylander projectors: 
   l= 0   rc=  1.661951   el= -1.010689   Ekb=  5.289847   kbcos=  0.316429
   l= 1   rc=  1.661951   el= -0.388490   Ekb= -4.102504   kbcos= -0.351025
   l= 2   rc=  1.747182   el=  0.001971   Ekb= -1.006005   kbcos= -0.008530

KBgen: Total number of Kleinman-Bylander projectors:    9
atom: -------------------------------------------------------------------------

atom: SANKEY-TYPE ORBITALS:

SPLIT: Orbitals with angular momentum L= 0

SPLIT: Basis orbitals for state 2s

SPLIT: PAO cut-off radius determined from an
SPLIT: energy shift=  0.000735 Ry

   izeta = 1
                 lambda =    1.000000
                     rc =    5.948690
                 energy =   -1.010099
                kinetic =    0.827121
    potential(screened) =   -1.837220
       potential(ionic) =   -5.392783

SPLIT: Orbitals with angular momentum L= 1

SPLIT: Basis orbitals for state 2p

SPLIT: PAO cut-off radius determined from an
SPLIT: energy shift=  0.000735 Ry

   izeta = 1
                 lambda =    1.000000
                     rc =    7.638387
                 energy =   -0.387843
                kinetic =    2.314739
    potential(screened) =   -2.702582
       potential(ionic) =   -6.092371
atom: Total number of Sankey-type orbitals:  4

atm_pop: Valence configuration (for local Pseudopot. screening):
 2s( 2.00)                                                            
 2p( 2.00)                                                            
Vna: chval, zval:    4.00000   4.00000

Vna:  Cut-off radius for the neutral-atom potential:   7.638387

atom: _________________________________________________________________________

prinput: Basis input ----------------------------------------------------------

PAO.BasisType split     

%block ChemicalSpeciesLabel
    1    3 Li-gga                  # Species index, atomic number, species label
    2    6 C-gga                   # Species index, atomic number, species label
%endblock ChemicalSpeciesLabel

%block PAO.Basis                 # Define Basis set
Li-gga                1                    # Species label, number of l-shells
 n=2   0   1                         # n, l, Nzeta 
  11.897   
   1.000   
C-gga                 2                    # Species label, number of l-shells
 n=2   0   1                         # n, l, Nzeta 
   5.949   
   1.000   
 n=2   1   1                         # n, l, Nzeta 
   7.638   
   1.000   
%endblock PAO.Basis

prinput: ----------------------------------------------------------------------

coor:   Atomic-coordinates input format  =     Cartesian coordinates
coor:                                          (in Angstroms)

siesta: Atomic coordinates (Bohr) and species
siesta:      0.00000   0.00000   0.00000  2        1
siesta:     -1.32825   2.30060   3.07637  1        2
siesta:     -2.74990   4.76296  15.38179  1        3
siesta:      2.74990   4.76296   3.07637  1        4
siesta:      1.32825   2.30060  15.38179  1        5
siesta:      2.65651   0.00000   3.07637  1        6
siesta:      5.49980   0.00000  15.38179  1        7
siesta:     -2.74990   4.76296   3.07637  1        8
siesta:     -1.32825   2.30060  15.38179  1        9
siesta:      1.32825   2.30060   3.07637  1       10
siesta:      2.74990   4.76296  15.38179  1       11
siesta:      5.49980   0.00000   3.07637  1       12
siesta:      2.65651   0.00000  15.38179  1       13
siesta:     -1.32825   2.30060   9.22908  1       14
siesta:     -2.74990   4.76296   9.22908  1       15
siesta:      2.74990   4.76296   9.22908  1       16
siesta:      1.32825   2.30060   9.22908  1       17
siesta:      2.65651   0.00000   9.22908  1       18
siesta:      5.49980   0.00000   9.22908  1       19

siesta: System type = bulk      

initatomlists: Number of atoms, orbitals, and projectors:     19    22   171

siesta: ******************** Simulation parameters ****************************
siesta:
siesta: The following are some of the parameters of the simulation.
siesta: A complete list of the parameters used, including default values,
siesta: can be found in file out.fdf
siesta:
redata: Spin configuration                          = none
redata: Number of spin components                   = 1
redata: Time-Reversal Symmetry                      = T
redata: Spin spiral                                 = F
redata: Long output                                 =   F
redata: Number of Atomic Species                    =        2
redata: Charge density info will appear in .RHO file
redata: Write Mulliken Pop.                         = NO
redata: Matel table size (NRTAB)                    =     1024
redata: Mesh Cutoff                                 =   300.0000 Ry
redata: Net charge of the system                    =     0.0000 |e|
redata: Min. number of SCF Iter                     =        0
redata: Max. number of SCF Iter                     =     1000
redata: SCF convergence failure will abort job
redata: SCF mix quantity                            = Hamiltonian
redata: Mix DM or H after convergence               =   F
redata: Recompute H after scf cycle                 =   F
redata: Mix DM in first SCF step                    =   T
redata: Write Pulay info on disk                    =   F
redata: New DM Occupancy tolerance                  = 0.000000000001
redata: No kicks to SCF
redata: DM Mixing Weight for Kicks                  =     0.5000
redata: Require Harris convergence for SCF          =   F
redata: Harris energy tolerance for SCF             =     0.000100 eV
redata: Require DM convergence for SCF              =   T
redata: DM tolerance for SCF                        =     0.001000
redata: Require EDM convergence for SCF             =   F
redata: EDM tolerance for SCF                       =     0.005000 eV
redata: Require H convergence for SCF               =   T
redata: Hamiltonian tolerance for SCF               =     0.001000 eV
redata: Require (free) Energy convergence for SCF   =   T
redata: (free) Energy tolerance for SCF             =     0.001000 eV
redata: Using Saved Data (generic)                  =   F
redata: Use continuation files for DM               =   F
redata: Neglect nonoverlap interactions             =   F
redata: Method of Calculation                       = Diagonalization
redata: Electronic Temperature                      =   299.9869 K
redata: Fix the spin of the system                  =   F
redata: Dynamics option                             = Single-point calculation
mix.SCF: Pulay mixing                            = Pulay
mix.SCF:    Variant                              = stable
mix.SCF:    History steps                        = 4
mix.SCF:    Linear mixing weight                 =     0.250000
mix.SCF:    Mixing weight                        =     0.250000
mix.SCF:    SVD condition                        = 0.1000E-07
redata: ***********************************************************************

%block SCF.Mixers
  Pulay
%endblock SCF.Mixers

%block SCF.Mixer.Pulay
  # Mixing method
  method pulay
  variant stable

  # Mixing options
  weight 0.2500
  weight.linear 0.2500
  history 4
%endblock SCF.Mixer.Pulay

DM_history_depth set to one: no extrapolation allowed by default for geometry relaxation
Size of DM history Fstack: 1
Total number of electrons:    22.000000
Total ionic charge:    22.000000

* ProcessorY, Blocksize:    4   1


* Orbital distribution balance (max,min):     2     1

k-point displ. along   1 input, could be:     0.00    0.50
k-point displ. along   2 input, could be:     0.00    0.50
k-point displ. along   3 input, could be:     0.00    0.50
 Kpoints in:           48 . Kpoints trimmed:           44

siesta: k-grid: Number of k-points =    44
siesta: k-grid: Cutoff (effective) =     8.632 Ang
siesta: k-grid: Supercell and displacements
siesta: k-grid:    4   0   0      0.000
siesta: k-grid:    0   4   0      0.000
siesta: k-grid:    0   0   4      0.000

diag: Algorithm                                     = Expert
diag: Parallel over k                               =   T
diag: Use parallel 2D distribution                  =   T
diag: Parallel block-size                           = 1
diag: Parallel distribution                         =     4 x     4
diag: Used triangular part                          = Lower
diag: Absolute tolerance                            =  0.100E-15
diag: Orthogonalization factor                      =  0.100E-05
diag: Memory factor                                 =  1.0000

superc: Internal auxiliary supercell:     9 x     9 x     5  =     405
superc: Number of atoms, orbitals, and projectors:   7695   8910  69255


ts: **************************************************************
ts: Save H and S matrices                           =    F
ts: Save DM and EDM matrices                        =    F
ts: Only save the overlap matrix S                  =    F
ts: **************************************************************

************************ Begin: TS CHECKS AND WARNINGS ************************
************************ End: TS CHECKS AND WARNINGS **************************


                     ====================================
                        Single-point calculation
                     ====================================

outcoor: Atomic coordinates (Ang):                          
    0.00000000    0.00000000    0.00000000   2       1  C-gga
   -0.70288177    1.21742694    1.62794180   1       2  Li-gga
   -1.45518323    2.52045129    8.13968948   1       3  Li-gga
    1.45518323    2.52045129    1.62794180   1       4  Li-gga
    0.70288177    1.21742694    8.13968948   1       5  Li-gga
    1.40576354    0.00000000    1.62794180   1       6  Li-gga
    2.91036646    0.00000000    8.13968948   1       7  Li-gga
   -1.45518323    2.52045129    1.62794180   1       8  Li-gga
   -0.70288177    1.21742694    8.13968948   1       9  Li-gga
    0.70288177    1.21742694    1.62794180   1      10  Li-gga
    1.45518323    2.52045129    8.13968948   1      11  Li-gga
    2.91036646    0.00000000    1.62794180   1      12  Li-gga
    1.40576354    0.00000000    8.13968948   1      13  Li-gga
   -0.70288177    1.21742694    4.88381564   1      14  Li-gga
   -1.45518323    2.52045129    4.88381564   1      15  Li-gga
    1.45518323    2.52045129    4.88381564   1      16  Li-gga
    0.70288177    1.21742694    4.88381564   1      17  Li-gga
    1.40576354    0.00000000    4.88381564   1      18  Li-gga
    2.91036646    0.00000000    4.88381564   1      19  Li-gga

superc: Internal auxiliary supercell:     9 x     9 x     5  =     405
superc: Number of atoms, orbitals, and projectors:   7695   8910  69255

outcell: Unit cell vectors (Ang):
        4.316130    0.000000    0.000000
       -2.158065    3.737878    0.000000
        0.000000    0.000000    9.767631

outcell: Cell vector modules (Ang)   :    4.316130    4.316130    9.767631
outcell: Cell angles (23,13,12) (deg):     90.0000     90.0000    120.0000
outcell: Cell volume (Ang**3)        :    157.5828
<dSpData1D:S at geom step 0
  <sparsity:sparsity for geom step 0
    nrows_g=22 nrows=2 sparsity=5.2665 nnzs=2549, refcount: 7>
  <dData1D:(new from dSpData1D) n=2549, refcount: 1>
refcount: 1>
new_DM -- step:     1
Initializing Density Matrix...
DM filled with atomic data:
<dSpData2D:DM initialized from atoms
  <sparsity:sparsity for geom step 0
    nrows_g=22 nrows=2 sparsity=5.2665 nnzs=2549, refcount: 8>
  <dData2D:DM n=2549 m=1, refcount: 1>
refcount: 1>
No. of atoms with KB's overlaping orbs in proc 0. Max # of overlaps:     246     249
New grid distribution:   1
           1       1:   20    1:    5    1:   14
           2       1:   20    1:    5   15:   28
           3       1:   20    1:    5   29:   41
           4       1:   20    1:    5   42:   54
           5       1:   20    6:   10    1:   14
           6       1:   20    6:   10   15:   28
           7       1:   20    6:   10   29:   41
           8       1:   20    6:   10   42:   54
           9       1:   20   11:   15    1:   14
          10       1:   20   11:   15   15:   28
          11       1:   20   11:   15   29:   41
          12       1:   20   11:   15   42:   54
          13       1:   20   16:   20    1:   14
          14       1:   20   16:   20   15:   28
          15       1:   20   16:   20   29:   41
          16       1:   20   16:   20   42:   54

InitMesh: MESH =    40 x    40 x   108 =      172800
InitMesh: (bp) =    20 x    20 x    54 =       21600
InitMesh: Mesh cutoff (required, used) =   300.000   316.498 Ry
ExtMesh (bp) on 0 =   156 x   141 x   154 =     3387384
New grid distribution:   2
           1      11:   20    1:   10    1:   13
           2      11:   20    1:   10   14:   27
           3       1:   10    1:   10   28:   41
           4       1:   10    1:   10   42:   54
           5       1:   10    1:   10    1:   13
           6       1:   10    1:   10   14:   27
           7      11:   20    1:   10   28:   41
           8      11:   20    1:   10   42:   54
           9      11:   20   11:   20    1:   13
          10      11:   20   11:   20   14:   27
          11       1:   10   11:   20   28:   41
          12       1:   10   11:   20   42:   54
          13       1:   10   11:   20    1:   13
          14       1:   10   11:   20   14:   27
          15      11:   20   11:   20   28:   41
          16      11:   20   11:   20   42:   54
New grid distribution:   3
           1       1:   10    1:   10    1:   14
           2      11:   20    1:   10   15:   27
           3      11:   20    1:   10   28:   41
           4       1:   10    1:   10   42:   54
           5      11:   20    1:   10    1:   14
           6       1:   10    1:   10   15:   27
           7       1:   10    1:   10   28:   41
           8      11:   20    1:   10   42:   54
           9       1:   10   11:   20    1:   14
          10      11:   20   11:   20   15:   27
          11      11:   20   11:   20   28:   41
          12       1:   10   11:   20   42:   54
          13      11:   20   11:   20    1:   14
          14       1:   10   11:   20   15:   27
          15       1:   10   11:   20   28:   41
          16      11:   20   11:   20   42:   54
Setting up quadratic distribution...
ExtMesh (bp) on 0 =   146 x   146 x   153 =     3261348
PhiOnMesh: Number of (b)points on node 0 =                 1300
PhiOnMesh: nlist on node 0 =               174161

stepf: Fermi-Dirac step function

siesta: Program's energy decomposition (eV):
siesta: Ebs     =       -56.421471
siesta: Eions   =       439.895300
siesta: Ena     =       128.567788
siesta: Ekin    =       329.569872
siesta: Enl     =        52.544789
siesta: Eso     =         0.000000
siesta: Edftu   =         0.000000
siesta: DEna    =       -60.439310
siesta: DUscf   =        66.564741
siesta: DUext   =         0.000000
siesta: Exc     =      -240.076699
siesta: eta*DQ  =         0.000000
siesta: Emadel  =         0.000000
siesta: Emeta   =         0.000000
siesta: Emolmec =        -8.653994
siesta: Ekinion =         0.000000
siesta: Eharris =        -4.425673
siesta: Etot    =      -171.818114
siesta: FreeEng =      -171.825660

        iscf     Eharris(eV)        E_KS(eV)     FreeEng(eV)     dDmax    Ef(eV) dHmax(eV)
   scf:    1       -4.425673     -171.818114     -171.825660  3.177501 -8.149674 35.592124
timer: Routine,Calls,Time,% = IterSCF        1       0.733  14.77
   scf:    2     -222.353374     -211.415624     -211.431042  8.977458 -5.349703  2.365902
   scf:    3     -211.006588     -211.657010     -211.671690  1.628699 -4.872156  2.609074
   scf:    4     -200.537641     -208.674799     -208.690855  4.117978 -6.054971  9.440847
   scf:    5     -207.532096     -211.386528     -211.393319  3.296763 -4.323165  4.507672
   scf:    6     -212.395523     -211.975585     -211.983405  0.789144 -4.765358  2.149335
   scf:    7     -209.427988     -211.444909     -211.454297  1.711992 -5.240730  4.101757
   scf:    8     -212.341549     -212.166280     -212.175578  1.130419 -4.941834  0.288089
   scf:    9     -211.818366     -212.061237     -212.071509  0.439353 -4.834703  1.566663
   scf:   10     -212.169932     -212.168976     -212.179014  0.404020 -4.926172  0.063294
   scf:   11     -212.166367     -212.168189     -212.178768  0.042605 -4.915527  0.099277
   scf:   12     -212.169244     -212.168881     -212.179196  0.023498 -4.921160  0.008314
   scf:   13     -212.168962     -212.168926     -212.179197  0.003385 -4.922177  0.006380
   scf:   14     -212.168881     -212.168904     -212.179199  0.001454 -4.921867  0.000369
   scf:   15     -212.168898     -212.168901     -212.179199  0.000163 -4.921877  0.000305

SCF Convergence by FreeE+DM+H criterion
|FreeE_i-FreeE_(i-1)| (eV) <     0.00100000
max |DM_out - DM_in|         :     0.0001625928
max |H_out - H_in|      (eV) :     0.0003049791
SCF cycle converged after 15 iterations

Using DM_out to compute the final energy and forces
No. of atoms with KB's overlaping orbs in proc 0. Max # of overlaps:     246     249

MM-Stress (kbar):      -13.65      -13.65       36.54        0.00       -0.00       -0.00

siesta: E_KS(eV) =             -212.1689

siesta: E_KS - E_eggbox =      -212.1689

siesta: Atomic forces (eV/Ang):
     1   -0.000000   -0.000000    0.000000
     2   -0.247816    0.429249   -0.771381
     3    0.247816   -0.429249    0.771381
     4   -0.247833   -0.429259   -0.771400
     5    0.247833    0.429259    0.771400
     6    0.495649    0.000009   -0.771381
     7   -0.495649   -0.000009    0.771381
     8    0.247816   -0.429249   -0.771381
     9   -0.247816    0.429249    0.771381
    10    0.247833    0.429259   -0.771400
    11   -0.247833   -0.429259    0.771400
    12   -0.495649   -0.000009   -0.771381
    13    0.495649    0.000009    0.771381
    14   -0.350749    0.607441   -0.000000
    15    0.350749   -0.607441    0.000000
    16   -0.350760   -0.607534   -0.000000
    17    0.350760    0.607534   -0.000000
    18    0.701434   -0.000037    0.000000
    19   -0.701434    0.000037   -0.000000
----------------------------------------
   Tot   -0.000000    0.000000    0.000000
----------------------------------------
   Max    0.771400
   Res    0.478316    sqrt( Sum f_i^2 / 3N )
----------------------------------------
   Max    0.771400    constrained

Stress tensor Voigt[x,y,z,yz,xz,xy] (kbar):    -2109.65    -2109.67      424.02       -0.00        0.00       -0.02
(Free)E + p*V (eV/cell)      -87.7511
Target enthalpy (eV/cell)     -212.1792

siesta: Eigenvalues (eV):
  ik is       eps
   1  1  -16.8971  -15.9560  -14.5396  -14.4582  -14.0865  -13.4348  -12.9528  -12.5864  -12.5049   -6.1445
          -5.7640   -4.6851   -3.9890   15.0328   15.4334   17.9924   18.2280   18.6255   18.6727   18.9198
   19.6992   20.6353
   2  1  -17.3280  -16.5396  -14.7627  -13.4191  -12.5710  -11.9739   -9.0300   -8.3721   -7.4323   -7.2980
          -5.1875   -5.1008   -3.5041    3.0149    3.1256    4.7873   17.9200   19.3670   20.7557   21.1686
   22.5711   22.7843
   3  1  -17.3280  -16.5396  -14.7627  -13.4191  -12.5710  -11.9739   -9.0300   -8.3721   -7.4323   -7.2980
          -5.1875   -5.1007   -3.5040    3.0147    3.1256    4.7874   17.9200   19.3670   20.7557   21.1686
   22.5711   22.7843
   4  1  -16.8971  -15.9560  -14.5396  -14.4582  -14.0865  -13.4348  -12.9528  -12.5863  -12.5049   -6.1445
          -5.7640   -4.6853   -3.9888   15.0328   15.4334   17.9924   18.2280   18.6255   18.6727   18.9198
   19.6992   20.6353
   5  1  -17.3280  -16.5396  -14.7627  -13.4191  -12.5710  -11.9739   -9.0300   -8.3721   -7.4323   -7.2980
          -5.1875   -5.1008   -3.5041    3.0149    3.1256    4.7873   17.9200   19.3670   20.7557   21.1686
   22.5711   22.7843
   6  1  -17.6378  -16.8588  -15.1420   -9.4321   -8.1462   -7.4947   -7.4947   -1.5781   -1.5781   -0.7357
          -0.7357    6.5201    6.5201    8.1241    8.1241    8.5868    8.5869   21.6908   21.6911   22.3201
   24.1899   24.2587
   7  1  -16.8511  -15.7901  -15.5592  -13.8737  -13.8395  -13.7151   -9.7651   -9.2981   -8.5358   -7.7608
          -6.7829   -6.4337   -4.3631   -0.0029    1.0327    1.9509   16.5959   16.8973   18.3048   18.5217
   18.9031   19.3136
   8  1  -16.8971  -15.9560  -14.5396  -14.4582  -14.0865  -13.4348  -12.9528  -12.5863  -12.5049   -6.1445
          -5.7640   -4.6853   -3.9888   15.0328   15.4334   17.9924   18.2280   18.6255   18.6727   18.9198
   19.6992   20.6353
   9  1  -16.8971  -15.9560  -14.5396  -14.4582  -14.0865  -13.4348  -12.9528  -12.5863  -12.5049   -6.1445
          -5.7640   -4.6853   -3.9888   15.0328   15.4334   17.9924   18.2280   18.6255   18.6727   18.9198
   19.6992   20.6353
  10  1  -16.8511  -15.7901  -15.5592  -13.8737  -13.8395  -13.7151   -9.7651   -9.2981   -8.5358   -7.7608
          -6.7829   -6.4337   -4.3631   -0.0029    1.0327    1.9509   16.5959   16.8973   18.3048   18.5217
   18.9031   19.3136
  11  1  -16.8971  -15.9560  -14.5396  -14.4582  -14.0865  -13.4348  -12.9528  -12.5863  -12.5049   -6.1445
          -5.7640   -4.6853   -3.9888   15.0328   15.4334   17.9924   18.2280   18.6255   18.6727   18.9198
   19.6992   20.6353
  12  1  -16.8511  -15.7901  -15.5592  -13.8737  -13.8396  -13.7151   -9.7651   -9.2980   -8.5358   -7.7608
          -6.7829   -6.4337   -4.3630   -0.0029    1.0327    1.9507   16.5959   16.8973   18.3047   18.5218
   18.9031   19.3136
  13  1  -16.8782  -16.0367  -14.5967  -14.4705  -13.9711  -13.1975  -13.0293  -12.2656  -11.6482   -7.3998
          -4.9466   -4.7870   -4.1724   15.0985   15.5270   17.9024   18.1207   18.3824   18.6854   19.0297
   19.7900   20.6154
  14  1  -17.2841  -16.7078  -14.0311  -13.4244  -12.8072  -11.2685   -9.0518   -9.0025   -8.0571   -6.6642
          -5.0239   -3.7342   -3.1339    1.2685    2.8377    6.8791   17.7738   19.4700   20.7623   21.1478
   22.5696   22.7852
  15  1  -17.2840  -16.7078  -14.0311  -13.4244  -12.8073  -11.2685   -9.0518   -9.0024   -8.0571   -6.6642
          -5.0238   -3.7341   -3.1340    1.2685    2.8376    6.8791   17.7738   19.4700   20.7623   21.1477
   22.5696   22.7852
  16  1  -16.8782  -16.0367  -14.5967  -14.4705  -13.9711  -13.1975  -13.0293  -12.2657  -11.6482   -7.3998
          -4.9468   -4.7869   -4.1724   15.0985   15.5270   17.9024   18.1207   18.3824   18.6854   19.0296
   19.7900   20.6154
  17  1  -17.2841  -16.7078  -14.0311  -13.4244  -12.8072  -11.2685   -9.0518   -9.0025   -8.0571   -6.6642
          -5.0239   -3.7342   -3.1339    1.2685    2.8377    6.8791   17.7738   19.4700   20.7623   21.1478
   22.5696   22.7852
  18  1  -17.5858  -17.0634  -14.2299  -10.1179   -7.4924   -7.4924   -7.4881   -1.2677   -1.2677   -1.2633
          -1.2633    2.9373    2.9374    7.9048    7.9049   18.8307   18.8307   22.3231   23.9836   23.9838
   24.1786   24.2669
  19  1  -17.2841  -16.7078  -14.0311  -13.4244  -12.8072  -11.2685   -9.0518   -9.0025   -8.0571   -6.6642
          -5.0239   -3.7342   -3.1339    1.2685    2.8377    6.8791   17.7738   19.4700   20.7623   21.1478
   22.5696   22.7852
  20  1  -16.8384  -15.7802  -15.6698  -14.3030  -13.2905  -12.7802   -9.7270   -9.6961   -9.1275   -7.8421
          -5.8268   -4.8883   -4.8361   -1.9254    1.1531    3.3826   16.5371   16.8155   18.3387   18.5810
   18.9557   19.3421
  21  1  -17.2840  -16.7078  -14.0311  -13.4244  -12.8073  -11.2685   -9.0518   -9.0024   -8.0571   -6.6642
          -5.0238   -3.7341   -3.1340    1.2685    2.8376    6.8791   17.7738   19.4700   20.7623   21.1477
   22.5696   22.7852
  22  1  -17.2841  -16.7078  -14.0311  -13.4244  -12.8072  -11.2685   -9.0518   -9.0025   -8.0571   -6.6642
          -5.0239   -3.7342   -3.1339    1.2685    2.8377    6.8791   17.7738   19.4700   20.7623   21.1478
   22.5696   22.7852
  23  1  -16.8782  -16.0367  -14.5967  -14.4705  -13.9711  -13.1975  -13.0293  -12.2656  -11.6482   -7.3998
          -4.9466   -4.7870   -4.1724   15.0985   15.5270   17.9024   18.1207   18.3824   18.6854   19.0297
   19.7900   20.6154
  24  1  -16.8782  -16.0367  -14.5967  -14.4705  -13.9711  -13.1975  -13.0293  -12.2657  -11.6482   -7.3998
          -4.9468   -4.7869   -4.1724   15.0985   15.5270   17.9024   18.1207   18.3824   18.6854   19.0296
   19.7900   20.6154
  25  1  -16.8782  -16.0367  -14.5967  -14.4705  -13.9711  -13.1975  -13.0293  -12.2657  -11.6482   -7.3998
          -4.9468   -4.7869   -4.1724   15.0985   15.5270   17.9024   18.1207   18.3824   18.6854   19.0296
   19.7900   20.6154
  26  1  -16.8384  -15.7802  -15.6698  -14.3030  -13.2905  -12.7802   -9.7270   -9.6961   -9.1275   -7.8421
          -5.8268   -4.8883   -4.8361   -1.9254    1.1531    3.3826   16.5371   16.8155   18.3387   18.5810
   18.9557   19.3421
  27  1  -16.8782  -16.0367  -14.5967  -14.4705  -13.9711  -13.1975  -13.0293  -12.2657  -11.6482   -7.3998
          -4.9468   -4.7869   -4.1724   15.0985   15.5270   17.9024   18.1207   18.3824   18.6854   19.0296
   19.7900   20.6154
  28  1  -16.8384  -15.7802  -15.6698  -14.3031  -13.2904  -12.7802   -9.7270   -9.6961   -9.1275   -7.8421
          -5.8268   -4.8883   -4.8359   -1.9254    1.1529    3.3826   16.5371   16.8155   18.3387   18.5810
   18.9556   19.3421
  29  1  -16.8574  -16.1082  -14.6107  -14.4822  -14.0669  -13.1635  -12.4396  -11.5956  -11.0181   -8.2791
          -5.2778   -5.0944   -3.6840   15.1753   15.6320   17.8262   17.9809   18.1232   18.7145   19.1195
   19.8767   20.5925
  30  1  -17.2199  -16.8609  -13.4793  -13.2458  -12.5463  -10.6077   -9.8064   -8.9581   -8.4069   -6.0288
          -5.2890   -3.7448   -0.7987    0.1419    2.3892    8.1661   17.6518   19.5555   20.7696   21.0955
   22.5680   22.7862
  31  1  -17.2199  -16.8609  -13.4793  -13.2458  -12.5463  -10.6077   -9.8064   -8.9580   -8.4069   -6.0288
          -5.2889   -3.7448   -0.7989    0.1419    2.3892    8.1662   17.6518   19.5554   20.7696   21.0955
   22.5680   22.7862
  32  1  -16.8574  -16.1082  -14.6107  -14.4822  -14.0670  -13.1635  -12.4396  -11.5956  -11.0180   -8.2791
          -5.2779   -5.0942   -3.6840   15.1753   15.6320   17.8262   17.9809   18.1231   18.7145   19.1194
   19.8767   20.5925
  33  1  -17.2199  -16.8609  -13.4793  -13.2458  -12.5463  -10.6077   -9.8064   -8.9581   -8.4069   -6.0288
          -5.2890   -3.7448   -0.7987    0.1419    2.3892    8.1661   17.6518   19.5555   20.7696   21.0955
   22.5680   22.7862
  34  1  -17.4944  -17.2579  -12.6756  -11.2153   -7.4901   -7.4900   -6.7800   -1.6621   -1.6621   -0.6318
          -0.6318    0.8779    0.8779    9.0082    9.0085   22.3262   24.1660   24.2762   27.1688   27.1688
   27.6013   27.6014
  35  1  -17.2199  -16.8609  -13.4793  -13.2458  -12.5463  -10.6077   -9.8064   -8.9581   -8.4069   -6.0288
          -5.2890   -3.7448   -0.7987    0.1419    2.3892    8.1661   17.6518   19.5555   20.7696   21.0955
   22.5680   22.7862
  36  1  -16.8249  -15.7703  -15.7566  -14.4605  -12.4821  -11.9688  -10.3081   -9.6008   -9.5227   -7.7229
          -5.4895   -5.3042   -2.9442   -1.6439   -1.2076    4.7849   16.4817   16.7400   18.3705   18.6348
   19.0068   19.3678
  37  1  -17.2199  -16.8609  -13.4793  -13.2458  -12.5463  -10.6077   -9.8064   -8.9580   -8.4069   -6.0288
          -5.2889   -3.7448   -0.7989    0.1419    2.3892    8.1662   17.6518   19.5554   20.7696   21.0955
   22.5680   22.7862
  38  1  -17.2199  -16.8609  -13.4793  -13.2458  -12.5463  -10.6077   -9.8064   -8.9581   -8.4069   -6.0288
          -5.2890   -3.7448   -0.7987    0.1419    2.3892    8.1661   17.6518   19.5555   20.7696   21.0955
   22.5680   22.7862
  39  1  -16.8574  -16.1082  -14.6107  -14.4822  -14.0669  -13.1635  -12.4396  -11.5956  -11.0181   -8.2791
          -5.2778   -5.0944   -3.6840   15.1753   15.6320   17.8262   17.9809   18.1232   18.7145   19.1195
   19.8767   20.5925
  40  1  -16.8574  -16.1082  -14.6107  -14.4822  -14.0670  -13.1635  -12.4396  -11.5956  -11.0180   -8.2791
          -5.2779   -5.0942   -3.6840   15.1753   15.6320   17.8262   17.9809   18.1231   18.7145   19.1194
   19.8767   20.5925
  41  1  -16.8574  -16.1082  -14.6107  -14.4822  -14.0670  -13.1635  -12.4396  -11.5956  -11.0180   -8.2791
          -5.2779   -5.0942   -3.6840   15.1753   15.6320   17.8262   17.9809   18.1231   18.7145   19.1194
   19.8767   20.5925
  42  1  -16.8249  -15.7703  -15.7566  -14.4605  -12.4821  -11.9688  -10.3081   -9.6008   -9.5227   -7.7229
          -5.4895   -5.3042   -2.9442   -1.6439   -1.2076    4.7849   16.4817   16.7400   18.3705   18.6348
   19.0068   19.3678
  43  1  -16.8574  -16.1082  -14.6107  -14.4822  -14.0670  -13.1635  -12.4396  -11.5956  -11.0180   -8.2791
          -5.2779   -5.0942   -3.6840   15.1753   15.6320   17.8262   17.9809   18.1231   18.7145   19.1194
   19.8767   20.5925
  44  1  -16.8249  -15.7703  -15.7566  -14.4605  -12.4821  -11.9688  -10.3081   -9.6008   -9.5227   -7.7229
          -5.4894   -5.3042   -2.9442   -1.6439   -1.2078    4.7849   16.4817   16.7400   18.3705   18.6348
   19.0068   19.3678
siesta: Fermi energy =      -4.921877 eV

siesta: Program's energy decomposition (eV):
siesta: Ebs     =      -258.280360
siesta: Eions   =       439.895300
siesta: Ena     =       128.567788
siesta: Ekin    =       262.944327
siesta: Enl     =        75.222767
siesta: Eso     =         0.000000
siesta: Edftu   =         0.000000
siesta: DEna    =       -14.942427
siesta: DUscf   =         6.345015
siesta: DUext   =         0.000000
siesta: Exc     =      -221.757077
siesta: eta*DQ  =         0.000000
siesta: Emadel  =         0.000000
siesta: Emeta   =         0.000000
siesta: Emolmec =        -8.653994
siesta: Ekinion =         0.000000
siesta: Eharris =      -212.168898
siesta: Etot    =      -212.168901
siesta: FreeEng =      -212.179199

siesta: Final energy (eV):
siesta:  Band Struct. =    -258.280360
siesta:       Kinetic =     262.944327
siesta:       Hartree =     128.239254
siesta:       Edftu   =       0.000000
siesta:       Eso     =       0.000000
siesta:    Ext. field =       0.000000
siesta:   Exch.-corr. =    -221.757077
siesta:  Ion-electron =    -550.552482
siesta:       Ion-ion =     177.611070
siesta:       Ekinion =       0.000000
siesta:         Total =    -212.168901
siesta:         Fermi =      -4.921877

siesta: Atomic forces (eV/Ang):
siesta:      1   -0.000000   -0.000000    0.000000
siesta:      2   -0.247816    0.429249   -0.771381
siesta:      3    0.247816   -0.429249    0.771381
siesta:      4   -0.247833   -0.429259   -0.771400
siesta:      5    0.247833    0.429259    0.771400
siesta:      6    0.495649    0.000009   -0.771381
siesta:      7   -0.495649   -0.000009    0.771381
siesta:      8    0.247816   -0.429249   -0.771381
siesta:      9   -0.247816    0.429249    0.771381
siesta:     10    0.247833    0.429259   -0.771400
siesta:     11   -0.247833   -0.429259    0.771400
siesta:     12   -0.495649   -0.000009   -0.771381
siesta:     13    0.495649    0.000009    0.771381
siesta:     14   -0.350749    0.607441   -0.000000
siesta:     15    0.350749   -0.607441    0.000000
siesta:     16   -0.350760   -0.607534   -0.000000
siesta:     17    0.350760    0.607534   -0.000000
siesta:     18    0.701434   -0.000037    0.000000
siesta:     19   -0.701434    0.000037   -0.000000
siesta: ----------------------------------------
siesta:    Tot   -0.000000    0.000000    0.000000

siesta: Stress tensor (static) (eV/Ang**3):
siesta:    -1.316726   -0.000009    0.000000
siesta:    -0.000009   -1.316737   -0.000000
siesta:     0.000000   -0.000000    0.264651

siesta: Cell volume =        157.582840 Ang**3

siesta: Pressure (static):
siesta:                Solid            Molecule  Units
siesta:           0.00859980          0.00808149  Ry/Bohr**3
siesta:           0.78960418          0.74201517  eV/Ang**3
siesta:        1265.09903555       1188.85220973  kBar
(Free)E+ p_basis*V_orbitals  =        -188.183487
(Free)Eharris+ p_basis*V_orbitals  =        -188.183485

cite: Please see "LiC18_scf.bib" for an exhaustive BiBTeX file.
cite: Please clearly indicate Siesta version in published work: 4.1.5
cite: This calculation has made use of the following articles
cite: which are encouraged to be cited in a published work.
        Primary SIESTA paper
          DOI: www.doi.org/10.1088/0953-8984/14/11/302

>> End of run:   9-NOV-2022  15:06:16
Job completed
