Siesta Version  : 4.1.5
Architecture    : x86_64-unknown-linux-gnu--unknown
Compiler version: GNU Fortran (GCC) 11.3.0
Compiler flags  : mpif90 -g -O2 -fallow-argument-mismatch
PP flags        : -DMPI -DFC_HAVE_FLUSH -DFC_HAVE_ABORT
Libraries       :  -I/global/software/sl-7.x86_64/modules/intel/2020.4.304/mkl/include  /globall/software/sl-7.x86_64/modules/intel/2020.4.304/mkl/lib/intel64/libmkl_scalapack_lp64.a -Wl,--start-group /global/software/sl-7.x86_64/modules/intel/2020.4.304/mkl/lib/intel64/libmkl_intel_lp64.a /global/software/sl-7.x86_64/modules/intel/2020.4.304/mkl/lib/intel64/libmkl_sequential.a /global/software/sl-7.x86_64/modules/intel/2020.4.304/mkl/lib/intel64/libmkl_core.a /global/software/sl-7.x86_64/modules/intel/2020.4.304/mkl/lib/intel64/libmkl_blacs_openmpi_lp64.a -Wl,--end-group -lpthread -lm -ldl
PARALLEL version

* Running on 16 nodes in parallel
>> Start of run:   9-NOV-2022  15:15:37

                           ***********************       
                           *  WELCOME TO SIESTA  *       
                           ***********************       

reinit: Reading from standard input
reinit: Dumped input in INPUT_TMP.12873
************************** Dump of input data file ****************************
SystemName LiC18_scf
SystemLabel LiC18_scf
NumberOfAtoms   19
NumberOfSpecies 2
%block ChemicalSpeciesLabel
1  3   Li-gga
2  6   C-gga
%endblock ChemicalSpeciesLabel
PAO.BasisSize  SZ
PAO.EnergyShift  10 meV
%block PS.Lmax
C-gga   2
Li-gga  2
%endblock PS.Lmax
LatticeConstant 1.000000 Ang
%block LatticeVectors
	4.3161300000	0.0000000000	0.0000000000
	-2.1580650000	3.7378782260	0.0000000000
	0.0000000000	0.0000000000	14.6514469200
%endblock LatticeVectors
AtomicCoordinatesFormat Ang
%block AtomicCoordinatesAndAtomicSpecies
	0.00000000	0.00000000	0.00000000	2
	-0.70288177	1.21742694	2.44191270	1
	-1.45518323	2.52045129	12.20953422	1
	1.45518323	2.52045129	2.44191270	1
	0.70288177	1.21742694	12.20953422	1
	1.40576354	0.00000000	2.44191270	1
	2.91036646	0.00000000	12.20953422	1
	-1.45518323	2.52045129	2.44191270	1
	-0.70288177	1.21742694	12.20953422	1
	0.70288177	1.21742694	2.44191270	1
	1.45518323	2.52045129	12.20953422	1
	2.91036646	0.00000000	2.44191270	1
	1.40576354	0.00000000	12.20953422	1
	-0.70288177	1.21742694	7.32572346	1
	-1.45518323	2.52045129	7.32572346	1
	1.45518323	2.52045129	7.32572346	1
	0.70288177	1.21742694	7.32572346	1
	1.40576354	0.00000000	7.32572346	1
	2.91036646	0.00000000	7.32572346	1
%endblock AtomicCoordinatesAndAtomicSpecies
Kgrid_NoTRS  T
%block kgrid_MonkhorstPack
4       0       0       0.0
0       4       0       0.0
0       0       4       0.0
%endblock kgrid_MonkhorstPack
AtomCoorFormatOut Ang
BlockSize 1
#ProcessorY 12
Diag.ParallelOverK   T
Diag.DivideAndConquer F
MeshCutoff   300 Ry
SCF.FreeE.Tolerance 1E-3 eV
SCF.EDM.Tolerance   5E-3 eV
DM.Tolerance  1E-3
DM.Require.Energy.Convergence T
DM.NumberPulay 4
XC.Functional GGA
XC.Authors    PBE
UseSaveData        F
MD.TypeOfRun       CG
MD.VariableCell    F
MD.NumCGsteps      00
MD.MaxCGDispl      0.200000 Bohr
MD.MaxStressTol    1.000000 GPa
MD.MaxForceTol     0.010000 eV/Ang
WriteMDHistory T
WriteCoorStep T
WriteForces T
WriteCoorStep    T
WriteEigenValues T
WriteDM    F
MM.UnitsDistance Ang  # what this program prints out DO NOT CHANGE
MM.UnitsEnergy    eV  # what this program prints out DO NOT CHANGE
MM.Grimme.S6     0.75 # Grimme-paper for PBE (correct for your functional)
MM.Grimme.D     20.   # Grimme-paper (correct for your functional)
%block MM.Potentials
  1   1 Grimme     16.69      1.650 # Li, 10.1002/jcc.20495
  1   2 Grimme     17.40      2.277 # Li / C
  2   2 Grimme     18.14      2.904 # C, 10.1002/jcc.20495
%endblock MM.Potentials
#%block ProjectedDensityOfStates
# -200.0  120.0  0.4  12800  eV
#%endblock ProjectedDensityOfStates
************************** End of input data file *****************************

reinit: -----------------------------------------------------------------------
reinit: System Name: LiC18_scf
reinit: -----------------------------------------------------------------------
reinit: System Label: LiC18_scf
reinit: -----------------------------------------------------------------------
Reading two-body potentials
Grimme - two-body potential between 1 and 1
Grimme - two-body potential between 1 and 2
Grimme - two-body potential between 2 and 2

initatom: Reading input for the pseudopotentials and atomic orbitals ----------
Species number:   1 Atomic number:    3 Label: Li-gga
Species number:   2 Atomic number:    6 Label: C-gga

Ground state valence configuration:   2s01
Reading pseudopotential information in formatted form from Li-gga.psf

Valence configuration for pseudopotential generation:
2s( 1.00) rc: 2.28
2p( 0.00) rc: 2.28
3d( 0.00) rc: 2.59
4f( 0.00) rc: 2.59
Ground state valence configuration:   2s02  2p02
Reading pseudopotential information in formatted form from C-gga.psf

Valence configuration for pseudopotential generation:
2s( 2.00) rc: 1.56
2p( 2.00) rc: 1.56
3d( 0.00) rc: 1.56
4f( 0.00) rc: 1.56
relmxkb: Read Max KB Ang. Momentum=    2 for species C-gga
relmxkb: Read Max KB Ang. Momentum=    2 for species Li-gga

<basis_specs>
===============================================================================
Li-gga               Z=   3    Mass=  6.9400        Charge= 0.17977+309
Lmxo=0 Lmxkb= 2    BasisType=split      Semic=F
L=0  Nsemic=0  Cnfigmx=2
          i=1  nzeta=1  polorb=0  (2s)
            splnorm:   0.15000    
               vcte:    0.0000    
               rinn:    0.0000    
               qcoe:    0.0000    
               qyuk:    0.0000    
               qwid:   0.10000E-01
                rcs:    0.0000    
            lambdas:    1.0000    
-------------------------------------------------------------------------------
L=0  Nkbl=1  erefs: 0.17977+309
L=1  Nkbl=1  erefs: 0.17977+309
L=2  Nkbl=1  erefs: 0.17977+309
===============================================================================
</basis_specs>

atom: Called for Li-gga                (Z =   3)

read_vps: Pseudopotential generation method:
read_vps: ATM 3.2.2 Troullier-Martins                       
Valence charge for ps generation:    1.00000

read_vps: Pseudopotential includes a core correction:
read_vps: Pseudo-core for xc-correction

xc_check: Exchange-correlation functional:
xc_check: GGA Perdew, Burke & Ernzerhof 1996
V l=0 = -2*Zval/r beyond r=  2.2278
V l=1 = -2*Zval/r beyond r=  2.2278
V l=2 = -2*Zval/r beyond r=  2.5245
All V_l potentials equal beyond r=  2.4622
This should be close to max(r_c) in ps generation
All pots = -2*Zval/r beyond r=  2.5245

VLOCAL1: 99.0% of the norm of Vloc inside      7.160 Ry
VLOCAL1: 99.9% of the norm of Vloc inside     16.318 Ry
atom: Maximum radius for 4*pi*r*r*local-pseudopot. charge    2.86079
atom: Maximum radius for r*vlocal+2*Zval:    2.43160
GHOST: No ghost state for L =  0
GHOST: No ghost state for L =  1
GHOST: No ghost state for L =  2

KBgen: Kleinman-Bylander projectors: 
   l= 0   rc=  2.654023   el= -0.211234   Ekb=  1.742119   kbcos=  0.228463
   l= 1   rc=  2.721230   el= -0.080095   Ekb= -1.122375   kbcos= -0.147941
   l= 2   rc=  2.825246   el=  0.002001   Ekb= -0.207076   kbcos= -0.031965

KBgen: Total number of Kleinman-Bylander projectors:    9
atom: -------------------------------------------------------------------------

atom: SANKEY-TYPE ORBITALS:

SPLIT: Orbitals with angular momentum L= 0

SPLIT: Basis orbitals for state 2s

SPLIT: PAO cut-off radius determined from an
SPLIT: energy shift=  0.000735 Ry

   izeta = 1
                 lambda =    1.000000
                     rc =   11.897381
                 energy =   -0.210580
                kinetic =    0.143382
    potential(screened) =   -0.353962
       potential(ionic) =   -0.533453
atom: Total number of Sankey-type orbitals:  1

atm_pop: Valence configuration (for local Pseudopot. screening):
 2s( 1.00)                                                            
Vna: chval, zval:    1.00000   1.00000

Vna:  Cut-off radius for the neutral-atom potential:  11.897381
comcore: Pseudo-core radius Rcore=  3.450946

atom: _________________________________________________________________________

<basis_specs>
===============================================================================
C-gga                Z=   6    Mass=  12.010        Charge= 0.17977+309
Lmxo=1 Lmxkb= 2    BasisType=split      Semic=F
L=0  Nsemic=0  Cnfigmx=2
          i=1  nzeta=1  polorb=0  (2s)
            splnorm:   0.15000    
               vcte:    0.0000    
               rinn:    0.0000    
               qcoe:    0.0000    
               qyuk:    0.0000    
               qwid:   0.10000E-01
                rcs:    0.0000    
            lambdas:    1.0000    
L=1  Nsemic=0  Cnfigmx=2
          i=1  nzeta=1  polorb=0  (2p)
            splnorm:   0.15000    
               vcte:    0.0000    
               rinn:    0.0000    
               qcoe:    0.0000    
               qyuk:    0.0000    
               qwid:   0.10000E-01
                rcs:    0.0000    
            lambdas:    1.0000    
-------------------------------------------------------------------------------
L=0  Nkbl=1  erefs: 0.17977+309
L=1  Nkbl=1  erefs: 0.17977+309
L=2  Nkbl=1  erefs: 0.17977+309
===============================================================================
</basis_specs>

atom: Called for C-gga                 (Z =   6)

read_vps: Pseudopotential generation method:
read_vps: ATM 3.2.2 Troullier-Martins                       
Valence charge for ps generation:    4.00000

xc_check: Exchange-correlation functional:
xc_check: GGA Perdew, Burke & Ernzerhof 1996
V l=0 = -2*Zval/r beyond r=  1.5227
V l=1 = -2*Zval/r beyond r=  1.5227
V l=2 = -2*Zval/r beyond r=  1.5227
All V_l potentials equal beyond r=  1.4851
This should be close to max(r_c) in ps generation
All pots = -2*Zval/r beyond r=  1.5227

VLOCAL1: 99.0% of the norm of Vloc inside     19.682 Ry
VLOCAL1: 99.9% of the norm of Vloc inside     44.856 Ry
atom: Maximum radius for 4*pi*r*r*local-pseudopot. charge    1.79142
atom: Maximum radius for r*vlocal+2*Zval:    1.54183
GHOST: No ghost state for L =  0
GHOST: No ghost state for L =  1
GHOST: No ghost state for L =  2

KBgen: Kleinman-Bylander projectors: 
   l= 0   rc=  1.661951   el= -1.010689   Ekb=  5.289847   kbcos=  0.316429
   l= 1   rc=  1.661951   el= -0.388490   Ekb= -4.102504   kbcos= -0.351025
   l= 2   rc=  1.747182   el=  0.001971   Ekb= -1.006005   kbcos= -0.008530

KBgen: Total number of Kleinman-Bylander projectors:    9
atom: -------------------------------------------------------------------------

atom: SANKEY-TYPE ORBITALS:

SPLIT: Orbitals with angular momentum L= 0

SPLIT: Basis orbitals for state 2s

SPLIT: PAO cut-off radius determined from an
SPLIT: energy shift=  0.000735 Ry

   izeta = 1
                 lambda =    1.000000
                     rc =    5.948690
                 energy =   -1.010099
                kinetic =    0.827121
    potential(screened) =   -1.837220
       potential(ionic) =   -5.392783

SPLIT: Orbitals with angular momentum L= 1

SPLIT: Basis orbitals for state 2p

SPLIT: PAO cut-off radius determined from an
SPLIT: energy shift=  0.000735 Ry

   izeta = 1
                 lambda =    1.000000
                     rc =    7.638387
                 energy =   -0.387843
                kinetic =    2.314739
    potential(screened) =   -2.702582
       potential(ionic) =   -6.092371
atom: Total number of Sankey-type orbitals:  4

atm_pop: Valence configuration (for local Pseudopot. screening):
 2s( 2.00)                                                            
 2p( 2.00)                                                            
Vna: chval, zval:    4.00000   4.00000

Vna:  Cut-off radius for the neutral-atom potential:   7.638387

atom: _________________________________________________________________________

prinput: Basis input ----------------------------------------------------------

PAO.BasisType split     

%block ChemicalSpeciesLabel
    1    3 Li-gga                  # Species index, atomic number, species label
    2    6 C-gga                   # Species index, atomic number, species label
%endblock ChemicalSpeciesLabel

%block PAO.Basis                 # Define Basis set
Li-gga                1                    # Species label, number of l-shells
 n=2   0   1                         # n, l, Nzeta 
  11.897   
   1.000   
C-gga                 2                    # Species label, number of l-shells
 n=2   0   1                         # n, l, Nzeta 
   5.949   
   1.000   
 n=2   1   1                         # n, l, Nzeta 
   7.638   
   1.000   
%endblock PAO.Basis

prinput: ----------------------------------------------------------------------

coor:   Atomic-coordinates input format  =     Cartesian coordinates
coor:                                          (in Angstroms)

siesta: Atomic coordinates (Bohr) and species
siesta:      0.00000   0.00000   0.00000  2        1
siesta:     -1.32825   2.30060   4.61455  1        2
siesta:     -2.74990   4.76296  23.07268  1        3
siesta:      2.74990   4.76296   4.61455  1        4
siesta:      1.32825   2.30060  23.07268  1        5
siesta:      2.65651   0.00000   4.61455  1        6
siesta:      5.49980   0.00000  23.07268  1        7
siesta:     -2.74990   4.76296   4.61455  1        8
siesta:     -1.32825   2.30060  23.07268  1        9
siesta:      1.32825   2.30060   4.61455  1       10
siesta:      2.74990   4.76296  23.07268  1       11
siesta:      5.49980   0.00000   4.61455  1       12
siesta:      2.65651   0.00000  23.07268  1       13
siesta:     -1.32825   2.30060  13.84362  1       14
siesta:     -2.74990   4.76296  13.84362  1       15
siesta:      2.74990   4.76296  13.84362  1       16
siesta:      1.32825   2.30060  13.84362  1       17
siesta:      2.65651   0.00000  13.84362  1       18
siesta:      5.49980   0.00000  13.84362  1       19

siesta: System type = bulk      

initatomlists: Number of atoms, orbitals, and projectors:     19    22   171

siesta: ******************** Simulation parameters ****************************
siesta:
siesta: The following are some of the parameters of the simulation.
siesta: A complete list of the parameters used, including default values,
siesta: can be found in file out.fdf
siesta:
redata: Spin configuration                          = none
redata: Number of spin components                   = 1
redata: Time-Reversal Symmetry                      = T
redata: Spin spiral                                 = F
redata: Long output                                 =   F
redata: Number of Atomic Species                    =        2
redata: Charge density info will appear in .RHO file
redata: Write Mulliken Pop.                         = NO
redata: Matel table size (NRTAB)                    =     1024
redata: Mesh Cutoff                                 =   300.0000 Ry
redata: Net charge of the system                    =     0.0000 |e|
redata: Min. number of SCF Iter                     =        0
redata: Max. number of SCF Iter                     =     1000
redata: SCF convergence failure will abort job
redata: SCF mix quantity                            = Hamiltonian
redata: Mix DM or H after convergence               =   F
redata: Recompute H after scf cycle                 =   F
redata: Mix DM in first SCF step                    =   T
redata: Write Pulay info on disk                    =   F
redata: New DM Occupancy tolerance                  = 0.000000000001
redata: No kicks to SCF
redata: DM Mixing Weight for Kicks                  =     0.5000
redata: Require Harris convergence for SCF          =   F
redata: Harris energy tolerance for SCF             =     0.000100 eV
redata: Require DM convergence for SCF              =   T
redata: DM tolerance for SCF                        =     0.001000
redata: Require EDM convergence for SCF             =   F
redata: EDM tolerance for SCF                       =     0.005000 eV
redata: Require H convergence for SCF               =   T
redata: Hamiltonian tolerance for SCF               =     0.001000 eV
redata: Require (free) Energy convergence for SCF   =   T
redata: (free) Energy tolerance for SCF             =     0.001000 eV
redata: Using Saved Data (generic)                  =   F
redata: Use continuation files for DM               =   F
redata: Neglect nonoverlap interactions             =   F
redata: Method of Calculation                       = Diagonalization
redata: Electronic Temperature                      =   299.9869 K
redata: Fix the spin of the system                  =   F
redata: Dynamics option                             = Single-point calculation
mix.SCF: Pulay mixing                            = Pulay
mix.SCF:    Variant                              = stable
mix.SCF:    History steps                        = 4
mix.SCF:    Linear mixing weight                 =     0.250000
mix.SCF:    Mixing weight                        =     0.250000
mix.SCF:    SVD condition                        = 0.1000E-07
redata: ***********************************************************************

%block SCF.Mixers
  Pulay
%endblock SCF.Mixers

%block SCF.Mixer.Pulay
  # Mixing method
  method pulay
  variant stable

  # Mixing options
  weight 0.2500
  weight.linear 0.2500
  history 4
%endblock SCF.Mixer.Pulay

DM_history_depth set to one: no extrapolation allowed by default for geometry relaxation
Size of DM history Fstack: 1
Total number of electrons:    22.000000
Total ionic charge:    22.000000

* ProcessorY, Blocksize:    4   1


* Orbital distribution balance (max,min):     2     1

k-point displ. along   1 input, could be:     0.00    0.50
k-point displ. along   2 input, could be:     0.00    0.50
k-point displ. along   3 input, could be:     0.00    0.50
 Kpoints in:           48 . Kpoints trimmed:           44

siesta: k-grid: Number of k-points =    44
siesta: k-grid: Cutoff (effective) =     8.632 Ang
siesta: k-grid: Supercell and displacements
siesta: k-grid:    4   0   0      0.000
siesta: k-grid:    0   4   0      0.000
siesta: k-grid:    0   0   4      0.000

diag: Algorithm                                     = Expert
diag: Parallel over k                               =   T
diag: Use parallel 2D distribution                  =   T
diag: Parallel block-size                           = 1
diag: Parallel distribution                         =     4 x     4
diag: Used triangular part                          = Lower
diag: Absolute tolerance                            =  0.100E-15
diag: Orthogonalization factor                      =  0.100E-05
diag: Memory factor                                 =  1.0000

superc: Internal auxiliary supercell:     9 x     9 x     3  =     243
superc: Number of atoms, orbitals, and projectors:   4617   5346  41553


ts: **************************************************************
ts: Save H and S matrices                           =    F
ts: Save DM and EDM matrices                        =    F
ts: Only save the overlap matrix S                  =    F
ts: **************************************************************

************************ Begin: TS CHECKS AND WARNINGS ************************
************************ End: TS CHECKS AND WARNINGS **************************


                     ====================================
                        Single-point calculation
                     ====================================

outcoor: Atomic coordinates (Ang):                          
    0.00000000    0.00000000    0.00000000   2       1  C-gga
   -0.70288177    1.21742694    2.44191270   1       2  Li-gga
   -1.45518323    2.52045129   12.20953422   1       3  Li-gga
    1.45518323    2.52045129    2.44191270   1       4  Li-gga
    0.70288177    1.21742694   12.20953422   1       5  Li-gga
    1.40576354    0.00000000    2.44191270   1       6  Li-gga
    2.91036646    0.00000000   12.20953422   1       7  Li-gga
   -1.45518323    2.52045129    2.44191270   1       8  Li-gga
   -0.70288177    1.21742694   12.20953422   1       9  Li-gga
    0.70288177    1.21742694    2.44191270   1      10  Li-gga
    1.45518323    2.52045129   12.20953422   1      11  Li-gga
    2.91036646    0.00000000    2.44191270   1      12  Li-gga
    1.40576354    0.00000000   12.20953422   1      13  Li-gga
   -0.70288177    1.21742694    7.32572346   1      14  Li-gga
   -1.45518323    2.52045129    7.32572346   1      15  Li-gga
    1.45518323    2.52045129    7.32572346   1      16  Li-gga
    0.70288177    1.21742694    7.32572346   1      17  Li-gga
    1.40576354    0.00000000    7.32572346   1      18  Li-gga
    2.91036646    0.00000000    7.32572346   1      19  Li-gga

superc: Internal auxiliary supercell:     9 x     9 x     3  =     243
superc: Number of atoms, orbitals, and projectors:   4617   5346  41553

outcell: Unit cell vectors (Ang):
        4.316130    0.000000    0.000000
       -2.158065    3.737878    0.000000
        0.000000    0.000000   14.651447

outcell: Cell vector modules (Ang)   :    4.316130    4.316130   14.651447
outcell: Cell angles (23,13,12) (deg):     90.0000     90.0000    120.0000
outcell: Cell volume (Ang**3)        :    236.3743
<dSpData1D:S at geom step 0
  <sparsity:sparsity for geom step 0
    nrows_g=22 nrows=2 sparsity=3.4525 nnzs=1671, refcount: 7>
  <dData1D:(new from dSpData1D) n=1671, refcount: 1>
refcount: 1>
new_DM -- step:     1
Initializing Density Matrix...
DM filled with atomic data:
<dSpData2D:DM initialized from atoms
  <sparsity:sparsity for geom step 0
    nrows_g=22 nrows=2 sparsity=3.4525 nnzs=1671, refcount: 8>
  <dData2D:DM n=1671 m=1, refcount: 1>
refcount: 1>
No. of atoms with KB's overlaping orbs in proc 0. Max # of overlaps:     178     169
New grid distribution:   1
           1       1:   20    1:    5    1:   20
           2       1:   20    1:    5   21:   40
           3       1:   20    1:    5   41:   60
           4       1:   20    1:    5   61:   80
           5       1:   20    6:   10    1:   20
           6       1:   20    6:   10   21:   40
           7       1:   20    6:   10   41:   60
           8       1:   20    6:   10   61:   80
           9       1:   20   11:   15    1:   20
          10       1:   20   11:   15   21:   40
          11       1:   20   11:   15   41:   60
          12       1:   20   11:   15   61:   80
          13       1:   20   16:   20    1:   20
          14       1:   20   16:   20   21:   40
          15       1:   20   16:   20   41:   60
          16       1:   20   16:   20   61:   80

InitMesh: MESH =    40 x    40 x   160 =      256000
InitMesh: (bp) =    20 x    20 x    80 =       32000
InitMesh: Mesh cutoff (required, used) =   300.000   316.498 Ry
ExtMesh (bp) on 0 =   156 x   141 x   160 =     3519360
New grid distribution:   2
           1       1:   20    1:   10    1:    9
           2       1:   20    1:   10   19:   29
           3       1:   20    1:   10   52:   62
           4       1:   20    1:   10   72:   80
           5       1:   20    1:   10   10:   18
           6       1:   20    1:   10   30:   40
           7       1:   20    1:   10   41:   51
           8       1:   20    1:   10   63:   71
           9       1:   20   11:   20    1:    9
          10       1:   20   11:   20   19:   29
          11       1:   20   11:   20   52:   62
          12       1:   20   11:   20   72:   80
          13       1:   20   11:   20   10:   18
          14       1:   20   11:   20   30:   40
          15       1:   20   11:   20   41:   51
          16       1:   20   11:   20   63:   71
New grid distribution:   3
           1       1:   20    1:   10   11:   20
           2       1:   20    1:   10   31:   40
           3       1:   20    1:   10   51:   60
           4       1:   20    1:   10   71:   80
           5       1:   20    1:   10    1:   10
           6       1:   20    1:   10   21:   30
           7       1:   20    1:   10   41:   50
           8       1:   20    1:   10   61:   70
           9       1:   20   11:   20   11:   20
          10       1:   20   11:   20   31:   40
          11       1:   20   11:   20   51:   60
          12       1:   20   11:   20   71:   80
          13       1:   20   11:   20    1:   10
          14       1:   20   11:   20   21:   30
          15       1:   20   11:   20   41:   50
          16       1:   20   11:   20   61:   70
Setting up quadratic distribution...
ExtMesh (bp) on 0 =   156 x   146 x   149 =     3393624
PhiOnMesh: Number of (b)points on node 0 =                 1800
PhiOnMesh: nlist on node 0 =               165770

stepf: Fermi-Dirac step function

siesta: Program's energy decomposition (eV):
siesta: Ebs     =       145.414726
siesta: Eions   =       439.895300
siesta: Ena     =       153.534047
siesta: Ekin    =       292.419307
siesta: Enl     =        47.415478
siesta: Eso     =         0.000000
siesta: Edftu   =         0.000000
siesta: DEna    =       -38.907924
siesta: DUscf   =        98.343564
siesta: DUext   =         0.000000
siesta: Exc     =      -225.421105
siesta: eta*DQ  =         0.000000
siesta: Emadel  =         0.000000
siesta: Emeta   =         0.000000
siesta: Emolmec =        -7.437282
siesta: Ekinion =         0.000000
siesta: Eharris =       105.281830
siesta: Etot    =      -119.949216
siesta: FreeEng =      -119.952823

        iscf     Eharris(eV)        E_KS(eV)     FreeEng(eV)     dDmax    Ef(eV) dHmax(eV)
   scf:    1      105.281830     -119.949216     -119.952823  1.846658 -4.428516 52.665167
timer: Routine,Calls,Time,% = IterSCF        1       0.512  14.95
   scf:    2       68.316653     -142.756868     -142.764880 20.914693  1.862654 43.703760
   scf:    3     -209.631977     -183.676282     -183.697385  5.050809 -1.422166 17.494631
   scf:    4     -166.709374     -175.840752     -175.854481  1.424020 -0.021420 25.284660
   scf:    5      878.587087      131.861809      131.853698 19.490933 -2.668858 83.000369
   scf:    6     -132.441027       -8.941130       -8.950448  5.276984 -2.905610 64.915335
   scf:    7     -267.370768     -187.549019     -187.560396  4.929975 -2.549166 14.493900
   scf:    8     -191.523993     -195.813927     -195.828346  6.061651 -1.622648  4.640307
   scf:    9     -196.525384     -196.343573     -196.374009  0.790799 -1.780469  1.898010
   scf:   10     -195.360608     -196.041276     -196.057559  0.888870 -1.925570  3.838583
   scf:   11     -196.357410     -196.218131     -196.245724  0.257766 -1.952246  3.044431
   scf:   12     -191.023101     -195.008589     -195.029324  2.150087 -2.534519  6.600426
   scf:   13     -196.263637     -196.459628     -196.490527  1.899905 -2.187398  0.661654
   scf:   14     -196.415799     -196.446834     -196.474073  0.233594 -2.237840  1.011038
   scf:   15     -196.362645     -196.455796     -196.485628  0.382387 -2.355849  0.840775
   scf:   16     -196.478470     -196.478779     -196.508871  0.180068 -2.315252  0.098872
   scf:   17     -196.477933     -196.478840     -196.509055  0.085162 -2.290613  0.167452
   scf:   18     -196.479964     -196.479581     -196.509817  0.022673 -2.298144  0.056072
   scf:   19     -196.479555     -196.479635     -196.509913  0.013730 -2.302254  0.011908
   scf:   20     -196.479625     -196.479634     -196.509918  0.004659 -2.300884  0.002988
   scf:   21     -196.479628     -196.479631     -196.509918  0.000125 -2.300757  0.003136
   scf:   22     -196.479612     -196.479621     -196.509919  0.001013 -2.300810  0.001305
   scf:   23     -196.479624     -196.479623     -196.509919  0.000334 -2.300756  0.000231

SCF Convergence by FreeE+DM+H criterion
|FreeE_i-FreeE_(i-1)| (eV) <     0.00100000
max |DM_out - DM_in|         :     0.0003339987
max |H_out - H_in|      (eV) :     0.0002305454
SCF cycle converged after 23 iterations

Using DM_out to compute the final energy and forces
No. of atoms with KB's overlaping orbs in proc 0. Max # of overlaps:     178     169

MM-Stress (kbar):      -11.68      -11.68       17.39        0.00        0.00       -0.00

siesta: E_KS(eV) =             -196.4796

siesta: E_KS - E_eggbox =      -196.4796

siesta: Atomic forces (eV/Ang):
     1    0.000000    0.000000    0.000000
     2   -0.291111    0.504200   -0.486338
     3    0.291111   -0.504200    0.486338
     4   -0.291129   -0.504250   -0.486304
     5    0.291129    0.504250    0.486304
     6    0.582206   -0.000009   -0.486338
     7   -0.582206    0.000009    0.486338
     8    0.291111   -0.504200   -0.486338
     9   -0.291111    0.504200    0.486338
    10    0.291129    0.504250   -0.486304
    11   -0.291129   -0.504250    0.486304
    12   -0.582206    0.000009   -0.486338
    13    0.582206   -0.000009    0.486338
    14   -0.381751    0.661165    0.000000
    15    0.381751   -0.661165    0.000000
    16   -0.381761   -0.661229   -0.000000
    17    0.381761    0.661229    0.000000
    18    0.763461   -0.000023    0.000000
    19   -0.763461    0.000023    0.000000
----------------------------------------
   Tot    0.000000   -0.000000    0.000000
----------------------------------------
   Max    0.763461
   Res    0.427218    sqrt( Sum f_i^2 / 3N )
----------------------------------------
   Max    0.763461    constrained

Stress tensor Voigt[x,y,z,yz,xz,xy] (kbar):    -1586.50    -1586.50      186.57        0.00        0.00       -0.00
(Free)E + p*V (eV/cell)      -49.6458
Target enthalpy (eV/cell)     -196.5099

siesta: Eigenvalues (eV):
  ik is       eps
   1  1  -12.6317  -12.5340  -12.0799  -11.0398  -10.9614  -10.9215  -10.5065  -10.3463  -10.2769   -7.9889
          -2.3375   -2.3206   -1.9433   17.4653   17.7651   19.0683   19.2478   19.2937   19.4635   19.7935
   20.2614   20.2741
   2  1  -13.2778  -13.1751  -12.7651  -10.0219   -9.7298   -9.1411   -8.1454   -4.0838   -3.3020   -3.2778
          -2.4287   -2.0372    0.3599    0.5684    1.6831    2.0732   19.6896   21.3400   21.3462   22.3176
   22.7927   22.8845
   3  1  -13.2778  -13.1751  -12.7651  -10.0219   -9.7298   -9.1411   -8.1454   -4.0838   -3.3020   -3.2778
          -2.4287   -2.0372    0.3600    0.5683    1.6831    2.0733   19.6896   21.3400   21.3461   22.3176
   22.7927   22.8845
   4  1  -12.6317  -12.5340  -12.0799  -11.0398  -10.9614  -10.9215  -10.5065  -10.3463  -10.2769   -7.9889
          -2.3375   -2.3206   -1.9434   17.4653   17.7651   19.0683   19.2479   19.2937   19.4635   19.7935
   20.2614   20.2741
   5  1  -13.2778  -13.1751  -12.7651  -10.0219   -9.7298   -9.1411   -8.1454   -4.0838   -3.3020   -3.2778
          -2.4287   -2.0372    0.3599    0.5684    1.6831    2.0732   19.6896   21.3400   21.3462   22.3176
   22.7927   22.8845
   6  1  -13.6792  -13.5198  -13.1266   -9.0405   -3.4357   -2.2894   -2.2893    5.5835    5.5835    6.0864
           6.0864    6.9346    6.9347    7.8796    7.8796    8.0665    8.0666   10.5338   10.5339   23.8473
   24.3411   24.4366
   7  1  -12.5778  -12.2478  -12.1768  -11.7658  -11.7547  -11.4926   -8.5669   -5.2955   -4.6643   -3.9825
          -3.8238   -2.9963   -2.5629   -1.6105   -0.1821    0.0178   18.0604   18.3593   18.4752   18.7608
   19.0133   19.2786
   8  1  -12.6317  -12.5340  -12.0799  -11.0398  -10.9614  -10.9215  -10.5065  -10.3463  -10.2769   -7.9889
          -2.3375   -2.3206   -1.9434   17.4653   17.7651   19.0683   19.2479   19.2937   19.4635   19.7935
   20.2614   20.2741
   9  1  -12.6317  -12.5340  -12.0799  -11.0398  -10.9614  -10.9215  -10.5065  -10.3463  -10.2769   -7.9889
          -2.3375   -2.3206   -1.9434   17.4653   17.7651   19.0683   19.2479   19.2937   19.4635   19.7935
   20.2614   20.2741
  10  1  -12.5778  -12.2478  -12.1768  -11.7658  -11.7547  -11.4926   -8.5669   -5.2955   -4.6643   -3.9825
          -3.8238   -2.9963   -2.5629   -1.6105   -0.1821    0.0178   18.0604   18.3593   18.4752   18.7608
   19.0133   19.2786
  11  1  -12.6317  -12.5340  -12.0799  -11.0398  -10.9614  -10.9215  -10.5065  -10.3463  -10.2769   -7.9889
          -2.3375   -2.3206   -1.9434   17.4653   17.7651   19.0683   19.2479   19.2937   19.4635   19.7935
   20.2614   20.2741
  12  1  -12.5778  -12.2478  -12.1768  -11.7658  -11.7547  -11.4926   -8.5669   -5.2955   -4.6643   -3.9825
          -3.8238   -2.9963   -2.5629   -1.6105   -0.1822    0.0178   18.0604   18.3593   18.4752   18.7608
   19.0132   19.2786
  13  1  -12.6283  -12.5346  -12.0727  -11.0331  -10.9609  -10.9466  -10.4902  -10.3364  -10.2868   -8.0338
          -2.3457   -2.2889   -1.9542   17.5151   17.8502   18.7987   18.9531   19.4655   19.5955   19.8784
   20.2496   20.3258
  14  1  -13.2688  -13.1942  -12.7348  -10.0226   -9.7739   -9.0997   -8.1923   -4.0490   -3.3866   -3.2604
          -2.3245   -2.0522    0.3632    0.5335    1.6643    2.1007   19.7539   20.8700   21.7602   22.3215
   22.7863   22.8919
  15  1  -13.2688  -13.1942  -12.7348  -10.0226   -9.7739   -9.0997   -8.1923   -4.0490   -3.3866   -3.2604
          -2.3245   -2.0521    0.3632    0.5335    1.6644    2.1007   19.7538   20.8699   21.7602   22.3215
   22.7863   22.8919
  16  1  -12.6283  -12.5346  -12.0727  -11.0331  -10.9609  -10.9466  -10.4902  -10.3364  -10.2868   -8.0338
          -2.3456   -2.2889   -1.9543   17.5152   17.8502   18.7987   18.9531   19.4655   19.5955   19.8784
   20.2496   20.3258
  17  1  -13.2688  -13.1942  -12.7348  -10.0226   -9.7739   -9.0997   -8.1923   -4.0490   -3.3866   -3.2604
          -2.3245   -2.0522    0.3632    0.5335    1.6643    2.1007   19.7539   20.8700   21.7602   22.3215
   22.7863   22.8919
  18  1  -13.6673  -13.5530  -13.0788   -9.0984   -3.3810   -2.2889   -2.2889    5.4428    5.4428    6.1687
           6.1687    7.2867    7.2867    7.3279    7.3279    8.5805    8.5805   10.2836   10.2837   23.8476
   24.3209   24.4569
  19  1  -13.2688  -13.1942  -12.7348  -10.0226   -9.7739   -9.0997   -8.1923   -4.0490   -3.3866   -3.2604
          -2.3245   -2.0522    0.3632    0.5335    1.6643    2.1007   19.7539   20.8700   21.7602   22.3215
   22.7863   22.8919
  20  1  -12.5711  -12.2488  -12.1773  -11.7652  -11.7518  -11.5016   -8.6086   -5.2326   -4.8125   -3.8774
          -3.8454   -2.8618   -2.5939   -1.7650   -0.2064    0.1047   18.0211   18.3229   18.5639   18.8442
   18.9633   19.2310
  21  1  -13.2688  -13.1942  -12.7348  -10.0226   -9.7739   -9.0997   -8.1923   -4.0490   -3.3866   -3.2604
          -2.3245   -2.0521    0.3632    0.5335    1.6644    2.1007   19.7538   20.8699   21.7602   22.3215
   22.7863   22.8919
  22  1  -13.2688  -13.1942  -12.7348  -10.0226   -9.7739   -9.0997   -8.1923   -4.0490   -3.3866   -3.2604
          -2.3245   -2.0522    0.3632    0.5335    1.6643    2.1007   19.7539   20.8700   21.7602   22.3215
   22.7863   22.8919
  23  1  -12.6283  -12.5346  -12.0727  -11.0331  -10.9609  -10.9466  -10.4902  -10.3364  -10.2868   -8.0338
          -2.3457   -2.2889   -1.9542   17.5151   17.8502   18.7987   18.9531   19.4655   19.5955   19.8784
   20.2496   20.3258
  24  1  -12.6283  -12.5346  -12.0727  -11.0331  -10.9609  -10.9466  -10.4902  -10.3364  -10.2868   -8.0338
          -2.3456   -2.2889   -1.9543   17.5152   17.8502   18.7987   18.9531   19.4655   19.5955   19.8784
   20.2496   20.3258
  25  1  -12.6283  -12.5346  -12.0727  -11.0331  -10.9609  -10.9466  -10.4902  -10.3364  -10.2868   -8.0338
          -2.3456   -2.2889   -1.9543   17.5152   17.8502   18.7987   18.9531   19.4655   19.5955   19.8784
   20.2496   20.3258
  26  1  -12.5711  -12.2488  -12.1773  -11.7652  -11.7518  -11.5016   -8.6086   -5.2326   -4.8125   -3.8774
          -3.8454   -2.8618   -2.5939   -1.7650   -0.2064    0.1047   18.0211   18.3229   18.5639   18.8442
   18.9633   19.2310
  27  1  -12.6283  -12.5346  -12.0727  -11.0331  -10.9609  -10.9466  -10.4902  -10.3364  -10.2868   -8.0338
          -2.3456   -2.2889   -1.9543   17.5152   17.8502   18.7987   18.9531   19.4655   19.5955   19.8784
   20.2496   20.3258
  28  1  -12.5710  -12.2488  -12.1773  -11.7652  -11.7518  -11.5016   -8.6086   -5.2326   -4.8124   -3.8774
          -3.8454   -2.8617   -2.5938   -1.7650   -0.2065    0.1048   18.0211   18.3229   18.5639   18.8442
   18.9633   19.2310
  29  1  -12.6248  -12.5351  -12.0651  -11.0194  -10.9783  -10.9605  -10.4743  -10.3159  -10.3074   -8.0789
          -2.3678   -2.2434   -1.9652   17.5738   17.9685   18.6284   18.7014   19.5751   19.6218   19.9409
   20.2449   20.3766
  30  1  -13.2531  -13.2189  -12.7047  -10.0246   -9.8144   -9.0601   -8.2404   -4.0054   -3.4902   -3.2186
          -2.2331   -2.0676    0.3666    0.4976    1.6472    2.1268   19.8394   20.6277   21.9239   22.3264
   22.7803   22.8993
  31  1  -13.2531  -13.2189  -12.7047  -10.0246   -9.8144   -9.0601   -8.2404   -4.0054   -3.4902   -3.2186
          -2.2331   -2.0675    0.3666    0.4975    1.6472    2.1269   19.8393   20.6277   21.9239   22.3264
   22.7803   22.8993
  32  1  -12.6248  -12.5351  -12.0651  -11.0194  -10.9783  -10.9605  -10.4743  -10.3159  -10.3074   -8.0789
          -2.3677   -2.2434   -1.9653   17.5739   17.9685   18.6284   18.7014   19.5751   19.6218   19.9409
   20.2449   20.3766
  33  1  -13.2531  -13.2189  -12.7047  -10.0246   -9.8144   -9.0601   -8.2404   -4.0054   -3.4902   -3.2186
          -2.2331   -2.0676    0.3666    0.4976    1.6472    2.1268   19.8394   20.6277   21.9239   22.3264
   22.7803   22.8993
  34  1  -13.6469  -13.5910  -13.0336   -9.1574   -3.3258   -2.2885   -2.2884    5.3363    5.3363    6.2898
           6.2899    7.0017    7.0018    7.6574    7.6574    8.8303    8.8304    9.9804    9.9805   23.8479
   24.3054   24.4724
  35  1  -13.2531  -13.2189  -12.7047  -10.0246   -9.8144   -9.0601   -8.2404   -4.0054   -3.4902   -3.2186
          -2.2331   -2.0676    0.3666    0.4976    1.6472    2.1268   19.8394   20.6277   21.9239   22.3264
   22.7803   22.8993
  36  1  -12.5642  -12.2498  -12.1777  -11.7644  -11.7489  -11.5108   -8.6507   -5.0675   -5.0430   -3.8620
          -3.7917   -2.7004   -2.6250   -1.9431   -0.2311    0.1836   17.9897   18.2937   18.6725   18.8855
   18.9459   19.1580
  37  1  -13.2531  -13.2189  -12.7047  -10.0246   -9.8144   -9.0601   -8.2404   -4.0054   -3.4902   -3.2186
          -2.2331   -2.0675    0.3666    0.4975    1.6472    2.1269   19.8393   20.6277   21.9239   22.3264
   22.7803   22.8993
  38  1  -13.2531  -13.2189  -12.7047  -10.0246   -9.8144   -9.0601   -8.2404   -4.0054   -3.4902   -3.2186
          -2.2331   -2.0676    0.3666    0.4976    1.6472    2.1268   19.8394   20.6277   21.9239   22.3264
   22.7803   22.8993
  39  1  -12.6248  -12.5351  -12.0651  -11.0194  -10.9783  -10.9605  -10.4743  -10.3159  -10.3074   -8.0789
          -2.3678   -2.2434   -1.9652   17.5738   17.9685   18.6284   18.7014   19.5751   19.6218   19.9409
   20.2449   20.3766
  40  1  -12.6248  -12.5351  -12.0651  -11.0194  -10.9783  -10.9605  -10.4743  -10.3159  -10.3074   -8.0789
          -2.3677   -2.2434   -1.9653   17.5739   17.9685   18.6284   18.7014   19.5751   19.6218   19.9409
   20.2449   20.3766
  41  1  -12.6248  -12.5351  -12.0651  -11.0194  -10.9783  -10.9605  -10.4743  -10.3159  -10.3074   -8.0789
          -2.3677   -2.2434   -1.9653   17.5739   17.9685   18.6284   18.7014   19.5751   19.6218   19.9409
   20.2449   20.3766
  42  1  -12.5642  -12.2498  -12.1777  -11.7644  -11.7489  -11.5108   -8.6507   -5.0675   -5.0430   -3.8620
          -3.7917   -2.7004   -2.6250   -1.9431   -0.2311    0.1836   17.9897   18.2937   18.6725   18.8855
   18.9459   19.1580
  43  1  -12.6248  -12.5351  -12.0651  -11.0194  -10.9783  -10.9605  -10.4743  -10.3159  -10.3074   -8.0789
          -2.3677   -2.2434   -1.9653   17.5739   17.9685   18.6284   18.7014   19.5751   19.6218   19.9409
   20.2449   20.3766
  44  1  -12.5641  -12.2498  -12.1777  -11.7645  -11.7488  -11.5108   -8.6507   -5.0675   -5.0430   -3.8620
          -3.7917   -2.7003   -2.6249   -1.9431   -0.2312    0.1836   17.9897   18.2937   18.6725   18.8855
   18.9459   19.1581
siesta: Fermi energy =      -2.300756 eV

siesta: Program's energy decomposition (eV):
siesta: Ebs     =      -196.275474
siesta: Eions   =       439.895300
siesta: Ena     =       153.534047
siesta: Ekin    =       224.760081
siesta: Enl     =        74.935809
siesta: Eso     =         0.000000
siesta: Edftu   =         0.000000
siesta: DEna    =        -1.472886
siesta: DUscf   =         2.840600
siesta: DUext   =         0.000000
siesta: Exc     =      -203.744691
siesta: eta*DQ  =         0.000000
siesta: Emadel  =         0.000000
siesta: Emeta   =         0.000000
siesta: Emolmec =        -7.437282
siesta: Ekinion =         0.000000
siesta: Eharris =      -196.479624
siesta: Etot    =      -196.479623
siesta: FreeEng =      -196.509919

siesta: Final energy (eV):
siesta:  Band Struct. =    -196.275474
siesta:       Kinetic =     224.760081
siesta:       Hartree =     142.415418
siesta:       Edftu   =       0.000000
siesta:       Eso     =       0.000000
siesta:    Ext. field =       0.000000
siesta:   Exch.-corr. =    -203.744691
siesta:  Ion-electron =    -501.782471
siesta:       Ion-ion =     149.309322
siesta:       Ekinion =       0.000000
siesta:         Total =    -196.479623
siesta:         Fermi =      -2.300756

siesta: Atomic forces (eV/Ang):
siesta:      1    0.000000    0.000000    0.000000
siesta:      2   -0.291111    0.504200   -0.486338
siesta:      3    0.291111   -0.504200    0.486338
siesta:      4   -0.291129   -0.504250   -0.486304
siesta:      5    0.291129    0.504250    0.486304
siesta:      6    0.582206   -0.000009   -0.486338
siesta:      7   -0.582206    0.000009    0.486338
siesta:      8    0.291111   -0.504200   -0.486338
siesta:      9   -0.291111    0.504200    0.486338
siesta:     10    0.291129    0.504250   -0.486304
siesta:     11   -0.291129   -0.504250    0.486304
siesta:     12   -0.582206    0.000009   -0.486338
siesta:     13    0.582206   -0.000009    0.486338
siesta:     14   -0.381751    0.661165    0.000000
siesta:     15    0.381751   -0.661165    0.000000
siesta:     16   -0.381761   -0.661229   -0.000000
siesta:     17    0.381761    0.661229    0.000000
siesta:     18    0.763461   -0.000023    0.000000
siesta:     19   -0.763461    0.000023    0.000000
siesta: ----------------------------------------
siesta:    Tot    0.000000   -0.000000    0.000000

siesta: Stress tensor (static) (eV/Ang**3):
siesta:    -0.990204   -0.000002    0.000000
siesta:    -0.000002   -0.990206    0.000000
siesta:     0.000000    0.000000    0.116449

siesta: Cell volume =        236.374260 Ang**3

siesta: Pressure (static):
siesta:                Solid            Molecule  Units
siesta:           0.00676697          0.00646288  Ry/Bohr**3
siesta:           0.62132009          0.59339936  eV/Ang**3
siesta:         995.47529651        950.74086597  kBar
(Free)E+ p_basis*V_orbitals  =        -172.514207
(Free)Eharris+ p_basis*V_orbitals  =        -172.514208

cite: Please see "LiC18_scf.bib" for an exhaustive BiBTeX file.
cite: Please clearly indicate Siesta version in published work: 4.1.5
cite: This calculation has made use of the following articles
cite: which are encouraged to be cited in a published work.
        Primary SIESTA paper
          DOI: www.doi.org/10.1088/0953-8984/14/11/302

>> End of run:   9-NOV-2022  15:15:49
Job completed
