Siesta Version  : 4.1.5
Architecture    : x86_64-unknown-linux-gnu--unknown
Compiler version: GNU Fortran (GCC) 11.3.0
Compiler flags  : mpif90 -g -O2 -fallow-argument-mismatch
PP flags        : -DMPI -DFC_HAVE_FLUSH -DFC_HAVE_ABORT
Libraries       :  -I/global/software/sl-7.x86_64/modules/intel/2020.4.304/mkl/include  /globall/software/sl-7.x86_64/modules/intel/2020.4.304/mkl/lib/intel64/libmkl_scalapack_lp64.a -Wl,--start-group /global/software/sl-7.x86_64/modules/intel/2020.4.304/mkl/lib/intel64/libmkl_intel_lp64.a /global/software/sl-7.x86_64/modules/intel/2020.4.304/mkl/lib/intel64/libmkl_sequential.a /global/software/sl-7.x86_64/modules/intel/2020.4.304/mkl/lib/intel64/libmkl_core.a /global/software/sl-7.x86_64/modules/intel/2020.4.304/mkl/lib/intel64/libmkl_blacs_openmpi_lp64.a -Wl,--end-group -lpthread -lm -ldl
PARALLEL version

* Running on 16 nodes in parallel
>> Start of run:   9-NOV-2022  15:14:44

                           ***********************       
                           *  WELCOME TO SIESTA  *       
                           ***********************       

reinit: Reading from standard input
reinit: Dumped input in INPUT_TMP.59347
************************** Dump of input data file ****************************
SystemName LiC18_scf
SystemLabel LiC18_scf
NumberOfAtoms   19
NumberOfSpecies 2
%block ChemicalSpeciesLabel
1  3   Li-gga
2  6   C-gga
%endblock ChemicalSpeciesLabel
PAO.BasisSize  SZ
PAO.EnergyShift  10 meV
%block PS.Lmax
C-gga   2
Li-gga  2
%endblock PS.Lmax
LatticeConstant 1.000000 Ang
%block LatticeVectors
	4.3161300000	0.0000000000	0.0000000000
	-2.1580650000	3.7378782260	0.0000000000
	0.0000000000	0.0000000000	13.5414888200
%endblock LatticeVectors
AtomicCoordinatesFormat Ang
%block AtomicCoordinatesAndAtomicSpecies
	0.00000000	0.00000000	0.00000000	2
	-0.70288177	1.21742694	2.25691932	1
	-1.45518323	2.52045129	11.28456950	1
	1.45518323	2.52045129	2.25691932	1
	0.70288177	1.21742694	11.28456950	1
	1.40576354	0.00000000	2.25691932	1
	2.91036646	0.00000000	11.28456950	1
	-1.45518323	2.52045129	2.25691932	1
	-0.70288177	1.21742694	11.28456950	1
	0.70288177	1.21742694	2.25691932	1
	1.45518323	2.52045129	11.28456950	1
	2.91036646	0.00000000	2.25691932	1
	1.40576354	0.00000000	11.28456950	1
	-0.70288177	1.21742694	6.77074441	1
	-1.45518323	2.52045129	6.77074441	1
	1.45518323	2.52045129	6.77074441	1
	0.70288177	1.21742694	6.77074441	1
	1.40576354	0.00000000	6.77074441	1
	2.91036646	0.00000000	6.77074441	1
%endblock AtomicCoordinatesAndAtomicSpecies
Kgrid_NoTRS  T
%block kgrid_MonkhorstPack
4       0       0       0.0
0       4       0       0.0
0       0       4       0.0
%endblock kgrid_MonkhorstPack
AtomCoorFormatOut Ang
BlockSize 1
#ProcessorY 12
Diag.ParallelOverK   T
Diag.DivideAndConquer F
MeshCutoff   300 Ry
SCF.FreeE.Tolerance 1E-3 eV
SCF.EDM.Tolerance   5E-3 eV
DM.Tolerance  1E-3
DM.Require.Energy.Convergence T
DM.NumberPulay 4
XC.Functional GGA
XC.Authors    PBE
UseSaveData        F
MD.TypeOfRun       CG
MD.VariableCell    F
MD.NumCGsteps      00
MD.MaxCGDispl      0.200000 Bohr
MD.MaxStressTol    1.000000 GPa
MD.MaxForceTol     0.010000 eV/Ang
WriteMDHistory T
WriteCoorStep T
WriteForces T
WriteCoorStep    T
WriteEigenValues T
WriteDM    F
MM.UnitsDistance Ang  # what this program prints out DO NOT CHANGE
MM.UnitsEnergy    eV  # what this program prints out DO NOT CHANGE
MM.Grimme.S6     0.75 # Grimme-paper for PBE (correct for your functional)
MM.Grimme.D     20.   # Grimme-paper (correct for your functional)
%block MM.Potentials
  1   1 Grimme     16.69      1.650 # Li, 10.1002/jcc.20495
  1   2 Grimme     17.40      2.277 # Li / C
  2   2 Grimme     18.14      2.904 # C, 10.1002/jcc.20495
%endblock MM.Potentials
#%block ProjectedDensityOfStates
# -200.0  120.0  0.4  12800  eV
#%endblock ProjectedDensityOfStates
************************** End of input data file *****************************

reinit: -----------------------------------------------------------------------
reinit: System Name: LiC18_scf
reinit: -----------------------------------------------------------------------
reinit: System Label: LiC18_scf
reinit: -----------------------------------------------------------------------
Reading two-body potentials
Grimme - two-body potential between 1 and 1
Grimme - two-body potential between 1 and 2
Grimme - two-body potential between 2 and 2

initatom: Reading input for the pseudopotentials and atomic orbitals ----------
Species number:   1 Atomic number:    3 Label: Li-gga
Species number:   2 Atomic number:    6 Label: C-gga

Ground state valence configuration:   2s01
Reading pseudopotential information in formatted form from Li-gga.psf

Valence configuration for pseudopotential generation:
2s( 1.00) rc: 2.28
2p( 0.00) rc: 2.28
3d( 0.00) rc: 2.59
4f( 0.00) rc: 2.59
Ground state valence configuration:   2s02  2p02
Reading pseudopotential information in formatted form from C-gga.psf

Valence configuration for pseudopotential generation:
2s( 2.00) rc: 1.56
2p( 2.00) rc: 1.56
3d( 0.00) rc: 1.56
4f( 0.00) rc: 1.56
relmxkb: Read Max KB Ang. Momentum=    2 for species C-gga
relmxkb: Read Max KB Ang. Momentum=    2 for species Li-gga

<basis_specs>
===============================================================================
Li-gga               Z=   3    Mass=  6.9400        Charge= 0.17977+309
Lmxo=0 Lmxkb= 2    BasisType=split      Semic=F
L=0  Nsemic=0  Cnfigmx=2
          i=1  nzeta=1  polorb=0  (2s)
            splnorm:   0.15000    
               vcte:    0.0000    
               rinn:    0.0000    
               qcoe:    0.0000    
               qyuk:    0.0000    
               qwid:   0.10000E-01
                rcs:    0.0000    
            lambdas:    1.0000    
-------------------------------------------------------------------------------
L=0  Nkbl=1  erefs: 0.17977+309
L=1  Nkbl=1  erefs: 0.17977+309
L=2  Nkbl=1  erefs: 0.17977+309
===============================================================================
</basis_specs>

atom: Called for Li-gga                (Z =   3)

read_vps: Pseudopotential generation method:
read_vps: ATM 3.2.2 Troullier-Martins                       
Valence charge for ps generation:    1.00000

read_vps: Pseudopotential includes a core correction:
read_vps: Pseudo-core for xc-correction

xc_check: Exchange-correlation functional:
xc_check: GGA Perdew, Burke & Ernzerhof 1996
V l=0 = -2*Zval/r beyond r=  2.2278
V l=1 = -2*Zval/r beyond r=  2.2278
V l=2 = -2*Zval/r beyond r=  2.5245
All V_l potentials equal beyond r=  2.4622
This should be close to max(r_c) in ps generation
All pots = -2*Zval/r beyond r=  2.5245

VLOCAL1: 99.0% of the norm of Vloc inside      7.160 Ry
VLOCAL1: 99.9% of the norm of Vloc inside     16.318 Ry
atom: Maximum radius for 4*pi*r*r*local-pseudopot. charge    2.86079
atom: Maximum radius for r*vlocal+2*Zval:    2.43160
GHOST: No ghost state for L =  0
GHOST: No ghost state for L =  1
GHOST: No ghost state for L =  2

KBgen: Kleinman-Bylander projectors: 
   l= 0   rc=  2.654023   el= -0.211234   Ekb=  1.742119   kbcos=  0.228463
   l= 1   rc=  2.721230   el= -0.080095   Ekb= -1.122375   kbcos= -0.147941
   l= 2   rc=  2.825246   el=  0.002001   Ekb= -0.207076   kbcos= -0.031965

KBgen: Total number of Kleinman-Bylander projectors:    9
atom: -------------------------------------------------------------------------

atom: SANKEY-TYPE ORBITALS:

SPLIT: Orbitals with angular momentum L= 0

SPLIT: Basis orbitals for state 2s

SPLIT: PAO cut-off radius determined from an
SPLIT: energy shift=  0.000735 Ry

   izeta = 1
                 lambda =    1.000000
                     rc =   11.897381
                 energy =   -0.210580
                kinetic =    0.143382
    potential(screened) =   -0.353962
       potential(ionic) =   -0.533453
atom: Total number of Sankey-type orbitals:  1

atm_pop: Valence configuration (for local Pseudopot. screening):
 2s( 1.00)                                                            
Vna: chval, zval:    1.00000   1.00000

Vna:  Cut-off radius for the neutral-atom potential:  11.897381
comcore: Pseudo-core radius Rcore=  3.450946

atom: _________________________________________________________________________

<basis_specs>
===============================================================================
C-gga                Z=   6    Mass=  12.010        Charge= 0.17977+309
Lmxo=1 Lmxkb= 2    BasisType=split      Semic=F
L=0  Nsemic=0  Cnfigmx=2
          i=1  nzeta=1  polorb=0  (2s)
            splnorm:   0.15000    
               vcte:    0.0000    
               rinn:    0.0000    
               qcoe:    0.0000    
               qyuk:    0.0000    
               qwid:   0.10000E-01
                rcs:    0.0000    
            lambdas:    1.0000    
L=1  Nsemic=0  Cnfigmx=2
          i=1  nzeta=1  polorb=0  (2p)
            splnorm:   0.15000    
               vcte:    0.0000    
               rinn:    0.0000    
               qcoe:    0.0000    
               qyuk:    0.0000    
               qwid:   0.10000E-01
                rcs:    0.0000    
            lambdas:    1.0000    
-------------------------------------------------------------------------------
L=0  Nkbl=1  erefs: 0.17977+309
L=1  Nkbl=1  erefs: 0.17977+309
L=2  Nkbl=1  erefs: 0.17977+309
===============================================================================
</basis_specs>

atom: Called for C-gga                 (Z =   6)

read_vps: Pseudopotential generation method:
read_vps: ATM 3.2.2 Troullier-Martins                       
Valence charge for ps generation:    4.00000

xc_check: Exchange-correlation functional:
xc_check: GGA Perdew, Burke & Ernzerhof 1996
V l=0 = -2*Zval/r beyond r=  1.5227
V l=1 = -2*Zval/r beyond r=  1.5227
V l=2 = -2*Zval/r beyond r=  1.5227
All V_l potentials equal beyond r=  1.4851
This should be close to max(r_c) in ps generation
All pots = -2*Zval/r beyond r=  1.5227

VLOCAL1: 99.0% of the norm of Vloc inside     19.682 Ry
VLOCAL1: 99.9% of the norm of Vloc inside     44.856 Ry
atom: Maximum radius for 4*pi*r*r*local-pseudopot. charge    1.79142
atom: Maximum radius for r*vlocal+2*Zval:    1.54183
GHOST: No ghost state for L =  0
GHOST: No ghost state for L =  1
GHOST: No ghost state for L =  2

KBgen: Kleinman-Bylander projectors: 
   l= 0   rc=  1.661951   el= -1.010689   Ekb=  5.289847   kbcos=  0.316429
   l= 1   rc=  1.661951   el= -0.388490   Ekb= -4.102504   kbcos= -0.351025
   l= 2   rc=  1.747182   el=  0.001971   Ekb= -1.006005   kbcos= -0.008530

KBgen: Total number of Kleinman-Bylander projectors:    9
atom: -------------------------------------------------------------------------

atom: SANKEY-TYPE ORBITALS:

SPLIT: Orbitals with angular momentum L= 0

SPLIT: Basis orbitals for state 2s

SPLIT: PAO cut-off radius determined from an
SPLIT: energy shift=  0.000735 Ry

   izeta = 1
                 lambda =    1.000000
                     rc =    5.948690
                 energy =   -1.010099
                kinetic =    0.827121
    potential(screened) =   -1.837220
       potential(ionic) =   -5.392783

SPLIT: Orbitals with angular momentum L= 1

SPLIT: Basis orbitals for state 2p

SPLIT: PAO cut-off radius determined from an
SPLIT: energy shift=  0.000735 Ry

   izeta = 1
                 lambda =    1.000000
                     rc =    7.638387
                 energy =   -0.387843
                kinetic =    2.314739
    potential(screened) =   -2.702582
       potential(ionic) =   -6.092371
atom: Total number of Sankey-type orbitals:  4

atm_pop: Valence configuration (for local Pseudopot. screening):
 2s( 2.00)                                                            
 2p( 2.00)                                                            
Vna: chval, zval:    4.00000   4.00000

Vna:  Cut-off radius for the neutral-atom potential:   7.638387

atom: _________________________________________________________________________

prinput: Basis input ----------------------------------------------------------

PAO.BasisType split     

%block ChemicalSpeciesLabel
    1    3 Li-gga                  # Species index, atomic number, species label
    2    6 C-gga                   # Species index, atomic number, species label
%endblock ChemicalSpeciesLabel

%block PAO.Basis                 # Define Basis set
Li-gga                1                    # Species label, number of l-shells
 n=2   0   1                         # n, l, Nzeta 
  11.897   
   1.000   
C-gga                 2                    # Species label, number of l-shells
 n=2   0   1                         # n, l, Nzeta 
   5.949   
   1.000   
 n=2   1   1                         # n, l, Nzeta 
   7.638   
   1.000   
%endblock PAO.Basis

prinput: ----------------------------------------------------------------------

coor:   Atomic-coordinates input format  =     Cartesian coordinates
coor:                                          (in Angstroms)

siesta: Atomic coordinates (Bohr) and species
siesta:      0.00000   0.00000   0.00000  2        1
siesta:     -1.32825   2.30060   4.26496  1        2
siesta:     -2.74990   4.76296  21.32475  1        3
siesta:      2.74990   4.76296   4.26496  1        4
siesta:      1.32825   2.30060  21.32475  1        5
siesta:      2.65651   0.00000   4.26496  1        6
siesta:      5.49980   0.00000  21.32475  1        7
siesta:     -2.74990   4.76296   4.26496  1        8
siesta:     -1.32825   2.30060  21.32475  1        9
siesta:      1.32825   2.30060   4.26496  1       10
siesta:      2.74990   4.76296  21.32475  1       11
siesta:      5.49980   0.00000   4.26496  1       12
siesta:      2.65651   0.00000  21.32475  1       13
siesta:     -1.32825   2.30060  12.79486  1       14
siesta:     -2.74990   4.76296  12.79486  1       15
siesta:      2.74990   4.76296  12.79486  1       16
siesta:      1.32825   2.30060  12.79486  1       17
siesta:      2.65651   0.00000  12.79486  1       18
siesta:      5.49980   0.00000  12.79486  1       19

siesta: System type = bulk      

initatomlists: Number of atoms, orbitals, and projectors:     19    22   171

siesta: ******************** Simulation parameters ****************************
siesta:
siesta: The following are some of the parameters of the simulation.
siesta: A complete list of the parameters used, including default values,
siesta: can be found in file out.fdf
siesta:
redata: Spin configuration                          = none
redata: Number of spin components                   = 1
redata: Time-Reversal Symmetry                      = T
redata: Spin spiral                                 = F
redata: Long output                                 =   F
redata: Number of Atomic Species                    =        2
redata: Charge density info will appear in .RHO file
redata: Write Mulliken Pop.                         = NO
redata: Matel table size (NRTAB)                    =     1024
redata: Mesh Cutoff                                 =   300.0000 Ry
redata: Net charge of the system                    =     0.0000 |e|
redata: Min. number of SCF Iter                     =        0
redata: Max. number of SCF Iter                     =     1000
redata: SCF convergence failure will abort job
redata: SCF mix quantity                            = Hamiltonian
redata: Mix DM or H after convergence               =   F
redata: Recompute H after scf cycle                 =   F
redata: Mix DM in first SCF step                    =   T
redata: Write Pulay info on disk                    =   F
redata: New DM Occupancy tolerance                  = 0.000000000001
redata: No kicks to SCF
redata: DM Mixing Weight for Kicks                  =     0.5000
redata: Require Harris convergence for SCF          =   F
redata: Harris energy tolerance for SCF             =     0.000100 eV
redata: Require DM convergence for SCF              =   T
redata: DM tolerance for SCF                        =     0.001000
redata: Require EDM convergence for SCF             =   F
redata: EDM tolerance for SCF                       =     0.005000 eV
redata: Require H convergence for SCF               =   T
redata: Hamiltonian tolerance for SCF               =     0.001000 eV
redata: Require (free) Energy convergence for SCF   =   T
redata: (free) Energy tolerance for SCF             =     0.001000 eV
redata: Using Saved Data (generic)                  =   F
redata: Use continuation files for DM               =   F
redata: Neglect nonoverlap interactions             =   F
redata: Method of Calculation                       = Diagonalization
redata: Electronic Temperature                      =   299.9869 K
redata: Fix the spin of the system                  =   F
redata: Dynamics option                             = Single-point calculation
mix.SCF: Pulay mixing                            = Pulay
mix.SCF:    Variant                              = stable
mix.SCF:    History steps                        = 4
mix.SCF:    Linear mixing weight                 =     0.250000
mix.SCF:    Mixing weight                        =     0.250000
mix.SCF:    SVD condition                        = 0.1000E-07
redata: ***********************************************************************

%block SCF.Mixers
  Pulay
%endblock SCF.Mixers

%block SCF.Mixer.Pulay
  # Mixing method
  method pulay
  variant stable

  # Mixing options
  weight 0.2500
  weight.linear 0.2500
  history 4
%endblock SCF.Mixer.Pulay

DM_history_depth set to one: no extrapolation allowed by default for geometry relaxation
Size of DM history Fstack: 1
Total number of electrons:    22.000000
Total ionic charge:    22.000000

* ProcessorY, Blocksize:    4   1


* Orbital distribution balance (max,min):     2     1

k-point displ. along   1 input, could be:     0.00    0.50
k-point displ. along   2 input, could be:     0.00    0.50
k-point displ. along   3 input, could be:     0.00    0.50
 Kpoints in:           48 . Kpoints trimmed:           44

siesta: k-grid: Number of k-points =    44
siesta: k-grid: Cutoff (effective) =     8.632 Ang
siesta: k-grid: Supercell and displacements
siesta: k-grid:    4   0   0      0.000
siesta: k-grid:    0   4   0      0.000
siesta: k-grid:    0   0   4      0.000

diag: Algorithm                                     = Expert
diag: Parallel over k                               =   T
diag: Use parallel 2D distribution                  =   T
diag: Parallel block-size                           = 1
diag: Parallel distribution                         =     4 x     4
diag: Used triangular part                          = Lower
diag: Absolute tolerance                            =  0.100E-15
diag: Orthogonalization factor                      =  0.100E-05
diag: Memory factor                                 =  1.0000

superc: Internal auxiliary supercell:     9 x     9 x     3  =     243
superc: Number of atoms, orbitals, and projectors:   4617   5346  41553


ts: **************************************************************
ts: Save H and S matrices                           =    F
ts: Save DM and EDM matrices                        =    F
ts: Only save the overlap matrix S                  =    F
ts: **************************************************************

************************ Begin: TS CHECKS AND WARNINGS ************************
************************ End: TS CHECKS AND WARNINGS **************************


                     ====================================
                        Single-point calculation
                     ====================================

outcoor: Atomic coordinates (Ang):                          
    0.00000000    0.00000000    0.00000000   2       1  C-gga
   -0.70288177    1.21742694    2.25691932   1       2  Li-gga
   -1.45518323    2.52045129   11.28456950   1       3  Li-gga
    1.45518323    2.52045129    2.25691932   1       4  Li-gga
    0.70288177    1.21742694   11.28456950   1       5  Li-gga
    1.40576354    0.00000000    2.25691932   1       6  Li-gga
    2.91036646    0.00000000   11.28456950   1       7  Li-gga
   -1.45518323    2.52045129    2.25691932   1       8  Li-gga
   -0.70288177    1.21742694   11.28456950   1       9  Li-gga
    0.70288177    1.21742694    2.25691932   1      10  Li-gga
    1.45518323    2.52045129   11.28456950   1      11  Li-gga
    2.91036646    0.00000000    2.25691932   1      12  Li-gga
    1.40576354    0.00000000   11.28456950   1      13  Li-gga
   -0.70288177    1.21742694    6.77074441   1      14  Li-gga
   -1.45518323    2.52045129    6.77074441   1      15  Li-gga
    1.45518323    2.52045129    6.77074441   1      16  Li-gga
    0.70288177    1.21742694    6.77074441   1      17  Li-gga
    1.40576354    0.00000000    6.77074441   1      18  Li-gga
    2.91036646    0.00000000    6.77074441   1      19  Li-gga

superc: Internal auxiliary supercell:     9 x     9 x     3  =     243
superc: Number of atoms, orbitals, and projectors:   4617   5346  41553

outcell: Unit cell vectors (Ang):
        4.316130    0.000000    0.000000
       -2.158065    3.737878    0.000000
        0.000000    0.000000   13.541489

outcell: Cell vector modules (Ang)   :    4.316130    4.316130   13.541489
outcell: Cell angles (23,13,12) (deg):     90.0000     90.0000    120.0000
outcell: Cell volume (Ang**3)        :    218.4671
<dSpData1D:S at geom step 0
  <sparsity:sparsity for geom step 0
    nrows_g=22 nrows=2 sparsity=3.7335 nnzs=1807, refcount: 7>
  <dData1D:(new from dSpData1D) n=1807, refcount: 1>
refcount: 1>
new_DM -- step:     1
Initializing Density Matrix...
DM filled with atomic data:
<dSpData2D:DM initialized from atoms
  <sparsity:sparsity for geom step 0
    nrows_g=22 nrows=2 sparsity=3.7335 nnzs=1807, refcount: 8>
  <dData2D:DM n=1807 m=1, refcount: 1>
refcount: 1>
No. of atoms with KB's overlaping orbs in proc 0. Max # of overlaps:     191     181
New grid distribution:   1
           1       1:   20    1:    5    1:   18
           2       1:   20    1:    5   19:   36
           3       1:   20    1:    5   37:   54
           4       1:   20    1:    5   55:   72
           5       1:   20    6:   10    1:   18
           6       1:   20    6:   10   19:   36
           7       1:   20    6:   10   37:   54
           8       1:   20    6:   10   55:   72
           9       1:   20   11:   15    1:   18
          10       1:   20   11:   15   19:   36
          11       1:   20   11:   15   37:   54
          12       1:   20   11:   15   55:   72
          13       1:   20   16:   20    1:   18
          14       1:   20   16:   20   19:   36
          15       1:   20   16:   20   37:   54
          16       1:   20   16:   20   55:   72

InitMesh: MESH =    40 x    40 x   144 =      230400
InitMesh: (bp) =    20 x    20 x    72 =       28800
InitMesh: Mesh cutoff (required, used) =   300.000   312.532 Ry
ExtMesh (bp) on 0 =   156 x   141 x   154 =     3387384
New grid distribution:   2
           1      11:   20    1:   10    1:   16
           2      11:   20    1:   10   17:   36
           3       1:   10    1:   10   37:   56
           4       1:   10    1:   10   57:   72
           5       1:   10    1:   10    1:   16
           6       1:   10    1:   10   17:   36
           7      11:   20    1:   10   37:   56
           8      11:   20    1:   10   57:   72
           9      11:   20   11:   20    1:   16
          10      11:   20   11:   20   17:   36
          11       1:   10   11:   20   37:   56
          12       1:   10   11:   20   57:   72
          13       1:   10   11:   20    1:   16
          14       1:   10   11:   20   17:   36
          15      11:   20   11:   20   37:   56
          16      11:   20   11:   20   57:   72
New grid distribution:   3
           1       1:   10    1:   10    1:   18
           2       1:   10    1:   10   19:   36
           3       1:   10    1:   10   37:   54
           4       1:   10    1:   10   55:   72
           5      11:   20    1:   10    1:   18
           6      11:   20    1:   10   19:   36
           7      11:   20    1:   10   37:   54
           8      11:   20    1:   10   55:   72
           9       1:   10   11:   20    1:   18
          10       1:   10   11:   20   19:   36
          11       1:   10   11:   20   37:   54
          12       1:   10   11:   20   55:   72
          13      11:   20   11:   20    1:   18
          14      11:   20   11:   20   19:   36
          15      11:   20   11:   20   37:   54
          16      11:   20   11:   20   55:   72
Setting up quadratic distribution...
ExtMesh (bp) on 0 =   146 x   146 x   152 =     3240032
PhiOnMesh: Number of (b)points on node 0 =                 1600
PhiOnMesh: nlist on node 0 =               161189

stepf: Fermi-Dirac step function

siesta: Program's energy decomposition (eV):
siesta: Ebs     =       105.319976
siesta: Eions   =       439.895300
siesta: Ena     =       150.562948
siesta: Ekin    =       298.268710
siesta: Enl     =        48.058537
siesta: Eso     =         0.000000
siesta: Edftu   =         0.000000
siesta: DEna    =       -43.622448
siesta: DUscf   =        89.780892
siesta: DUext   =         0.000000
siesta: Exc     =      -227.753899
siesta: eta*DQ  =         0.000000
siesta: Emadel  =         0.000000
siesta: Emeta   =         0.000000
siesta: Emolmec =        -7.666868
siesta: Ekinion =         0.000000
siesta: Eharris =        76.408750
siesta: Etot    =      -132.267428
siesta: FreeEng =      -132.270857

        iscf     Eharris(eV)        E_KS(eV)     FreeEng(eV)     dDmax    Ef(eV) dHmax(eV)
   scf:    1       76.408750     -132.267428     -132.270857  1.954704 -4.699665 48.437690
timer: Routine,Calls,Time,% = IterSCF        1       0.525  15.00
   scf:    2      -23.256807     -165.643350     -165.643350 17.143842  0.957753 33.426712
   scf:    3     -193.510232     -198.168138     -198.181698  8.556648 -1.956136  3.076724
   scf:    4     -180.425846     -190.938117     -190.947608  2.127907 -3.515340 14.240172
   scf:    5     -189.818628     -197.384190     -197.399253  5.275689 -1.410440  7.516404
   scf:    6     -198.529141     -198.882181     -198.905053  2.030381 -2.382267  0.570173
   scf:    7     -195.184129     -197.769375     -197.781761  1.965039 -1.978728  5.989352
   scf:    8     -197.953973     -197.863166     -197.872915  0.048017 -2.094613  5.630709
   scf:    9     -199.257994     -198.821468     -198.840366  0.954674 -2.557624  1.615062
   scf:   10     -197.519160     -198.583572     -198.598243  1.305927 -2.677611  3.200712
   scf:   11     -195.452237     -198.103619     -198.118239  2.026207 -2.312326  4.937215
   scf:   12     -199.076206     -198.932563     -198.955787  1.129015 -2.552947  0.339822
   scf:   13     -198.916853     -198.925560     -198.948501  0.060726 -2.547343  0.559183
   scf:   14     -198.939972     -198.935900     -198.959327  0.118692 -2.557761  0.142233
   scf:   15     -198.929598     -198.934934     -198.958368  0.095782 -2.567224  0.213173
   scf:   16     -198.936211     -198.936562     -198.960013  0.064348 -2.561939  0.024999
   scf:   17     -198.936575     -198.936574     -198.960034  0.004677 -2.562816  0.007449
   scf:   18     -198.936559     -198.936567     -198.960036  0.001748 -2.563312  0.002085
   scf:   19     -198.936568     -198.936568     -198.960037  0.000420 -2.563344  0.000467

SCF Convergence by FreeE+DM+H criterion
|FreeE_i-FreeE_(i-1)| (eV) <     0.00100000
max |DM_out - DM_in|         :     0.0004197171
max |H_out - H_in|      (eV) :     0.0004670435
SCF cycle converged after 19 iterations

Using DM_out to compute the final energy and forces
No. of atoms with KB's overlaping orbs in proc 0. Max # of overlaps:     191     181

MM-Stress (kbar):      -10.97      -10.97       23.59        0.00        0.00       -0.00

siesta: E_KS(eV) =             -198.9366

siesta: E_KS - E_eggbox =      -198.9366

siesta: Atomic forces (eV/Ang):
     1    0.000000   -0.000000    0.000000
     2   -0.252915    0.438038   -0.571369
     3    0.252915   -0.438038    0.571369
     4   -0.252929   -0.438087   -0.571333
     5    0.252929    0.438086    0.571333
     6    0.505810   -0.000012   -0.571369
     7   -0.505810    0.000012    0.571369
     8    0.252915   -0.438038   -0.571369
     9   -0.252915    0.438038    0.571369
    10    0.252929    0.438086   -0.571333
    11   -0.252929   -0.438087    0.571333
    12   -0.505810    0.000012   -0.571369
    13    0.505810   -0.000012    0.571369
    14   -0.385834    0.668239   -0.000000
    15    0.385834   -0.668239   -0.000000
    16   -0.385844   -0.668302   -0.000000
    17    0.385844    0.668302   -0.000000
    18    0.771629   -0.000023   -0.000000
    19   -0.771629    0.000023   -0.000000
----------------------------------------
   Tot   -0.000000   -0.000000   -0.000000
----------------------------------------
   Max    0.771629
   Res    0.430429    sqrt( Sum f_i^2 / 3N )
----------------------------------------
   Max    0.771629    constrained

Stress tensor Voigt[x,y,z,yz,xz,xy] (kbar):    -1685.64    -1685.64      249.78        0.00       -0.00       -0.00
(Free)E + p*V (eV/cell)      -57.0827
Target enthalpy (eV/cell)     -198.9600

siesta: Eigenvalues (eV):
  ik is       eps
   1  1  -13.2216  -12.8699  -12.2753  -11.3820  -11.2814  -11.1699  -10.7305  -10.5288  -10.4829   -7.6158
          -2.6671   -2.5297   -2.2512   17.0501   17.3613   19.2049   19.3833   19.4626   19.5879   19.7704
   20.3155   20.3323
   2  1  -13.8426  -13.5166  -12.9645  -10.2724  -10.0137   -9.4301   -7.9626   -4.6514   -3.8458   -3.6522
          -2.7150   -2.3012    0.0551    1.0209    1.8727    2.2283   19.6024   21.1947   21.2219   22.2444
   22.8506   22.9079
   3  1  -13.8426  -13.5166  -12.9645  -10.2724  -10.0137   -9.4301   -7.9626   -4.6514   -3.8458   -3.6522
          -2.7149   -2.3011    0.0551    1.0208    1.8727    2.2283   19.6023   21.1947   21.2219   22.2444
   22.8506   22.9079
   4  1  -13.2216  -12.8699  -12.2753  -11.3820  -11.2814  -11.1699  -10.7305  -10.5288  -10.4829   -7.6158
          -2.6671   -2.5296   -2.2513   17.0501   17.3613   19.2049   19.3833   19.4626   19.5878   19.7704
   20.3155   20.3324
   5  1  -13.8426  -13.5166  -12.9645  -10.2724  -10.0137   -9.4301   -7.9626   -4.6514   -3.8458   -3.6522
          -2.7150   -2.3012    0.0551    1.0209    1.8727    2.2283   19.6024   21.1947   21.2219   22.2444
   22.8506   22.9079
   6  1  -14.2386  -13.8623  -13.3257   -8.9327   -4.0618   -2.9667   -2.9666    4.9510    4.9510    5.0945
           5.0946    7.0912    7.0912    8.1910    8.1910    8.3053    8.3054   12.1288   12.1288   23.7562
   24.2902   24.5879
   7  1  -13.1645  -12.6043  -12.5117  -11.9606  -11.9490  -11.7437   -8.4116   -5.7262   -5.0451   -4.3982
          -4.2441   -3.1842   -2.7581   -1.4531    0.1125    0.1734   17.9935   18.2947   18.5195   18.8022
   19.0852   19.3406
   8  1  -13.2216  -12.8699  -12.2753  -11.3820  -11.2814  -11.1699  -10.7305  -10.5288  -10.4829   -7.6158
          -2.6671   -2.5296   -2.2513   17.0501   17.3613   19.2049   19.3833   19.4626   19.5878   19.7704
   20.3155   20.3324
   9  1  -13.2216  -12.8699  -12.2753  -11.3820  -11.2814  -11.1699  -10.7305  -10.5288  -10.4829   -7.6158
          -2.6671   -2.5296   -2.2513   17.0501   17.3613   19.2049   19.3833   19.4626   19.5878   19.7704
   20.3155   20.3324
  10  1  -13.1645  -12.6043  -12.5117  -11.9606  -11.9490  -11.7437   -8.4116   -5.7262   -5.0451   -4.3982
          -4.2441   -3.1842   -2.7581   -1.4531    0.1125    0.1734   17.9935   18.2947   18.5195   18.8022
   19.0852   19.3406
  11  1  -13.2216  -12.8699  -12.2753  -11.3820  -11.2814  -11.1699  -10.7305  -10.5288  -10.4829   -7.6158
          -2.6671   -2.5296   -2.2513   17.0501   17.3613   19.2049   19.3833   19.4626   19.5878   19.7704
   20.3155   20.3324
  12  1  -13.1645  -12.6043  -12.5117  -11.9606  -11.9490  -11.7437   -8.4116   -5.7262   -5.0451   -4.3983
          -4.2441   -3.1842   -2.7580   -1.4531    0.1125    0.1733   17.9935   18.2947   18.5195   18.8022
   19.0852   19.3406
  13  1  -13.2133  -12.8938  -12.2088  -11.3719  -11.2783  -11.2299  -10.6930  -10.5526  -10.4609   -7.7191
          -2.5938   -2.5548   -2.2757   17.1191   17.4684   18.7871   18.9165   19.5919   19.8105   20.0106
   20.2854   20.4828
  14  1  -13.8190  -13.5948  -12.8360  -10.2888  -10.0588   -9.3987   -8.0563   -4.6294   -3.7620   -3.7583
          -2.5704   -2.3340    0.0656    0.9386    1.8081    2.3037   19.6193   20.7878   21.6269   22.2457
   22.8436   22.9176
  15  1  -13.8190  -13.5948  -12.8360  -10.2888  -10.0588   -9.3987   -8.0563   -4.6294   -3.7620   -3.7583
          -2.5704   -2.3340    0.0656    0.9384    1.8081    2.3037   19.6193   20.7878   21.6269   22.2457
   22.8436   22.9176
  16  1  -13.2133  -12.8938  -12.2088  -11.3719  -11.2783  -11.2299  -10.6930  -10.5526  -10.4608   -7.7191
          -2.5937   -2.5548   -2.2758   17.1191   17.4684   18.7871   18.9165   19.5919   19.8105   20.0106
   20.2854   20.4829
  17  1  -13.8190  -13.5948  -12.8360  -10.2888  -10.0588   -9.3987   -8.0563   -4.6294   -3.7620   -3.7583
          -2.5704   -2.3340    0.0656    0.9386    1.8081    2.3037   19.6193   20.7878   21.6269   22.2457
   22.8436   22.9176
  18  1  -14.2097  -13.9683  -13.1616   -9.0670   -3.9486   -2.9659   -2.9659    4.7093    4.7093    5.2348
           5.2348    6.9601    6.9601    7.8599    7.8599    9.6000    9.6001   11.5287   11.5287   23.7438
   24.3147   24.5754
  19  1  -13.8190  -13.5948  -12.8360  -10.2888  -10.0588   -9.3987   -8.0563   -4.6294   -3.7620   -3.7583
          -2.5704   -2.3340    0.0656    0.9386    1.8081    2.3037   19.6193   20.7878   21.6269   22.2457
   22.8436   22.9176
  20  1  -13.1585  -12.6029  -12.5267  -11.9213  -11.9123  -11.7732   -8.5077   -5.6699   -5.1986   -4.3770
          -4.1046   -3.0853   -2.8277   -1.6230    0.1124    0.2544   17.9597   18.2630   18.6034   18.8799
   19.0348   19.2943
  21  1  -13.8190  -13.5948  -12.8360  -10.2888  -10.0588   -9.3987   -8.0563   -4.6294   -3.7620   -3.7583
          -2.5704   -2.3340    0.0656    0.9384    1.8081    2.3037   19.6193   20.7878   21.6269   22.2457
   22.8436   22.9176
  22  1  -13.8190  -13.5948  -12.8360  -10.2888  -10.0588   -9.3987   -8.0563   -4.6294   -3.7620   -3.7583
          -2.5704   -2.3340    0.0656    0.9386    1.8081    2.3037   19.6193   20.7878   21.6269   22.2457
   22.8436   22.9176
  23  1  -13.2133  -12.8938  -12.2088  -11.3719  -11.2783  -11.2299  -10.6930  -10.5526  -10.4609   -7.7191
          -2.5938   -2.5548   -2.2757   17.1191   17.4684   18.7871   18.9165   19.5919   19.8105   20.0106
   20.2854   20.4828
  24  1  -13.2133  -12.8938  -12.2088  -11.3719  -11.2783  -11.2299  -10.6930  -10.5526  -10.4608   -7.7191
          -2.5937   -2.5548   -2.2758   17.1191   17.4684   18.7871   18.9165   19.5919   19.8105   20.0106
   20.2854   20.4829
  25  1  -13.2133  -12.8938  -12.2088  -11.3719  -11.2783  -11.2299  -10.6930  -10.5526  -10.4608   -7.7191
          -2.5937   -2.5548   -2.2758   17.1191   17.4684   18.7871   18.9165   19.5919   19.8105   20.0106
   20.2854   20.4829
  26  1  -13.1585  -12.6029  -12.5267  -11.9213  -11.9123  -11.7732   -8.5077   -5.6699   -5.1986   -4.3770
          -4.1046   -3.0853   -2.8277   -1.6230    0.1124    0.2544   17.9597   18.2630   18.6034   18.8799
   19.0348   19.2943
  27  1  -13.2133  -12.8938  -12.2088  -11.3719  -11.2783  -11.2299  -10.6930  -10.5526  -10.4608   -7.7191
          -2.5937   -2.5548   -2.2758   17.1191   17.4684   18.7871   18.9165   19.5919   19.8105   20.0106
   20.2854   20.4829
  28  1  -13.1585  -12.6029  -12.5267  -11.9213  -11.9122  -11.7732   -8.5077   -5.6699   -5.1986   -4.3770
          -4.1046   -3.0853   -2.8276   -1.6230    0.1123    0.2544   17.9597   18.2630   18.6033   18.8799
   19.0348   19.2943
  29  1  -13.2043  -12.9162  -12.1376  -11.3379  -11.3155  -11.2752  -10.6584  -10.5683  -10.4470   -7.8233
          -2.6348   -2.4670   -2.3005   17.2032   17.6204   18.5271   18.5665   19.5922   19.9852   20.0809
   20.2792   20.6215
  30  1  -13.7768  -13.6774  -12.7137  -10.3182  -10.0948   -9.3691   -8.1508   -4.6045   -3.8502   -3.6771
          -2.4392   -2.3688    0.0769    0.8523    1.7563    2.3669   19.6398   20.6068   21.8011   22.2480
   22.8379   22.9263
  31  1  -13.7768  -13.6774  -12.7137  -10.3182  -10.0948   -9.3691   -8.1508   -4.6045   -3.8502   -3.6771
          -2.4392   -2.3688    0.0769    0.8522    1.7564    2.3670   19.6397   20.6068   21.8011   22.2480
   22.8379   22.9263
  32  1  -13.2043  -12.9162  -12.1376  -11.3379  -11.3155  -11.2752  -10.6584  -10.5683  -10.4470   -7.8233
          -2.6347   -2.4670   -2.3006   17.2032   17.6204   18.5272   18.5665   19.5922   19.9852   20.0809
   20.2792   20.6215
  33  1  -13.7768  -13.6774  -12.7137  -10.3182  -10.0948   -9.3691   -8.1508   -4.6045   -3.8502   -3.6771
          -2.4392   -2.3688    0.0769    0.8523    1.7563    2.3669   19.6398   20.6068   21.8011   22.2480
   22.8379   22.9263
  34  1  -14.1446  -14.0867  -13.0127   -9.2086   -3.8338   -2.9652   -2.9651    4.5356    4.5356    5.4772
           5.4773    6.3085    6.3086    8.9261    8.9261   10.2170   10.2170   10.5627   10.5628   23.7319
   24.3407   24.5606
  35  1  -13.7768  -13.6774  -12.7137  -10.3182  -10.0948   -9.3691   -8.1508   -4.6045   -3.8502   -3.6771
          -2.4392   -2.3688    0.0769    0.8523    1.7563    2.3669   19.6398   20.6068   21.8011   22.2480
   22.8379   22.9263
  36  1  -13.1524  -12.6015  -12.5405  -11.8623  -11.8618  -11.8347   -8.6064   -5.5663   -5.3762   -4.3563
          -3.9866   -2.9731   -2.8987   -1.7887    0.0498    0.3798   17.9312   18.2361   18.7060   18.9603
   18.9736   19.2270
  37  1  -13.7768  -13.6774  -12.7137  -10.3182  -10.0948   -9.3691   -8.1508   -4.6045   -3.8502   -3.6771
          -2.4392   -2.3688    0.0769    0.8522    1.7564    2.3670   19.6397   20.6068   21.8011   22.2480
   22.8379   22.9263
  38  1  -13.7768  -13.6774  -12.7137  -10.3182  -10.0948   -9.3691   -8.1508   -4.6045   -3.8502   -3.6771
          -2.4392   -2.3688    0.0769    0.8523    1.7563    2.3669   19.6398   20.6068   21.8011   22.2480
   22.8379   22.9263
  39  1  -13.2043  -12.9162  -12.1376  -11.3379  -11.3155  -11.2752  -10.6584  -10.5683  -10.4470   -7.8233
          -2.6348   -2.4670   -2.3005   17.2032   17.6204   18.5271   18.5665   19.5922   19.9852   20.0809
   20.2792   20.6215
  40  1  -13.2043  -12.9162  -12.1376  -11.3379  -11.3155  -11.2752  -10.6584  -10.5683  -10.4470   -7.8233
          -2.6347   -2.4670   -2.3006   17.2032   17.6204   18.5272   18.5665   19.5922   19.9852   20.0809
   20.2792   20.6215
  41  1  -13.2043  -12.9162  -12.1376  -11.3379  -11.3155  -11.2752  -10.6584  -10.5683  -10.4470   -7.8233
          -2.6347   -2.4670   -2.3006   17.2032   17.6204   18.5272   18.5665   19.5922   19.9852   20.0809
   20.2792   20.6215
  42  1  -13.1524  -12.6015  -12.5405  -11.8623  -11.8618  -11.8347   -8.6064   -5.5663   -5.3762   -4.3563
          -3.9866   -2.9731   -2.8987   -1.7887    0.0498    0.3798   17.9312   18.2361   18.7060   18.9603
   18.9736   19.2270
  43  1  -13.2043  -12.9162  -12.1376  -11.3379  -11.3155  -11.2752  -10.6584  -10.5683  -10.4470   -7.8233
          -2.6347   -2.4670   -2.3006   17.2032   17.6204   18.5272   18.5665   19.5922   19.9852   20.0809
   20.2792   20.6215
  44  1  -13.1524  -12.6015  -12.5405  -11.8623  -11.8618  -11.8347   -8.6064   -5.5663   -5.3762   -4.3563
          -3.9866   -2.9731   -2.8986   -1.7887    0.0496    0.3798   17.9312   18.2361   18.7060   18.9602
   18.9736   19.2270
siesta: Fermi energy =      -2.563344 eV

siesta: Program's energy decomposition (eV):
siesta: Ebs     =      -202.546058
siesta: Eions   =       439.895300
siesta: Ena     =       150.562948
siesta: Ekin    =       230.339740
siesta: Enl     =        75.081556
siesta: Eso     =         0.000000
siesta: Edftu   =         0.000000
siesta: DEna    =        -4.181014
siesta: DUscf   =         3.392182
siesta: DUext   =         0.000000
siesta: Exc     =      -206.569811
siesta: eta*DQ  =         0.000000
siesta: Emadel  =         0.000000
siesta: Emeta   =         0.000000
siesta: Emolmec =        -7.666868
siesta: Ekinion =         0.000000
siesta: Eharris =      -198.936568
siesta: Etot    =      -198.936568
siesta: FreeEng =      -198.960037

siesta: Final energy (eV):
siesta:  Band Struct. =    -202.546058
siesta:       Kinetic =     230.339740
siesta:       Hartree =     137.635747
siesta:       Edftu   =       0.000000
siesta:       Eso     =       0.000000
siesta:    Ext. field =       0.000000
siesta:   Exch.-corr. =    -206.569811
siesta:  Ion-electron =    -500.406359
siesta:       Ion-ion =     147.730984
siesta:       Ekinion =       0.000000
siesta:         Total =    -198.936568
siesta:         Fermi =      -2.563344

siesta: Atomic forces (eV/Ang):
siesta:      1    0.000000   -0.000000    0.000000
siesta:      2   -0.252915    0.438038   -0.571369
siesta:      3    0.252915   -0.438038    0.571369
siesta:      4   -0.252929   -0.438087   -0.571333
siesta:      5    0.252929    0.438086    0.571333
siesta:      6    0.505810   -0.000012   -0.571369
siesta:      7   -0.505810    0.000012    0.571369
siesta:      8    0.252915   -0.438038   -0.571369
siesta:      9   -0.252915    0.438038    0.571369
siesta:     10    0.252929    0.438086   -0.571333
siesta:     11   -0.252929   -0.438087    0.571333
siesta:     12   -0.505810    0.000012   -0.571369
siesta:     13    0.505810   -0.000012    0.571369
siesta:     14   -0.385834    0.668239   -0.000000
siesta:     15    0.385834   -0.668239   -0.000000
siesta:     16   -0.385844   -0.668302   -0.000000
siesta:     17    0.385844    0.668302   -0.000000
siesta:     18    0.771629   -0.000023   -0.000000
siesta:     19   -0.771629    0.000023   -0.000000
siesta: ----------------------------------------
siesta:    Tot   -0.000000   -0.000000   -0.000000

siesta: Stress tensor (static) (eV/Ang**3):
siesta:    -1.052080   -0.000001   -0.000000
siesta:    -0.000001   -1.052081    0.000000
siesta:    -0.000000    0.000000    0.155896

siesta: Cell volume =        218.467119 Ang**3

siesta: Pressure (static):
siesta:                Solid            Molecule  Units
siesta:           0.00707303          0.00669251  Ry/Bohr**3
siesta:           0.64942179          0.61448352  eV/Ang**3
siesta:        1040.49966297        984.52177664  kBar
(Free)E+ p_basis*V_orbitals  =        -174.964325
(Free)Eharris+ p_basis*V_orbitals  =        -174.964326

cite: Please see "LiC18_scf.bib" for an exhaustive BiBTeX file.
cite: Please clearly indicate Siesta version in published work: 4.1.5
cite: This calculation has made use of the following articles
cite: which are encouraged to be cited in a published work.
        Primary SIESTA paper
          DOI: www.doi.org/10.1088/0953-8984/14/11/302

>> End of run:   9-NOV-2022  15:14:54
Job completed
