Siesta Version  : 4.1.5
Architecture    : x86_64-unknown-linux-gnu--unknown
Compiler version: GNU Fortran (GCC) 11.3.0
Compiler flags  : mpif90 -g -O2 -fallow-argument-mismatch
PP flags        : -DMPI -DFC_HAVE_FLUSH -DFC_HAVE_ABORT
Libraries       :  -I/global/software/sl-7.x86_64/modules/intel/2020.4.304/mkl/include  /globall/software/sl-7.x86_64/modules/intel/2020.4.304/mkl/lib/intel64/libmkl_scalapack_lp64.a -Wl,--start-group /global/software/sl-7.x86_64/modules/intel/2020.4.304/mkl/lib/intel64/libmkl_intel_lp64.a /global/software/sl-7.x86_64/modules/intel/2020.4.304/mkl/lib/intel64/libmkl_sequential.a /global/software/sl-7.x86_64/modules/intel/2020.4.304/mkl/lib/intel64/libmkl_core.a /global/software/sl-7.x86_64/modules/intel/2020.4.304/mkl/lib/intel64/libmkl_blacs_openmpi_lp64.a -Wl,--end-group -lpthread -lm -ldl
PARALLEL version

* Running on 16 nodes in parallel
>> Start of run:   9-NOV-2022  15:13:15

                           ***********************       
                           *  WELCOME TO SIESTA  *       
                           ***********************       

reinit: Reading from standard input
reinit: Dumped input in INPUT_TMP.70590
************************** Dump of input data file ****************************
SystemName LiC18_scf
SystemLabel LiC18_scf
NumberOfAtoms   19
NumberOfSpecies 2
%block ChemicalSpeciesLabel
1  3   Li-gga
2  6   C-gga
%endblock ChemicalSpeciesLabel
PAO.BasisSize  SZ
PAO.EnergyShift  10 meV
%block PS.Lmax
C-gga   2
Li-gga  2
%endblock PS.Lmax
LatticeConstant 1.000000 Ang
%block LatticeVectors
	4.3161300000	0.0000000000	0.0000000000
	-2.1580650000	3.7378782260	0.0000000000
	0.0000000000	0.0000000000	11.0995810000
%endblock LatticeVectors
AtomicCoordinatesFormat Ang
%block AtomicCoordinatesAndAtomicSpecies
	0.00000000	0.00000000	0.00000000	2
	-0.70288177	1.21742694	1.84993387	1
	-1.45518323	2.52045129	9.24964713	1
	1.45518323	2.52045129	1.84993387	1
	0.70288177	1.21742694	9.24964713	1
	1.40576354	0.00000000	1.84993387	1
	2.91036646	0.00000000	9.24964713	1
	-1.45518323	2.52045129	1.84993387	1
	-0.70288177	1.21742694	9.24964713	1
	0.70288177	1.21742694	1.84993387	1
	1.45518323	2.52045129	9.24964713	1
	2.91036646	0.00000000	1.84993387	1
	1.40576354	0.00000000	9.24964713	1
	-0.70288177	1.21742694	5.54979050	1
	-1.45518323	2.52045129	5.54979050	1
	1.45518323	2.52045129	5.54979050	1
	0.70288177	1.21742694	5.54979050	1
	1.40576354	0.00000000	5.54979050	1
	2.91036646	0.00000000	5.54979050	1
%endblock AtomicCoordinatesAndAtomicSpecies
Kgrid_NoTRS  T
%block kgrid_MonkhorstPack
4       0       0       0.0
0       4       0       0.0
0       0       4       0.0
%endblock kgrid_MonkhorstPack
AtomCoorFormatOut Ang
BlockSize 1
#ProcessorY 12
Diag.ParallelOverK   T
Diag.DivideAndConquer F
MeshCutoff   300 Ry
SCF.FreeE.Tolerance 1E-3 eV
SCF.EDM.Tolerance   5E-3 eV
DM.Tolerance  1E-3
DM.Require.Energy.Convergence T
DM.NumberPulay 4
XC.Functional GGA
XC.Authors    PBE
UseSaveData        F
MD.TypeOfRun       CG
MD.VariableCell    F
MD.NumCGsteps      00
MD.MaxCGDispl      0.200000 Bohr
MD.MaxStressTol    1.000000 GPa
MD.MaxForceTol     0.010000 eV/Ang
WriteMDHistory T
WriteCoorStep T
WriteForces T
WriteCoorStep    T
WriteEigenValues T
WriteDM    F
MM.UnitsDistance Ang  # what this program prints out DO NOT CHANGE
MM.UnitsEnergy    eV  # what this program prints out DO NOT CHANGE
MM.Grimme.S6     0.75 # Grimme-paper for PBE (correct for your functional)
MM.Grimme.D     20.   # Grimme-paper (correct for your functional)
%block MM.Potentials
  1   1 Grimme     16.69      1.650 # Li, 10.1002/jcc.20495
  1   2 Grimme     17.40      2.277 # Li / C
  2   2 Grimme     18.14      2.904 # C, 10.1002/jcc.20495
%endblock MM.Potentials
#%block ProjectedDensityOfStates
# -200.0  120.0  0.4  12800  eV
#%endblock ProjectedDensityOfStates
************************** End of input data file *****************************

reinit: -----------------------------------------------------------------------
reinit: System Name: LiC18_scf
reinit: -----------------------------------------------------------------------
reinit: System Label: LiC18_scf
reinit: -----------------------------------------------------------------------
Reading two-body potentials
Grimme - two-body potential between 1 and 1
Grimme - two-body potential between 1 and 2
Grimme - two-body potential between 2 and 2

initatom: Reading input for the pseudopotentials and atomic orbitals ----------
Species number:   1 Atomic number:    3 Label: Li-gga
Species number:   2 Atomic number:    6 Label: C-gga

Ground state valence configuration:   2s01
Reading pseudopotential information in formatted form from Li-gga.psf

Valence configuration for pseudopotential generation:
2s( 1.00) rc: 2.28
2p( 0.00) rc: 2.28
3d( 0.00) rc: 2.59
4f( 0.00) rc: 2.59
Ground state valence configuration:   2s02  2p02
Reading pseudopotential information in formatted form from C-gga.psf

Valence configuration for pseudopotential generation:
2s( 2.00) rc: 1.56
2p( 2.00) rc: 1.56
3d( 0.00) rc: 1.56
4f( 0.00) rc: 1.56
relmxkb: Read Max KB Ang. Momentum=    2 for species C-gga
relmxkb: Read Max KB Ang. Momentum=    2 for species Li-gga

<basis_specs>
===============================================================================
Li-gga               Z=   3    Mass=  6.9400        Charge= 0.17977+309
Lmxo=0 Lmxkb= 2    BasisType=split      Semic=F
L=0  Nsemic=0  Cnfigmx=2
          i=1  nzeta=1  polorb=0  (2s)
            splnorm:   0.15000    
               vcte:    0.0000    
               rinn:    0.0000    
               qcoe:    0.0000    
               qyuk:    0.0000    
               qwid:   0.10000E-01
                rcs:    0.0000    
            lambdas:    1.0000    
-------------------------------------------------------------------------------
L=0  Nkbl=1  erefs: 0.17977+309
L=1  Nkbl=1  erefs: 0.17977+309
L=2  Nkbl=1  erefs: 0.17977+309
===============================================================================
</basis_specs>

atom: Called for Li-gga                (Z =   3)

read_vps: Pseudopotential generation method:
read_vps: ATM 3.2.2 Troullier-Martins                       
Valence charge for ps generation:    1.00000

read_vps: Pseudopotential includes a core correction:
read_vps: Pseudo-core for xc-correction

xc_check: Exchange-correlation functional:
xc_check: GGA Perdew, Burke & Ernzerhof 1996
V l=0 = -2*Zval/r beyond r=  2.2278
V l=1 = -2*Zval/r beyond r=  2.2278
V l=2 = -2*Zval/r beyond r=  2.5245
All V_l potentials equal beyond r=  2.4622
This should be close to max(r_c) in ps generation
All pots = -2*Zval/r beyond r=  2.5245

VLOCAL1: 99.0% of the norm of Vloc inside      7.160 Ry
VLOCAL1: 99.9% of the norm of Vloc inside     16.318 Ry
atom: Maximum radius for 4*pi*r*r*local-pseudopot. charge    2.86079
atom: Maximum radius for r*vlocal+2*Zval:    2.43160
GHOST: No ghost state for L =  0
GHOST: No ghost state for L =  1
GHOST: No ghost state for L =  2

KBgen: Kleinman-Bylander projectors: 
   l= 0   rc=  2.654023   el= -0.211234   Ekb=  1.742119   kbcos=  0.228463
   l= 1   rc=  2.721230   el= -0.080095   Ekb= -1.122375   kbcos= -0.147941
   l= 2   rc=  2.825246   el=  0.002001   Ekb= -0.207076   kbcos= -0.031965

KBgen: Total number of Kleinman-Bylander projectors:    9
atom: -------------------------------------------------------------------------

atom: SANKEY-TYPE ORBITALS:

SPLIT: Orbitals with angular momentum L= 0

SPLIT: Basis orbitals for state 2s

SPLIT: PAO cut-off radius determined from an
SPLIT: energy shift=  0.000735 Ry

   izeta = 1
                 lambda =    1.000000
                     rc =   11.897381
                 energy =   -0.210580
                kinetic =    0.143382
    potential(screened) =   -0.353962
       potential(ionic) =   -0.533453
atom: Total number of Sankey-type orbitals:  1

atm_pop: Valence configuration (for local Pseudopot. screening):
 2s( 1.00)                                                            
Vna: chval, zval:    1.00000   1.00000

Vna:  Cut-off radius for the neutral-atom potential:  11.897381
comcore: Pseudo-core radius Rcore=  3.450946

atom: _________________________________________________________________________

<basis_specs>
===============================================================================
C-gga                Z=   6    Mass=  12.010        Charge= 0.17977+309
Lmxo=1 Lmxkb= 2    BasisType=split      Semic=F
L=0  Nsemic=0  Cnfigmx=2
          i=1  nzeta=1  polorb=0  (2s)
            splnorm:   0.15000    
               vcte:    0.0000    
               rinn:    0.0000    
               qcoe:    0.0000    
               qyuk:    0.0000    
               qwid:   0.10000E-01
                rcs:    0.0000    
            lambdas:    1.0000    
L=1  Nsemic=0  Cnfigmx=2
          i=1  nzeta=1  polorb=0  (2p)
            splnorm:   0.15000    
               vcte:    0.0000    
               rinn:    0.0000    
               qcoe:    0.0000    
               qyuk:    0.0000    
               qwid:   0.10000E-01
                rcs:    0.0000    
            lambdas:    1.0000    
-------------------------------------------------------------------------------
L=0  Nkbl=1  erefs: 0.17977+309
L=1  Nkbl=1  erefs: 0.17977+309
L=2  Nkbl=1  erefs: 0.17977+309
===============================================================================
</basis_specs>

atom: Called for C-gga                 (Z =   6)

read_vps: Pseudopotential generation method:
read_vps: ATM 3.2.2 Troullier-Martins                       
Valence charge for ps generation:    4.00000

xc_check: Exchange-correlation functional:
xc_check: GGA Perdew, Burke & Ernzerhof 1996
V l=0 = -2*Zval/r beyond r=  1.5227
V l=1 = -2*Zval/r beyond r=  1.5227
V l=2 = -2*Zval/r beyond r=  1.5227
All V_l potentials equal beyond r=  1.4851
This should be close to max(r_c) in ps generation
All pots = -2*Zval/r beyond r=  1.5227

VLOCAL1: 99.0% of the norm of Vloc inside     19.682 Ry
VLOCAL1: 99.9% of the norm of Vloc inside     44.856 Ry
atom: Maximum radius for 4*pi*r*r*local-pseudopot. charge    1.79142
atom: Maximum radius for r*vlocal+2*Zval:    1.54183
GHOST: No ghost state for L =  0
GHOST: No ghost state for L =  1
GHOST: No ghost state for L =  2

KBgen: Kleinman-Bylander projectors: 
   l= 0   rc=  1.661951   el= -1.010689   Ekb=  5.289847   kbcos=  0.316429
   l= 1   rc=  1.661951   el= -0.388490   Ekb= -4.102504   kbcos= -0.351025
   l= 2   rc=  1.747182   el=  0.001971   Ekb= -1.006005   kbcos= -0.008530

KBgen: Total number of Kleinman-Bylander projectors:    9
atom: -------------------------------------------------------------------------

atom: SANKEY-TYPE ORBITALS:

SPLIT: Orbitals with angular momentum L= 0

SPLIT: Basis orbitals for state 2s

SPLIT: PAO cut-off radius determined from an
SPLIT: energy shift=  0.000735 Ry

   izeta = 1
                 lambda =    1.000000
                     rc =    5.948690
                 energy =   -1.010099
                kinetic =    0.827121
    potential(screened) =   -1.837220
       potential(ionic) =   -5.392783

SPLIT: Orbitals with angular momentum L= 1

SPLIT: Basis orbitals for state 2p

SPLIT: PAO cut-off radius determined from an
SPLIT: energy shift=  0.000735 Ry

   izeta = 1
                 lambda =    1.000000
                     rc =    7.638387
                 energy =   -0.387843
                kinetic =    2.314739
    potential(screened) =   -2.702582
       potential(ionic) =   -6.092371
atom: Total number of Sankey-type orbitals:  4

atm_pop: Valence configuration (for local Pseudopot. screening):
 2s( 2.00)                                                            
 2p( 2.00)                                                            
Vna: chval, zval:    4.00000   4.00000

Vna:  Cut-off radius for the neutral-atom potential:   7.638387

atom: _________________________________________________________________________

prinput: Basis input ----------------------------------------------------------

PAO.BasisType split     

%block ChemicalSpeciesLabel
    1    3 Li-gga                  # Species index, atomic number, species label
    2    6 C-gga                   # Species index, atomic number, species label
%endblock ChemicalSpeciesLabel

%block PAO.Basis                 # Define Basis set
Li-gga                1                    # Species label, number of l-shells
 n=2   0   1                         # n, l, Nzeta 
  11.897   
   1.000   
C-gga                 2                    # Species label, number of l-shells
 n=2   0   1                         # n, l, Nzeta 
   5.949   
   1.000   
 n=2   1   1                         # n, l, Nzeta 
   7.638   
   1.000   
%endblock PAO.Basis

prinput: ----------------------------------------------------------------------

coor:   Atomic-coordinates input format  =     Cartesian coordinates
coor:                                          (in Angstroms)

siesta: Atomic coordinates (Bohr) and species
siesta:      0.00000   0.00000   0.00000  2        1
siesta:     -1.32825   2.30060   3.49587  1        2
siesta:     -2.74990   4.76296  17.47931  1        3
siesta:      2.74990   4.76296   3.49587  1        4
siesta:      1.32825   2.30060  17.47931  1        5
siesta:      2.65651   0.00000   3.49587  1        6
siesta:      5.49980   0.00000  17.47931  1        7
siesta:     -2.74990   4.76296   3.49587  1        8
siesta:     -1.32825   2.30060  17.47931  1        9
siesta:      1.32825   2.30060   3.49587  1       10
siesta:      2.74990   4.76296  17.47931  1       11
siesta:      5.49980   0.00000   3.49587  1       12
siesta:      2.65651   0.00000  17.47931  1       13
siesta:     -1.32825   2.30060  10.48759  1       14
siesta:     -2.74990   4.76296  10.48759  1       15
siesta:      2.74990   4.76296  10.48759  1       16
siesta:      1.32825   2.30060  10.48759  1       17
siesta:      2.65651   0.00000  10.48759  1       18
siesta:      5.49980   0.00000  10.48759  1       19

siesta: System type = bulk      

initatomlists: Number of atoms, orbitals, and projectors:     19    22   171

siesta: ******************** Simulation parameters ****************************
siesta:
siesta: The following are some of the parameters of the simulation.
siesta: A complete list of the parameters used, including default values,
siesta: can be found in file out.fdf
siesta:
redata: Spin configuration                          = none
redata: Number of spin components                   = 1
redata: Time-Reversal Symmetry                      = T
redata: Spin spiral                                 = F
redata: Long output                                 =   F
redata: Number of Atomic Species                    =        2
redata: Charge density info will appear in .RHO file
redata: Write Mulliken Pop.                         = NO
redata: Matel table size (NRTAB)                    =     1024
redata: Mesh Cutoff                                 =   300.0000 Ry
redata: Net charge of the system                    =     0.0000 |e|
redata: Min. number of SCF Iter                     =        0
redata: Max. number of SCF Iter                     =     1000
redata: SCF convergence failure will abort job
redata: SCF mix quantity                            = Hamiltonian
redata: Mix DM or H after convergence               =   F
redata: Recompute H after scf cycle                 =   F
redata: Mix DM in first SCF step                    =   T
redata: Write Pulay info on disk                    =   F
redata: New DM Occupancy tolerance                  = 0.000000000001
redata: No kicks to SCF
redata: DM Mixing Weight for Kicks                  =     0.5000
redata: Require Harris convergence for SCF          =   F
redata: Harris energy tolerance for SCF             =     0.000100 eV
redata: Require DM convergence for SCF              =   T
redata: DM tolerance for SCF                        =     0.001000
redata: Require EDM convergence for SCF             =   F
redata: EDM tolerance for SCF                       =     0.005000 eV
redata: Require H convergence for SCF               =   T
redata: Hamiltonian tolerance for SCF               =     0.001000 eV
redata: Require (free) Energy convergence for SCF   =   T
redata: (free) Energy tolerance for SCF             =     0.001000 eV
redata: Using Saved Data (generic)                  =   F
redata: Use continuation files for DM               =   F
redata: Neglect nonoverlap interactions             =   F
redata: Method of Calculation                       = Diagonalization
redata: Electronic Temperature                      =   299.9869 K
redata: Fix the spin of the system                  =   F
redata: Dynamics option                             = Single-point calculation
mix.SCF: Pulay mixing                            = Pulay
mix.SCF:    Variant                              = stable
mix.SCF:    History steps                        = 4
mix.SCF:    Linear mixing weight                 =     0.250000
mix.SCF:    Mixing weight                        =     0.250000
mix.SCF:    SVD condition                        = 0.1000E-07
redata: ***********************************************************************

%block SCF.Mixers
  Pulay
%endblock SCF.Mixers

%block SCF.Mixer.Pulay
  # Mixing method
  method pulay
  variant stable

  # Mixing options
  weight 0.2500
  weight.linear 0.2500
  history 4
%endblock SCF.Mixer.Pulay

DM_history_depth set to one: no extrapolation allowed by default for geometry relaxation
Size of DM history Fstack: 1
Total number of electrons:    22.000000
Total ionic charge:    22.000000

* ProcessorY, Blocksize:    4   1


* Orbital distribution balance (max,min):     2     1

k-point displ. along   1 input, could be:     0.00    0.50
k-point displ. along   2 input, could be:     0.00    0.50
k-point displ. along   3 input, could be:     0.00    0.50
 Kpoints in:           48 . Kpoints trimmed:           44

siesta: k-grid: Number of k-points =    44
siesta: k-grid: Cutoff (effective) =     8.632 Ang
siesta: k-grid: Supercell and displacements
siesta: k-grid:    4   0   0      0.000
siesta: k-grid:    0   4   0      0.000
siesta: k-grid:    0   0   4      0.000

diag: Algorithm                                     = Expert
diag: Parallel over k                               =   T
diag: Use parallel 2D distribution                  =   T
diag: Parallel block-size                           = 1
diag: Parallel distribution                         =     4 x     4
diag: Used triangular part                          = Lower
diag: Absolute tolerance                            =  0.100E-15
diag: Orthogonalization factor                      =  0.100E-05
diag: Memory factor                                 =  1.0000

superc: Internal auxiliary supercell:     9 x     9 x     5  =     405
superc: Number of atoms, orbitals, and projectors:   7695   8910  69255


ts: **************************************************************
ts: Save H and S matrices                           =    F
ts: Save DM and EDM matrices                        =    F
ts: Only save the overlap matrix S                  =    F
ts: **************************************************************

************************ Begin: TS CHECKS AND WARNINGS ************************
************************ End: TS CHECKS AND WARNINGS **************************


                     ====================================
                        Single-point calculation
                     ====================================

outcoor: Atomic coordinates (Ang):                          
    0.00000000    0.00000000    0.00000000   2       1  C-gga
   -0.70288177    1.21742694    1.84993387   1       2  Li-gga
   -1.45518323    2.52045129    9.24964713   1       3  Li-gga
    1.45518323    2.52045129    1.84993387   1       4  Li-gga
    0.70288177    1.21742694    9.24964713   1       5  Li-gga
    1.40576354    0.00000000    1.84993387   1       6  Li-gga
    2.91036646    0.00000000    9.24964713   1       7  Li-gga
   -1.45518323    2.52045129    1.84993387   1       8  Li-gga
   -0.70288177    1.21742694    9.24964713   1       9  Li-gga
    0.70288177    1.21742694    1.84993387   1      10  Li-gga
    1.45518323    2.52045129    9.24964713   1      11  Li-gga
    2.91036646    0.00000000    1.84993387   1      12  Li-gga
    1.40576354    0.00000000    9.24964713   1      13  Li-gga
   -0.70288177    1.21742694    5.54979050   1      14  Li-gga
   -1.45518323    2.52045129    5.54979050   1      15  Li-gga
    1.45518323    2.52045129    5.54979050   1      16  Li-gga
    0.70288177    1.21742694    5.54979050   1      17  Li-gga
    1.40576354    0.00000000    5.54979050   1      18  Li-gga
    2.91036646    0.00000000    5.54979050   1      19  Li-gga

superc: Internal auxiliary supercell:     9 x     9 x     5  =     405
superc: Number of atoms, orbitals, and projectors:   7695   8910  69255

outcell: Unit cell vectors (Ang):
        4.316130    0.000000    0.000000
       -2.158065    3.737878    0.000000
        0.000000    0.000000   11.099581

outcell: Cell vector modules (Ang)   :    4.316130    4.316130   11.099581
outcell: Cell angles (23,13,12) (deg):     90.0000     90.0000    120.0000
outcell: Cell volume (Ang**3)        :    179.0714
<dSpData1D:S at geom step 0
  <sparsity:sparsity for geom step 0
    nrows_g=22 nrows=2 sparsity=4.8037 nnzs=2325, refcount: 7>
  <dData1D:(new from dSpData1D) n=2325, refcount: 1>
refcount: 1>
new_DM -- step:     1
Initializing Density Matrix...
DM filled with atomic data:
<dSpData2D:DM initialized from atoms
  <sparsity:sparsity for geom step 0
    nrows_g=22 nrows=2 sparsity=4.8037 nnzs=2325, refcount: 8>
  <dData2D:DM n=2325 m=1, refcount: 1>
refcount: 1>
No. of atoms with KB's overlaping orbs in proc 0. Max # of overlaps:     227     223
New grid distribution:   1
           1       1:   20    1:    5    1:   15
           2       1:   20    1:    5   16:   30
           3       1:   20    1:    5   31:   45
           4       1:   20    1:    5   46:   60
           5       1:   20    6:   10    1:   15
           6       1:   20    6:   10   16:   30
           7       1:   20    6:   10   31:   45
           8       1:   20    6:   10   46:   60
           9       1:   20   11:   15    1:   15
          10       1:   20   11:   15   16:   30
          11       1:   20   11:   15   31:   45
          12       1:   20   11:   15   46:   60
          13       1:   20   16:   20    1:   15
          14       1:   20   16:   20   16:   30
          15       1:   20   16:   20   31:   45
          16       1:   20   16:   20   46:   60

InitMesh: MESH =    40 x    40 x   120 =      192000
InitMesh: (bp) =    20 x    20 x    60 =       24000
InitMesh: Mesh cutoff (required, used) =   300.000   316.498 Ry
ExtMesh (bp) on 0 =   156 x   141 x   155 =     3409380
New grid distribution:   2
           1      11:   20    1:   10    1:   14
           2      11:   20    1:   10   15:   30
           3       1:   10    1:   10   31:   46
           4       1:   10    1:   10   47:   60
           5       1:   10    1:   10    1:   14
           6       1:   10    1:   10   15:   30
           7      11:   20    1:   10   31:   46
           8      11:   20    1:   10   47:   60
           9      11:   20   11:   20    1:   14
          10      11:   20   11:   20   15:   30
          11       1:   10   11:   20   31:   46
          12       1:   10   11:   20   47:   60
          13       1:   10   11:   20    1:   14
          14       1:   10   11:   20   15:   30
          15      11:   20   11:   20   31:   46
          16      11:   20   11:   20   47:   60
New grid distribution:   3
           1       1:   10    1:   10    1:   15
           2       1:   10    1:   10   16:   30
           3       1:   10    1:   10   31:   45
           4       1:   10    1:   10   46:   60
           5      11:   20    1:   10    1:   15
           6      11:   20    1:   10   16:   30
           7      11:   20    1:   10   31:   45
           8      11:   20    1:   10   46:   60
           9       1:   10   11:   20    1:   15
          10       1:   10   11:   20   16:   30
          11       1:   10   11:   20   31:   45
          12       1:   10   11:   20   46:   60
          13      11:   20   11:   20    1:   15
          14      11:   20   11:   20   16:   30
          15      11:   20   11:   20   31:   45
          16      11:   20   11:   20   46:   60
Setting up quadratic distribution...
ExtMesh (bp) on 0 =   146 x   146 x   154 =     3282664
PhiOnMesh: Number of (b)points on node 0 =                 1400
PhiOnMesh: nlist on node 0 =               168064

stepf: Fermi-Dirac step function

siesta: Program's energy decomposition (eV):
siesta: Ebs     =         8.710491
siesta: Eions   =       439.895300
siesta: Ena     =       138.950720
siesta: Ekin    =       316.526270
siesta: Enl     =        50.716817
siesta: Eso     =         0.000000
siesta: Edftu   =         0.000000
siesta: DEna    =       -55.595498
siesta: DUscf   =        74.344906
siesta: DUext   =         0.000000
siesta: Exc     =      -234.995487
siesta: eta*DQ  =         0.000000
siesta: Emadel  =         0.000000
siesta: Emeta   =         0.000000
siesta: Emolmec =        -8.308246
siesta: Ekinion =         0.000000
siesta: Eharris =        22.205507
siesta: Etot    =      -158.255819
siesta: FreeEng =      -158.258346

        iscf     Eharris(eV)        E_KS(eV)     FreeEng(eV)     dDmax    Ef(eV) dHmax(eV)
   scf:    1       22.205507     -158.255819     -158.258346  2.442774 -6.422729 40.019018
timer: Routine,Calls,Time,% = IterSCF        1       0.634  14.24
   scf:    2     -160.894765     -199.165804     -199.168861 15.004303 -2.504079 12.589711
   scf:    3     -200.010031     -205.426352     -205.441614  7.672429 -4.093687  5.675711
   scf:    4     -154.488018     -190.959354     -190.963711  7.298139 -1.352570 20.632109
   scf:    5     -209.279817     -206.686437     -206.698059  7.315901 -3.226072  0.790042
   scf:    6     -206.710346     -206.700267     -206.711572  0.073553 -3.288859  0.434904
   scf:    7     -185.325731     -199.179366     -199.197610  7.042211 -2.362284 13.287623
   scf:    8     -208.781522     -204.854389     -204.865390  3.819016 -2.850352  6.637879
   scf:    9     -206.487375     -206.677944     -206.694719  3.310741 -3.417031  0.881366
   scf:   10     -206.705450     -206.707343     -206.726058  0.214923 -3.323283  0.104292
   scf:   11     -206.705856     -206.706688     -206.726036  0.020068 -3.321339  0.137857
   scf:   12     -206.706434     -206.706648     -206.726575  0.020023 -3.331809  0.070405
   scf:   13     -206.707534     -206.707142     -206.726776  0.028117 -3.340062  0.011914
   scf:   14     -206.707069     -206.707109     -206.726783  0.003417 -3.341001  0.004018
   scf:   15     -206.707073     -206.707091     -206.726784  0.000570 -3.340548  0.001355
   scf:   16     -206.707034     -206.707063     -206.726784  0.000685 -3.340136  0.000220

SCF Convergence by FreeE+DM+H criterion
|FreeE_i-FreeE_(i-1)| (eV) <     0.00100000
max |DM_out - DM_in|         :     0.0006845679
max |H_out - H_in|      (eV) :     0.0002201618
SCF cycle converged after 16 iterations

Using DM_out to compute the final energy and forces
No. of atoms with KB's overlaping orbs in proc 0. Max # of overlaps:     227     223

MM-Stress (kbar):      -13.34      -13.34       22.55        0.00        0.00       -0.00

siesta: E_KS(eV) =             -206.7071

siesta: E_KS - E_eggbox =      -206.7071

siesta: Atomic forces (eV/Ang):
     1   -0.000000    0.000000    0.000000
     2   -0.206257    0.357288   -0.692020
     3    0.206257   -0.357288    0.692020
     4   -0.206264   -0.357260   -0.691846
     5    0.206264    0.357260    0.691846
     6    0.412549    0.000020   -0.692020
     7   -0.412549   -0.000020    0.692020
     8    0.206257   -0.357288   -0.692020
     9   -0.206257    0.357288    0.692020
    10    0.206264    0.357260   -0.691846
    11   -0.206264   -0.357260    0.691846
    12   -0.412549   -0.000020   -0.692020
    13    0.412549    0.000020    0.692020
    14   -0.386071    0.668695   -0.000000
    15    0.386071   -0.668695   -0.000000
    16   -0.386080   -0.668710   -0.000000
    17    0.386080    0.668710   -0.000000
    18    0.772142    0.000001   -0.000000
    19   -0.772142   -0.000000   -0.000000
----------------------------------------
   Tot    0.000000    0.000000    0.000000
----------------------------------------
   Max    0.772142
   Res    0.446533    sqrt( Sum f_i^2 / 3N )
----------------------------------------
   Max    0.772142    constrained

Stress tensor Voigt[x,y,z,yz,xz,xy] (kbar):    -1918.13    -1918.13      374.44        0.00        0.00       -0.00
(Free)E + p*V (eV/cell)      -77.7549
Target enthalpy (eV/cell)     -206.7268

siesta: Eigenvalues (eV):
  ik is       eps
   1  1  -15.0502  -14.6057  -13.1865  -13.1251  -13.0052  -12.1600  -11.6251  -11.3339  -11.3137   -6.3876
          -3.8758   -3.1600   -3.0124   15.8199   16.1725   18.5325   19.0820   19.4596   19.5011   19.5238
   20.3614   20.7989
   2  1  -15.7457  -15.0810  -13.7010  -11.9586  -11.1753  -10.5079   -7.5934   -6.8194   -5.6776   -5.3950
          -3.6641   -3.2501   -2.1115    2.5107    2.9940    3.2212   18.6608   20.5463   21.1271   21.2211
   23.0585   23.1999
   3  1  -15.7457  -15.0810  -13.7010  -11.9586  -11.1754  -10.5079   -7.5934   -6.8194   -5.6776   -5.3950
          -3.6641   -3.2500   -2.1115    2.5106    2.9940    3.2212   18.6608   20.5463   21.1271   21.2210
   23.0585   23.1999
   4  1  -15.0502  -14.6057  -13.1865  -13.1251  -13.0052  -12.1601  -11.6251  -11.3339  -11.3137   -6.3876
          -3.8758   -3.1602   -3.0122   15.8199   16.1725   18.5325   19.0820   19.4596   19.5011   19.5238
   20.3614   20.7988
   5  1  -15.7457  -15.0810  -13.7010  -11.9586  -11.1753  -10.5079   -7.5934   -6.8194   -5.6776   -5.3950
          -3.6641   -3.2501   -2.1115    2.5107    2.9940    3.2212   18.6608   20.5463   21.1271   21.2211
   23.0585   23.1999
   6  1  -16.1436  -15.3875  -14.0707   -8.7008   -5.9525   -5.1044   -5.1044    1.2191    1.2191    1.6140
           1.6141    7.4089    7.4089    8.8760    8.8761    8.9850    8.9851   18.5102   18.5103   22.6567
   24.3593   25.0594
   7  1  -14.9231  -14.5083  -14.2943  -12.7241  -12.6607  -12.6223   -8.2196   -7.8000   -6.8090   -5.9438
          -5.1972   -5.0115   -3.2091   -0.3053    0.2555    1.5022   17.0416   17.3246   18.7532   18.9824
   19.3535   19.6858
   8  1  -15.0502  -14.6057  -13.1865  -13.1251  -13.0052  -12.1601  -11.6251  -11.3339  -11.3137   -6.3876
          -3.8758   -3.1602   -3.0122   15.8199   16.1725   18.5325   19.0820   19.4596   19.5011   19.5238
   20.3614   20.7988
   9  1  -15.0502  -14.6057  -13.1865  -13.1251  -13.0052  -12.1601  -11.6251  -11.3339  -11.3137   -6.3876
          -3.8758   -3.1602   -3.0122   15.8199   16.1725   18.5325   19.0820   19.4596   19.5011   19.5238
   20.3614   20.7988
  10  1  -14.9231  -14.5083  -14.2943  -12.7241  -12.6607  -12.6223   -8.2196   -7.8000   -6.8090   -5.9438
          -5.1972   -5.0115   -3.2091   -0.3053    0.2555    1.5022   17.0416   17.3246   18.7532   18.9824
   19.3535   19.6858
  11  1  -15.0502  -14.6057  -13.1865  -13.1251  -13.0052  -12.1601  -11.6251  -11.3339  -11.3137   -6.3876
          -3.8758   -3.1602   -3.0122   15.8199   16.1725   18.5325   19.0820   19.4596   19.5011   19.5238
   20.3614   20.7988
  12  1  -14.9231  -14.5083  -14.2943  -12.7241  -12.6607  -12.6223   -8.2196   -7.8000   -6.8090   -5.9438
          -5.1972   -5.0115   -3.2090   -0.3053    0.2555    1.5021   17.0416   17.3246   18.7531   18.9824
   19.3535   19.6858
  13  1  -15.0074  -14.7030  -13.2038  -13.1238  -12.7115  -12.2301  -11.5616  -11.3796  -10.9760   -6.9487
          -3.3640   -3.2927   -3.2426   15.8109   16.1890   18.5221   18.6882   18.8161   19.8534   20.0794
   20.4942   20.7776
  14  1  -15.7019  -15.2496  -13.1736  -11.9628  -11.3246  -10.2934   -8.0257   -6.7891   -6.0889   -5.0417
          -3.3166   -2.5521   -2.1783    1.8261    1.8820    4.4972   18.6454   20.6429   21.0506   21.2189
   23.0577   23.1966
  15  1  -15.7019  -15.2495  -13.1736  -11.9628  -11.3246  -10.2934   -8.0257   -6.7891   -6.0889   -5.0417
          -3.3165   -2.5521   -2.1783    1.8262    1.8819    4.4972   18.6454   20.6429   21.0506   21.2189
   23.0577   23.1966
  16  1  -15.0074  -14.7030  -13.2038  -13.1238  -12.7115  -12.2301  -11.5615  -11.3796  -10.9760   -6.9487
          -3.3640   -3.2928   -3.2425   15.8109   16.1890   18.5221   18.6883   18.8161   19.8535   20.0794
   20.4942   20.7776
  17  1  -15.7019  -15.2496  -13.1736  -11.9628  -11.3246  -10.2934   -8.0257   -6.7891   -6.0889   -5.0417
          -3.3166   -2.5521   -2.1783    1.8261    1.8820    4.4972   18.6454   20.6429   21.0506   21.2189
   23.0577   23.1966
  18  1  -16.1030  -15.5843  -13.4581   -9.1737   -5.5589   -5.1138   -5.1138    1.1463    1.1463    1.4031
           1.4031    4.8763    4.8764    8.8999    8.9000   15.1116   15.1116   18.1347   18.1348   22.6569
   24.4285   25.0107
  19  1  -15.7019  -15.2496  -13.1736  -11.9628  -11.3246  -10.2934   -8.0257   -6.7891   -6.0889   -5.0417
          -3.3166   -2.5521   -2.1783    1.8261    1.8820    4.4972   18.6454   20.6429   21.0506   21.2189
   23.0577   23.1966
  20  1  -14.9007  -14.5037  -14.3749  -12.9256  -12.4045  -12.1811   -8.5763   -7.7635   -7.1906   -5.8956
          -4.7178   -4.3134   -3.4993   -1.3139    0.9338    1.3245   17.0420   17.3203   18.7980   19.0357
   19.3185   19.6418
  21  1  -15.7019  -15.2495  -13.1736  -11.9628  -11.3246  -10.2934   -8.0257   -6.7891   -6.0889   -5.0417
          -3.3165   -2.5521   -2.1783    1.8262    1.8819    4.4972   18.6454   20.6429   21.0506   21.2189
   23.0577   23.1966
  22  1  -15.7019  -15.2496  -13.1736  -11.9628  -11.3246  -10.2934   -8.0257   -6.7891   -6.0889   -5.0417
          -3.3166   -2.5521   -2.1783    1.8261    1.8820    4.4972   18.6454   20.6429   21.0506   21.2189
   23.0577   23.1966
  23  1  -15.0074  -14.7030  -13.2038  -13.1238  -12.7115  -12.2301  -11.5616  -11.3796  -10.9760   -6.9487
          -3.3640   -3.2927   -3.2426   15.8109   16.1890   18.5221   18.6882   18.8161   19.8534   20.0794
   20.4942   20.7776
  24  1  -15.0074  -14.7030  -13.2038  -13.1238  -12.7115  -12.2301  -11.5615  -11.3796  -10.9760   -6.9487
          -3.3640   -3.2928   -3.2425   15.8109   16.1890   18.5221   18.6883   18.8161   19.8535   20.0794
   20.4942   20.7776
  25  1  -15.0074  -14.7030  -13.2038  -13.1238  -12.7115  -12.2301  -11.5615  -11.3796  -10.9760   -6.9487
          -3.3640   -3.2928   -3.2425   15.8109   16.1890   18.5221   18.6883   18.8161   19.8535   20.0794
   20.4942   20.7776
  26  1  -14.9007  -14.5037  -14.3749  -12.9256  -12.4045  -12.1811   -8.5763   -7.7635   -7.1906   -5.8956
          -4.7178   -4.3134   -3.4993   -1.3139    0.9338    1.3245   17.0420   17.3203   18.7980   19.0357
   19.3185   19.6418
  27  1  -15.0074  -14.7030  -13.2038  -13.1238  -12.7115  -12.2301  -11.5615  -11.3796  -10.9760   -6.9487
          -3.3640   -3.2928   -3.2425   15.8109   16.1890   18.5221   18.6883   18.8161   19.8535   20.0794
   20.4942   20.7776
  28  1  -14.9007  -14.5037  -14.3748  -12.9256  -12.4045  -12.1811   -8.5763   -7.7635   -7.1905   -5.8955
          -4.7178   -4.3134   -3.4992   -1.3139    0.9337    1.3245   17.0419   17.3203   18.7979   19.0357
   19.3185   19.6418
  29  1  -14.9160  -14.8396  -13.2032  -13.1226  -12.5327  -12.1064  -11.6396  -11.1573  -10.7780   -7.4778
          -3.5098   -3.4364   -2.9116   15.8045   16.2111   18.4580   18.4620   18.5448   20.0800   20.1994
   20.7081   20.7376
  30  1  -15.6257  -15.4137  -12.4787  -11.9668  -11.5507  -10.0961   -8.4803   -6.7284   -6.3867   -4.7069
          -3.4624   -2.1832   -1.0817    0.7543    1.3076    5.1221   18.6319   20.7662   20.9438   21.2178
   23.0569   23.1933
  31  1  -15.6257  -15.4137  -12.4787  -11.9668  -11.5507  -10.0961   -8.4803   -6.7284   -6.3867   -4.7069
          -3.4623   -2.1831   -1.0817    0.7542    1.3077    5.1221   18.6318   20.7661   20.9437   21.2178
   23.0569   23.1933
  32  1  -14.9160  -14.8396  -13.2032  -13.1226  -12.5327  -12.1064  -11.6396  -11.1574  -10.7780   -7.4778
          -3.5097   -3.4365   -2.9116   15.8046   16.2110   18.4580   18.4620   18.5447   20.0800   20.1993
   20.7081   20.7376
  33  1  -15.6257  -15.4137  -12.4787  -11.9668  -11.5507  -10.0961   -8.4803   -6.7284   -6.3867   -4.7069
          -3.4624   -2.1832   -1.0817    0.7543    1.3076    5.1221   18.6319   20.7662   20.9438   21.2178
   23.0569   23.1933
  34  1  -16.0383  -15.7526  -12.6959   -9.7861   -5.1461   -5.1232   -5.1232    0.7996    0.7996    1.7499
           1.7499    3.3381    3.3381   10.4464   10.4465   17.6133   17.6133   18.8921   18.8921   22.6572
   24.5124   24.9471
  35  1  -15.6257  -15.4137  -12.4787  -11.9668  -11.5507  -10.0961   -8.4803   -6.7284   -6.3867   -4.7069
          -3.4624   -2.1832   -1.0817    0.7543    1.3076    5.1221   18.6319   20.7662   20.9438   21.2178
   23.0569   23.1933
  36  1  -14.8737  -14.4992  -14.4496  -13.0152  -12.0175  -11.8827   -8.9823   -7.6719   -7.4944   -5.8465
          -4.4268   -3.8325   -3.3603   -1.8352    0.1627    1.9020   17.0424   17.3161   18.8501   19.0979
   19.2762   19.5886
  37  1  -15.6257  -15.4137  -12.4787  -11.9668  -11.5507  -10.0961   -8.4803   -6.7284   -6.3867   -4.7069
          -3.4623   -2.1831   -1.0817    0.7542    1.3077    5.1221   18.6318   20.7661   20.9437   21.2178
   23.0569   23.1933
  38  1  -15.6257  -15.4137  -12.4787  -11.9668  -11.5507  -10.0961   -8.4803   -6.7284   -6.3867   -4.7069
          -3.4624   -2.1832   -1.0817    0.7543    1.3076    5.1221   18.6319   20.7662   20.9438   21.2178
   23.0569   23.1933
  39  1  -14.9160  -14.8396  -13.2032  -13.1226  -12.5327  -12.1064  -11.6396  -11.1573  -10.7780   -7.4778
          -3.5098   -3.4364   -2.9116   15.8045   16.2111   18.4580   18.4620   18.5448   20.0800   20.1994
   20.7081   20.7376
  40  1  -14.9160  -14.8396  -13.2032  -13.1226  -12.5327  -12.1064  -11.6396  -11.1574  -10.7780   -7.4778
          -3.5097   -3.4365   -2.9116   15.8046   16.2110   18.4580   18.4620   18.5447   20.0800   20.1993
   20.7081   20.7376
  41  1  -14.9160  -14.8396  -13.2032  -13.1226  -12.5327  -12.1064  -11.6396  -11.1574  -10.7780   -7.4778
          -3.5097   -3.4365   -2.9116   15.8046   16.2110   18.4580   18.4620   18.5447   20.0800   20.1993
   20.7081   20.7376
  42  1  -14.8737  -14.4992  -14.4496  -13.0152  -12.0175  -11.8827   -8.9823   -7.6719   -7.4944   -5.8465
          -4.4268   -3.8325   -3.3603   -1.8352    0.1627    1.9020   17.0424   17.3161   18.8501   19.0979
   19.2762   19.5886
  43  1  -14.9160  -14.8396  -13.2032  -13.1226  -12.5327  -12.1064  -11.6396  -11.1574  -10.7780   -7.4778
          -3.5097   -3.4365   -2.9116   15.8046   16.2110   18.4580   18.4620   18.5447   20.0800   20.1993
   20.7081   20.7376
  44  1  -14.8737  -14.4992  -14.4496  -13.0152  -12.0174  -11.8827   -8.9823   -7.6719   -7.4943   -5.8465
          -4.4268   -3.8324   -3.3603   -1.8352    0.1625    1.9020   17.0423   17.3161   18.8500   19.0979
   19.2762   19.5886
siesta: Fermi energy =      -3.340136 eV

siesta: Program's energy decomposition (eV):
siesta: Ebs     =      -228.437296
siesta: Eions   =       439.895300
siesta: Ena     =       138.950720
siesta: Ekin    =       249.311394
siesta: Enl     =        75.487519
siesta: Eso     =         0.000000
siesta: Edftu   =         0.000000
siesta: DEna    =       -12.085561
siesta: DUscf   =         5.302810
siesta: DUext   =         0.000000
siesta: Exc     =      -215.470399
siesta: eta*DQ  =         0.000000
siesta: Emadel  =         0.000000
siesta: Emeta   =         0.000000
siesta: Emolmec =        -8.308246
siesta: Ekinion =         0.000000
siesta: Eharris =      -206.707034
siesta: Etot    =      -206.707063
siesta: FreeEng =      -206.726784

siesta: Final energy (eV):
siesta:  Band Struct. =    -228.437296
siesta:       Kinetic =     249.311394
siesta:       Hartree =     132.590719
siesta:       Edftu   =       0.000000
siesta:       Eso     =       0.000000
siesta:    Ext. field =       0.000000
siesta:   Exch.-corr. =    -215.470399
siesta:  Ion-electron =    -523.761475
siesta:       Ion-ion =     158.930944
siesta:       Ekinion =       0.000000
siesta:         Total =    -206.707063
siesta:         Fermi =      -3.340136

siesta: Atomic forces (eV/Ang):
siesta:      1   -0.000000    0.000000    0.000000
siesta:      2   -0.206257    0.357288   -0.692020
siesta:      3    0.206257   -0.357288    0.692020
siesta:      4   -0.206264   -0.357260   -0.691846
siesta:      5    0.206264    0.357260    0.691846
siesta:      6    0.412549    0.000020   -0.692020
siesta:      7   -0.412549   -0.000020    0.692020
siesta:      8    0.206257   -0.357288   -0.692020
siesta:      9   -0.206257    0.357288    0.692020
siesta:     10    0.206264    0.357260   -0.691846
siesta:     11   -0.206264   -0.357260    0.691846
siesta:     12   -0.412549   -0.000020   -0.692020
siesta:     13    0.412549    0.000020    0.692020
siesta:     14   -0.386071    0.668695   -0.000000
siesta:     15    0.386071   -0.668695   -0.000000
siesta:     16   -0.386080   -0.668710   -0.000000
siesta:     17    0.386080    0.668710   -0.000000
siesta:     18    0.772142    0.000001   -0.000000
siesta:     19   -0.772142   -0.000000   -0.000000
siesta: ----------------------------------------
siesta:    Tot    0.000000    0.000000    0.000000

siesta: Stress tensor (static) (eV/Ang**3):
siesta:    -1.197189   -0.000001   -0.000000
siesta:    -0.000001   -1.197191    0.000000
siesta:     0.000000    0.000000    0.233702

siesta: Cell volume =        179.071409 Ang**3

siesta: Pressure (static):
siesta:                Solid            Molecule  Units
siesta:           0.00784418          0.00736750  Ry/Bohr**3
siesta:           0.72022584          0.67645872  eV/Ang**3
siesta:        1153.94148081       1083.81806781  kBar
(Free)E+ p_basis*V_orbitals  =        -182.731072
(Free)Eharris+ p_basis*V_orbitals  =        -182.731043

cite: Please see "LiC18_scf.bib" for an exhaustive BiBTeX file.
cite: Please clearly indicate Siesta version in published work: 4.1.5
cite: This calculation has made use of the following articles
cite: which are encouraged to be cited in a published work.
        Primary SIESTA paper
          DOI: www.doi.org/10.1088/0953-8984/14/11/302

>> End of run:   9-NOV-2022  15:13:28
Job completed
