Siesta Version  : 4.1.5
Architecture    : x86_64-unknown-linux-gnu--unknown
Compiler version: GNU Fortran (GCC) 11.3.0
Compiler flags  : mpif90 -g -O2 -fallow-argument-mismatch
PP flags        : -DMPI -DFC_HAVE_FLUSH -DFC_HAVE_ABORT
Libraries       :  -I/global/software/sl-7.x86_64/modules/intel/2020.4.304/mkl/include  /globall/software/sl-7.x86_64/modules/intel/2020.4.304/mkl/lib/intel64/libmkl_scalapack_lp64.a -Wl,--start-group /global/software/sl-7.x86_64/modules/intel/2020.4.304/mkl/lib/intel64/libmkl_intel_lp64.a /global/software/sl-7.x86_64/modules/intel/2020.4.304/mkl/lib/intel64/libmkl_sequential.a /global/software/sl-7.x86_64/modules/intel/2020.4.304/mkl/lib/intel64/libmkl_core.a /global/software/sl-7.x86_64/modules/intel/2020.4.304/mkl/lib/intel64/libmkl_blacs_openmpi_lp64.a -Wl,--end-group -lpthread -lm -ldl
PARALLEL version

* Running on 16 nodes in parallel
>> Start of run:   9-NOV-2022  12:37:26

                           ***********************       
                           *  WELCOME TO SIESTA  *       
                           ***********************       

reinit: Reading from standard input
reinit: Dumped input in INPUT_TMP.21033
************************** Dump of input data file ****************************
SystemName LiC18_scf
SystemLabel LiC18_scf
NumberOfAtoms   19
NumberOfSpecies 2
%block ChemicalSpeciesLabel
1  3   Li-gga
2  6   C-gga
%endblock ChemicalSpeciesLabel
PAO.BasisSize  SZP
PAO.EnergyShift  10 meV
%block PS.Lmax
C-gga   2
Li-gga  2
%endblock PS.Lmax
LatticeConstant 1.000000 Ang
%block LatticeVectors
	4.3161300000	0.0000000000	0.0000000000
	-2.1580650000	3.7378782260	0.0000000000
	0.0000000000	0.0000000000	15.5394134000
%endblock LatticeVectors
AtomicCoordinatesFormat Ang
%block AtomicCoordinatesAndAtomicSpecies
	0.00000000	0.00000000	0.00000000	2
	-0.70288177	1.21742694	2.58990741	1
	-1.45518323	2.52045129	12.94950599	1
	1.45518323	2.52045129	2.58990741	1
	0.70288177	1.21742694	12.94950599	1
	1.40576354	0.00000000	2.58990741	1
	2.91036646	0.00000000	12.94950599	1
	-1.45518323	2.52045129	2.58990741	1
	-0.70288177	1.21742694	12.94950599	1
	0.70288177	1.21742694	2.58990741	1
	1.45518323	2.52045129	12.94950599	1
	2.91036646	0.00000000	2.58990741	1
	1.40576354	0.00000000	12.94950599	1
	-0.70288177	1.21742694	7.76970670	1
	-1.45518323	2.52045129	7.76970670	1
	1.45518323	2.52045129	7.76970670	1
	0.70288177	1.21742694	7.76970670	1
	1.40576354	0.00000000	7.76970670	1
	2.91036646	0.00000000	7.76970670	1
%endblock AtomicCoordinatesAndAtomicSpecies
Kgrid_NoTRS  T
%block kgrid_MonkhorstPack
3       0       0       0.0
0       3       0       0.0
0       0       3       0.0
%endblock kgrid_MonkhorstPack
AtomCoorFormatOut Ang
BlockSize 1
#ProcessorY 12
Diag.ParallelOverK   T
Diag.DivideAndConquer F
MeshCutoff   300 Ry
SCF.FreeE.Tolerance 1E-3 eV
SCF.EDM.Tolerance   5E-3 eV
DM.Tolerance  1E-3
DM.Require.Energy.Convergence T
DM.NumberPulay 4
XC.Functional GGA
XC.Authors    PBE
UseSaveData        F
MD.TypeOfRun       CG
MD.VariableCell    F
MD.NumCGsteps      00
MD.MaxCGDispl      0.200000 Bohr
MD.MaxStressTol    1.000000 GPa
MD.MaxForceTol     0.010000 eV/Ang
WriteMDHistory T
WriteCoorStep T
WriteForces T
WriteCoorStep    T
WriteEigenValues T
WriteDM    F
MM.UnitsDistance Ang  # what this program prints out DO NOT CHANGE
MM.UnitsEnergy    eV  # what this program prints out DO NOT CHANGE
MM.Grimme.S6     0.75 # Grimme-paper for PBE (correct for your functional)
MM.Grimme.D     20.   # Grimme-paper (correct for your functional)
%block MM.Potentials
  1   1 Grimme     16.69      1.650 # Li, 10.1002/jcc.20495
  1   2 Grimme     17.40      2.277 # Li / C
  2   2 Grimme     18.14      2.904 # C, 10.1002/jcc.20495
%endblock MM.Potentials
#%block ProjectedDensityOfStates
# -200.0  120.0  0.4  12800  eV
#%endblock ProjectedDensityOfStates
************************** End of input data file *****************************

reinit: -----------------------------------------------------------------------
reinit: System Name: LiC18_scf
reinit: -----------------------------------------------------------------------
reinit: System Label: LiC18_scf
reinit: -----------------------------------------------------------------------
Reading two-body potentials
Grimme - two-body potential between 1 and 1
Grimme - two-body potential between 1 and 2
Grimme - two-body potential between 2 and 2

initatom: Reading input for the pseudopotentials and atomic orbitals ----------
Species number:   1 Atomic number:    3 Label: Li-gga
Species number:   2 Atomic number:    6 Label: C-gga

Ground state valence configuration:   2s01
Reading pseudopotential information in formatted form from Li-gga.psf

Valence configuration for pseudopotential generation:
2s( 1.00) rc: 2.28
2p( 0.00) rc: 2.28
3d( 0.00) rc: 2.59
4f( 0.00) rc: 2.59
Ground state valence configuration:   2s02  2p02
Reading pseudopotential information in formatted form from C-gga.psf

Valence configuration for pseudopotential generation:
2s( 2.00) rc: 1.56
2p( 2.00) rc: 1.56
3d( 0.00) rc: 1.56
4f( 0.00) rc: 1.56
relmxkb: Read Max KB Ang. Momentum=    2 for species C-gga
relmxkb: Read Max KB Ang. Momentum=    2 for species Li-gga

<basis_specs>
===============================================================================
Li-gga               Z=   3    Mass=  6.9400        Charge= 0.17977+309
Lmxo=0 Lmxkb= 2    BasisType=split      Semic=F
L=0  Nsemic=0  Cnfigmx=2
          i=1  nzeta=1  polorb=1  (2s)
            splnorm:   0.15000    
               vcte:    0.0000    
               rinn:    0.0000    
               qcoe:    0.0000    
               qyuk:    0.0000    
               qwid:   0.10000E-01
                rcs:    0.0000    
            lambdas:    1.0000    
-------------------------------------------------------------------------------
L=0  Nkbl=1  erefs: 0.17977+309
L=1  Nkbl=1  erefs: 0.17977+309
L=2  Nkbl=1  erefs: 0.17977+309
===============================================================================
</basis_specs>

atom: Called for Li-gga                (Z =   3)

read_vps: Pseudopotential generation method:
read_vps: ATM 3.2.2 Troullier-Martins                       
Valence charge for ps generation:    1.00000

read_vps: Pseudopotential includes a core correction:
read_vps: Pseudo-core for xc-correction

xc_check: Exchange-correlation functional:
xc_check: GGA Perdew, Burke & Ernzerhof 1996
V l=0 = -2*Zval/r beyond r=  2.2278
V l=1 = -2*Zval/r beyond r=  2.2278
V l=2 = -2*Zval/r beyond r=  2.5245
All V_l potentials equal beyond r=  2.4622
This should be close to max(r_c) in ps generation
All pots = -2*Zval/r beyond r=  2.5245

VLOCAL1: 99.0% of the norm of Vloc inside      7.160 Ry
VLOCAL1: 99.9% of the norm of Vloc inside     16.318 Ry
atom: Maximum radius for 4*pi*r*r*local-pseudopot. charge    2.86079
atom: Maximum radius for r*vlocal+2*Zval:    2.43160
GHOST: No ghost state for L =  0
GHOST: No ghost state for L =  1
GHOST: No ghost state for L =  2

KBgen: Kleinman-Bylander projectors: 
   l= 0   rc=  2.654023   el= -0.211234   Ekb=  1.742119   kbcos=  0.228463
   l= 1   rc=  2.721230   el= -0.080095   Ekb= -1.122375   kbcos= -0.147941
   l= 2   rc=  2.825246   el=  0.002001   Ekb= -0.207076   kbcos= -0.031965

KBgen: Total number of Kleinman-Bylander projectors:    9
atom: -------------------------------------------------------------------------

atom: SANKEY-TYPE ORBITALS:

SPLIT: Orbitals with angular momentum L= 0

SPLIT: Basis orbitals for state 2s

SPLIT: PAO cut-off radius determined from an
SPLIT: energy shift=  0.000735 Ry

   izeta = 1
                 lambda =    1.000000
                     rc =   11.897381
                 energy =   -0.210580
                kinetic =    0.143382
    potential(screened) =   -0.353962
       potential(ionic) =   -0.533453

POLgen: Perturbative polarization orbital with L=  1

POLgen: Polarization orbital for state 2s

   izeta = 1
                     rc =   11.897381
                 energy =   -0.027011
                kinetic =    0.282985
    potential(screened) =   -0.309997
       potential(ionic) =   -0.490997
atom: Total number of Sankey-type orbitals:  4

atm_pop: Valence configuration (for local Pseudopot. screening):
 2s( 1.00)                                                            
Vna: chval, zval:    1.00000   1.00000

Vna:  Cut-off radius for the neutral-atom potential:  11.897381
comcore: Pseudo-core radius Rcore=  3.450946

atom: _________________________________________________________________________

<basis_specs>
===============================================================================
C-gga                Z=   6    Mass=  12.010        Charge= 0.17977+309
Lmxo=1 Lmxkb= 2    BasisType=split      Semic=F
L=0  Nsemic=0  Cnfigmx=2
          i=1  nzeta=1  polorb=0  (2s)
            splnorm:   0.15000    
               vcte:    0.0000    
               rinn:    0.0000    
               qcoe:    0.0000    
               qyuk:    0.0000    
               qwid:   0.10000E-01
                rcs:    0.0000    
            lambdas:    1.0000    
L=1  Nsemic=0  Cnfigmx=2
          i=1  nzeta=1  polorb=1  (2p)
            splnorm:   0.15000    
               vcte:    0.0000    
               rinn:    0.0000    
               qcoe:    0.0000    
               qyuk:    0.0000    
               qwid:   0.10000E-01
                rcs:    0.0000    
            lambdas:    1.0000    
-------------------------------------------------------------------------------
L=0  Nkbl=1  erefs: 0.17977+309
L=1  Nkbl=1  erefs: 0.17977+309
L=2  Nkbl=1  erefs: 0.17977+309
===============================================================================
</basis_specs>

atom: Called for C-gga                 (Z =   6)

read_vps: Pseudopotential generation method:
read_vps: ATM 3.2.2 Troullier-Martins                       
Valence charge for ps generation:    4.00000

xc_check: Exchange-correlation functional:
xc_check: GGA Perdew, Burke & Ernzerhof 1996
V l=0 = -2*Zval/r beyond r=  1.5227
V l=1 = -2*Zval/r beyond r=  1.5227
V l=2 = -2*Zval/r beyond r=  1.5227
All V_l potentials equal beyond r=  1.4851
This should be close to max(r_c) in ps generation
All pots = -2*Zval/r beyond r=  1.5227

VLOCAL1: 99.0% of the norm of Vloc inside     19.682 Ry
VLOCAL1: 99.9% of the norm of Vloc inside     44.856 Ry
atom: Maximum radius for 4*pi*r*r*local-pseudopot. charge    1.79142
atom: Maximum radius for r*vlocal+2*Zval:    1.54183
GHOST: No ghost state for L =  0
GHOST: No ghost state for L =  1
GHOST: No ghost state for L =  2

KBgen: Kleinman-Bylander projectors: 
   l= 0   rc=  1.661951   el= -1.010689   Ekb=  5.289847   kbcos=  0.316429
   l= 1   rc=  1.661951   el= -0.388490   Ekb= -4.102504   kbcos= -0.351025
   l= 2   rc=  1.747182   el=  0.001971   Ekb= -1.006005   kbcos= -0.008530

KBgen: Total number of Kleinman-Bylander projectors:    9
atom: -------------------------------------------------------------------------

atom: SANKEY-TYPE ORBITALS:

SPLIT: Orbitals with angular momentum L= 0

SPLIT: Basis orbitals for state 2s

SPLIT: PAO cut-off radius determined from an
SPLIT: energy shift=  0.000735 Ry

   izeta = 1
                 lambda =    1.000000
                     rc =    5.948690
                 energy =   -1.010099
                kinetic =    0.827121
    potential(screened) =   -1.837220
       potential(ionic) =   -5.392783

SPLIT: Orbitals with angular momentum L= 1

SPLIT: Basis orbitals for state 2p

SPLIT: PAO cut-off radius determined from an
SPLIT: energy shift=  0.000735 Ry

   izeta = 1
                 lambda =    1.000000
                     rc =    7.638387
                 energy =   -0.387843
                kinetic =    2.314739
    potential(screened) =   -2.702582
       potential(ionic) =   -6.092371

POLgen: Perturbative polarization orbital with L=  2

POLgen: Polarization orbital for state 2p

   izeta = 1
                     rc =    7.638387
                 energy =    0.921402
                kinetic =    1.955040
    potential(screened) =   -1.033637
       potential(ionic) =   -3.679558
atom: Total number of Sankey-type orbitals:  9

atm_pop: Valence configuration (for local Pseudopot. screening):
 2s( 2.00)                                                            
 2p( 2.00)                                                            
Vna: chval, zval:    4.00000   4.00000

Vna:  Cut-off radius for the neutral-atom potential:   7.638387

atom: _________________________________________________________________________

prinput: Basis input ----------------------------------------------------------

PAO.BasisType split     

%block ChemicalSpeciesLabel
    1    3 Li-gga                  # Species index, atomic number, species label
    2    6 C-gga                   # Species index, atomic number, species label
%endblock ChemicalSpeciesLabel

%block PAO.Basis                 # Define Basis set
Li-gga                1                    # Species label, number of l-shells
 n=2   0   1 P   1                   # n, l, Nzeta, Polarization, NzetaPol
  11.897   
   1.000   
C-gga                 2                    # Species label, number of l-shells
 n=2   0   1                         # n, l, Nzeta 
   5.949   
   1.000   
 n=2   1   1 P   1                   # n, l, Nzeta, Polarization, NzetaPol
   7.638   
   1.000   
%endblock PAO.Basis

prinput: ----------------------------------------------------------------------

coor:   Atomic-coordinates input format  =     Cartesian coordinates
coor:                                          (in Angstroms)

siesta: Atomic coordinates (Bohr) and species
siesta:      0.00000   0.00000   0.00000  2        1
siesta:     -1.32825   2.30060   4.89422  1        2
siesta:     -2.74990   4.76296  24.47103  1        3
siesta:      2.74990   4.76296   4.89422  1        4
siesta:      1.32825   2.30060  24.47103  1        5
siesta:      2.65651   0.00000   4.89422  1        6
siesta:      5.49980   0.00000  24.47103  1        7
siesta:     -2.74990   4.76296   4.89422  1        8
siesta:     -1.32825   2.30060  24.47103  1        9
siesta:      1.32825   2.30060   4.89422  1       10
siesta:      2.74990   4.76296  24.47103  1       11
siesta:      5.49980   0.00000   4.89422  1       12
siesta:      2.65651   0.00000  24.47103  1       13
siesta:     -1.32825   2.30060  14.68262  1       14
siesta:     -2.74990   4.76296  14.68262  1       15
siesta:      2.74990   4.76296  14.68262  1       16
siesta:      1.32825   2.30060  14.68262  1       17
siesta:      2.65651   0.00000  14.68262  1       18
siesta:      5.49980   0.00000  14.68262  1       19

siesta: System type = bulk      

initatomlists: Number of atoms, orbitals, and projectors:     19    81   171

siesta: ******************** Simulation parameters ****************************
siesta:
siesta: The following are some of the parameters of the simulation.
siesta: A complete list of the parameters used, including default values,
siesta: can be found in file out.fdf
siesta:
redata: Spin configuration                          = none
redata: Number of spin components                   = 1
redata: Time-Reversal Symmetry                      = T
redata: Spin spiral                                 = F
redata: Long output                                 =   F
redata: Number of Atomic Species                    =        2
redata: Charge density info will appear in .RHO file
redata: Write Mulliken Pop.                         = NO
redata: Matel table size (NRTAB)                    =     1024
redata: Mesh Cutoff                                 =   300.0000 Ry
redata: Net charge of the system                    =     0.0000 |e|
redata: Min. number of SCF Iter                     =        0
redata: Max. number of SCF Iter                     =     1000
redata: SCF convergence failure will abort job
redata: SCF mix quantity                            = Hamiltonian
redata: Mix DM or H after convergence               =   F
redata: Recompute H after scf cycle                 =   F
redata: Mix DM in first SCF step                    =   T
redata: Write Pulay info on disk                    =   F
redata: New DM Occupancy tolerance                  = 0.000000000001
redata: No kicks to SCF
redata: DM Mixing Weight for Kicks                  =     0.5000
redata: Require Harris convergence for SCF          =   F
redata: Harris energy tolerance for SCF             =     0.000100 eV
redata: Require DM convergence for SCF              =   T
redata: DM tolerance for SCF                        =     0.001000
redata: Require EDM convergence for SCF             =   F
redata: EDM tolerance for SCF                       =     0.005000 eV
redata: Require H convergence for SCF               =   T
redata: Hamiltonian tolerance for SCF               =     0.001000 eV
redata: Require (free) Energy convergence for SCF   =   T
redata: (free) Energy tolerance for SCF             =     0.001000 eV
redata: Using Saved Data (generic)                  =   F
redata: Use continuation files for DM               =   F
redata: Neglect nonoverlap interactions             =   F
redata: Method of Calculation                       = Diagonalization
redata: Electronic Temperature                      =   299.9869 K
redata: Fix the spin of the system                  =   F
redata: Dynamics option                             = Single-point calculation
mix.SCF: Pulay mixing                            = Pulay
mix.SCF:    Variant                              = stable
mix.SCF:    History steps                        = 4
mix.SCF:    Linear mixing weight                 =     0.250000
mix.SCF:    Mixing weight                        =     0.250000
mix.SCF:    SVD condition                        = 0.1000E-07
redata: ***********************************************************************

%block SCF.Mixers
  Pulay
%endblock SCF.Mixers

%block SCF.Mixer.Pulay
  # Mixing method
  method pulay
  variant stable

  # Mixing options
  weight 0.2500
  weight.linear 0.2500
  history 4
%endblock SCF.Mixer.Pulay

DM_history_depth set to one: no extrapolation allowed by default for geometry relaxation
Size of DM history Fstack: 1
Total number of electrons:    22.000000
Total ionic charge:    22.000000

* ProcessorY, Blocksize:    4   1


* Orbital distribution balance (max,min):     6     5

 Kpoints in:           18 . Kpoints trimmed:           14

siesta: k-grid: Number of k-points =    14
siesta: k-grid: Cutoff (effective) =     6.474 Ang
siesta: k-grid: Supercell and displacements
siesta: k-grid:    3   0   0      0.000
siesta: k-grid:    0   3   0      0.000
siesta: k-grid:    0   0   3      0.000

diag: Algorithm                                     = Expert
diag: Parallel over k                               =   T
diag: Use parallel 2D distribution                  =   T
diag: Parallel block-size                           = 1
diag: Parallel distribution                         =     4 x     4
diag: Used triangular part                          = Lower
diag: Absolute tolerance                            =  0.100E-15
diag: Orthogonalization factor                      =  0.100E-05
diag: Memory factor                                 =  1.0000

superc: Internal auxiliary supercell:     9 x     9 x     3  =     243
superc: Number of atoms, orbitals, and projectors:   4617  19683  41553


ts: **************************************************************
ts: Save H and S matrices                           =    F
ts: Save DM and EDM matrices                        =    F
ts: Only save the overlap matrix S                  =    F
ts: **************************************************************

************************ Begin: TS CHECKS AND WARNINGS ************************
************************ End: TS CHECKS AND WARNINGS **************************


                     ====================================
                        Single-point calculation
                     ====================================

outcoor: Atomic coordinates (Ang):                          
    0.00000000    0.00000000    0.00000000   2       1  C-gga
   -0.70288177    1.21742694    2.58990741   1       2  Li-gga
   -1.45518323    2.52045129   12.94950599   1       3  Li-gga
    1.45518323    2.52045129    2.58990741   1       4  Li-gga
    0.70288177    1.21742694   12.94950599   1       5  Li-gga
    1.40576354    0.00000000    2.58990741   1       6  Li-gga
    2.91036646    0.00000000   12.94950599   1       7  Li-gga
   -1.45518323    2.52045129    2.58990741   1       8  Li-gga
   -0.70288177    1.21742694   12.94950599   1       9  Li-gga
    0.70288177    1.21742694    2.58990741   1      10  Li-gga
    1.45518323    2.52045129   12.94950599   1      11  Li-gga
    2.91036646    0.00000000    2.58990741   1      12  Li-gga
    1.40576354    0.00000000   12.94950599   1      13  Li-gga
   -0.70288177    1.21742694    7.76970670   1      14  Li-gga
   -1.45518323    2.52045129    7.76970670   1      15  Li-gga
    1.45518323    2.52045129    7.76970670   1      16  Li-gga
    0.70288177    1.21742694    7.76970670   1      17  Li-gga
    1.40576354    0.00000000    7.76970670   1      18  Li-gga
    2.91036646    0.00000000    7.76970670   1      19  Li-gga

superc: Internal auxiliary supercell:     9 x     9 x     3  =     243
superc: Number of atoms, orbitals, and projectors:   4617  19683  41553

outcell: Unit cell vectors (Ang):
        4.316130    0.000000    0.000000
       -2.158065    3.737878    0.000000
        0.000000    0.000000   15.539413

outcell: Cell vector modules (Ang)   :    4.316130    4.316130   15.539413
outcell: Cell angles (23,13,12) (deg):     90.0000     90.0000    120.0000
outcell: Cell volume (Ang**3)        :    250.7000
<dSpData1D:S at geom step 0
  <sparsity:sparsity for geom step 0
    nrows_g=81 nrows=6 sparsity=3.3781 nnzs=22164, refcount: 7>
  <dData1D:(new from dSpData1D) n=22164, refcount: 1>
refcount: 1>
new_DM -- step:     1
Initializing Density Matrix...
DM filled with atomic data:
<dSpData2D:DM initialized from atoms
  <sparsity:sparsity for geom step 0
    nrows_g=81 nrows=6 sparsity=3.3781 nnzs=22164, refcount: 8>
  <dData2D:DM n=22164 m=1, refcount: 1>
refcount: 1>
No. of atoms with KB's overlaping orbs in proc 0. Max # of overlaps:     373     640
New grid distribution:   1
           1       1:   20    1:    5    1:   21
           2       1:   20    1:    5   22:   41
           3       1:   20    1:    5   42:   61
           4       1:   20    1:    5   62:   81
           5       1:   20    6:   10    1:   21
           6       1:   20    6:   10   22:   41
           7       1:   20    6:   10   42:   61
           8       1:   20    6:   10   62:   81
           9       1:   20   11:   15    1:   21
          10       1:   20   11:   15   22:   41
          11       1:   20   11:   15   42:   61
          12       1:   20   11:   15   62:   81
          13       1:   20   16:   20    1:   21
          14       1:   20   16:   20   22:   41
          15       1:   20   16:   20   42:   61
          16       1:   20   16:   20   62:   81

InitMesh: MESH =    40 x    40 x   162 =      259200
InitMesh: (bp) =    20 x    20 x    81 =       32400
InitMesh: Mesh cutoff (required, used) =   300.000   300.374 Ry
ExtMesh (bp) on 0 =   156 x   141 x   153 =     3365388
New grid distribution:   2
           1       1:   20    1:   10    1:    9
           2       1:   20    1:   10   20:   29
           3       1:   20    1:   10   41:   51
           4       1:   20    1:   10   63:   72
           5       1:   20    1:   10   10:   19
           6       1:   20    1:   10   30:   40
           7       1:   20   11:   20   10:   19
           8       1:   20    1:   10   73:   81
           9       1:   20   11:   20    1:    9
          10       1:   20   11:   20   30:   40
          11       1:   20   11:   20   52:   62
          12       1:   20   11:   20   63:   72
          13       1:   20    1:   10   52:   62
          14       1:   20   11:   20   20:   29
          15       1:   20   11:   20   41:   51
          16       1:   20   11:   20   73:   81
New grid distribution:   3
           1       1:   20    1:   10    1:   11
           2       1:   20    1:   10   22:   31
           3       1:   20    1:   10   52:   61
           4       1:   20    1:   10   32:   41
           5       1:   20    1:   10   72:   81
           6       1:   20    1:   10   12:   21
           7       1:   20    1:   10   42:   51
           8       1:   20    1:   10   62:   71
           9       1:   20   11:   20    1:   11
          10       1:   20   11:   20   32:   41
          11       1:   20   11:   20   42:   51
          12       1:   20   11:   20   62:   71
          13       1:   20   11:   20   12:   21
          14       1:   20   11:   20   22:   31
          15       1:   20   11:   20   52:   61
          16       1:   20   11:   20   72:   81
Setting up quadratic distribution...
ExtMesh (bp) on 0 =   156 x   146 x   141 =     3211416
PhiOnMesh: Number of (b)points on node 0 =                 1800
PhiOnMesh: nlist on node 0 =               606178

stepf: Fermi-Dirac step function

siesta: Program's energy decomposition (eV):
siesta: Ebs     =      -301.895160
siesta: Eions   =       439.895300
siesta: Ena     =       155.229147
siesta: Ekin    =       162.056014
siesta: Enl     =        59.901573
siesta: Eso     =         0.000000
siesta: Edftu   =         0.000000
siesta: DEna    =        13.374980
siesta: DUscf   =        29.632985
siesta: DUext   =         0.000000
siesta: Exc     =      -195.506008
siesta: eta*DQ  =         0.000000
siesta: Emadel  =         0.000000
siesta: Emeta   =         0.000000
siesta: Emolmec =        -7.300141
siesta: Ekinion =         0.000000
siesta: Eharris =      -171.727857
siesta: Etot    =      -222.506750
siesta: FreeEng =      -222.523787

        iscf     Eharris(eV)        E_KS(eV)     FreeEng(eV)     dDmax    Ef(eV) dHmax(eV)
   scf:    1     -171.727857     -222.506750     -222.523787  1.410879 -9.402795 25.873790
timer: Routine,Calls,Time,% = IterSCF        1       5.938  49.33
   scf:    2     1158.693035      177.352958      177.342241  1.925621 -9.474633106.527354
   scf:    3     -332.705775     -222.831803     -222.865809  1.473435-10.391906 23.314808
   scf:    4     -220.417130     -239.229065     -239.264764  0.868299-10.114956  9.772645
   scf:    5       88.514856     -142.917835     -142.929531  1.654583-10.306029 56.429252
   scf:    6     -221.239917     -241.447595     -241.485056  1.495688-10.121925  5.490654
   scf:    7     -242.820974     -242.284053     -242.318231  0.074107-10.138368  2.393876
   scf:    8     -242.115253     -242.206069     -242.239403  0.021038-10.151666  2.944201
   scf:    9     -238.766539     -241.608647     -241.659962  0.193912-10.222429  5.307962
   scf:   10     -214.609097     -231.052287     -231.112919  0.359399-10.274837 18.755327
   scf:   11     -246.157823     -241.789950     -241.848110  0.355243-10.190949  4.716701
   scf:   12     -242.644033     -242.527457     -242.570282  0.120546-10.175307  0.314093
   scf:   13     -242.442876     -242.492809     -242.538846  0.015981-10.177670  0.978103
   scf:   14     -242.530749     -242.533600     -242.573967  0.027307-10.173561  0.143633
   scf:   15     -242.532749     -242.533273     -242.573663  0.001856-10.172802  0.173590
   scf:   16     -242.517881     -242.529445     -242.571435  0.015373-10.176025  0.302407
   scf:   17     -242.535009     -242.533718     -242.574748  0.009483-10.174383  0.016823
   scf:   18     -242.533673     -242.533716     -242.574799  0.002137-10.175051  0.013793
   scf:   19     -242.533491     -242.533621     -242.574796  0.001009-10.175468  0.018925
   scf:   20     -242.533630     -242.533626     -242.574796  0.000195-10.175646  0.019514
   scf:   21     -242.533653     -242.533641     -242.574801  0.000184-10.175442  0.014694
   scf:   22     -242.533790     -242.533722     -242.574810  0.000552-10.175682  0.004421
   scf:   23     -242.533630     -242.533678     -242.574809  0.000408-10.175863  0.008113
   scf:   24     -242.533654     -242.533666     -242.574808  0.000235-10.176076  0.010530
   scf:   25     -242.533733     -242.533701     -242.574812  0.000299-10.175999  0.001495
   scf:   26     -242.533737     -242.533720     -242.574811  0.000172-10.175991  0.004272
   scf:   27     -242.533690     -242.533705     -242.574812  0.000145-10.176060  0.000299

SCF Convergence by FreeE+DM+H criterion
|FreeE_i-FreeE_(i-1)| (eV) <     0.00100000
max |DM_out - DM_in|         :     0.0001451363
max |H_out - H_in|      (eV) :     0.0002987277
SCF cycle converged after 27 iterations

Using DM_out to compute the final energy and forces
No. of atoms with KB's overlaping orbs in proc 0. Max # of overlaps:     373     640

MM-Stress (kbar):      -11.94      -11.94       13.31        0.00       -0.00        0.00

siesta: E_KS(eV) =             -242.5337

siesta: E_KS - E_eggbox =      -242.5337

siesta: Atomic forces (eV/Ang):
     1    0.000000    0.000000   -0.000003
     2   -0.232982    0.403525   -0.294345
     3    0.232977   -0.403517    0.294348
     4   -0.233012   -0.403588   -0.294393
     5    0.233007    0.403580    0.294396
     6    0.465954   -0.000005   -0.294345
     7   -0.465944    0.000005    0.294348
     8    0.232982   -0.403525   -0.294345
     9   -0.232977    0.403517    0.294348
    10    0.233012    0.403588   -0.294393
    11   -0.233007   -0.403580    0.294396
    12   -0.465954    0.000005   -0.294345
    13    0.465944   -0.000005    0.294348
    14   -0.204194    0.353633   -0.000002
    15    0.204194   -0.353633   -0.000002
    16   -0.204202   -0.353689   -0.000002
    17    0.204202    0.353689   -0.000002
    18    0.408352   -0.000021   -0.000002
    19   -0.408352    0.000021   -0.000002
----------------------------------------
   Tot   -0.000000    0.000000    0.000000
----------------------------------------
   Max    0.465954
   Res    0.285496    sqrt( Sum f_i^2 / 3N )
----------------------------------------
   Max    0.465954    constrained

Stress tensor Voigt[x,y,z,yz,xz,xy] (kbar):     -843.10     -843.10      143.37       -0.00       -0.00       -0.00
(Free)E + p*V (eV/cell)     -162.1042
Target enthalpy (eV/cell)     -242.5748

siesta: Eigenvalues (eV):
  ik is       eps
   1  1  -18.8066  -12.7837  -11.6324  -11.6324  -11.1689  -11.1689  -10.9197  -10.9197  -10.8271  -10.7385
         -10.0436  -10.0436   -9.5785   -7.4548   -7.4548   -7.3100   -6.9653   -6.9653   -6.4701   -6.4701
   -6.3578   -5.0097   -2.7812   -2.5375   -2.3992   -2.1471   -2.1471   -1.6400   -1.6400   -1.5346
   -1.5346    4.4845    4.4845    4.7032    4.7032    5.1282    5.1282    5.1741    5.3118    5.3824
    5.5430    5.5431    6.0193    6.5397    6.5397    6.9865    7.7928    7.7928    8.7004   12.2903
   12.2903   14.5932   14.5932   14.7845   15.7351   15.7352   16.0669   16.1335   17.2680   17.7012
   17.7012   21.1233   21.1234   21.8878   21.8879   22.6133   22.6318   22.6318   22.8361   23.5096
   27.4428   27.4428   42.1499   42.1499   42.2230   42.2230   42.7390   42.7390   45.7413   45.7557
   46.0954
   2  1  -18.8915  -13.0919  -12.0174  -11.7588  -11.5658  -11.1446  -10.7366  -10.6862  -10.6180  -10.3229
         -10.2401  -10.2332  -10.1106   -9.2246   -7.9798   -7.6831   -6.1676   -5.6272   -5.2885   -4.6137
   -4.5592   -4.0663   -3.2671   -2.6861   -2.6457   -2.5487   -2.2711   -2.2706   -1.8282   -1.7336
   -0.9113   -0.3975   -0.1657    0.0464    0.6594    0.8534    1.3308    5.7603    6.0163    6.3371
    6.7022    7.0611    7.2543    7.4222    7.6218    8.1998    8.8195   11.2054   11.6154   12.7215
   13.7996   13.8942   14.4646   14.8533   15.3748   16.1609   18.0281   18.2148   19.8832   19.9990
   22.4098   23.4447   23.7710   24.4214   25.2900   25.7532   26.6738   26.7479   27.2933   28.7323
   28.9736   32.0596   47.8526   48.0998   49.1440   51.5671   51.9826   53.1460   54.5362   54.9200
   55.2129
   3  1  -18.8915  -13.0919  -12.0174  -11.7588  -11.5659  -11.1446  -10.7366  -10.6862  -10.6180  -10.3229
         -10.2400  -10.2332  -10.1107   -9.2246   -7.9798   -7.6831   -6.1676   -5.6272   -5.2885   -4.6137
   -4.5593   -4.0663   -3.2671   -2.6861   -2.6457   -2.5487   -2.2711   -2.2706   -1.8282   -1.7336
   -0.9113   -0.3975   -0.1657    0.0464    0.6594    0.8534    1.3308    5.7603    6.0163    6.3371
    6.7022    7.0611    7.2543    7.4222    7.6218    8.1998    8.8196   11.2055   11.6154   12.7215
   13.7996   13.8942   14.4645   14.8533   15.3748   16.1609   18.0281   18.2146   19.8832   19.9990
   22.4099   23.4446   23.7710   24.4214   25.2900   25.7532   26.6738   26.7479   27.2933   28.7323
   28.9735   32.0595   47.8525   48.0997   49.1440   51.5671   51.9826   53.1460   54.5362   54.9200
   55.2129
   4  1  -18.8915  -13.0919  -12.0174  -11.7588  -11.5658  -11.1446  -10.7366  -10.6862  -10.6180  -10.3229
         -10.2401  -10.2332  -10.1106   -9.2246   -7.9798   -7.6831   -6.1676   -5.6272   -5.2885   -4.6137
   -4.5592   -4.0663   -3.2671   -2.6861   -2.6457   -2.5487   -2.2711   -2.2706   -1.8282   -1.7336
   -0.9113   -0.3975   -0.1657    0.0464    0.6594    0.8534    1.3308    5.7603    6.0163    6.3371
    6.7022    7.0611    7.2543    7.4222    7.6218    8.1998    8.8195   11.2054   11.6154   12.7215
   13.7996   13.8942   14.4646   14.8533   15.3748   16.1609   18.0281   18.2148   19.8832   19.9990
   22.4098   23.4447   23.7710   24.4214   25.2900   25.7532   26.6738   26.7479   27.2933   28.7323
   28.9736   32.0596   47.8526   48.0998   49.1440   51.5671   51.9826   53.1460   54.5362   54.9200
   55.2129
   5  1  -19.0378  -13.2537  -12.1118  -11.8443  -11.5836  -11.1452  -10.7719  -10.4499  -10.2660  -10.2266
         -10.0356   -9.9157   -9.9103   -9.9102   -9.2583   -7.1457   -3.7022   -3.7022   -3.3293   -3.3293
   -3.1520   -3.1520   -3.0716   -3.0716   -2.7816   -2.7816   -2.3595   -2.3595   -0.9046   -0.9046
   -0.5184   -0.5184   -0.2333   -0.2333   -0.1518   -0.1518    0.0460    0.0460    0.8205    0.8205
    5.6828   11.7859   11.7861   15.5367   15.5367   17.0225   17.0226   18.6315   18.6315   19.0441
   19.0441   19.3953   19.3953   19.9535   19.9535   20.8780   20.8780   21.2155   21.2155   24.6710
   24.6712   25.4483   25.6537   25.9669   27.6691   27.6691   34.3450   34.3451   35.8928   35.8929
   36.4005   36.4006   38.7813   39.4264   45.8638   47.3204   47.7652   47.9477   49.3841   49.6101
   51.7485
   6  1  -18.8066  -12.7824  -11.6360  -11.6360  -11.1621  -11.1621  -10.9199  -10.9199  -10.8317  -10.7537
         -10.0602  -10.0601   -9.5552   -7.3677   -7.3677   -7.3560   -7.1435   -7.1435   -6.3465   -6.3464
   -6.2467   -5.0824   -2.7684   -2.5406   -2.3963   -2.1656   -2.1656   -1.6237   -1.6237   -1.5392
   -1.5391    4.0753    4.0753    4.7314    4.8751    4.8751    5.1724    5.4913    5.4913    6.0211
    6.1089    6.1089    6.2510    6.2510    6.7210    6.7362    7.2077    7.2077    8.0212   12.2067
   12.2067   14.7145   14.9850   14.9850   15.6481   15.6482   16.2390   16.4311   17.0571   17.5779
   17.5780   21.0046   21.0047   22.1489   22.1489   22.3792   22.5004   22.5004   23.1263   23.4146
   27.4979   27.4979   42.0684   42.0684   42.1740   42.1740   42.8684   42.8685   45.6222   45.7966
   46.1730
   7  1  -18.8915  -13.0922  -12.0414  -11.7763  -11.5499  -11.1806  -10.7400  -10.6838  -10.6049  -10.3271
         -10.2633  -10.1575  -10.1107   -9.2234   -7.9352   -7.6726   -6.2259   -5.5084   -5.3528   -4.6791
   -4.4163   -4.1847   -3.1719   -2.7458   -2.6615   -2.5563   -2.2731   -2.2635   -1.9165   -1.4871
   -1.0686   -0.3908   -0.1702    0.0452    0.5555    0.9929    1.3018    5.7008    6.2659    6.5499
    6.5938    7.0493    7.0692    7.3282    7.7905    8.1265    9.3557   10.9046   11.9107   12.5952
   13.5471   13.8589   14.6152   14.9570   15.7749   16.2009   17.6845   18.1140   19.6196   20.2852
   22.3722   22.9981   24.2168   24.4877   24.9759   25.9822   26.7506   26.8255   27.2533   27.8318
   30.1187   31.8239   47.6111   48.5133   49.0052   51.3979   52.3750   52.9428   54.6299   54.8390
   55.1593
   8  1  -18.8915  -13.0922  -12.0414  -11.7763  -11.5499  -11.1806  -10.7400  -10.6838  -10.6049  -10.3271
         -10.2633  -10.1574  -10.1108   -9.2234   -7.9351   -7.6726   -6.2259   -5.5084   -5.3528   -4.6791
   -4.4163   -4.1847   -3.1719   -2.7458   -2.6615   -2.5563   -2.2731   -2.2635   -1.9165   -1.4871
   -1.0686   -0.3908   -0.1702    0.0452    0.5555    0.9929    1.3018    5.7008    6.2659    6.5499
    6.5938    7.0493    7.0692    7.3282    7.7905    8.1265    9.3558   10.9047   11.9107   12.5952
   13.5471   13.8589   14.6152   14.9569   15.7749   16.2008   17.6845   18.1138   19.6196   20.2853
   22.3723   22.9981   24.2168   24.4877   24.9758   25.9821   26.7506   26.8254   27.2533   27.8317
   30.1186   31.8239   47.6110   48.5132   49.0051   51.3979   52.3750   52.9428   54.6299   54.8391
   55.1593
   9  1  -18.8915  -13.0922  -12.0414  -11.7763  -11.5499  -11.1806  -10.7400  -10.6838  -10.6049  -10.3271
         -10.2633  -10.1575  -10.1107   -9.2234   -7.9352   -7.6726   -6.2259   -5.5084   -5.3528   -4.6791
   -4.4163   -4.1847   -3.1719   -2.7458   -2.6615   -2.5563   -2.2731   -2.2635   -1.9165   -1.4871
   -1.0686   -0.3908   -0.1702    0.0452    0.5555    0.9929    1.3018    5.7008    6.2659    6.5499
    6.5938    7.0493    7.0692    7.3282    7.7905    8.1265    9.3557   10.9046   11.9107   12.5952
   13.5471   13.8589   14.6152   14.9570   15.7749   16.2009   17.6845   18.1140   19.6196   20.2852
   22.3722   22.9981   24.2168   24.4877   24.9759   25.9822   26.7506   26.8255   27.2533   27.8318
   30.1187   31.8239   47.6111   48.5133   49.0052   51.3979   52.3750   52.9428   54.6299   54.8390
   55.1593
  10  1  -19.0393  -13.2486  -12.0804  -11.9518  -11.4872  -11.1414  -10.7379  -10.4214  -10.2370  -10.1951
         -10.1023   -9.9103   -9.9102   -9.8779   -9.2493   -7.1502   -3.6765   -3.6764   -3.4115   -3.4115
   -3.1029   -3.1029   -3.0928   -3.0928   -2.6666   -2.6666   -2.4563   -2.4562   -0.8851   -0.8851
   -0.5269   -0.5269   -0.2279   -0.2279   -0.1527   -0.1527    0.0455    0.0455    0.8137    0.8138
    5.7539   11.8713   11.8714   15.1498   15.1499   17.7013   17.7013   17.9697   17.9697   19.3369
   19.3370   19.3617   19.3617   20.2736   20.2736   20.5075   20.5075   21.4473   21.4473   24.5233
   24.5235   25.4435   25.6290   26.0719   27.7345   27.7345   34.5312   34.5313   35.4435   35.4436
   35.4847   36.6631   36.6632   44.3604   46.0775   46.7763   48.1031   48.1442   48.7463   49.4555
   50.0493
  11  1  -18.8915  -13.0922  -12.0414  -11.7763  -11.5499  -11.1806  -10.7400  -10.6838  -10.6049  -10.3271
         -10.2633  -10.1575  -10.1107   -9.2234   -7.9352   -7.6726   -6.2259   -5.5084   -5.3528   -4.6791
   -4.4163   -4.1847   -3.1719   -2.7458   -2.6615   -2.5563   -2.2731   -2.2635   -1.9165   -1.4871
   -1.0686   -0.3908   -0.1702    0.0452    0.5555    0.9929    1.3018    5.7008    6.2659    6.5499
    6.5938    7.0493    7.0692    7.3282    7.7905    8.1265    9.3557   10.9046   11.9107   12.5952
   13.5471   13.8589   14.6152   14.9570   15.7749   16.2009   17.6845   18.1140   19.6196   20.2852
   22.3722   22.9981   24.2168   24.4877   24.9759   25.9822   26.7506   26.8255   27.2533   27.8318
   30.1187   31.8239   47.6111   48.5133   49.0052   51.3979   52.3750   52.9428   54.6299   54.8390
   55.1593
  12  1  -18.8915  -13.0922  -12.0414  -11.7763  -11.5499  -11.1806  -10.7400  -10.6838  -10.6049  -10.3271
         -10.2633  -10.1574  -10.1108   -9.2234   -7.9351   -7.6726   -6.2259   -5.5084   -5.3528   -4.6791
   -4.4163   -4.1847   -3.1719   -2.7458   -2.6615   -2.5563   -2.2731   -2.2635   -1.9165   -1.4871
   -1.0686   -0.3908   -0.1702    0.0452    0.5555    0.9929    1.3018    5.7008    6.2659    6.5499
    6.5938    7.0493    7.0692    7.3282    7.7905    8.1265    9.3558   10.9047   11.9107   12.5952
   13.5471   13.8589   14.6152   14.9569   15.7749   16.2008   17.6845   18.1138   19.6196   20.2853
   22.3723   22.9981   24.2168   24.4877   24.9758   25.9821   26.7506   26.8254   27.2533   27.8317
   30.1186   31.8239   47.6110   48.5132   49.0051   51.3979   52.3750   52.9428   54.6299   54.8391
   55.1593
  13  1  -18.8915  -13.0922  -12.0414  -11.7763  -11.5499  -11.1806  -10.7400  -10.6838  -10.6049  -10.3271
         -10.2633  -10.1575  -10.1107   -9.2234   -7.9352   -7.6726   -6.2259   -5.5084   -5.3528   -4.6791
   -4.4163   -4.1847   -3.1719   -2.7458   -2.6615   -2.5563   -2.2731   -2.2635   -1.9165   -1.4871
   -1.0686   -0.3908   -0.1702    0.0452    0.5555    0.9929    1.3018    5.7008    6.2659    6.5499
    6.5938    7.0493    7.0692    7.3282    7.7905    8.1265    9.3557   10.9046   11.9107   12.5952
   13.5471   13.8589   14.6152   14.9570   15.7749   16.2009   17.6845   18.1140   19.6196   20.2852
   22.3722   22.9981   24.2168   24.4877   24.9759   25.9822   26.7506   26.8255   27.2533   27.8318
   30.1187   31.8239   47.6111   48.5133   49.0052   51.3979   52.3750   52.9428   54.6299   54.8390
   55.1593
  14  1  -18.8066  -12.7824  -11.6360  -11.6360  -11.1621  -11.1621  -10.9199  -10.9199  -10.8317  -10.7537
         -10.0602  -10.0601   -9.5552   -7.3677   -7.3677   -7.3560   -7.1435   -7.1435   -6.3465   -6.3464
   -6.2467   -5.0824   -2.7684   -2.5406   -2.3963   -2.1656   -2.1656   -1.6237   -1.6237   -1.5392
   -1.5391    4.0753    4.0753    4.7314    4.8751    4.8751    5.1724    5.4913    5.4913    6.0211
    6.1089    6.1089    6.2510    6.2510    6.7210    6.7362    7.2077    7.2077    8.0212   12.2067
   12.2067   14.7145   14.9850   14.9850   15.6481   15.6482   16.2390   16.4311   17.0571   17.5779
   17.5780   21.0046   21.0047   22.1489   22.1489   22.3792   22.5004   22.5004   23.1263   23.4146
   27.4979   27.4979   42.0684   42.0684   42.1740   42.1740   42.8684   42.8685   45.6222   45.7966
   46.1730
siesta: Fermi energy =     -10.176060 eV

siesta: Program's energy decomposition (eV):
siesta: Ebs     =      -262.020897
siesta: Eions   =       439.895300
siesta: Ena     =       155.229147
siesta: Ekin    =       192.909419
siesta: Enl     =        48.538048
siesta: Eso     =         0.000000
siesta: Edftu   =         0.000000
siesta: DEna    =         3.918131
siesta: DUscf   =         4.015441
siesta: DUext   =         0.000000
siesta: Exc     =      -199.948449
siesta: eta*DQ  =         0.000000
siesta: Emadel  =         0.000000
siesta: Emeta   =         0.000000
siesta: Emolmec =        -7.300141
siesta: Ekinion =         0.000000
siesta: Eharris =      -242.533690
siesta: Etot    =      -242.533705
siesta: FreeEng =      -242.574812

siesta: Final energy (eV):
siesta:  Band Struct. =    -262.020897
siesta:       Kinetic =     192.909419
siesta:       Hartree =     125.792933
siesta:       Edftu   =       0.000000
siesta:       Eso     =       0.000000
siesta:    Ext. field =       0.000000
siesta:   Exch.-corr. =    -199.948449
siesta:  Ion-electron =    -506.726012
siesta:       Ion-ion =     152.738545
siesta:       Ekinion =       0.000000
siesta:         Total =    -242.533705
siesta:         Fermi =     -10.176060

siesta: Atomic forces (eV/Ang):
siesta:      1    0.000000    0.000000   -0.000003
siesta:      2   -0.232982    0.403525   -0.294345
siesta:      3    0.232977   -0.403517    0.294348
siesta:      4   -0.233012   -0.403588   -0.294393
siesta:      5    0.233007    0.403580    0.294396
siesta:      6    0.465954   -0.000005   -0.294345
siesta:      7   -0.465944    0.000005    0.294348
siesta:      8    0.232982   -0.403525   -0.294345
siesta:      9   -0.232977    0.403517    0.294348
siesta:     10    0.233012    0.403588   -0.294393
siesta:     11   -0.233007   -0.403580    0.294396
siesta:     12   -0.465954    0.000005   -0.294345
siesta:     13    0.465944   -0.000005    0.294348
siesta:     14   -0.204194    0.353633   -0.000002
siesta:     15    0.204194   -0.353633   -0.000002
siesta:     16   -0.204202   -0.353689   -0.000002
siesta:     17    0.204202    0.353689   -0.000002
siesta:     18    0.408352   -0.000021   -0.000002
siesta:     19   -0.408352    0.000021   -0.000002
siesta: ----------------------------------------
siesta:    Tot   -0.000000    0.000000    0.000000

siesta: Stress tensor (static) (eV/Ang**3):
siesta:    -0.526216   -0.000001   -0.000000
siesta:    -0.000001   -0.526218   -0.000000
siesta:    -0.000000   -0.000000    0.089483

siesta: Cell volume =        250.699972 Ang**3

siesta: Pressure (static):
siesta:                Solid            Molecule  Units
siesta:           0.00349592          0.00331857  Ry/Bohr**3
siesta:           0.32098376          0.30470007  eV/Ang**3
siesta:         514.27824005        488.18860995  kBar
(Free)E+ p_basis*V_orbitals  =        -194.746495
(Free)Eharris+ p_basis*V_orbitals  =        -194.746480

cite: Please see "LiC18_scf.bib" for an exhaustive BiBTeX file.
cite: Please clearly indicate Siesta version in published work: 4.1.5
cite: This calculation has made use of the following articles
cite: which are encouraged to be cited in a published work.
        Primary SIESTA paper
          DOI: www.doi.org/10.1088/0953-8984/14/11/302

>> End of run:   9-NOV-2022  12:39:20
Job completed
