Siesta Version  : 4.1.5
Architecture    : x86_64-unknown-linux-gnu--unknown
Compiler version: GNU Fortran (GCC) 11.3.0
Compiler flags  : mpif90 -g -O2 -fallow-argument-mismatch
PP flags        : -DMPI -DFC_HAVE_FLUSH -DFC_HAVE_ABORT
Libraries       :  -I/global/software/sl-7.x86_64/modules/intel/2020.4.304/mkl/include  /globall/software/sl-7.x86_64/modules/intel/2020.4.304/mkl/lib/intel64/libmkl_scalapack_lp64.a -Wl,--start-group /global/software/sl-7.x86_64/modules/intel/2020.4.304/mkl/lib/intel64/libmkl_intel_lp64.a /global/software/sl-7.x86_64/modules/intel/2020.4.304/mkl/lib/intel64/libmkl_sequential.a /global/software/sl-7.x86_64/modules/intel/2020.4.304/mkl/lib/intel64/libmkl_core.a /global/software/sl-7.x86_64/modules/intel/2020.4.304/mkl/lib/intel64/libmkl_blacs_openmpi_lp64.a -Wl,--end-group -lpthread -lm -ldl
PARALLEL version

* Running on 16 nodes in parallel
>> Start of run:   9-NOV-2022  11:42:15

                           ***********************       
                           *  WELCOME TO SIESTA  *       
                           ***********************       

reinit: Reading from standard input
reinit: Dumped input in INPUT_TMP.10297
************************** Dump of input data file ****************************
SystemName LiC18_scf
SystemLabel LiC18_scf
NumberOfAtoms   19
NumberOfSpecies 2
%block ChemicalSpeciesLabel
1  3   Li-gga
2  6   C-gga
%endblock ChemicalSpeciesLabel
PAO.BasisSize  SZP
PAO.EnergyShift  10 meV
%block PS.Lmax
C-gga   2
Li-gga  2
%endblock PS.Lmax
LatticeConstant 1.000000 Ang
%block LatticeVectors
	4.3161300000	0.0000000000	0.0000000000
	-2.1580650000	3.7378782260	0.0000000000
	0.0000000000	0.0000000000	5.7717821200
%endblock LatticeVectors
AtomicCoordinatesFormat Ang
%block AtomicCoordinatesAndAtomicSpecies
	0.00000000	0.00000000	0.00000000	2
	-0.70288177	1.21742694	0.96196561	1
	-1.45518323	2.52045129	4.80981651	1
	1.45518323	2.52045129	0.96196561	1
	0.70288177	1.21742694	4.80981651	1
	1.40576354	0.00000000	0.96196561	1
	2.91036646	0.00000000	4.80981651	1
	-1.45518323	2.52045129	0.96196561	1
	-0.70288177	1.21742694	4.80981651	1
	0.70288177	1.21742694	0.96196561	1
	1.45518323	2.52045129	4.80981651	1
	2.91036646	0.00000000	0.96196561	1
	1.40576354	0.00000000	4.80981651	1
	-0.70288177	1.21742694	2.88589106	1
	-1.45518323	2.52045129	2.88589106	1
	1.45518323	2.52045129	2.88589106	1
	0.70288177	1.21742694	2.88589106	1
	1.40576354	0.00000000	2.88589106	1
	2.91036646	0.00000000	2.88589106	1
%endblock AtomicCoordinatesAndAtomicSpecies
Kgrid_NoTRS  T
%block kgrid_MonkhorstPack
3       0       0       0.0
0       3       0       0.0
0       0       3       0.0
%endblock kgrid_MonkhorstPack
AtomCoorFormatOut Ang
BlockSize 1
#ProcessorY 12
Diag.ParallelOverK   T
Diag.DivideAndConquer F
MeshCutoff   300 Ry
SCF.FreeE.Tolerance 1E-3 eV
SCF.EDM.Tolerance   5E-3 eV
DM.Tolerance  1E-3
DM.Require.Energy.Convergence T
DM.NumberPulay 4
XC.Functional GGA
XC.Authors    PBE
UseSaveData        F
MD.TypeOfRun       CG
MD.VariableCell    F
MD.NumCGsteps      00
MD.MaxCGDispl      0.200000 Bohr
MD.MaxStressTol    1.000000 GPa
MD.MaxForceTol     0.010000 eV/Ang
WriteMDHistory T
WriteCoorStep T
WriteForces T
WriteCoorStep    T
WriteEigenValues T
WriteDM    F
MM.UnitsDistance Ang  # what this program prints out DO NOT CHANGE
MM.UnitsEnergy    eV  # what this program prints out DO NOT CHANGE
MM.Grimme.S6     0.75 # Grimme-paper for PBE (correct for your functional)
MM.Grimme.D     20.   # Grimme-paper (correct for your functional)
%block MM.Potentials
  1   1 Grimme     16.69      1.650 # Li, 10.1002/jcc.20495
  1   2 Grimme     17.40      2.277 # Li / C
  2   2 Grimme     18.14      2.904 # C, 10.1002/jcc.20495
%endblock MM.Potentials
#%block ProjectedDensityOfStates
# -200.0  120.0  0.4  12800  eV
#%endblock ProjectedDensityOfStates
************************** End of input data file *****************************

reinit: -----------------------------------------------------------------------
reinit: System Name: LiC18_scf
reinit: -----------------------------------------------------------------------
reinit: System Label: LiC18_scf
reinit: -----------------------------------------------------------------------
Reading two-body potentials
Grimme - two-body potential between 1 and 1
Grimme - two-body potential between 1 and 2
Grimme - two-body potential between 2 and 2

initatom: Reading input for the pseudopotentials and atomic orbitals ----------
Species number:   1 Atomic number:    3 Label: Li-gga
Species number:   2 Atomic number:    6 Label: C-gga

Ground state valence configuration:   2s01
Reading pseudopotential information in formatted form from Li-gga.psf

Valence configuration for pseudopotential generation:
2s( 1.00) rc: 2.28
2p( 0.00) rc: 2.28
3d( 0.00) rc: 2.59
4f( 0.00) rc: 2.59
Ground state valence configuration:   2s02  2p02
Reading pseudopotential information in formatted form from C-gga.psf

Valence configuration for pseudopotential generation:
2s( 2.00) rc: 1.56
2p( 2.00) rc: 1.56
3d( 0.00) rc: 1.56
4f( 0.00) rc: 1.56
relmxkb: Read Max KB Ang. Momentum=    2 for species C-gga
relmxkb: Read Max KB Ang. Momentum=    2 for species Li-gga

<basis_specs>
===============================================================================
Li-gga               Z=   3    Mass=  6.9400        Charge= 0.17977+309
Lmxo=0 Lmxkb= 2    BasisType=split      Semic=F
L=0  Nsemic=0  Cnfigmx=2
          i=1  nzeta=1  polorb=1  (2s)
            splnorm:   0.15000    
               vcte:    0.0000    
               rinn:    0.0000    
               qcoe:    0.0000    
               qyuk:    0.0000    
               qwid:   0.10000E-01
                rcs:    0.0000    
            lambdas:    1.0000    
-------------------------------------------------------------------------------
L=0  Nkbl=1  erefs: 0.17977+309
L=1  Nkbl=1  erefs: 0.17977+309
L=2  Nkbl=1  erefs: 0.17977+309
===============================================================================
</basis_specs>

atom: Called for Li-gga                (Z =   3)

read_vps: Pseudopotential generation method:
read_vps: ATM 3.2.2 Troullier-Martins                       
Valence charge for ps generation:    1.00000

read_vps: Pseudopotential includes a core correction:
read_vps: Pseudo-core for xc-correction

xc_check: Exchange-correlation functional:
xc_check: GGA Perdew, Burke & Ernzerhof 1996
V l=0 = -2*Zval/r beyond r=  2.2278
V l=1 = -2*Zval/r beyond r=  2.2278
V l=2 = -2*Zval/r beyond r=  2.5245
All V_l potentials equal beyond r=  2.4622
This should be close to max(r_c) in ps generation
All pots = -2*Zval/r beyond r=  2.5245

VLOCAL1: 99.0% of the norm of Vloc inside      7.160 Ry
VLOCAL1: 99.9% of the norm of Vloc inside     16.318 Ry
atom: Maximum radius for 4*pi*r*r*local-pseudopot. charge    2.86079
atom: Maximum radius for r*vlocal+2*Zval:    2.43160
GHOST: No ghost state for L =  0
GHOST: No ghost state for L =  1
GHOST: No ghost state for L =  2

KBgen: Kleinman-Bylander projectors: 
   l= 0   rc=  2.654023   el= -0.211234   Ekb=  1.742119   kbcos=  0.228463
   l= 1   rc=  2.721230   el= -0.080095   Ekb= -1.122375   kbcos= -0.147941
   l= 2   rc=  2.825246   el=  0.002001   Ekb= -0.207076   kbcos= -0.031965

KBgen: Total number of Kleinman-Bylander projectors:    9
atom: -------------------------------------------------------------------------

atom: SANKEY-TYPE ORBITALS:

SPLIT: Orbitals with angular momentum L= 0

SPLIT: Basis orbitals for state 2s

SPLIT: PAO cut-off radius determined from an
SPLIT: energy shift=  0.000735 Ry

   izeta = 1
                 lambda =    1.000000
                     rc =   11.897381
                 energy =   -0.210580
                kinetic =    0.143382
    potential(screened) =   -0.353962
       potential(ionic) =   -0.533453

POLgen: Perturbative polarization orbital with L=  1

POLgen: Polarization orbital for state 2s

   izeta = 1
                     rc =   11.897381
                 energy =   -0.027011
                kinetic =    0.282985
    potential(screened) =   -0.309997
       potential(ionic) =   -0.490997
atom: Total number of Sankey-type orbitals:  4

atm_pop: Valence configuration (for local Pseudopot. screening):
 2s( 1.00)                                                            
Vna: chval, zval:    1.00000   1.00000

Vna:  Cut-off radius for the neutral-atom potential:  11.897381
comcore: Pseudo-core radius Rcore=  3.450946

atom: _________________________________________________________________________

<basis_specs>
===============================================================================
C-gga                Z=   6    Mass=  12.010        Charge= 0.17977+309
Lmxo=1 Lmxkb= 2    BasisType=split      Semic=F
L=0  Nsemic=0  Cnfigmx=2
          i=1  nzeta=1  polorb=0  (2s)
            splnorm:   0.15000    
               vcte:    0.0000    
               rinn:    0.0000    
               qcoe:    0.0000    
               qyuk:    0.0000    
               qwid:   0.10000E-01
                rcs:    0.0000    
            lambdas:    1.0000    
L=1  Nsemic=0  Cnfigmx=2
          i=1  nzeta=1  polorb=1  (2p)
            splnorm:   0.15000    
               vcte:    0.0000    
               rinn:    0.0000    
               qcoe:    0.0000    
               qyuk:    0.0000    
               qwid:   0.10000E-01
                rcs:    0.0000    
            lambdas:    1.0000    
-------------------------------------------------------------------------------
L=0  Nkbl=1  erefs: 0.17977+309
L=1  Nkbl=1  erefs: 0.17977+309
L=2  Nkbl=1  erefs: 0.17977+309
===============================================================================
</basis_specs>

atom: Called for C-gga                 (Z =   6)

read_vps: Pseudopotential generation method:
read_vps: ATM 3.2.2 Troullier-Martins                       
Valence charge for ps generation:    4.00000

xc_check: Exchange-correlation functional:
xc_check: GGA Perdew, Burke & Ernzerhof 1996
V l=0 = -2*Zval/r beyond r=  1.5227
V l=1 = -2*Zval/r beyond r=  1.5227
V l=2 = -2*Zval/r beyond r=  1.5227
All V_l potentials equal beyond r=  1.4851
This should be close to max(r_c) in ps generation
All pots = -2*Zval/r beyond r=  1.5227

VLOCAL1: 99.0% of the norm of Vloc inside     19.682 Ry
VLOCAL1: 99.9% of the norm of Vloc inside     44.856 Ry
atom: Maximum radius for 4*pi*r*r*local-pseudopot. charge    1.79142
atom: Maximum radius for r*vlocal+2*Zval:    1.54183
GHOST: No ghost state for L =  0
GHOST: No ghost state for L =  1
GHOST: No ghost state for L =  2

KBgen: Kleinman-Bylander projectors: 
   l= 0   rc=  1.661951   el= -1.010689   Ekb=  5.289847   kbcos=  0.316429
   l= 1   rc=  1.661951   el= -0.388490   Ekb= -4.102504   kbcos= -0.351025
   l= 2   rc=  1.747182   el=  0.001971   Ekb= -1.006005   kbcos= -0.008530

KBgen: Total number of Kleinman-Bylander projectors:    9
atom: -------------------------------------------------------------------------

atom: SANKEY-TYPE ORBITALS:

SPLIT: Orbitals with angular momentum L= 0

SPLIT: Basis orbitals for state 2s

SPLIT: PAO cut-off radius determined from an
SPLIT: energy shift=  0.000735 Ry

   izeta = 1
                 lambda =    1.000000
                     rc =    5.948690
                 energy =   -1.010099
                kinetic =    0.827121
    potential(screened) =   -1.837220
       potential(ionic) =   -5.392783

SPLIT: Orbitals with angular momentum L= 1

SPLIT: Basis orbitals for state 2p

SPLIT: PAO cut-off radius determined from an
SPLIT: energy shift=  0.000735 Ry

   izeta = 1
                 lambda =    1.000000
                     rc =    7.638387
                 energy =   -0.387843
                kinetic =    2.314739
    potential(screened) =   -2.702582
       potential(ionic) =   -6.092371

POLgen: Perturbative polarization orbital with L=  2

POLgen: Polarization orbital for state 2p

   izeta = 1
                     rc =    7.638387
                 energy =    0.921402
                kinetic =    1.955040
    potential(screened) =   -1.033637
       potential(ionic) =   -3.679558
atom: Total number of Sankey-type orbitals:  9

atm_pop: Valence configuration (for local Pseudopot. screening):
 2s( 2.00)                                                            
 2p( 2.00)                                                            
Vna: chval, zval:    4.00000   4.00000

Vna:  Cut-off radius for the neutral-atom potential:   7.638387

atom: _________________________________________________________________________

prinput: Basis input ----------------------------------------------------------

PAO.BasisType split     

%block ChemicalSpeciesLabel
    1    3 Li-gga                  # Species index, atomic number, species label
    2    6 C-gga                   # Species index, atomic number, species label
%endblock ChemicalSpeciesLabel

%block PAO.Basis                 # Define Basis set
Li-gga                1                    # Species label, number of l-shells
 n=2   0   1 P   1                   # n, l, Nzeta, Polarization, NzetaPol
  11.897   
   1.000   
C-gga                 2                    # Species label, number of l-shells
 n=2   0   1                         # n, l, Nzeta 
   5.949   
   1.000   
 n=2   1   1 P   1                   # n, l, Nzeta, Polarization, NzetaPol
   7.638   
   1.000   
%endblock PAO.Basis

prinput: ----------------------------------------------------------------------

coor:   Atomic-coordinates input format  =     Cartesian coordinates
coor:                                          (in Angstroms)

siesta: Atomic coordinates (Bohr) and species
siesta:      0.00000   0.00000   0.00000  2        1
siesta:     -1.32825   2.30060   1.81785  1        2
siesta:     -2.74990   4.76296   9.08924  1        3
siesta:      2.74990   4.76296   1.81785  1        4
siesta:      1.32825   2.30060   9.08924  1        5
siesta:      2.65651   0.00000   1.81785  1        6
siesta:      5.49980   0.00000   9.08924  1        7
siesta:     -2.74990   4.76296   1.81785  1        8
siesta:     -1.32825   2.30060   9.08924  1        9
siesta:      1.32825   2.30060   1.81785  1       10
siesta:      2.74990   4.76296   9.08924  1       11
siesta:      5.49980   0.00000   1.81785  1       12
siesta:      2.65651   0.00000   9.08924  1       13
siesta:     -1.32825   2.30060   5.45355  1       14
siesta:     -2.74990   4.76296   5.45355  1       15
siesta:      2.74990   4.76296   5.45355  1       16
siesta:      1.32825   2.30060   5.45355  1       17
siesta:      2.65651   0.00000   5.45355  1       18
siesta:      5.49980   0.00000   5.45355  1       19

siesta: System type = bulk      

initatomlists: Number of atoms, orbitals, and projectors:     19    81   171

siesta: ******************** Simulation parameters ****************************
siesta:
siesta: The following are some of the parameters of the simulation.
siesta: A complete list of the parameters used, including default values,
siesta: can be found in file out.fdf
siesta:
redata: Spin configuration                          = none
redata: Number of spin components                   = 1
redata: Time-Reversal Symmetry                      = T
redata: Spin spiral                                 = F
redata: Long output                                 =   F
redata: Number of Atomic Species                    =        2
redata: Charge density info will appear in .RHO file
redata: Write Mulliken Pop.                         = NO
redata: Matel table size (NRTAB)                    =     1024
redata: Mesh Cutoff                                 =   300.0000 Ry
redata: Net charge of the system                    =     0.0000 |e|
redata: Min. number of SCF Iter                     =        0
redata: Max. number of SCF Iter                     =     1000
redata: SCF convergence failure will abort job
redata: SCF mix quantity                            = Hamiltonian
redata: Mix DM or H after convergence               =   F
redata: Recompute H after scf cycle                 =   F
redata: Mix DM in first SCF step                    =   T
redata: Write Pulay info on disk                    =   F
redata: New DM Occupancy tolerance                  = 0.000000000001
redata: No kicks to SCF
redata: DM Mixing Weight for Kicks                  =     0.5000
redata: Require Harris convergence for SCF          =   F
redata: Harris energy tolerance for SCF             =     0.000100 eV
redata: Require DM convergence for SCF              =   T
redata: DM tolerance for SCF                        =     0.001000
redata: Require EDM convergence for SCF             =   F
redata: EDM tolerance for SCF                       =     0.005000 eV
redata: Require H convergence for SCF               =   T
redata: Hamiltonian tolerance for SCF               =     0.001000 eV
redata: Require (free) Energy convergence for SCF   =   T
redata: (free) Energy tolerance for SCF             =     0.001000 eV
redata: Using Saved Data (generic)                  =   F
redata: Use continuation files for DM               =   F
redata: Neglect nonoverlap interactions             =   F
redata: Method of Calculation                       = Diagonalization
redata: Electronic Temperature                      =   299.9869 K
redata: Fix the spin of the system                  =   F
redata: Dynamics option                             = Single-point calculation
mix.SCF: Pulay mixing                            = Pulay
mix.SCF:    Variant                              = stable
mix.SCF:    History steps                        = 4
mix.SCF:    Linear mixing weight                 =     0.250000
mix.SCF:    Mixing weight                        =     0.250000
mix.SCF:    SVD condition                        = 0.1000E-07
redata: ***********************************************************************

%block SCF.Mixers
  Pulay
%endblock SCF.Mixers

%block SCF.Mixer.Pulay
  # Mixing method
  method pulay
  variant stable

  # Mixing options
  weight 0.2500
  weight.linear 0.2500
  history 4
%endblock SCF.Mixer.Pulay

DM_history_depth set to one: no extrapolation allowed by default for geometry relaxation
Size of DM history Fstack: 1
Total number of electrons:    22.000000
Total ionic charge:    22.000000

* ProcessorY, Blocksize:    4   1


* Orbital distribution balance (max,min):     6     5

 Kpoints in:           18 . Kpoints trimmed:           14

siesta: k-grid: Number of k-points =    14
siesta: k-grid: Cutoff (effective) =     6.474 Ang
siesta: k-grid: Supercell and displacements
siesta: k-grid:    3   0   0      0.000
siesta: k-grid:    0   3   0      0.000
siesta: k-grid:    0   0   3      0.000

diag: Algorithm                                     = Expert
diag: Parallel over k                               =   T
diag: Use parallel 2D distribution                  =   T
diag: Parallel block-size                           = 1
diag: Parallel distribution                         =     4 x     4
diag: Used triangular part                          = Lower
diag: Absolute tolerance                            =  0.100E-15
diag: Orthogonalization factor                      =  0.100E-05
diag: Memory factor                                 =  1.0000

superc: Internal auxiliary supercell:     9 x     9 x     7  =     567
superc: Number of atoms, orbitals, and projectors:  10773  45927  96957


ts: **************************************************************
ts: Save H and S matrices                           =    F
ts: Save DM and EDM matrices                        =    F
ts: Only save the overlap matrix S                  =    F
ts: **************************************************************

************************ Begin: TS CHECKS AND WARNINGS ************************
************************ End: TS CHECKS AND WARNINGS **************************


                     ====================================
                        Single-point calculation
                     ====================================

outcoor: Atomic coordinates (Ang):                          
    0.00000000    0.00000000    0.00000000   2       1  C-gga
   -0.70288177    1.21742694    0.96196561   1       2  Li-gga
   -1.45518323    2.52045129    4.80981651   1       3  Li-gga
    1.45518323    2.52045129    0.96196561   1       4  Li-gga
    0.70288177    1.21742694    4.80981651   1       5  Li-gga
    1.40576354    0.00000000    0.96196561   1       6  Li-gga
    2.91036646    0.00000000    4.80981651   1       7  Li-gga
   -1.45518323    2.52045129    0.96196561   1       8  Li-gga
   -0.70288177    1.21742694    4.80981651   1       9  Li-gga
    0.70288177    1.21742694    0.96196561   1      10  Li-gga
    1.45518323    2.52045129    4.80981651   1      11  Li-gga
    2.91036646    0.00000000    0.96196561   1      12  Li-gga
    1.40576354    0.00000000    4.80981651   1      13  Li-gga
   -0.70288177    1.21742694    2.88589106   1      14  Li-gga
   -1.45518323    2.52045129    2.88589106   1      15  Li-gga
    1.45518323    2.52045129    2.88589106   1      16  Li-gga
    0.70288177    1.21742694    2.88589106   1      17  Li-gga
    1.40576354    0.00000000    2.88589106   1      18  Li-gga
    2.91036646    0.00000000    2.88589106   1      19  Li-gga

superc: Internal auxiliary supercell:     9 x     9 x     7  =     567
superc: Number of atoms, orbitals, and projectors:  10773  45927  96957

outcell: Unit cell vectors (Ang):
        4.316130    0.000000    0.000000
       -2.158065    3.737878    0.000000
        0.000000    0.000000    5.771782

outcell: Cell vector modules (Ang)   :    4.316130    4.316130    5.771782
outcell: Cell angles (23,13,12) (deg):     90.0000     90.0000    120.0000
outcell: Cell volume (Ang**3)        :     93.1171
<dSpData1D:S at geom step 0
  <sparsity:sparsity for geom step 0
    nrows_g=81 nrows=6 sparsity=9.9898 nnzs=65543, refcount: 7>
  <dData1D:(new from dSpData1D) n=65543, refcount: 1>
refcount: 1>
new_DM -- step:     1
Initializing Density Matrix...
DM filled with atomic data:
<dSpData2D:DM initialized from atoms
  <sparsity:sparsity for geom step 0
    nrows_g=81 nrows=6 sparsity=9.9898 nnzs=65543, refcount: 8>
  <dData2D:DM n=65543 m=1, refcount: 1>
refcount: 1>
No. of atoms with KB's overlaping orbs in proc 0. Max # of overlaps:     729    1648
New grid distribution:   1
           1       1:   20    1:    5    1:    8
           2       1:   20    1:    5    9:   16
           3       1:   20    1:    5   17:   24
           4       1:   20    1:    5   25:   32
           5       1:   20    6:   10    1:    8
           6       1:   20    6:   10    9:   16
           7       1:   20    6:   10   17:   24
           8       1:   20    6:   10   25:   32
           9       1:   20   11:   15    1:    8
          10       1:   20   11:   15    9:   16
          11       1:   20   11:   15   17:   24
          12       1:   20   11:   15   25:   32
          13       1:   20   16:   20    1:    8
          14       1:   20   16:   20    9:   16
          15       1:   20   16:   20   17:   24
          16       1:   20   16:   20   25:   32

InitMesh: MESH =    40 x    40 x    64 =      102400
InitMesh: (bp) =    20 x    20 x    32 =       12800
InitMesh: Mesh cutoff (required, used) =   300.000   316.498 Ry
ExtMesh (bp) on 0 =   156 x   141 x   148 =     3255408
New grid distribution:   2
           1       1:   10   11:   20   17:   24
           2      11:   20    1:   10    1:    8
           3      11:   20    1:   10   17:   24
           4      11:   20   11:   20    1:    8
           5       1:   10   11:   20   25:   32
           6      11:   20    1:   10    9:   16
           7      11:   20   11:   20    9:   16
           8      11:   20    1:   10   25:   32
           9       1:   10    1:   10   17:   24
          10       1:   10    1:   10    1:    8
          11      11:   20   11:   20   17:   24
          12       1:   10   11:   20    1:    8
          13       1:   10    1:   10   25:   32
          14       1:   10    1:   10    9:   16
          15       1:   10   11:   20    9:   16
          16      11:   20   11:   20   25:   32
New grid distribution:   3
           1       1:   10   11:   20   17:   24
           2      11:   20    1:   10    1:    8
           3      11:   20    1:   10   17:   24
           4      11:   20   11:   20    1:    8
           5       1:   10   11:   20   25:   32
           6      11:   20    1:   10    9:   16
           7      11:   20   11:   20    9:   16
           8      11:   20    1:   10   25:   32
           9       1:   10    1:   10   17:   24
          10       1:   10    1:   10    1:    8
          11      11:   20   11:   20   17:   24
          12       1:   10   11:   20    1:    8
          13       1:   10    1:   10   25:   32
          14       1:   10    1:   10    9:   16
          15       1:   10   11:   20    9:   16
          16      11:   20   11:   20   25:   32
Setting up quadratic distribution...
ExtMesh (bp) on 0 =   146 x   146 x   148 =     3154768
PhiOnMesh: Number of (b)points on node 0 =                  800
PhiOnMesh: nlist on node 0 =               694188

stepf: Fermi-Dirac step function

siesta: Program's energy decomposition (eV):
siesta: Ebs     =      -435.105805
siesta: Eions   =       439.895300
siesta: Ena     =        86.055422
siesta: Ekin    =       376.565777
siesta: Enl     =         0.718747
siesta: Eso     =         0.000000
siesta: Edftu   =         0.000000
siesta: DEna    =       -37.026402
siesta: DUscf   =        36.900583
siesta: DUext   =         0.000000
siesta: Exc     =      -260.959270
siesta: eta*DQ  =         0.000000
siesta: Emadel  =         0.000000
siesta: Emeta   =         0.000000
siesta: Emolmec =       -18.294067
siesta: Ekinion =         0.000000
siesta: Eharris =      -212.305867
siesta: Etot    =      -255.934511
siesta: FreeEng =      -255.946239

        iscf     Eharris(eV)        E_KS(eV)     FreeEng(eV)     dDmax    Ef(eV) dHmax(eV)
   scf:    1     -212.305867     -255.934511     -255.946239  4.889383-20.557710 19.390425
timer: Routine,Calls,Time,% = IterSCF        1      22.323  57.08
   scf:    2     -279.835419     -269.762761     -269.773116  1.022787-20.163685  7.484647
   scf:    3     -272.542846     -272.333389     -272.351159  0.576328-19.368834  1.067081
   scf:    4     -271.925867     -272.280703     -272.291742  0.155285-19.659869  1.816672
   scf:    5     -272.511026     -272.427017     -272.439104  0.086667-19.496180  0.426896
   scf:    6     -272.442839     -272.437151     -272.449784  0.073462-19.421470  0.034840
   scf:    7     -272.437333     -272.437274     -272.449917  0.011045-19.421755  0.005620
   scf:    8     -272.437359     -272.437317     -272.449939  0.003758-19.420911  0.005604
   scf:    9     -272.437356     -272.437337     -272.449948  0.003975-19.419339  0.001098
   scf:   10     -272.437339     -272.437338     -272.449947  0.000718-19.419147  0.001202
   scf:   11     -272.437342     -272.437340     -272.449948  0.000344-19.419350  0.000934

SCF Convergence by FreeE+DM+H criterion
|FreeE_i-FreeE_(i-1)| (eV) <     0.00100000
max |DM_out - DM_in|         :     0.0003439677
max |H_out - H_in|      (eV) :     0.0009342138
SCF cycle converged after 11 iterations

Using DM_out to compute the final energy and forces
No. of atoms with KB's overlaping orbs in proc 0. Max # of overlaps:     729    1648

MM-Stress (kbar):      136.27      136.27      763.39        0.00       -0.00       -0.00

siesta: E_KS(eV) =             -272.4373

siesta: E_KS - E_eggbox =      -272.4373

siesta: Atomic forces (eV/Ang):
     1   -0.000000    0.000000   -0.000000
     2   -0.964363    1.670362   -0.015176
     3    0.964363   -1.670362    0.015176
     4   -0.964438   -1.670455   -0.015299
     5    0.964438    1.670455    0.015299
     6    1.928757    0.000018   -0.015176
     7   -1.928757   -0.000018    0.015176
     8    0.964363   -1.670362   -0.015176
     9   -0.964363    1.670362    0.015176
    10    0.964438    1.670455   -0.015299
    11   -0.964438   -1.670455    0.015299
    12   -1.928757   -0.000018   -0.015176
    13    1.928757    0.000018    0.015176
    14   -0.289360    0.501223    0.000000
    15    0.289360   -0.501223   -0.000000
    16   -0.289398   -0.501251    0.000000
    17    0.289398    0.501251   -0.000000
    18    0.578752    0.000018   -0.000000
    19   -0.578752   -0.000018    0.000000
----------------------------------------
   Tot    0.000000    0.000000    0.000000
----------------------------------------
   Max    1.928757
   Res    0.904721    sqrt( Sum f_i^2 / 3N )
----------------------------------------
   Max    1.928757    constrained

Stress tensor Voigt[x,y,z,yz,xz,xy] (kbar):    -1637.07    -1637.10     -820.70        0.00        0.00       -0.03
(Free)E + p*V (eV/cell)     -193.1206
Target enthalpy (eV/cell)     -272.4499

siesta: Eigenvalues (eV):
  ik is       eps
   1  1  -30.2900  -24.9399  -24.9399  -24.4845  -24.2192  -23.8102  -23.8101  -23.2924  -23.2924  -19.8923
         -19.7000  -19.6999  -16.5537  -15.7354  -15.7354  -15.4025  -15.2025  -15.2025  -12.2981  -12.2981
  -11.2069  -10.7329   -7.1241   -7.1240   -7.0764   -6.1562   -6.1562   -5.6658   -5.6658   -4.4938
   -4.4938   -3.4162   -2.8959    0.4338    4.4815    5.3555    5.3559    5.5219    5.5219    8.0007
    8.0009    8.2132   10.3387   11.2303   11.2307   11.7260   13.4515   13.4515   14.6562   15.1415
   15.1415   15.6626   15.6630   19.8479   21.1187   21.1191   21.3183   22.0621   24.5539   24.5541
   26.9691   26.9691   27.4125   28.6283   28.6283   28.8492   31.1587   31.1588   31.3981   36.6897
   36.6897   37.4672   38.0242   41.3778   42.5333   42.5339   43.7011   46.9188   46.9188   48.1649
   48.1649
   2  1  -30.3459  -25.4937  -25.4430  -24.7536  -24.4564  -23.5678  -23.5285  -22.3099  -21.6451  -20.8315
         -19.7007  -18.5565  -18.1678  -17.9334  -16.2050  -15.5133  -14.4776  -13.7540  -13.1378  -12.2508
  -12.1749  -11.0142   -9.9619   -9.6180   -9.5559   -5.0926   -4.9009   -4.6256   -3.3661   -2.7627
   -1.5949   -1.2933   -0.3400    2.0052    3.7183    4.6561    5.7562    5.7751    8.0581    8.8653
    9.2332   11.3549   11.7602   11.9948   12.1868   13.5608   13.7399   14.9031   15.0877   16.1135
   16.8700   19.5527   20.0631   20.4519   20.5051   21.2691   24.4526   24.9810   25.0408   25.9077
   26.3276   27.2355   29.2208   29.9825   31.5600   32.0407   32.1320   32.2938   35.4950   38.3449
   39.3077   40.8862   43.2558   45.7630   46.5433   46.8085   48.6682   49.4209   49.8306   71.9867
   74.6485
   3  1  -30.3459  -25.4937  -25.4430  -24.7536  -24.4564  -23.5678  -23.5285  -22.3100  -21.6451  -20.8315
         -19.7007  -18.5565  -18.1678  -17.9334  -16.2050  -15.5133  -14.4776  -13.7540  -13.1378  -12.2508
  -12.1749  -11.0142   -9.9619   -9.6180   -9.5559   -5.0926   -4.9010   -4.6255   -3.3660   -2.7627
   -1.5949   -1.2933   -0.3400    2.0052    3.7182    4.6557    5.7563    5.7751    8.0584    8.8652
    9.2338   11.3549   11.7601   11.9948   12.1868   13.5608   13.7396   14.9030   15.0878   16.1135
   16.8700   19.5525   20.0630   20.4519   20.5049   21.2691   24.4527   24.9810   25.0408   25.9077
   26.3274   27.2355   29.2215   29.9825   31.5600   32.0407   32.1315   32.2940   35.4951   38.3448
   39.3078   40.8862   43.2558   45.7630   46.5431   46.8084   48.6681   49.4208   49.8304   71.9866
   74.6484
   4  1  -30.3459  -25.4937  -25.4430  -24.7536  -24.4564  -23.5678  -23.5285  -22.3099  -21.6451  -20.8315
         -19.7007  -18.5565  -18.1678  -17.9334  -16.2050  -15.5133  -14.4776  -13.7540  -13.1378  -12.2508
  -12.1749  -11.0142   -9.9619   -9.6180   -9.5559   -5.0926   -4.9009   -4.6256   -3.3661   -2.7627
   -1.5949   -1.2933   -0.3400    2.0052    3.7183    4.6561    5.7562    5.7751    8.0581    8.8653
    9.2332   11.3549   11.7602   11.9948   12.1868   13.5608   13.7399   14.9031   15.0877   16.1135
   16.8700   19.5527   20.0631   20.4519   20.5051   21.2691   24.4526   24.9810   25.0408   25.9077
   26.3276   27.2355   29.2208   29.9825   31.5600   32.0407   32.1319   32.2938   35.4950   38.3449
   39.3077   40.8863   43.2558   45.7630   46.5433   46.8085   48.6683   49.4209   49.8306   71.9867
   74.6485
   5  1  -29.8452  -24.6010  -23.9361  -23.6999  -23.4131  -22.9761  -22.0906  -22.0904  -21.1815  -19.3062
         -19.1348  -17.3969  -17.3969  -16.7228  -16.7228  -16.5833  -16.5833  -16.5031  -16.5031  -15.6595
  -15.6595  -12.6206   -5.4238   -2.9570   -2.9566   -0.8991   -0.8990    2.3502    3.0126    3.0126
    5.6289    5.6290    6.7179    6.7180    7.1926    7.1926    8.3661    9.7946    9.7949   12.2998
   12.3003   12.8416   12.8416   13.6130   16.7879   17.1232   17.2497   17.2497   17.9193   20.1405
   20.1406   23.1644   23.1645   24.5937   24.5937   26.9362   27.9895   27.9896   32.0747   32.0752
   35.8778   35.8779   36.5318   37.1442   37.5642   37.5643   38.0029   38.6882   39.3504   40.6443
   40.7006   41.0046   41.0047   43.6196   43.6209   44.0563   44.1628   49.8330   49.8331   54.2727
   54.2733
   6  1  -30.3049  -25.0280  -24.7570  -24.7570  -23.9421  -23.9421  -23.6705  -23.6473  -23.6473  -20.2852
         -19.4801  -19.4800  -16.4005  -15.6870  -15.6870  -15.6835  -14.5074  -14.5073  -12.0041  -12.0040
   -9.9073   -9.5116   -9.1252   -9.1252   -8.0632   -8.0632   -6.4221   -4.9510   -0.7827   -0.7826
   -0.1856    0.9871    0.9871    1.1609    2.0420    2.0421    2.2649    4.5449    4.5450    5.9590
    8.1343    8.1348    8.1721    9.5712    9.5715   13.2242   14.0910   14.0911   16.1851   16.1851
   16.4319   18.4956   18.7483   18.7483   19.7857   19.7861   21.3251   22.5999   22.6000   27.7064
   27.7807   27.7808   30.0299   31.4604   31.4605   31.7256   32.6762   33.0495   33.0496   37.7089
   38.6518   38.6520   41.3075   41.3075   41.9546   44.3526   44.8587   44.8591   46.4402   46.4402
   52.8929
   7  1  -30.3637  -25.5163  -25.4461  -24.8155  -24.2975  -24.1257  -22.8515  -22.7512  -22.3968  -20.3063
         -19.4735  -18.8687  -18.1513  -17.1212  -16.1585  -15.2105  -14.2725  -14.2510  -13.7185  -13.1790
  -12.8220  -10.6416  -10.3297   -9.9805   -8.4856   -6.3452   -4.2973   -3.6124   -1.9721    0.4642
    1.0002    1.2273    1.4138    2.7673    3.3886    5.5248    7.1684    7.3177    8.2547    9.2099
    9.7164   11.6103   13.2485   13.6563   14.9104   14.9870   15.4467   15.5451   16.0995   16.6431
   16.8824   18.3039   18.8733   19.6865   20.4406   21.1030   22.6659   23.3649   26.3703   27.3044
   27.6805   28.6601   30.4484   34.1780   35.5931   36.4426   37.4121   40.5743   41.8499   42.7399
   45.2905   45.9912   46.0598   47.1891   47.7660   50.1075   51.8180   52.3568   53.9863   57.0550
   61.7749
   8  1  -30.3637  -25.5163  -25.4461  -24.8155  -24.2975  -24.1257  -22.8515  -22.7512  -22.3969  -20.3063
         -19.4735  -18.8687  -18.1513  -17.1212  -16.1585  -15.2105  -14.2725  -14.2510  -13.7185  -13.1789
  -12.8220  -10.6416  -10.3298   -9.9805   -8.4856   -6.3453   -4.2972   -3.6123   -1.9721    0.4643
    1.0000    1.2274    1.4139    2.7672    3.3888    5.5249    7.1685    7.3174    8.2548    9.2102
    9.7164   11.6103   13.2483   13.6564   14.9103   14.9871   15.4467   15.5451   16.0995   16.6430
   16.8823   18.3041   18.8732   19.6866   20.4403   21.1029   22.6658   23.3652   26.3702   27.3045
   27.6805   28.6602   30.4480   34.1782   35.5932   36.4425   37.4122   40.5743   41.8501   42.7399
   45.2904   45.9911   46.0600   47.1890   47.7660   50.1073   51.8179   52.3568   53.9863   57.0548
   61.7748
   9  1  -30.3637  -25.5163  -25.4461  -24.8155  -24.2975  -24.1257  -22.8515  -22.7512  -22.3968  -20.3063
         -19.4735  -18.8687  -18.1513  -17.1212  -16.1585  -15.2105  -14.2725  -14.2510  -13.7185  -13.1790
  -12.8220  -10.6416  -10.3297   -9.9805   -8.4856   -6.3452   -4.2973   -3.6124   -1.9721    0.4642
    1.0002    1.2273    1.4138    2.7673    3.3886    5.5248    7.1684    7.3177    8.2547    9.2099
    9.7164   11.6103   13.2485   13.6563   14.9104   14.9870   15.4467   15.5451   16.0995   16.6431
   16.8824   18.3039   18.8733   19.6865   20.4406   21.1030   22.6659   23.3649   26.3703   27.3044
   27.6805   28.6601   30.4484   34.1780   35.5931   36.4426   37.4121   40.5743   41.8499   42.7399
   45.2905   45.9912   46.0598   47.1891   47.7660   50.1075   51.8180   52.3568   53.9863   57.0550
   61.7749
  10  1  -30.2501  -25.7430  -24.9659  -24.6273  -23.6623  -23.4667  -22.1118  -22.1116  -21.7340  -20.2784
         -17.3499  -17.3499  -16.7439  -16.7439  -16.7135  -16.7135  -16.6781  -16.6781  -15.6878  -15.5717
  -15.5717  -14.0308   -7.1008   -3.0199   -3.0194   -2.2995   -2.1822   -2.1821   -0.8777   -0.8777
   -0.5383   -0.5383   -0.3507   -0.3507    7.0663   10.0070   10.0071   11.1689   11.1691   12.8864
   13.8356   15.0610   15.2078   15.2079   16.7566   16.7566   17.1491   17.1495   18.9479   18.9480
   19.6465   20.9951   20.9953   22.8251   22.8258   24.2425   27.4658   27.4663   33.5784   33.5788
   33.7021   33.7025   34.2279   34.6646   34.8955   36.1835   36.4727   36.9733   38.3220   38.3223
   41.9228   42.2173   42.2177   43.3188   43.3190   43.8953   45.5905   45.5905   61.8386   61.8388
   65.0394
  11  1  -30.3637  -25.5163  -25.4461  -24.8155  -24.2975  -24.1257  -22.8515  -22.7512  -22.3968  -20.3063
         -19.4735  -18.8687  -18.1513  -17.1212  -16.1585  -15.2105  -14.2725  -14.2510  -13.7185  -13.1790
  -12.8220  -10.6416  -10.3297   -9.9805   -8.4856   -6.3452   -4.2973   -3.6124   -1.9721    0.4642
    1.0002    1.2273    1.4138    2.7673    3.3886    5.5248    7.1684    7.3177    8.2547    9.2099
    9.7164   11.6103   13.2485   13.6563   14.9104   14.9870   15.4467   15.5451   16.0995   16.6431
   16.8824   18.3039   18.8733   19.6865   20.4406   21.1030   22.6659   23.3649   26.3703   27.3044
   27.6805   28.6601   30.4484   34.1780   35.5931   36.4426   37.4121   40.5743   41.8499   42.7399
   45.2905   45.9912   46.0598   47.1891   47.7660   50.1075   51.8180   52.3568   53.9863   57.0550
   61.7749
  12  1  -30.3637  -25.5163  -25.4461  -24.8155  -24.2975  -24.1257  -22.8515  -22.7512  -22.3969  -20.3063
         -19.4735  -18.8687  -18.1513  -17.1212  -16.1585  -15.2105  -14.2725  -14.2510  -13.7185  -13.1789
  -12.8220  -10.6416  -10.3298   -9.9805   -8.4856   -6.3453   -4.2972   -3.6123   -1.9721    0.4643
    1.0000    1.2274    1.4139    2.7672    3.3888    5.5249    7.1685    7.3174    8.2548    9.2102
    9.7164   11.6103   13.2483   13.6564   14.9103   14.9871   15.4467   15.5451   16.0995   16.6430
   16.8823   18.3041   18.8732   19.6866   20.4403   21.1029   22.6658   23.3652   26.3702   27.3045
   27.6805   28.6602   30.4480   34.1782   35.5932   36.4425   37.4122   40.5743   41.8501   42.7399
   45.2904   45.9911   46.0600   47.1890   47.7660   50.1073   51.8179   52.3568   53.9863   57.0548
   61.7748
  13  1  -30.3637  -25.5163  -25.4461  -24.8155  -24.2975  -24.1257  -22.8515  -22.7512  -22.3968  -20.3063
         -19.4735  -18.8687  -18.1513  -17.1212  -16.1585  -15.2105  -14.2725  -14.2510  -13.7185  -13.1790
  -12.8220  -10.6416  -10.3297   -9.9805   -8.4856   -6.3452   -4.2973   -3.6124   -1.9721    0.4642
    1.0002    1.2273    1.4138    2.7673    3.3886    5.5248    7.1684    7.3177    8.2547    9.2099
    9.7164   11.6103   13.2485   13.6563   14.9104   14.9870   15.4467   15.5451   16.0995   16.6431
   16.8824   18.3039   18.8733   19.6865   20.4406   21.1030   22.6659   23.3649   26.3703   27.3044
   27.6805   28.6601   30.4484   34.1780   35.5931   36.4426   37.4121   40.5743   41.8499   42.7399
   45.2905   45.9912   46.0598   47.1891   47.7660   50.1075   51.8180   52.3568   53.9863   57.0550
   61.7749
  14  1  -30.3049  -25.0280  -24.7570  -24.7570  -23.9421  -23.9421  -23.6705  -23.6473  -23.6473  -20.2852
         -19.4801  -19.4800  -16.4005  -15.6870  -15.6870  -15.6835  -14.5074  -14.5073  -12.0041  -12.0040
   -9.9073   -9.5116   -9.1252   -9.1252   -8.0632   -8.0632   -6.4221   -4.9510   -0.7827   -0.7826
   -0.1856    0.9871    0.9871    1.1609    2.0420    2.0421    2.2649    4.5449    4.5450    5.9590
    8.1343    8.1348    8.1721    9.5712    9.5715   13.2242   14.0910   14.0911   16.1851   16.1851
   16.4319   18.4956   18.7483   18.7483   19.7857   19.7861   21.3251   22.5999   22.6000   27.7064
   27.7807   27.7808   30.0299   31.4604   31.4605   31.7256   32.6762   33.0495   33.0496   37.7089
   38.6518   38.6520   41.3075   41.3075   41.9546   44.3526   44.8587   44.8591   46.4402   46.4402
   52.8929
siesta: Fermi energy =     -19.419350 eV

siesta: Program's energy decomposition (eV):
siesta: Ebs     =      -523.706156
siesta: Eions   =       439.895300
siesta: Ena     =        86.055422
siesta: Ekin    =       314.389819
siesta: Enl     =        22.243229
siesta: Eso     =         0.000000
siesta: Edftu   =         0.000000
siesta: DEna    =         2.383164
siesta: DUscf   =        10.094311
siesta: DUext   =         0.000000
siesta: Exc     =      -249.413918
siesta: eta*DQ  =         0.000000
siesta: Emadel  =         0.000000
siesta: Emeta   =         0.000000
siesta: Emolmec =       -18.294067
siesta: Ekinion =         0.000000
siesta: Eharris =      -272.437342
siesta: Etot    =      -272.437340
siesta: FreeEng =      -272.449948

siesta: Final energy (eV):
siesta:  Band Struct. =    -523.706156
siesta:       Kinetic =     314.389819
siesta:       Hartree =     100.044770
siesta:       Edftu   =       0.000000
siesta:       Eso     =       0.000000
siesta:    Ext. field =       0.000000
siesta:   Exch.-corr. =    -249.413918
siesta:  Ion-electron =    -775.288373
siesta:       Ion-ion =     356.124430
siesta:       Ekinion =       0.000000
siesta:         Total =    -272.437340
siesta:         Fermi =     -19.419350

siesta: Atomic forces (eV/Ang):
siesta:      1   -0.000000    0.000000   -0.000000
siesta:      2   -0.964363    1.670362   -0.015176
siesta:      3    0.964363   -1.670362    0.015176
siesta:      4   -0.964438   -1.670455   -0.015299
siesta:      5    0.964438    1.670455    0.015299
siesta:      6    1.928757    0.000018   -0.015176
siesta:      7   -1.928757   -0.000018    0.015176
siesta:      8    0.964363   -1.670362   -0.015176
siesta:      9   -0.964363    1.670362    0.015176
siesta:     10    0.964438    1.670455   -0.015299
siesta:     11   -0.964438   -1.670455    0.015299
siesta:     12   -1.928757   -0.000018   -0.015176
siesta:     13    1.928757    0.000018    0.015176
siesta:     14   -0.289360    0.501223    0.000000
siesta:     15    0.289360   -0.501223   -0.000000
siesta:     16   -0.289398   -0.501251    0.000000
siesta:     17    0.289398    0.501251   -0.000000
siesta:     18    0.578752    0.000018   -0.000000
siesta:     19   -0.578752   -0.000018    0.000000
siesta: ----------------------------------------
siesta:    Tot    0.000000    0.000000    0.000000

siesta: Stress tensor (static) (eV/Ang**3):
siesta:    -1.021769   -0.000017    0.000000
siesta:    -0.000017   -1.021788   -0.000000
siesta:     0.000000    0.000000   -0.512235

siesta: Cell volume =         93.117133 Ang**3

siesta: Pressure (static):
siesta:                Solid            Molecule  Units
siesta:           0.00927861          0.01004564  Ry/Bohr**3
siesta:           0.85193077          0.92235661  eV/Ang**3
siesta:        1364.95832412       1477.79418959  kBar
(Free)E+ p_basis*V_orbitals  =        -224.621631
(Free)Eharris+ p_basis*V_orbitals  =        -224.621633

cite: Please see "LiC18_scf.bib" for an exhaustive BiBTeX file.
cite: Please clearly indicate Siesta version in published work: 4.1.5
cite: This calculation has made use of the following articles
cite: which are encouraged to be cited in a published work.
        Primary SIESTA paper
          DOI: www.doi.org/10.1088/0953-8984/14/11/302

>> End of run:   9-NOV-2022  11:46:15
Job completed
