Siesta Version  : 4.1.5
Architecture    : x86_64-unknown-linux-gnu--unknown
Compiler version: GNU Fortran (GCC) 11.3.0
Compiler flags  : mpif90 -g -O2 -fallow-argument-mismatch
PP flags        : -DMPI -DFC_HAVE_FLUSH -DFC_HAVE_ABORT
Libraries       :  -I/global/software/sl-7.x86_64/modules/intel/2020.4.304/mkl/include  /globall/software/sl-7.x86_64/modules/intel/2020.4.304/mkl/lib/intel64/libmkl_scalapack_lp64.a -Wl,--start-group /global/software/sl-7.x86_64/modules/intel/2020.4.304/mkl/lib/intel64/libmkl_intel_lp64.a /global/software/sl-7.x86_64/modules/intel/2020.4.304/mkl/lib/intel64/libmkl_sequential.a /global/software/sl-7.x86_64/modules/intel/2020.4.304/mkl/lib/intel64/libmkl_core.a /global/software/sl-7.x86_64/modules/intel/2020.4.304/mkl/lib/intel64/libmkl_blacs_openmpi_lp64.a -Wl,--end-group -lpthread -lm -ldl
PARALLEL version

* Running on 16 nodes in parallel
>> Start of run:   9-NOV-2022  12:07:36

                           ***********************       
                           *  WELCOME TO SIESTA  *       
                           ***********************       

reinit: Reading from standard input
reinit: Dumped input in INPUT_TMP.31233
************************** Dump of input data file ****************************
SystemName LiC18_scf
SystemLabel LiC18_scf
NumberOfAtoms   19
NumberOfSpecies 2
%block ChemicalSpeciesLabel
1  3   Li-gga
2  6   C-gga
%endblock ChemicalSpeciesLabel
PAO.BasisSize  SZP
PAO.EnergyShift  10 meV
%block PS.Lmax
C-gga   2
Li-gga  2
%endblock PS.Lmax
LatticeConstant 1.000000 Ang
%block LatticeVectors
	4.3161300000	0.0000000000	0.0000000000
	-2.1580650000	3.7378782260	0.0000000000
	0.0000000000	0.0000000000	13.0975055800
%endblock LatticeVectors
AtomicCoordinatesFormat Ang
%block AtomicCoordinatesAndAtomicSpecies
	0.00000000	0.00000000	0.00000000	2
	-0.70288177	1.21742694	2.18292196	1
	-1.45518323	2.52045129	10.91458362	1
	1.45518323	2.52045129	2.18292196	1
	0.70288177	1.21742694	10.91458362	1
	1.40576354	0.00000000	2.18292196	1
	2.91036646	0.00000000	10.91458362	1
	-1.45518323	2.52045129	2.18292196	1
	-0.70288177	1.21742694	10.91458362	1
	0.70288177	1.21742694	2.18292196	1
	1.45518323	2.52045129	10.91458362	1
	2.91036646	0.00000000	2.18292196	1
	1.40576354	0.00000000	10.91458362	1
	-0.70288177	1.21742694	6.54875279	1
	-1.45518323	2.52045129	6.54875279	1
	1.45518323	2.52045129	6.54875279	1
	0.70288177	1.21742694	6.54875279	1
	1.40576354	0.00000000	6.54875279	1
	2.91036646	0.00000000	6.54875279	1
%endblock AtomicCoordinatesAndAtomicSpecies
Kgrid_NoTRS  T
%block kgrid_MonkhorstPack
3       0       0       0.0
0       3       0       0.0
0       0       3       0.0
%endblock kgrid_MonkhorstPack
AtomCoorFormatOut Ang
BlockSize 1
#ProcessorY 12
Diag.ParallelOverK   T
Diag.DivideAndConquer F
MeshCutoff   300 Ry
SCF.FreeE.Tolerance 1E-3 eV
SCF.EDM.Tolerance   5E-3 eV
DM.Tolerance  1E-3
DM.Require.Energy.Convergence T
DM.NumberPulay 4
XC.Functional GGA
XC.Authors    PBE
UseSaveData        F
MD.TypeOfRun       CG
MD.VariableCell    F
MD.NumCGsteps      00
MD.MaxCGDispl      0.200000 Bohr
MD.MaxStressTol    1.000000 GPa
MD.MaxForceTol     0.010000 eV/Ang
WriteMDHistory T
WriteCoorStep T
WriteForces T
WriteCoorStep    T
WriteEigenValues T
WriteDM    F
MM.UnitsDistance Ang  # what this program prints out DO NOT CHANGE
MM.UnitsEnergy    eV  # what this program prints out DO NOT CHANGE
MM.Grimme.S6     0.75 # Grimme-paper for PBE (correct for your functional)
MM.Grimme.D     20.   # Grimme-paper (correct for your functional)
%block MM.Potentials
  1   1 Grimme     16.69      1.650 # Li, 10.1002/jcc.20495
  1   2 Grimme     17.40      2.277 # Li / C
  2   2 Grimme     18.14      2.904 # C, 10.1002/jcc.20495
%endblock MM.Potentials
#%block ProjectedDensityOfStates
# -200.0  120.0  0.4  12800  eV
#%endblock ProjectedDensityOfStates
************************** End of input data file *****************************

reinit: -----------------------------------------------------------------------
reinit: System Name: LiC18_scf
reinit: -----------------------------------------------------------------------
reinit: System Label: LiC18_scf
reinit: -----------------------------------------------------------------------
Reading two-body potentials
Grimme - two-body potential between 1 and 1
Grimme - two-body potential between 1 and 2
Grimme - two-body potential between 2 and 2

initatom: Reading input for the pseudopotentials and atomic orbitals ----------
Species number:   1 Atomic number:    3 Label: Li-gga
Species number:   2 Atomic number:    6 Label: C-gga

Ground state valence configuration:   2s01
Reading pseudopotential information in formatted form from Li-gga.psf

Valence configuration for pseudopotential generation:
2s( 1.00) rc: 2.28
2p( 0.00) rc: 2.28
3d( 0.00) rc: 2.59
4f( 0.00) rc: 2.59
Ground state valence configuration:   2s02  2p02
Reading pseudopotential information in formatted form from C-gga.psf

Valence configuration for pseudopotential generation:
2s( 2.00) rc: 1.56
2p( 2.00) rc: 1.56
3d( 0.00) rc: 1.56
4f( 0.00) rc: 1.56
relmxkb: Read Max KB Ang. Momentum=    2 for species C-gga
relmxkb: Read Max KB Ang. Momentum=    2 for species Li-gga

<basis_specs>
===============================================================================
Li-gga               Z=   3    Mass=  6.9400        Charge= 0.17977+309
Lmxo=0 Lmxkb= 2    BasisType=split      Semic=F
L=0  Nsemic=0  Cnfigmx=2
          i=1  nzeta=1  polorb=1  (2s)
            splnorm:   0.15000    
               vcte:    0.0000    
               rinn:    0.0000    
               qcoe:    0.0000    
               qyuk:    0.0000    
               qwid:   0.10000E-01
                rcs:    0.0000    
            lambdas:    1.0000    
-------------------------------------------------------------------------------
L=0  Nkbl=1  erefs: 0.17977+309
L=1  Nkbl=1  erefs: 0.17977+309
L=2  Nkbl=1  erefs: 0.17977+309
===============================================================================
</basis_specs>

atom: Called for Li-gga                (Z =   3)

read_vps: Pseudopotential generation method:
read_vps: ATM 3.2.2 Troullier-Martins                       
Valence charge for ps generation:    1.00000

read_vps: Pseudopotential includes a core correction:
read_vps: Pseudo-core for xc-correction

xc_check: Exchange-correlation functional:
xc_check: GGA Perdew, Burke & Ernzerhof 1996
V l=0 = -2*Zval/r beyond r=  2.2278
V l=1 = -2*Zval/r beyond r=  2.2278
V l=2 = -2*Zval/r beyond r=  2.5245
All V_l potentials equal beyond r=  2.4622
This should be close to max(r_c) in ps generation
All pots = -2*Zval/r beyond r=  2.5245

VLOCAL1: 99.0% of the norm of Vloc inside      7.160 Ry
VLOCAL1: 99.9% of the norm of Vloc inside     16.318 Ry
atom: Maximum radius for 4*pi*r*r*local-pseudopot. charge    2.86079
atom: Maximum radius for r*vlocal+2*Zval:    2.43160
GHOST: No ghost state for L =  0
GHOST: No ghost state for L =  1
GHOST: No ghost state for L =  2

KBgen: Kleinman-Bylander projectors: 
   l= 0   rc=  2.654023   el= -0.211234   Ekb=  1.742119   kbcos=  0.228463
   l= 1   rc=  2.721230   el= -0.080095   Ekb= -1.122375   kbcos= -0.147941
   l= 2   rc=  2.825246   el=  0.002001   Ekb= -0.207076   kbcos= -0.031965

KBgen: Total number of Kleinman-Bylander projectors:    9
atom: -------------------------------------------------------------------------

atom: SANKEY-TYPE ORBITALS:

SPLIT: Orbitals with angular momentum L= 0

SPLIT: Basis orbitals for state 2s

SPLIT: PAO cut-off radius determined from an
SPLIT: energy shift=  0.000735 Ry

   izeta = 1
                 lambda =    1.000000
                     rc =   11.897381
                 energy =   -0.210580
                kinetic =    0.143382
    potential(screened) =   -0.353962
       potential(ionic) =   -0.533453

POLgen: Perturbative polarization orbital with L=  1

POLgen: Polarization orbital for state 2s

   izeta = 1
                     rc =   11.897381
                 energy =   -0.027011
                kinetic =    0.282985
    potential(screened) =   -0.309997
       potential(ionic) =   -0.490997
atom: Total number of Sankey-type orbitals:  4

atm_pop: Valence configuration (for local Pseudopot. screening):
 2s( 1.00)                                                            
Vna: chval, zval:    1.00000   1.00000

Vna:  Cut-off radius for the neutral-atom potential:  11.897381
comcore: Pseudo-core radius Rcore=  3.450946

atom: _________________________________________________________________________

<basis_specs>
===============================================================================
C-gga                Z=   6    Mass=  12.010        Charge= 0.17977+309
Lmxo=1 Lmxkb= 2    BasisType=split      Semic=F
L=0  Nsemic=0  Cnfigmx=2
          i=1  nzeta=1  polorb=0  (2s)
            splnorm:   0.15000    
               vcte:    0.0000    
               rinn:    0.0000    
               qcoe:    0.0000    
               qyuk:    0.0000    
               qwid:   0.10000E-01
                rcs:    0.0000    
            lambdas:    1.0000    
L=1  Nsemic=0  Cnfigmx=2
          i=1  nzeta=1  polorb=1  (2p)
            splnorm:   0.15000    
               vcte:    0.0000    
               rinn:    0.0000    
               qcoe:    0.0000    
               qyuk:    0.0000    
               qwid:   0.10000E-01
                rcs:    0.0000    
            lambdas:    1.0000    
-------------------------------------------------------------------------------
L=0  Nkbl=1  erefs: 0.17977+309
L=1  Nkbl=1  erefs: 0.17977+309
L=2  Nkbl=1  erefs: 0.17977+309
===============================================================================
</basis_specs>

atom: Called for C-gga                 (Z =   6)

read_vps: Pseudopotential generation method:
read_vps: ATM 3.2.2 Troullier-Martins                       
Valence charge for ps generation:    4.00000

xc_check: Exchange-correlation functional:
xc_check: GGA Perdew, Burke & Ernzerhof 1996
V l=0 = -2*Zval/r beyond r=  1.5227
V l=1 = -2*Zval/r beyond r=  1.5227
V l=2 = -2*Zval/r beyond r=  1.5227
All V_l potentials equal beyond r=  1.4851
This should be close to max(r_c) in ps generation
All pots = -2*Zval/r beyond r=  1.5227

VLOCAL1: 99.0% of the norm of Vloc inside     19.682 Ry
VLOCAL1: 99.9% of the norm of Vloc inside     44.856 Ry
atom: Maximum radius for 4*pi*r*r*local-pseudopot. charge    1.79142
atom: Maximum radius for r*vlocal+2*Zval:    1.54183
GHOST: No ghost state for L =  0
GHOST: No ghost state for L =  1
GHOST: No ghost state for L =  2

KBgen: Kleinman-Bylander projectors: 
   l= 0   rc=  1.661951   el= -1.010689   Ekb=  5.289847   kbcos=  0.316429
   l= 1   rc=  1.661951   el= -0.388490   Ekb= -4.102504   kbcos= -0.351025
   l= 2   rc=  1.747182   el=  0.001971   Ekb= -1.006005   kbcos= -0.008530

KBgen: Total number of Kleinman-Bylander projectors:    9
atom: -------------------------------------------------------------------------

atom: SANKEY-TYPE ORBITALS:

SPLIT: Orbitals with angular momentum L= 0

SPLIT: Basis orbitals for state 2s

SPLIT: PAO cut-off radius determined from an
SPLIT: energy shift=  0.000735 Ry

   izeta = 1
                 lambda =    1.000000
                     rc =    5.948690
                 energy =   -1.010099
                kinetic =    0.827121
    potential(screened) =   -1.837220
       potential(ionic) =   -5.392783

SPLIT: Orbitals with angular momentum L= 1

SPLIT: Basis orbitals for state 2p

SPLIT: PAO cut-off radius determined from an
SPLIT: energy shift=  0.000735 Ry

   izeta = 1
                 lambda =    1.000000
                     rc =    7.638387
                 energy =   -0.387843
                kinetic =    2.314739
    potential(screened) =   -2.702582
       potential(ionic) =   -6.092371

POLgen: Perturbative polarization orbital with L=  2

POLgen: Polarization orbital for state 2p

   izeta = 1
                     rc =    7.638387
                 energy =    0.921402
                kinetic =    1.955040
    potential(screened) =   -1.033637
       potential(ionic) =   -3.679558
atom: Total number of Sankey-type orbitals:  9

atm_pop: Valence configuration (for local Pseudopot. screening):
 2s( 2.00)                                                            
 2p( 2.00)                                                            
Vna: chval, zval:    4.00000   4.00000

Vna:  Cut-off radius for the neutral-atom potential:   7.638387

atom: _________________________________________________________________________

prinput: Basis input ----------------------------------------------------------

PAO.BasisType split     

%block ChemicalSpeciesLabel
    1    3 Li-gga                  # Species index, atomic number, species label
    2    6 C-gga                   # Species index, atomic number, species label
%endblock ChemicalSpeciesLabel

%block PAO.Basis                 # Define Basis set
Li-gga                1                    # Species label, number of l-shells
 n=2   0   1 P   1                   # n, l, Nzeta, Polarization, NzetaPol
  11.897   
   1.000   
C-gga                 2                    # Species label, number of l-shells
 n=2   0   1                         # n, l, Nzeta 
   5.949   
   1.000   
 n=2   1   1 P   1                   # n, l, Nzeta, Polarization, NzetaPol
   7.638   
   1.000   
%endblock PAO.Basis

prinput: ----------------------------------------------------------------------

coor:   Atomic-coordinates input format  =     Cartesian coordinates
coor:                                          (in Angstroms)

siesta: Atomic coordinates (Bohr) and species
siesta:      0.00000   0.00000   0.00000  2        1
siesta:     -1.32825   2.30060   4.12513  1        2
siesta:     -2.74990   4.76296  20.62558  1        3
siesta:      2.74990   4.76296   4.12513  1        4
siesta:      1.32825   2.30060  20.62558  1        5
siesta:      2.65651   0.00000   4.12513  1        6
siesta:      5.49980   0.00000  20.62558  1        7
siesta:     -2.74990   4.76296   4.12513  1        8
siesta:     -1.32825   2.30060  20.62558  1        9
siesta:      1.32825   2.30060   4.12513  1       10
siesta:      2.74990   4.76296  20.62558  1       11
siesta:      5.49980   0.00000   4.12513  1       12
siesta:      2.65651   0.00000  20.62558  1       13
siesta:     -1.32825   2.30060  12.37535  1       14
siesta:     -2.74990   4.76296  12.37535  1       15
siesta:      2.74990   4.76296  12.37535  1       16
siesta:      1.32825   2.30060  12.37535  1       17
siesta:      2.65651   0.00000  12.37535  1       18
siesta:      5.49980   0.00000  12.37535  1       19

siesta: System type = bulk      

initatomlists: Number of atoms, orbitals, and projectors:     19    81   171

siesta: ******************** Simulation parameters ****************************
siesta:
siesta: The following are some of the parameters of the simulation.
siesta: A complete list of the parameters used, including default values,
siesta: can be found in file out.fdf
siesta:
redata: Spin configuration                          = none
redata: Number of spin components                   = 1
redata: Time-Reversal Symmetry                      = T
redata: Spin spiral                                 = F
redata: Long output                                 =   F
redata: Number of Atomic Species                    =        2
redata: Charge density info will appear in .RHO file
redata: Write Mulliken Pop.                         = NO
redata: Matel table size (NRTAB)                    =     1024
redata: Mesh Cutoff                                 =   300.0000 Ry
redata: Net charge of the system                    =     0.0000 |e|
redata: Min. number of SCF Iter                     =        0
redata: Max. number of SCF Iter                     =     1000
redata: SCF convergence failure will abort job
redata: SCF mix quantity                            = Hamiltonian
redata: Mix DM or H after convergence               =   F
redata: Recompute H after scf cycle                 =   F
redata: Mix DM in first SCF step                    =   T
redata: Write Pulay info on disk                    =   F
redata: New DM Occupancy tolerance                  = 0.000000000001
redata: No kicks to SCF
redata: DM Mixing Weight for Kicks                  =     0.5000
redata: Require Harris convergence for SCF          =   F
redata: Harris energy tolerance for SCF             =     0.000100 eV
redata: Require DM convergence for SCF              =   T
redata: DM tolerance for SCF                        =     0.001000
redata: Require EDM convergence for SCF             =   F
redata: EDM tolerance for SCF                       =     0.005000 eV
redata: Require H convergence for SCF               =   T
redata: Hamiltonian tolerance for SCF               =     0.001000 eV
redata: Require (free) Energy convergence for SCF   =   T
redata: (free) Energy tolerance for SCF             =     0.001000 eV
redata: Using Saved Data (generic)                  =   F
redata: Use continuation files for DM               =   F
redata: Neglect nonoverlap interactions             =   F
redata: Method of Calculation                       = Diagonalization
redata: Electronic Temperature                      =   299.9869 K
redata: Fix the spin of the system                  =   F
redata: Dynamics option                             = Single-point calculation
mix.SCF: Pulay mixing                            = Pulay
mix.SCF:    Variant                              = stable
mix.SCF:    History steps                        = 4
mix.SCF:    Linear mixing weight                 =     0.250000
mix.SCF:    Mixing weight                        =     0.250000
mix.SCF:    SVD condition                        = 0.1000E-07
redata: ***********************************************************************

%block SCF.Mixers
  Pulay
%endblock SCF.Mixers

%block SCF.Mixer.Pulay
  # Mixing method
  method pulay
  variant stable

  # Mixing options
  weight 0.2500
  weight.linear 0.2500
  history 4
%endblock SCF.Mixer.Pulay

DM_history_depth set to one: no extrapolation allowed by default for geometry relaxation
Size of DM history Fstack: 1
Total number of electrons:    22.000000
Total ionic charge:    22.000000

* ProcessorY, Blocksize:    4   1


* Orbital distribution balance (max,min):     6     5

 Kpoints in:           18 . Kpoints trimmed:           14

siesta: k-grid: Number of k-points =    14
siesta: k-grid: Cutoff (effective) =     6.474 Ang
siesta: k-grid: Supercell and displacements
siesta: k-grid:    3   0   0      0.000
siesta: k-grid:    0   3   0      0.000
siesta: k-grid:    0   0   3      0.000

diag: Algorithm                                     = Expert
diag: Parallel over k                               =   T
diag: Use parallel 2D distribution                  =   T
diag: Parallel block-size                           = 1
diag: Parallel distribution                         =     4 x     4
diag: Used triangular part                          = Lower
diag: Absolute tolerance                            =  0.100E-15
diag: Orthogonalization factor                      =  0.100E-05
diag: Memory factor                                 =  1.0000

superc: Internal auxiliary supercell:     9 x     9 x     3  =     243
superc: Number of atoms, orbitals, and projectors:   4617  19683  41553


ts: **************************************************************
ts: Save H and S matrices                           =    F
ts: Save DM and EDM matrices                        =    F
ts: Only save the overlap matrix S                  =    F
ts: **************************************************************

************************ Begin: TS CHECKS AND WARNINGS ************************
************************ End: TS CHECKS AND WARNINGS **************************


                     ====================================
                        Single-point calculation
                     ====================================

outcoor: Atomic coordinates (Ang):                          
    0.00000000    0.00000000    0.00000000   2       1  C-gga
   -0.70288177    1.21742694    2.18292196   1       2  Li-gga
   -1.45518323    2.52045129   10.91458362   1       3  Li-gga
    1.45518323    2.52045129    2.18292196   1       4  Li-gga
    0.70288177    1.21742694   10.91458362   1       5  Li-gga
    1.40576354    0.00000000    2.18292196   1       6  Li-gga
    2.91036646    0.00000000   10.91458362   1       7  Li-gga
   -1.45518323    2.52045129    2.18292196   1       8  Li-gga
   -0.70288177    1.21742694   10.91458362   1       9  Li-gga
    0.70288177    1.21742694    2.18292196   1      10  Li-gga
    1.45518323    2.52045129   10.91458362   1      11  Li-gga
    2.91036646    0.00000000    2.18292196   1      12  Li-gga
    1.40576354    0.00000000   10.91458362   1      13  Li-gga
   -0.70288177    1.21742694    6.54875279   1      14  Li-gga
   -1.45518323    2.52045129    6.54875279   1      15  Li-gga
    1.45518323    2.52045129    6.54875279   1      16  Li-gga
    0.70288177    1.21742694    6.54875279   1      17  Li-gga
    1.40576354    0.00000000    6.54875279   1      18  Li-gga
    2.91036646    0.00000000    6.54875279   1      19  Li-gga

superc: Internal auxiliary supercell:     9 x     9 x     3  =     243
superc: Number of atoms, orbitals, and projectors:   4617  19683  41553

outcell: Unit cell vectors (Ang):
        4.316130    0.000000    0.000000
       -2.158065    3.737878    0.000000
        0.000000    0.000000   13.097506

outcell: Cell vector modules (Ang)   :    4.316130    4.316130   13.097506
outcell: Cell angles (23,13,12) (deg):     90.0000     90.0000    120.0000
outcell: Cell volume (Ang**3)        :    211.3043
<dSpData1D:S at geom step 0
  <sparsity:sparsity for geom step 0
    nrows_g=81 nrows=6 sparsity=3.7927 nnzs=24884, refcount: 7>
  <dData1D:(new from dSpData1D) n=24884, refcount: 1>
refcount: 1>
new_DM -- step:     1
Initializing Density Matrix...
DM filled with atomic data:
<dSpData2D:DM initialized from atoms
  <sparsity:sparsity for geom step 0
    nrows_g=81 nrows=6 sparsity=3.7927 nnzs=24884, refcount: 8>
  <dData2D:DM n=24884 m=1, refcount: 1>
refcount: 1>
No. of atoms with KB's overlaping orbs in proc 0. Max # of overlaps:     390     696
New grid distribution:   1
           1       1:   20    1:    5    1:   18
           2       1:   20    1:    5   19:   36
           3       1:   20    1:    5   37:   54
           4       1:   20    1:    5   55:   72
           5       1:   20    6:   10    1:   18
           6       1:   20    6:   10   19:   36
           7       1:   20    6:   10   37:   54
           8       1:   20    6:   10   55:   72
           9       1:   20   11:   15    1:   18
          10       1:   20   11:   15   19:   36
          11       1:   20   11:   15   37:   54
          12       1:   20   11:   15   55:   72
          13       1:   20   16:   20    1:   18
          14       1:   20   16:   20   19:   36
          15       1:   20   16:   20   37:   54
          16       1:   20   16:   20   55:   72

InitMesh: MESH =    40 x    40 x   144 =      230400
InitMesh: (bp) =    20 x    20 x    72 =       28800
InitMesh: Mesh cutoff (required, used) =   300.000   316.498 Ry
ExtMesh (bp) on 0 =   156 x   141 x   158 =     3475368
New grid distribution:   2
           1      11:   20    1:   10    1:   17
           2      11:   20    1:   10   18:   36
           3       1:   10    1:   10   37:   55
           4       1:   10    1:   10   56:   72
           5       1:   10    1:   10    1:   17
           6       1:   10    1:   10   18:   36
           7      11:   20    1:   10   37:   55
           8      11:   20    1:   10   56:   72
           9      11:   20   11:   20    1:   17
          10      11:   20   11:   20   18:   36
          11       1:   10   11:   20   37:   55
          12       1:   10   11:   20   56:   72
          13       1:   10   11:   20    1:   17
          14       1:   10   11:   20   18:   36
          15      11:   20   11:   20   37:   55
          16      11:   20   11:   20   56:   72
New grid distribution:   3
           1       1:   10    1:   10    1:   18
           2       1:   10    1:   10   19:   36
           3       1:   10    1:   10   37:   54
           4       1:   10    1:   10   55:   72
           5      11:   20    1:   10    1:   18
           6      11:   20    1:   10   19:   36
           7      11:   20    1:   10   37:   54
           8      11:   20    1:   10   55:   72
           9       1:   10   11:   20    1:   18
          10       1:   10   11:   20   19:   36
          11       1:   10   11:   20   37:   54
          12       1:   10   11:   20   55:   72
          13      11:   20   11:   20    1:   18
          14      11:   20   11:   20   19:   36
          15      11:   20   11:   20   37:   54
          16      11:   20   11:   20   55:   72
Setting up quadratic distribution...
ExtMesh (bp) on 0 =   146 x   146 x   157 =     3346612
PhiOnMesh: Number of (b)points on node 0 =                 1700
PhiOnMesh: nlist on node 0 =               678533

stepf: Fermi-Dirac step function

siesta: Program's energy decomposition (eV):
siesta: Ebs     =      -320.430766
siesta: Eions   =       439.895300
siesta: Ena     =       149.037887
siesta: Ekin    =       176.577544
siesta: Enl     =        52.069621
siesta: Eso     =         0.000000
siesta: Edftu   =         0.000000
siesta: DEna    =        16.537559
siesta: DUscf   =        16.969790
siesta: DUext   =         0.000000
siesta: Exc     =      -199.913619
siesta: eta*DQ  =         0.000000
siesta: Emadel  =         0.000000
siesta: Emeta   =         0.000000
siesta: Emolmec =        -7.778197
siesta: Ekinion =         0.000000
siesta: Eharris =      -201.812482
siesta: Etot    =      -236.394714
siesta: FreeEng =      -236.410221

        iscf     Eharris(eV)        E_KS(eV)     FreeEng(eV)     dDmax    Ef(eV) dHmax(eV)
   scf:    1     -201.812482     -236.394714     -236.410221  1.464727-10.701306 17.354835
timer: Routine,Calls,Time,% = IterSCF        1       7.353  53.07
   scf:    2      490.597494      -27.167951      -27.183577  1.482396-10.097118 68.518562
   scf:    3     -289.577333     -236.109656     -236.143293  0.925778-11.016272 17.451073
   scf:    4     -246.787862     -241.923199     -241.944978  0.147765-11.023841 12.144577
   scf:    5     -179.449966     -230.799623     -230.825936  0.821750-10.709997 20.745815
   scf:    6     -253.081443     -244.620699     -244.676055  0.222112-10.903977  8.620610
   scf:    7     -243.895009     -246.902603     -246.961285  0.296203-10.960902  3.067045
   scf:    8     -245.553795     -246.324460     -246.376692  0.068445-10.970748  5.326244
   scf:    9     -246.570052     -246.452175     -246.503881  0.011757-10.961464  5.247295
   scf:   10     -247.210603     -246.861506     -246.910624  0.019904-10.952161  4.482570
   scf:   11     -247.902182     -247.508705     -247.560936  0.054978-10.944473  1.843763
   scf:   12     -247.480180     -247.638482     -247.692121  0.058437-10.939973  0.830181
   scf:   13     -247.182733     -247.541047     -247.590096  0.070363-10.952609  1.823990
   scf:   14     -247.673525     -247.615594     -247.666011  0.016491-10.951660  1.160385
   scf:   15     -247.667562     -247.665632     -247.717842  0.029085-10.947299  0.030097
   scf:   16     -247.664053     -247.665188     -247.717527  0.003483-10.947857  0.104390
   scf:   17     -247.665695     -247.665611     -247.717916  0.002134-10.948765  0.009595
   scf:   18     -247.665805     -247.665717     -247.717913  0.000615-10.948862  0.007533
   scf:   19     -247.665604     -247.665695     -247.717850  0.000913-10.949707  0.041653
   scf:   20     -247.665463     -247.665640     -247.717915  0.001609-10.949054  0.015114
   scf:   21     -247.665641     -247.665641     -247.717918  0.000069-10.949133  0.012174
   scf:   22     -247.665667     -247.665655     -247.717922  0.000165-10.949309  0.004799
   scf:   23     -247.665659     -247.665657     -247.717923  0.000181-10.949438  0.000265

SCF Convergence by FreeE+DM+H criterion
|FreeE_i-FreeE_(i-1)| (eV) <     0.00100000
max |DM_out - DM_in|         :     0.0001811791
max |H_out - H_in|      (eV) :     0.0002653694
SCF cycle converged after 23 iterations

Using DM_out to compute the final energy and forces
No. of atoms with KB's overlaping orbs in proc 0. Max # of overlaps:     390     696

MM-Stress (kbar):      -10.65      -10.65       25.89        0.00        0.00       -0.00

siesta: E_KS(eV) =             -247.6657

siesta: E_KS - E_eggbox =      -247.6657

siesta: Atomic forces (eV/Ang):
     1    0.000000   -0.000000   -0.000021
     2   -0.179003    0.310065   -0.526499
     3    0.178998   -0.310055    0.526510
     4   -0.179062   -0.310144   -0.526572
     5    0.179056    0.310134    0.526583
     6    0.358026    0.000011   -0.526499
     7   -0.358014   -0.000011    0.526510
     8    0.179003   -0.310065   -0.526499
     9   -0.178998    0.310055    0.526510
    10    0.179062    0.310144   -0.526572
    11   -0.179056   -0.310134    0.526583
    12   -0.358026   -0.000011   -0.526499
    13    0.358014    0.000011    0.526510
    14   -0.164710    0.285220   -0.000007
    15    0.164710   -0.285220   -0.000007
    16   -0.164718   -0.285301   -0.000007
    17    0.164718    0.285301   -0.000007
    18    0.329363   -0.000033   -0.000007
    19   -0.329363    0.000033   -0.000007
----------------------------------------
   Tot    0.000000   -0.000000    0.000000
----------------------------------------
   Max    0.526583
   Res    0.311087    sqrt( Sum f_i^2 / 3N )
----------------------------------------
   Max    0.526583    constrained

Stress tensor Voigt[x,y,z,yz,xz,xy] (kbar):     -980.70     -980.71      284.67       -0.00       -0.00       -0.01
(Free)E + p*V (eV/cell)     -174.0060
Target enthalpy (eV/cell)     -247.7179

siesta: Eigenvalues (eV):
  ik is       eps
   1  1  -19.7481  -14.3532  -12.7660  -12.7660  -11.9575  -11.9575  -11.7178  -11.7178  -11.5893  -11.2065
         -10.7811  -10.7811  -10.3100   -8.6048   -8.6048   -8.1335   -7.3246   -7.3245   -6.6760   -6.6759
   -5.6087   -3.8727   -3.5996   -2.9787   -2.8919   -2.8919   -2.7844   -2.2533   -2.2533   -1.5652
   -1.5652    2.5835    2.5835    3.1975    4.2051    4.2051    4.3447    4.5120    4.5121    4.8345
    5.1941    5.1941    5.9464    5.9464    5.9907    6.2546    9.9245    9.9246   11.5761   13.8919
   13.8919   14.3664   14.3664   14.4374   14.9369   15.3325   15.3325   16.9680   18.5809   19.0690
   19.0692   21.2659   21.2659   21.4014   21.4016   21.9704   22.9000   22.9001   22.9249   23.8601
   32.7260   32.7260   40.4057   40.4057   40.8305   40.8306   43.2081   43.2081   44.0483   44.3497
   46.4578
   2  1  -19.8537  -14.5173  -13.1861  -12.6828  -12.5184  -11.7960  -11.5144  -11.4746  -11.4157  -11.1620
         -11.0128  -10.9940  -10.8615  -10.0852   -8.0315   -7.7489   -6.8260   -5.9684   -5.6125   -5.4169
   -4.7255   -4.3213   -4.1073   -3.3103   -3.2677   -2.7928   -2.7586   -2.5842   -2.5485   -1.6047
   -1.1960   -0.6808   -0.2431   -0.0092    0.1036    0.3217    0.8105    4.3190    4.6242    4.8210
    6.2860    6.6325    6.9515    7.0718    7.4609   10.1532   10.6023   12.2867   12.4991   12.5499
   13.0528   15.2449   15.6374   16.4178   16.5591   18.0666   18.3567   19.5574   20.7058   20.8441
   23.0720   23.5731   24.0805   25.4397   25.4835   25.8434   26.2434   26.6696   27.0243   28.2516
   33.0690   39.5390   47.2134   47.4712   47.8364   50.7623   51.3797   51.8471   53.2596   54.1252
   54.5343
   3  1  -19.8537  -14.5173  -13.1861  -12.6828  -12.5184  -11.7960  -11.5144  -11.4746  -11.4157  -11.1620
         -11.0128  -10.9940  -10.8615  -10.0852   -8.0315   -7.7488   -6.8260   -5.9684   -5.6125   -5.4169
   -4.7255   -4.3213   -4.1072   -3.3103   -3.2677   -2.7928   -2.7586   -2.5842   -2.5485   -1.6046
   -1.1960   -0.6808   -0.2431   -0.0092    0.1036    0.3217    0.8105    4.3190    4.6242    4.8210
    6.2859    6.6325    6.9515    7.0718    7.4609   10.1532   10.6023   12.2867   12.4991   12.5500
   13.0527   15.2449   15.6374   16.4178   16.5591   18.0664   18.3568   19.5574   20.7058   20.8442
   23.0723   23.5730   24.0805   25.4397   25.4834   25.8434   26.2434   26.6695   27.0244   28.2515
   33.0688   39.5389   47.2133   47.4712   47.8363   50.7623   51.3797   51.8472   53.2596   54.1252
   54.5343
   4  1  -19.8537  -14.5173  -13.1861  -12.6828  -12.5184  -11.7960  -11.5144  -11.4746  -11.4157  -11.1620
         -11.0128  -10.9940  -10.8615  -10.0852   -8.0315   -7.7489   -6.8260   -5.9684   -5.6125   -5.4169
   -4.7255   -4.3213   -4.1073   -3.3103   -3.2677   -2.7928   -2.7586   -2.5842   -2.5485   -1.6047
   -1.1960   -0.6808   -0.2431   -0.0092    0.1036    0.3217    0.8105    4.3190    4.6242    4.8210
    6.2860    6.6325    6.9515    7.0718    7.4609   10.1532   10.6023   12.2867   12.4991   12.5499
   13.0528   15.2449   15.6374   16.4178   16.5591   18.0666   18.3567   19.5574   20.7058   20.8441
   23.0720   23.5731   24.0805   25.4397   25.4835   25.8434   26.2434   26.6696   27.0243   28.2516
   33.0690   39.5390   47.2134   47.4712   47.8364   50.7623   51.3797   51.8471   53.2596   54.1252
   54.5343
   5  1  -19.9962  -14.4913  -13.3719  -12.9177  -12.3331  -11.7475  -11.6611  -11.0777  -11.0264  -10.9460
         -10.8451  -10.7251  -10.7250  -10.5592   -8.9563   -5.9745   -4.6287   -4.6287   -4.0806   -4.0806
   -3.8841   -3.8841   -3.8579   -3.8579   -3.6768   -3.6767   -2.6181   -2.6181   -1.9191   -1.9191
   -1.8020   -1.8020   -1.4477   -1.4477    0.6321    0.6321    1.3829    1.3831    1.3836    1.3836
    6.1386   12.6486   12.6487   16.1292   16.1293   17.8042   17.8042   18.1333   18.1333   19.8610
   19.8610   20.0878   20.0878   21.3892   21.3893   21.7537   21.7538   22.0840   22.0840   24.4409
   24.7210   25.5969   27.8858   27.8863   30.0649   30.0649   33.1452   33.1453   34.9456   34.9457
   38.5311   39.1321   43.2740   43.2741   44.9973   46.5110   46.7666   47.1189   48.6797   49.0355
   57.9993
   6  1  -19.7481  -14.3546  -12.7628  -12.7628  -11.9772  -11.9772  -11.6765  -11.6765  -11.5559  -11.2808
         -10.8219  -10.8219  -10.2255   -8.3974   -8.3974   -8.2679   -7.7981   -7.7981   -6.3912   -6.3911
   -5.3505   -4.0821   -3.5884   -2.9994   -2.9432   -2.9431   -2.7329   -2.1979   -2.1979   -1.5946
   -1.5945    2.9107    2.9107    3.6040    3.6202    3.7615    3.7615    4.2283    4.2284    4.7737
    5.9141    5.9141    6.4623    6.4624    6.6000    7.0404    8.3960    8.3960    9.5844   13.1730
   13.1730   14.4548   14.5013   14.5014   15.3387   15.7990   15.7990   17.4382   18.3247   20.1376
   20.1378   21.1004   21.1006   21.5070   21.5071   22.1323   22.7310   22.7310   23.1360   23.6486
   32.8328   32.8328   39.9235   39.9236   41.7110   41.7111   42.8103   42.8104   43.5877   45.1509
   46.1163
   7  1  -19.8540  -14.5230  -13.1528  -12.8054  -12.3305  -12.0095  -11.4807  -11.4684  -11.4414  -11.0072
         -10.9940  -10.9698  -10.8667  -10.1914   -7.9559   -7.6223   -7.1645   -5.6629   -5.5918   -5.3047
   -4.9693   -4.6162   -3.6624   -3.3272   -3.2754   -3.0723   -2.7977   -2.6267   -2.2963   -1.3829
   -1.2002   -0.6504   -0.5980   -0.2603    0.2319    0.2855    0.8764    3.8322    4.7396    5.8468
    6.0322    6.4218    6.9956    7.4541    7.8476    9.2088   10.2146   11.6668   12.9838   13.1778
   13.4725   14.6601   15.7208   16.2771   16.8070   18.2641   18.9354   19.4366   19.4939   21.5359
   23.0188   23.2997   24.4502   25.3465   25.5303   25.7413   26.0696   27.1644   27.2410   28.1077
   33.0678   39.5303   47.1900   47.3981   48.0129   50.8545   51.1183   52.0718   53.4052   53.8136
   54.6896
   8  1  -19.8540  -14.5230  -13.1528  -12.8054  -12.3305  -12.0095  -11.4807  -11.4684  -11.4414  -11.0072
         -10.9941  -10.9697  -10.8667  -10.1914   -7.9559   -7.6222   -7.1645   -5.6629   -5.5918   -5.3048
   -4.9693   -4.6162   -3.6624   -3.3272   -3.2754   -3.0723   -2.7977   -2.6266   -2.2964   -1.3829
   -1.2002   -0.6504   -0.5980   -0.2604    0.2319    0.2855    0.8764    3.8322    4.7396    5.8468
    6.0321    6.4218    6.9955    7.4541    7.8476    9.2088   10.2147   11.6668   12.9839   13.1779
   13.4724   14.6601   15.7207   16.2771   16.8070   18.2642   18.9352   19.4367   19.4938   21.5359
   23.0190   23.2997   24.4501   25.3465   25.5303   25.7413   26.0696   27.1644   27.2410   28.1077
   33.0676   39.5302   47.1899   47.3980   48.0129   50.8545   51.1183   52.0718   53.4051   53.8136
   54.6897
   9  1  -19.8540  -14.5230  -13.1528  -12.8054  -12.3305  -12.0095  -11.4807  -11.4684  -11.4414  -11.0072
         -10.9940  -10.9698  -10.8667  -10.1914   -7.9559   -7.6223   -7.1645   -5.6629   -5.5918   -5.3047
   -4.9693   -4.6162   -3.6624   -3.3272   -3.2754   -3.0723   -2.7977   -2.6267   -2.2963   -1.3829
   -1.2002   -0.6504   -0.5980   -0.2603    0.2319    0.2855    0.8764    3.8322    4.7396    5.8468
    6.0322    6.4218    6.9956    7.4541    7.8476    9.2088   10.2146   11.6668   12.9838   13.1778
   13.4725   14.6601   15.7208   16.2771   16.8070   18.2641   18.9354   19.4366   19.4939   21.5359
   23.0188   23.2997   24.4502   25.3465   25.5303   25.7413   26.0696   27.1644   27.2410   28.1077
   33.0678   39.5303   47.1900   47.3981   48.0129   50.8545   51.1183   52.0718   53.4052   53.8136
   54.6896
  10  1  -20.0021  -14.4708  -13.3169  -13.0038  -12.2422  -11.9656  -11.4159  -11.0699  -10.9776  -10.9760
         -10.8131  -10.7251  -10.7250  -10.5626   -8.8915   -6.0231   -4.5871   -4.5871   -4.2390   -4.2390
   -3.9696   -3.9696   -3.6848   -3.6848   -3.4514   -3.4514   -2.9949   -2.9949   -2.2925   -2.2925
   -1.3028   -1.3028   -0.5410   -0.5410   -0.2332   -0.2331    0.7092    0.7092    1.8839    1.8841
    6.4142   13.8266   13.8268   15.7847   15.7848   18.0100   18.0101   18.7608   18.7608   18.8458
   18.8459   19.3499   19.3499   20.4977   20.4977   21.6974   21.6974   23.3976   23.3977   24.4657
   24.8257   25.4457   27.8108   27.8114   29.9622   29.9622   33.7081   33.7081   34.6205   34.6206
   37.0741   42.7879   43.2388   43.2388   45.1712   46.4751   47.0796   47.1326   48.0355   49.3156
   51.6388
  11  1  -19.8540  -14.5230  -13.1528  -12.8054  -12.3305  -12.0095  -11.4807  -11.4684  -11.4414  -11.0072
         -10.9940  -10.9698  -10.8667  -10.1914   -7.9559   -7.6223   -7.1645   -5.6629   -5.5918   -5.3047
   -4.9693   -4.6162   -3.6624   -3.3272   -3.2754   -3.0723   -2.7977   -2.6267   -2.2963   -1.3829
   -1.2002   -0.6504   -0.5980   -0.2603    0.2319    0.2855    0.8764    3.8322    4.7396    5.8468
    6.0322    6.4218    6.9956    7.4541    7.8476    9.2088   10.2146   11.6668   12.9838   13.1778
   13.4725   14.6601   15.7208   16.2771   16.8070   18.2641   18.9354   19.4366   19.4939   21.5359
   23.0188   23.2997   24.4502   25.3465   25.5303   25.7413   26.0696   27.1644   27.2410   28.1077
   33.0678   39.5303   47.1900   47.3981   48.0129   50.8545   51.1183   52.0718   53.4052   53.8136
   54.6896
  12  1  -19.8540  -14.5230  -13.1528  -12.8054  -12.3305  -12.0095  -11.4807  -11.4684  -11.4414  -11.0072
         -10.9941  -10.9697  -10.8667  -10.1914   -7.9559   -7.6222   -7.1645   -5.6629   -5.5918   -5.3048
   -4.9693   -4.6162   -3.6624   -3.3272   -3.2754   -3.0723   -2.7977   -2.6266   -2.2964   -1.3829
   -1.2002   -0.6504   -0.5980   -0.2604    0.2319    0.2855    0.8764    3.8322    4.7396    5.8468
    6.0321    6.4218    6.9955    7.4541    7.8476    9.2088   10.2147   11.6668   12.9839   13.1779
   13.4724   14.6601   15.7207   16.2771   16.8070   18.2642   18.9352   19.4367   19.4938   21.5359
   23.0190   23.2997   24.4501   25.3465   25.5303   25.7413   26.0696   27.1644   27.2410   28.1077
   33.0676   39.5302   47.1899   47.3980   48.0129   50.8545   51.1183   52.0718   53.4051   53.8136
   54.6897
  13  1  -19.8540  -14.5230  -13.1528  -12.8054  -12.3305  -12.0095  -11.4807  -11.4684  -11.4414  -11.0072
         -10.9940  -10.9698  -10.8667  -10.1914   -7.9559   -7.6223   -7.1645   -5.6629   -5.5918   -5.3047
   -4.9693   -4.6162   -3.6624   -3.3272   -3.2754   -3.0723   -2.7977   -2.6267   -2.2963   -1.3829
   -1.2002   -0.6504   -0.5980   -0.2603    0.2319    0.2855    0.8764    3.8322    4.7396    5.8468
    6.0322    6.4218    6.9956    7.4541    7.8476    9.2088   10.2146   11.6668   12.9838   13.1778
   13.4725   14.6601   15.7208   16.2771   16.8070   18.2641   18.9354   19.4366   19.4939   21.5359
   23.0188   23.2997   24.4502   25.3465   25.5303   25.7413   26.0696   27.1644   27.2410   28.1077
   33.0678   39.5303   47.1900   47.3981   48.0129   50.8545   51.1183   52.0718   53.4052   53.8136
   54.6896
  14  1  -19.7481  -14.3546  -12.7628  -12.7628  -11.9772  -11.9772  -11.6765  -11.6765  -11.5559  -11.2808
         -10.8219  -10.8219  -10.2255   -8.3974   -8.3974   -8.2679   -7.7981   -7.7981   -6.3912   -6.3911
   -5.3505   -4.0821   -3.5884   -2.9994   -2.9432   -2.9431   -2.7329   -2.1979   -2.1979   -1.5946
   -1.5945    2.9107    2.9107    3.6040    3.6202    3.7615    3.7615    4.2283    4.2284    4.7737
    5.9141    5.9141    6.4623    6.4624    6.6000    7.0404    8.3960    8.3960    9.5844   13.1730
   13.1730   14.4548   14.5013   14.5014   15.3387   15.7990   15.7990   17.4382   18.3247   20.1376
   20.1378   21.1004   21.1006   21.5070   21.5071   22.1323   22.7310   22.7310   23.1360   23.6486
   32.8328   32.8328   39.9235   39.9236   41.7110   41.7111   42.8103   42.8104   43.5877   45.1509
   46.1163
siesta: Fermi energy =     -10.949438 eV

siesta: Program's energy decomposition (eV):
siesta: Ebs     =      -281.879019
siesta: Eions   =       439.895300
siesta: Ena     =       149.037887
siesta: Ekin    =       200.238519
siesta: Enl     =        43.215372
siesta: Eso     =         0.000000
siesta: Edftu   =         0.000000
siesta: DEna    =         8.289706
siesta: DUscf   =         2.845408
siesta: DUext   =         0.000000
siesta: Exc     =      -203.619052
siesta: eta*DQ  =         0.000000
siesta: Emadel  =         0.000000
siesta: Emeta   =         0.000000
siesta: Emolmec =        -7.778197
siesta: Ekinion =         0.000000
siesta: Eharris =      -247.665659
siesta: Etot    =      -247.665657
siesta: FreeEng =      -247.717923

siesta: Final energy (eV):
siesta:  Band Struct. =    -281.879019
siesta:       Kinetic =     200.238519
siesta:       Hartree =     107.334749
siesta:       Edftu   =       0.000000
siesta:       Eso     =       0.000000
siesta:    Ext. field =       0.000000
siesta:   Exch.-corr. =    -203.619052
siesta:  Ion-electron =    -491.936263
siesta:       Ion-ion =     148.094588
siesta:       Ekinion =       0.000000
siesta:         Total =    -247.665657
siesta:         Fermi =     -10.949438

siesta: Atomic forces (eV/Ang):
siesta:      1    0.000000   -0.000000   -0.000021
siesta:      2   -0.179003    0.310065   -0.526499
siesta:      3    0.178998   -0.310055    0.526510
siesta:      4   -0.179062   -0.310144   -0.526572
siesta:      5    0.179056    0.310134    0.526583
siesta:      6    0.358026    0.000011   -0.526499
siesta:      7   -0.358014   -0.000011    0.526510
siesta:      8    0.179003   -0.310065   -0.526499
siesta:      9   -0.178998    0.310055    0.526510
siesta:     10    0.179062    0.310144   -0.526572
siesta:     11   -0.179056   -0.310134    0.526583
siesta:     12   -0.358026   -0.000011   -0.526499
siesta:     13    0.358014    0.000011    0.526510
siesta:     14   -0.164710    0.285220   -0.000007
siesta:     15    0.164710   -0.285220   -0.000007
siesta:     16   -0.164718   -0.285301   -0.000007
siesta:     17    0.164718    0.285301   -0.000007
siesta:     18    0.329363   -0.000033   -0.000007
siesta:     19   -0.329363    0.000033   -0.000007
siesta: ----------------------------------------
siesta:    Tot    0.000000   -0.000000    0.000000

siesta: Stress tensor (static) (eV/Ang**3):
siesta:    -0.612099   -0.000004   -0.000000
siesta:    -0.000004   -0.612103   -0.000000
siesta:    -0.000000   -0.000000    0.177675

siesta: Cell volume =        211.304262 Ang**3

siesta: Pressure (static):
siesta:                Solid            Molecule  Units
siesta:           0.00379934          0.00340648  Ry/Bohr**3
siesta:           0.34884241          0.31277146  eV/Ang**3
siesta:         558.91319235        501.12054323  kBar
(Free)E+ p_basis*V_orbitals  =        -199.889606
(Free)Eharris+ p_basis*V_orbitals  =        -199.889608

cite: Please see "LiC18_scf.bib" for an exhaustive BiBTeX file.
cite: Please clearly indicate Siesta version in published work: 4.1.5
cite: This calculation has made use of the following articles
cite: which are encouraged to be cited in a published work.
        Primary SIESTA paper
          DOI: www.doi.org/10.1088/0953-8984/14/11/302

>> End of run:   9-NOV-2022  12:09:32
Job completed
